Title
34384
    1SER      N    1   5.578   4.405   3.420
    1SER    HT1    2   5.648   4.331   3.402
    1SER    HT2    3   5.627   4.495   3.442
    1SER    HT3    4   5.521   4.418   3.334
    1SER     CA    5   5.482   4.368   3.529
    1SER     HA    6   5.533   4.377   3.624
    1SER     CB    7   5.358   4.463   3.523
    1SER    HB1    8   5.390   4.564   3.555
    1SER    HB2    9   5.279   4.430   3.594
    1SER     OG   10   5.305   4.475   3.391
    1SER    HG1   11   5.228   4.418   3.383
    1SER      C   12   5.437   4.225   3.516
    1SER      O   13   5.444   4.168   3.407
    2GLY      N   14   5.390   4.163   3.626
    2GLY     HN   15   5.393   4.207   3.714
    2GLY     CA   16   5.317   4.036   3.619
    2GLY    HA1   17   5.295   4.005   3.720
    2GLY    HA2   18   5.376   3.964   3.564
    2GLY      C   19   5.185   4.052   3.548
    2GLY      O   20   5.131   4.162   3.541
    3ASP      N   21   5.129   3.940   3.498
    3ASP     HN   22   5.180   3.855   3.486
    3ASP     CA   23   4.995   3.929   3.442
    3ASP     HA   24   4.997   3.980   3.347
    3ASP     CB   25   4.953   3.779   3.419
    3ASP    HB1   26   4.856   3.776   3.365
    3ASP    HB2   27   4.940   3.729   3.518
    3ASP     CG   28   5.051   3.694   3.341
    3ASP    OD1   29   5.163   3.740   3.308
    3ASP    OD2   30   5.019   3.574   3.317
    3ASP      C   31   4.887   3.997   3.527
    3ASP      O   32   4.900   4.015   3.649
    4SER      N   33   4.774   4.036   3.466
    4SER     HN   34   4.766   4.034   3.367
    4SER     CA   35   4.655   4.072   3.543
    4SER     HA   36   4.684   4.150   3.612
    4SER     CB   37   4.537   4.126   3.458
    4SER    HB1   38   4.450   4.150   3.522
    4SER    HB2   39   4.506   4.049   3.385
    4SER     OG   40   4.576   4.244   3.387
    4SER    HG1   41   4.604   4.309   3.452
    4SER      C   42   4.605   3.955   3.626
    4SER      O   43   4.609   3.839   3.585
    5GLY      N   44   4.557   3.983   3.749
    5GLY     HN   45   4.564   4.075   3.787
    5GLY     CA   46   4.498   3.884   3.837
    5GLY    HA1   47   4.466   3.937   3.925
    5GLY    HA2   48   4.573   3.810   3.857
    5GLY      C   49   4.376   3.814   3.780
    5GLY      O   50   4.326   3.848   3.673
    6PRO      N   51   4.322   3.714   3.849
    6PRO     CD   52   4.367   3.678   3.984
    6PRO    HD1   53   4.375   3.768   4.049
    6PRO    HD2   54   4.466   3.626   3.979
    6PRO     CA   55   4.186   3.671   3.824
    6PRO     HA   56   4.177   3.640   3.721
    6PRO     CB   57   4.167   3.554   3.922
    6PRO    HB1   58   4.202   3.461   3.873
    6PRO    HB2   59   4.061   3.540   3.953
    6PRO     CG   60   4.259   3.586   4.042
    6PRO    HG1   61   4.201   3.640   4.119
    6PRO    HG2   62   4.303   3.494   4.087
    6PRO      C   63   4.085   3.784   3.844
    6PRO      O   64   4.098   3.861   3.939
    7GLY      N   65   3.984   3.796   3.754
    7GLY     HN   66   3.983   3.739   3.673
    7GLY     CA   67   3.870   3.887   3.772
    7GLY    HA1   68   3.799   3.864   3.693
    7GLY    HA2   69   3.907   3.988   3.767
    7GLY      C   70   3.797   3.871   3.903
    7GLY      O   71   3.805   3.768   3.970
    8ASP      N   72   3.720   3.974   3.943
    8ASP     HN   73   3.719   4.059   3.890
    8ASP     CA   74   3.636   3.970   4.061
    8ASP     HA   75   3.703   3.947   4.143
    8ASP     CB   76   3.564   4.105   4.092
    8ASP    HB1   77   3.493   4.091   4.176
    8ASP    HB2   78   3.506   4.136   4.002
    8ASP     CG   79   3.654   4.221   4.130
    8ASP    OD1   80   3.765   4.236   4.073
    8ASP    OD2   81   3.606   4.309   4.207
    8ASP      C   82   3.530   3.859   4.050
    8ASP      O   83   3.484   3.828   3.939
    9PRO      N   84   3.487   3.793   4.159
    9PRO     CD   85   3.541   3.811   4.294
    9PRO    HD1   86   3.503   3.907   4.334
    9PRO    HD2   87   3.652   3.809   4.295
    9PRO     CA   88   3.363   3.715   4.161
    9PRO     HA   89   3.380   3.630   4.096
    9PRO     CB   90   3.345   3.674   4.309
    9PRO    HB1   91   3.310   3.569   4.318
    9PRO    HB2   92   3.272   3.740   4.360
    9PRO     CG   93   3.483   3.694   4.373
    9PRO    HG1   94   3.476   3.714   4.482
    9PRO    HG2   95   3.546   3.604   4.356
    9PRO      C   96   3.241   3.788   4.106
    9PRO      O   97   3.224   3.907   4.134
   10GLY      N   98   3.156   3.719   4.027
   10GLY     HN   99   3.178   3.625   4.003
   10GLY     CA  100   3.030   3.774   3.977
   10GLY    HA1  101   2.985   3.698   3.916
   10GLY    HA2  102   3.053   3.864   3.922
   10GLY      C  103   2.928   3.812   4.083
   10GLY      O  104   2.937   3.775   4.200
   11ASP      N  105   2.822   3.885   4.042
   11ASP     HN  106   2.818   3.923   3.950
   11ASP     CA  107   2.706   3.914   4.124
   11ASP     HA  108   2.741   3.966   4.212
   11ASP     CB  109   2.605   4.006   4.049
   11ASP    HB1  110   2.509   4.011   4.104
   11ASP    HB2  111   2.585   3.965   3.947
   11ASP     CG  112   2.652   4.149   4.034
   11ASP    OD1  113   2.732   4.196   4.119
   11ASP    OD2  114   2.598   4.221   3.945
   11ASP      C  115   2.633   3.788   4.174
   11ASP      O  116   2.610   3.691   4.100
   12SER      N  117   2.594   3.785   4.303
   12SER     HN  118   2.616   3.860   4.364
   12SER     CA  119   2.508   3.681   4.358
   12SER     HA  120   2.552   3.585   4.333
   12SER     CB  121   2.491   3.689   4.512
   12SER    HB1  122   2.592   3.687   4.559
   12SER    HB2  123   2.435   3.601   4.549
   12SER     OG  124   2.424   3.810   4.552
   12SER    HG1  125   2.359   3.826   4.483
   12SER      C  126   2.368   3.683   4.296
   12SER      O  127   2.310   3.790   4.279
   13GLY      N  128   2.310   3.565   4.266
   13GLY     HN  129   2.357   3.479   4.285
   13GLY     CA  130   2.177   3.554   4.207
   13GLY    HA1  131   2.176   3.461   4.153
   13GLY    HA2  132   2.158   3.638   4.143
   13GLY      C  133   2.062   3.547   4.310
   13GLY    OT1  134   2.079   3.587   4.428
   13GLY    OT2  135   1.953   3.498   4.271
   14LIT    LIT  136   1.402   5.745   2.897
   15LIT    LIT  137   0.383   4.119   4.035
   16LIT    LIT  138   0.501   5.664   0.869
   17LIT    LIT  139   4.134   4.389   3.903
   18LIT    LIT  140   1.163   2.328   3.888
   19LIT    LIT  141   6.612   1.892   1.104
   20LIT    LIT  142   1.927   1.617   3.144
   21LIT    LIT  143   0.077   4.730   1.942
   22LIT    LIT  144   1.365   1.705   2.751
   23LIT    LIT  145   0.664   1.757   1.315
   24LIT    LIT  146   5.799   1.609   5.898
   25LIT    LIT  147   5.249   3.956   5.261
   26LIT    LIT  148   4.281   0.144   0.779
   27LIT    LIT  149   7.731   3.497   2.603
   28LIT    LIT  150   5.436   6.884   1.472
   29LIT    LIT  151   1.739   3.636   5.082
   30LIT    LIT  152   4.862   0.398   5.797
   31LIT    LIT  153   3.883   0.924   4.509
   32LIT    LIT  154   1.973   1.177   2.407
   33LIT    LIT  155   5.232   5.830   0.269
   34LIT    LIT  156   4.133   0.367   1.747
   35LIT    LIT  157   2.765   5.747   2.332
   36LIT    LIT  158   4.524   1.039   2.413
   37LIT    LIT  159   7.323   3.789   2.545
   38LIT    LIT  160   6.204   5.146   2.642
   39LIT    LIT  161   3.958   1.224   2.134
   40LIT    LIT  162   5.219   6.741   5.562
   41LIT    LIT  163   6.610   5.943   5.361
   42LIT    LIT  164   2.777   0.458   3.348
   43LIT    LIT  165   0.891   7.169   3.486
   44LIT    LIT  166   1.985   0.320   5.030
   45LIT    LIT  167   3.462   5.081   4.272
   46LIT    LIT  168   0.767   3.804   0.237
   47LIT    LIT  169   2.269   4.555   4.021
   48LIT    LIT  170   4.870   1.161   0.745
   49CLA    CLA  171   0.265   4.480   4.088
   50CLA    CLA  172   1.080   2.284   2.281
   51CLA    CLA  173   2.943   3.123   3.566
   52CLA    CLA  174   4.873   0.113   5.948
   53CLA    CLA  175   4.697   1.417   4.404
   54CLA    CLA  176   4.302   5.166   6.321
   55CLA    CLA  177   6.204   5.548   4.442
   56CLA    CLA  178   6.949   4.908   1.357
   57CLA    CLA  179   6.038   0.750   4.149
   58CLA    CLA  180   5.743   4.110   5.617
   59CLA    CLA  181   3.406   4.227   5.562
   60CLA    CLA  182   4.223   1.017   2.708
   61CLA    CLA  183   7.307   5.818   5.088
   62CLA    CLA  184   1.993   0.386   4.087
   63CLA    CLA  185   2.244   4.571   3.121
   64CLA    CLA  186   0.422   3.661   5.262
   65CLA    CLA  187   5.035   6.877   5.550
   66CLA    CLA  188   3.719   4.986   3.390
   67CLA    CLA  189   1.692   1.375   2.641
   68CLA    CLA  190   7.774   3.549   4.920
   69CLA    CLA  191   2.825   1.864   0.991
   70CLA    CLA  192   0.862   2.416   3.800
   71CLA    CLA  193   2.597   2.064   0.394
   72CLA    CLA  194   4.789   1.236   0.942
   73CLA    CLA  195   0.631   5.245   1.464
   74CLA    CLA  196   1.880   1.432   3.267
   75CLA    CLA  197   1.982   0.207   5.245
   76CLA    CLA  198   5.277   5.535   0.612
   77CLA    CLA  199   1.402   7.265   1.593
   78CLA    CLA  200   5.637   7.101   5.397
   79CLA    CLA  201   4.006   0.869   1.754
   80CLA    CLA  202   1.368   2.395   3.953
   81TIP3   OH2  203   0.818   6.840   2.199
   81TIP3    H1  204   0.764   6.771   2.159
   81TIP3    H2  205   0.881   6.862   2.132
   82TIP3   OH2  206   3.076   0.187   2.035
   82TIP3    H1  207   3.062   0.117   1.971
   82TIP3    H2  208   3.049   0.266   1.989
   83TIP3   OH2  209   0.763   7.125   1.900
   83TIP3    H1  210   0.675   7.149   1.928
   83TIP3    H2  211   0.765   7.143   1.806
   84TIP3   OH2  212   3.321   0.533   2.126
   84TIP3    H1  213   3.324   0.438   2.140
   84TIP3    H2  214   3.241   0.561   2.171
   85TIP3   OH2  215   2.439   0.327   2.232
   85TIP3    H1  216   2.419   0.418   2.253
   85TIP3    H2  217   2.411   0.278   2.309
   86TIP3   OH2  218   0.415   6.981   2.380
   86TIP3    H1  219   0.395   7.074   2.367
   86TIP3    H2  220   0.510   6.976   2.376
   87TIP3   OH2  221   3.032   0.882   2.218
   87TIP3    H1  222   3.026   0.896   2.123
   87TIP3    H2  223   3.111   0.929   2.245
   88TIP3   OH2  224   2.707   0.319   2.169
   88TIP3    H1  225   2.612   0.307   2.169
   88TIP3    H2  226   2.725   0.372   2.247
   89TIP3   OH2  227   3.320   0.252   2.143
   89TIP3    H1  228   3.227   0.248   2.123
   89TIP3    H2  229   3.363   0.224   2.062
   90TIP3   OH2  230   2.834   0.591   2.049
   90TIP3    H1  231   2.757   0.539   2.027
   90TIP3    H2  232   2.836   0.660   1.983
   91TIP3   OH2  233   2.917   0.564   1.686
   91TIP3    H1  234   2.869   0.563   1.603
   91TIP3    H2  235   3.007   0.585   1.662
   92TIP3   OH2  236   2.140   0.533   2.634
   92TIP3    H1  237   2.227   0.496   2.649
   92TIP3    H2  238   2.098   0.472   2.572
   93TIP3   OH2  239   2.739   0.448   2.413
   93TIP3    H1  240   2.750   0.376   2.475
   93TIP3    H2  241   2.816   0.503   2.426
   94TIP3   OH2  242   2.886   0.115   2.232
   94TIP3    H1  243   2.958   0.141   2.175
   94TIP3    H2  244   2.815   0.176   2.211
   95TIP3   OH2  245   0.156   7.348   2.601
   95TIP3    H1  246   0.188   7.299   2.526
   95TIP3    H2  247   0.143   7.283   2.669
   96TIP3   OH2  248   0.387   7.094   2.665
   96TIP3    H1  249   0.478   7.073   2.682
   96TIP3    H2  250   0.389   7.158   2.594
   97TIP3   OH2  251   0.392   7.275   2.393
   97TIP3    H1  252   0.333   7.333   2.345
   97TIP3    H2  253   0.476   7.284   2.348
   98TIP3   OH2  254   3.183   0.612   1.636
   98TIP3    H1  255   3.189   0.671   1.711
   98TIP3    H2  256   3.250   0.642   1.575
   99TIP3   OH2  257   3.167   0.641   1.918
   99TIP3    H1  258   3.113   0.563   1.905
   99TIP3    H2  259   3.239   0.612   1.974
  100TIP3   OH2  260   3.204   0.334   2.458
  100TIP3    H1  261   3.134   0.343   2.522
  100TIP3    H2  262   3.248   0.420   2.460
  101TIP3   OH2  263   3.328   0.074   1.683
  101TIP3    H1  264   3.246   0.024   1.690
  101TIP3    H2  265   3.299   0.164   1.668
  102TIP3   OH2  266   2.997   0.415   1.905
  102TIP3    H1  267   2.937   0.456   1.967
  102TIP3    H2  268   2.962   0.439   1.819
  103TIP3   OH2  269   3.221  -0.009   2.254
  103TIP3    H1  270   3.301  -0.060   2.241
  103TIP3    H2  271   3.231   0.067   2.197
  104TIP3   OH2  272   0.839   7.187   2.281
  104TIP3    H1  273   0.777   7.121   2.314
  104TIP3    H2  274   0.925   7.147   2.295
  105TIP3   OH2  275   2.417   0.592   2.306
  105TIP3    H1  276   2.437   0.589   2.399
  105TIP3    H2  277   2.491   0.638   2.267
  106TIP3   OH2  278   2.627   0.732   2.196
  106TIP3    H1  279   2.694   0.681   2.151
  106TIP3    H2  280   2.676   0.792   2.252
  107TIP3   OH2  281   2.585   0.555   1.928
  107TIP3    H1  282   2.517   0.492   1.954
  107TIP3    H2  283   2.540   0.640   1.928
  108TIP3   OH2  284   2.821   0.776   1.845
  108TIP3    H1  285   2.790   0.855   1.800
  108TIP3    H2  286   2.836   0.713   1.775
  109TIP3   OH2  287   3.066   0.608   2.217
  109TIP3    H1  288   2.989   0.584   2.165
  109TIP3    H2  289   3.061   0.703   2.225
  110TIP3   OH2  290   1.672   7.245   1.425
  110TIP3    H1  291   1.743   7.293   1.469
  110TIP3    H2  292   1.594   7.263   1.478
  111TIP3   OH2  293   1.099   7.229   1.681
  111TIP3    H1  294   1.106   7.195   1.770
  111TIP3    H2  295   1.189   7.244   1.654
  112TIP3   OH2  296   3.614   0.272   1.424
  112TIP3    H1  297   3.614   0.177   1.438
  112TIP3    H2  298   3.706   0.294   1.412
  113TIP3   OH2  299   4.286   0.755   1.072
  113TIP3    H1  300   4.348   0.682   1.067
  113TIP3    H2  301   4.281   0.776   1.165
  114TIP3   OH2  302   4.106   0.169   1.358
  114TIP3    H1  303   4.071   0.085   1.327
  114TIP3    H2  304   4.196   0.172   1.325
  115TIP3   OH2  305   4.047   0.260   1.617
  115TIP3    H1  306   3.952   0.253   1.627
  115TIP3    H2  307   4.067   0.211   1.536
  116TIP3   OH2  308   3.794   0.334   1.698
  116TIP3    H1  309   3.785   0.427   1.675
  116TIP3    H2  310   3.717   0.315   1.753
  117TIP3   OH2  311   4.666   0.526   1.213
  117TIP3    H1  312   4.577   0.507   1.241
  117TIP3    H2  313   4.656   0.593   1.146
  118TIP3   OH2  314   4.455   0.555   0.961
  118TIP3    H1  315   4.391   0.507   0.908
  118TIP3    H2  316   4.504   0.607   0.897
  119TIP3   OH2  317   4.868   0.446   1.552
  119TIP3    H1  318   4.875   0.381   1.482
  119TIP3    H2  319   4.852   0.529   1.506
  120TIP3   OH2  320   2.134   7.322   1.717
  120TIP3    H1  321   2.137   7.407   1.761
  120TIP3    H2  322   2.064   7.330   1.653
  121TIP3   OH2  323   3.872   0.310   1.333
  121TIP3    H1  324   3.845   0.295   1.242
  121TIP3    H2  325   3.956   0.264   1.341
  122TIP3   OH2  326   4.431   0.506   1.359
  122TIP3    H1  327   4.411   0.599   1.354
  122TIP3    H2  328   4.455   0.491   1.451
  123TIP3   OH2  329   3.990   0.385   1.881
  123TIP3    H1  330   3.954   0.460   1.929
  123TIP3    H2  331   3.915   0.348   1.835
  124TIP3   OH2  332   3.815   0.026   2.005
  124TIP3    H1  333   3.792   0.112   2.042
  124TIP3    H2  334   3.731  -0.021   2.002
  125TIP3   OH2  335   4.107   0.493   0.908
  125TIP3    H1  336   4.101   0.582   0.873
  125TIP3    H2  337   4.027   0.450   0.877
  126TIP3   OH2  338   3.832   0.594   1.974
  126TIP3    H1  339   3.804   0.614   1.885
  126TIP3    H2  340   3.750   0.587   2.024
  127TIP3   OH2  341   3.437   0.150   1.922
  127TIP3    H1  342   3.406   0.124   1.835
  127TIP3    H2  343   3.482   0.073   1.956
  128TIP3   OH2  344   3.286   0.350   1.660
  128TIP3    H1  345   3.298   0.362   1.566
  128TIP3    H2  346   3.228   0.421   1.686
  129TIP3   OH2  347   5.105   0.791   1.599
  129TIP3    H1  348   5.111   0.697   1.619
  129TIP3    H2  349   5.025   0.819   1.643
  130TIP3   OH2  350   4.171   0.557   1.740
  130TIP3    H1  351   4.237   0.619   1.772
  130TIP3    H2  352   4.088   0.605   1.747
  131TIP3   OH2  353   3.925   0.729   0.666
  131TIP3    H1  354   3.919   0.758   0.575
  131TIP3    H2  355   3.960   0.805   0.713
  132TIP3   OH2  356   3.506   0.403   1.098
  132TIP3    H1  357   3.513   0.453   1.180
  132TIP3    H2  358   3.425   0.354   1.108
  133TIP3   OH2  359   4.140   0.570   0.581
  133TIP3    H1  360   4.051   0.604   0.578
  133TIP3    H2  361   4.185   0.623   0.647
  134TIP3   OH2  362   2.328   7.294   1.922
  134TIP3    H1  363   2.264   7.298   1.852
  134TIP3    H2  364   2.407   7.258   1.881
  135TIP3   OH2  365   3.613   0.355   1.905
  135TIP3    H1  366   3.668   0.341   1.983
  135TIP3    H2  367   3.546   0.287   1.911
  136TIP3   OH2  368   2.106   7.073   1.837
  136TIP3    H1  369   2.180   7.017   1.816
  136TIP3    H2  370   2.118   7.151   1.782
  137TIP3   OH2  371   1.892   7.286   2.014
  137TIP3    H1  372   1.885   7.215   2.077
  137TIP3    H2  373   1.979   7.323   2.028
  138TIP3   OH2  374   1.144   7.101   1.914
  138TIP3    H1  375   1.227   7.077   1.956
  138TIP3    H2  376   1.081   7.039   1.949
  139TIP3   OH2  377   1.891   7.338   1.583
  139TIP3    H1  378   1.869   7.263   1.638
  139TIP3    H2  379   1.840   7.410   1.620
  140TIP3   OH2  380   4.819   1.142   1.679
  140TIP3    H1  381   4.811   1.159   1.586
  140TIP3    H2  382   4.901   1.185   1.705
  141TIP3   OH2  383   3.761   0.272   2.125
  141TIP3    H1  384   3.841   0.285   2.175
  141TIP3    H2  385   3.692   0.264   2.190
  142TIP3   OH2  386   1.509   7.003   1.727
  142TIP3    H1  387   1.467   7.080   1.689
  142TIP3    H2  388   1.580   6.982   1.666
  143TIP3   OH2  389   4.868   0.280   1.336
  143TIP3    H1  390   4.816   0.323   1.269
  143TIP3    H2  391   4.834   0.191   1.340
  144TIP3   OH2  392   1.049   7.361   1.450
  144TIP3    H1  393   1.136   7.337   1.419
  144TIP3    H2  394   1.045   7.326   1.539
  145TIP3   OH2  395   0.942   7.288   2.041
  145TIP3    H1  396   0.934   7.269   2.134
  145TIP3    H2  397   0.893   7.218   1.997
  146TIP3   OH2  398   4.241   0.061   2.046
  146TIP3    H1  399   4.176   0.011   1.996
  146TIP3    H2  400   4.325   0.028   2.016
  147TIP3   OH2  401   4.476   0.559   1.633
  147TIP3    H1  402   4.389   0.600   1.638
  147TIP3    H2  403   4.523   0.595   1.709
  148TIP3   OH2  404   5.118   0.513   1.646
  148TIP3    H1  405   5.023   0.506   1.655
  148TIP3    H2  406   5.136   0.483   1.557
  149TIP3   OH2  407   3.764   0.290   1.082
  149TIP3    H1  408   3.759   0.369   1.027
  149TIP3    H2  409   3.673   0.269   1.102
  150TIP3   OH2  410   3.972   0.120   1.008
  150TIP3    H1  411   3.905   0.187   1.024
  150TIP3    H2  412   3.948   0.048   1.066
  151TIP3   OH2  413   4.019   0.682   1.518
  151TIP3    H1  414   4.011   0.757   1.577
  151TIP3    H2  415   4.107   0.647   1.535
  152TIP3   OH2  416   3.680   0.490   0.906
  152TIP3    H1  417   3.599   0.465   0.950
  152TIP3    H2  418   3.660   0.574   0.864
  153TIP3   OH2  419   4.629   0.835   1.534
  153TIP3    H1  420   4.553   0.778   1.521
  153TIP3    H2  421   4.627   0.894   1.459
  154TIP3   OH2  422   3.495   0.529   1.728
  154TIP3    H1  423   3.429   0.462   1.706
  154TIP3    H2  424   3.546   0.489   1.799
  155TIP3   OH2  425   1.808   7.170   1.780
  155TIP3    H1  426   1.848   7.207   1.859
  155TIP3    H2  427   1.844   7.082   1.774
  156TIP3   OH2  428   4.673   0.801   1.104
  156TIP3    H1  429   4.630   0.842   1.029
  156TIP3    H2  430   4.766   0.824   1.094
  157TIP3   OH2  431   3.458   0.849   2.107
  157TIP3    H1  432   3.547   0.854   2.140
  157TIP3    H2  433   3.444   0.756   2.090
  158TIP3   OH2  434   3.961   0.802   2.132
  158TIP3    H1  435   4.032   0.740   2.147
  158TIP3    H2  436   3.918   0.772   2.052
  159TIP3   OH2  437   4.580   0.662   1.860
  159TIP3    H1  438   4.567   0.612   1.940
  159TIP3    H2  439   4.626   0.741   1.888
  160TIP3   OH2  440   3.552   0.232   2.302
  160TIP3    H1  441   3.576   0.139   2.302
  160TIP3    H2  442   3.466   0.235   2.261
  161TIP3   OH2  443   4.170   0.327   2.079
  161TIP3    H1  444   4.103   0.330   2.010
  161TIP3    H2  445   4.213   0.242   2.068
  162TIP3   OH2  446   4.644   0.339   1.672
  162TIP3    H1  447   4.724   0.377   1.636
  162TIP3    H2  448   4.577   0.407   1.660
  163TIP3   OH2  449   1.100   7.342   2.294
  163TIP3    H1  450   1.171   7.294   2.253
  163TIP3    H2  451   1.138   7.379   2.373
  164TIP3   OH2  452   1.443   7.271   1.907
  164TIP3    H1  453   1.365   7.312   1.943
  164TIP3    H2  454   1.428   7.269   1.812
  165TIP3   OH2  455   4.540   0.258   2.068
  165TIP3    H1  456   4.612   0.224   2.015
  165TIP3    H2  457   4.537   0.201   2.145
  166TIP3   OH2  458   1.385   7.034   2.027
  166TIP3    H1  459   1.461   6.976   2.027
  166TIP3    H2  460   1.414   7.112   1.980
  167TIP3   OH2  461   4.254   0.057   1.720
  167TIP3    H1  462   4.283  -0.029   1.752
  167TIP3    H2  463   4.167   0.040   1.684
  168TIP3   OH2  464   2.144   7.329   2.128
  168TIP3    H1  465   2.189   7.281   2.198
  168TIP3    H2  466   2.208   7.335   2.058
  169TIP3   OH2  467   4.763   0.202   1.871
  169TIP3    H1  468   4.708   0.255   1.812
  169TIP3    H2  469   4.851   0.212   1.835
  170TIP3   OH2  470   1.285   7.127   2.262
  170TIP3    H1  471   1.348   7.096   2.327
  170TIP3    H2  472   1.325   7.105   2.177
  171TIP3   OH2  473   1.870   7.068   2.175
  171TIP3    H1  474   1.871   6.990   2.231
  171TIP3    H2  475   1.804   7.049   2.109
  172TIP3   OH2  476   3.286   0.434   1.404
  172TIP3    H1  477   3.244   0.372   1.344
  172TIP3    H2  478   3.317   0.505   1.348
  173TIP3   OH2  479   4.924   0.918   1.096
  173TIP3    H1  480   4.956   0.911   1.186
  173TIP3    H2  481   4.937   1.011   1.073
  174TIP3   OH2  482   4.955   0.900   1.374
  174TIP3    H1  483   4.910   0.815   1.374
  174TIP3    H2  484   5.032   0.885   1.429
  175TIP3   OH2  485   4.983   0.603   1.934
  175TIP3    H1  486   4.910   0.615   1.995
  175TIP3    H2  487   5.034   0.684   1.941
  176TIP3   OH2  488   4.812   0.665   1.399
  176TIP3    H1  489   4.740   0.711   1.443
  176TIP3    H2  490   4.770   0.620   1.326
  177TIP3   OH2  491   5.008   0.245   1.760
  177TIP3    H1  492   5.085   0.188   1.771
  177TIP3    H2  493   5.032   0.303   1.689
  178TIP3   OH2  494   5.232   0.111   1.822
  178TIP3    H1  495   5.218   0.019   1.799
  178TIP3    H2  496   5.325   0.127   1.804
  179TIP3   OH2  497   1.052   7.007   2.311
  179TIP3    H1  498   1.130   7.054   2.282
  179TIP3    H2  499   1.058   6.921   2.268
  180TIP3   OH2  500   4.527   0.732   0.757
  180TIP3    H1  501   4.519   0.752   0.664
  180TIP3    H2  502   4.559   0.813   0.797
  181TIP3   OH2  503   3.597   0.579   2.137
  181TIP3    H1  504   3.508   0.553   2.114
  181TIP3    H2  505   3.605   0.558   2.230
  182TIP3   OH2  506   3.781   0.614   1.697
  182TIP3    H1  507   3.692   0.647   1.684
  182TIP3    H2  508   3.837   0.688   1.676
  183TIP3   OH2  509   4.297   0.791   1.799
  183TIP3    H1  510   4.207   0.822   1.801
  183TIP3    H2  511   4.346   0.860   1.755
  184TIP3   OH2  512   4.424   0.997   1.666
  184TIP3    H1  513   4.496   0.956   1.620
  184TIP3    H2  514   4.466   1.051   1.734
  185TIP3   OH2  515   3.479   0.897   1.726
  185TIP3    H1  516   3.483   0.922   1.634
  185TIP3    H2  517   3.389   0.866   1.738
  186TIP3   OH2  518   4.176   0.899   1.319
  186TIP3    H1  519   4.084   0.880   1.301
  186TIP3    H2  520   4.173   0.971   1.382
  187TIP3   OH2  521   4.405   0.777   1.375
  187TIP3    H1  522   4.317   0.814   1.371
  187TIP3    H2  523   4.462   0.846   1.340
  188TIP3   OH2  524   4.591   0.972   1.302
  188TIP3    H1  525   4.576   1.058   1.262
  188TIP3    H2  526   4.624   0.918   1.230
  189TIP3   OH2  527   3.424   0.679   1.511
  189TIP3    H1  528   3.454   0.640   1.594
  189TIP3    H2  529   3.468   0.626   1.443
  190TIP3   OH2  530   3.568   0.526   1.339
  190TIP3    H1  531   3.572   0.439   1.378
  190TIP3    H2  532   3.659   0.557   1.340
  191TIP3   OH2  533   3.837   0.576   1.352
  191TIP3    H1  534   3.855   0.482   1.348
  191TIP3    H2  535   3.900   0.610   1.416
  192TIP3   OH2  536   4.857   0.869   1.696
  192TIP3    H1  537   4.780   0.838   1.647
  192TIP3    H2  538   4.849   0.964   1.693
  193TIP3   OH2  539   5.825   0.704   1.450
  193TIP3    H1  540   5.748   0.761   1.450
  193TIP3    H2  541   5.825   0.663   1.364
  194TIP3   OH2  542   5.605   0.866   1.438
  194TIP3    H1  543   5.587   0.870   1.344
  194TIP3    H2  544   5.520   0.851   1.478
  195TIP3   OH2  545   5.155   0.423   1.389
  195TIP3    H1  546   5.085   0.455   1.333
  195TIP3    H2  547   5.178   0.337   1.354
  196TIP3   OH2  548   5.030   0.653   1.047
  196TIP3    H1  549   5.117   0.674   1.083
  196TIP3    H2  550   4.987   0.738   1.040
  197TIP3   OH2  551   0.335   3.205   0.780
  197TIP3    H1  552   0.280   3.282   0.792
  197TIP3    H2  553   0.280   3.142   0.734
  198TIP3   OH2  554   5.367   0.613   1.383
  198TIP3    H1  555   5.435   0.591   1.447
  198TIP3    H2  556   5.303   0.542   1.391
  199TIP3   OH2  557   6.577   1.309   1.206
  199TIP3    H1  558   6.584   1.287   1.113
  199TIP3    H2  559   6.607   1.399   1.212
  200TIP3   OH2  560   5.537   0.530   1.597
  200TIP3    H1  561   5.622   0.546   1.637
  200TIP3    H2  562   5.475   0.528   1.670
  201TIP3   OH2  563   5.250   0.760   1.180
  201TIP3    H1  564   5.298   0.713   1.247
  201TIP3    H2  565   5.276   0.852   1.190
  202TIP3   OH2  566   5.249   1.102   1.590
  202TIP3    H1  567   5.330   1.114   1.641
  202TIP3    H2  568   5.246   1.009   1.570
  203TIP3   OH2  569   5.708   1.031   1.633
  203TIP3    H1  570   5.801   1.044   1.615
  203TIP3    H2  571   5.677   0.976   1.561
  204TIP3   OH2  572   6.335   1.018   1.417
  204TIP3    H1  573   6.343   0.934   1.462
  204TIP3    H2  574   6.423   1.055   1.420
  205TIP3   OH2  575   5.346   0.504   1.797
  205TIP3    H1  576   5.342   0.416   1.835
  205TIP3    H2  577   5.262   0.513   1.751
  206TIP3   OH2  578   5.489   0.214   1.784
  206TIP3    H1  579   5.533   0.249   1.706
  206TIP3    H2  580   5.511   0.276   1.853
  207TIP3   OH2  581   5.378   0.841   1.600
  207TIP3    H1  582   5.290   0.806   1.584
  207TIP3    H2  583   5.397   0.819   1.691
  208TIP3   OH2  584   5.568   0.865   1.164
  208TIP3    H1  585   5.554   0.947   1.117
  208TIP3    H2  586   5.538   0.797   1.103
  209TIP3   OH2  587   5.916   1.068   1.318
  209TIP3    H1  588   5.987   1.059   1.382
  209TIP3    H2  589   5.956   1.042   1.235
  210TIP3   OH2  590   6.148   1.263   1.235
  210TIP3    H1  591   6.134   1.183   1.286
  210TIP3    H2  592   6.209   1.315   1.288
  211TIP3   OH2  593   5.262   1.112   1.198
  211TIP3    H1  594   5.171   1.133   1.176
  211TIP3    H2  595   5.286   1.177   1.265
  212TIP3   OH2  596   5.479   1.091   1.028
  212TIP3    H1  597   5.402   1.096   1.084
  212TIP3    H2  598   5.447   1.112   0.941
  213TIP3   OH2  599   1.195   2.001   2.250
  213TIP3    H1  600   1.155   1.983   2.335
  213TIP3    H2  601   1.165   2.090   2.229
  214TIP3   OH2  602   0.820   2.459   2.345
  214TIP3    H1  603   0.813   2.483   2.252
  214TIP3    H2  604   0.901   2.408   2.350
  215TIP3   OH2  605   1.130   1.736   2.286
  215TIP3    H1  606   1.038   1.756   2.299
  215TIP3    H2  607   1.164   1.809   2.235
  216TIP3   OH2  608   0.694   2.170   2.199
  216TIP3    H1  609   0.640   2.106   2.153
  216TIP3    H2  610   0.764   2.190   2.137
  217TIP3   OH2  611   0.567   2.006   2.563
  217TIP3    H1  612   0.574   1.930   2.622
  217TIP3    H2  613   0.643   2.060   2.585
  218TIP3   OH2  614   0.917   2.214   2.034
  218TIP3    H1  615   0.977   2.167   1.976
  218TIP3    H2  616   0.970   2.234   2.112
  219TIP3   OH2  617   1.030   1.886   2.612
  219TIP3    H1  618   0.957   1.895   2.673
  219TIP3    H2  619   1.074   1.972   2.614
  220TIP3   OH2  620   1.045   1.538   2.461
  220TIP3    H1  621   0.986   1.486   2.405
  220TIP3    H2  622   1.079   1.606   2.403
  221TIP3   OH2  623   1.292   1.379   2.529
  221TIP3    H1  624   1.210   1.336   2.505
  221TIP3    H2  625   1.357   1.309   2.527
  222TIP3   OH2  626   0.470   2.317   2.300
  222TIP3    H1  627   0.549   2.270   2.272
  222TIP3    H2  628   0.497   2.367   2.377
  223TIP3   OH2  629   0.872   2.083   2.395
  223TIP3    H1  630   0.797   2.114   2.345
  223TIP3    H2  631   0.943   2.144   2.374
  224TIP3   OH2  632   2.192   1.543   1.531
  224TIP3    H1  633   2.238   1.527   1.613
  224TIP3    H2  634   2.140   1.465   1.516
  225TIP3   OH2  635   2.433   1.863   1.231
  225TIP3    H1  636   2.455   1.787   1.285
  225TIP3    H2  637   2.486   1.934   1.266
  226TIP3   OH2  638   2.098   2.322   1.250
  226TIP3    H1  639   2.172   2.275   1.210
  226TIP3    H2  640   2.063   2.261   1.315
  227TIP3   OH2  641   1.951   1.847   1.605
  227TIP3    H1  642   1.968   1.798   1.525
  227TIP3    H2  643   2.037   1.864   1.642
  228TIP3   OH2  644   3.014   1.101   1.592
  228TIP3    H1  645   3.032   1.183   1.638
  228TIP3    H2  646   3.074   1.103   1.517
  229TIP3   OH2  647   2.360   1.235   1.631
  229TIP3    H1  648   2.427   1.172   1.657
  229TIP3    H2  649   2.315   1.195   1.557
  230TIP3   OH2  650   3.075   1.328   1.732
  230TIP3    H1  651   2.988   1.366   1.716
  230TIP3    H2  652   3.109   1.376   1.808
  231TIP3   OH2  653   1.826   1.693   1.801
  231TIP3    H1  654   1.751   1.747   1.827
  231TIP3    H2  655   1.866   1.742   1.729
  232TIP3   OH2  656   2.561   0.956   1.391
  232TIP3    H1  657   2.529   0.981   1.478
  232TIP3    H2  658   2.656   0.964   1.397
  233TIP3   OH2  659   1.646   1.893   1.864
  233TIP3    H1  660   1.637   1.984   1.834
  233TIP3    H2  661   1.567   1.878   1.916
  234TIP3   OH2  662   2.513   2.092   1.363
  234TIP3    H1  663   2.431   2.090   1.411
  234TIP3    H2  664   2.510   2.174   1.313
  235TIP3   OH2  665   2.788   1.022   1.723
  235TIP3    H1  666   2.715   1.061   1.674
  235TIP3    H2  667   2.864   1.037   1.667
  236TIP3   OH2  668   2.294   2.197   1.109
  236TIP3    H1  669   2.298   2.101   1.106
  236TIP3    H2  670   2.309   2.224   1.018
  237TIP3   OH2  671   2.460   1.979   0.915
  237TIP3    H1  672   2.424   1.915   0.854
  237TIP3    H2  673   2.468   1.932   0.998
  238TIP3   OH2  674   2.720   1.996   1.701
  238TIP3    H1  675   2.710   1.925   1.637
  238TIP3    H2  676   2.706   2.076   1.651
  239TIP3   OH2  677   2.897   1.650   1.586
  239TIP3    H1  678   2.816   1.699   1.573
  239TIP3    H2  679   2.944   1.660   1.503
  240TIP3   OH2  680   2.594   1.509   1.856
  240TIP3    H1  681   2.595   1.594   1.900
  240TIP3    H2  682   2.511   1.509   1.808
  241TIP3   OH2  683   1.717   1.891   1.447
  241TIP3    H1  684   1.738   1.834   1.373
  241TIP3    H2  685   1.787   1.876   1.510
  242TIP3   OH2  686   2.285   2.084   1.515
  242TIP3    H1  687   2.264   2.169   1.553
  242TIP3    H2  688   2.272   2.021   1.586
  243TIP3   OH2  689   1.866   1.984   2.013
  243TIP3    H1  690   1.807   2.044   2.059
  243TIP3    H2  691   1.808   1.932   1.958
  244TIP3   OH2  692   1.624   1.558   2.148
  244TIP3    H1  693   1.628   1.652   2.165
  244TIP3    H2  694   1.546   1.529   2.196
  245TIP3   OH2  695   1.904   2.004   1.122
  245TIP3    H1  696   1.995   1.977   1.136
  245TIP3    H2  697   1.894   2.004   1.027
  246TIP3   OH2  698   1.670   2.149   2.107
  246TIP3    H1  699   1.639   2.166   2.018
  246TIP3    H2  700   1.591   2.128   2.156
  247TIP3   OH2  701   2.954   2.355   1.746
  247TIP3    H1  702   2.959   2.259   1.751
  247TIP3    H2  703   2.872   2.377   1.791
  248TIP3   OH2  704   2.061   2.125   1.886
  248TIP3    H1  705   2.052   2.216   1.914
  248TIP3    H2  706   1.991   2.079   1.932
  249TIP3   OH2  707   1.923   2.066   0.855
  249TIP3    H1  708   1.885   2.071   0.767
  249TIP3    H2  709   1.954   2.155   0.872
  250TIP3   OH2  710   2.838   1.466   2.021
  250TIP3    H1  711   2.760   1.479   1.968
  250TIP3    H2  712   2.859   1.373   2.011
  251TIP3   OH2  713   1.434   1.896   2.042
  251TIP3    H1  714   1.502   1.879   2.106
  251TIP3    H2  715   1.352   1.893   2.093
  252TIP3   OH2  716   2.406   0.840   2.074
  252TIP3    H1  717   2.483   0.806   2.119
  252TIP3    H2  718   2.334   0.787   2.108
  253TIP3   OH2  719   2.600   1.250   1.951
  253TIP3    H1  720   2.557   1.257   2.037
  253TIP3    H2  721   2.588   1.336   1.911
  254TIP3   OH2  722   2.324   1.432   2.186
  254TIP3    H1  723   2.395   1.370   2.205
  254TIP3    H2  724   2.364   1.518   2.193
  255TIP3   OH2  725   2.332   1.468   1.761
  255TIP3    H1  726   2.351   1.396   1.700
  255TIP3    H2  727   2.293   1.424   1.837
  256TIP3   OH2  728   2.461   0.967   1.647
  256TIP3    H1  729   2.437   0.985   1.738
  256TIP3    H2  730   2.377   0.960   1.601
  257TIP3   OH2  731   2.661   2.692   1.839
  257TIP3    H1  732   2.657   2.710   1.745
  257TIP3    H2  733   2.739   2.739   1.869
  258TIP3   OH2  734   1.611   1.818   2.247
  258TIP3    H1  735   1.689   1.838   2.299
  258TIP3    H2  736   1.539   1.825   2.310
  259TIP3   OH2  737   2.042   1.236   1.788
  259TIP3    H1  738   1.995   1.317   1.811
  259TIP3    H2  739   2.122   1.239   1.841
  260TIP3   OH2  740   2.682   1.802   1.517
  260TIP3    H1  741   2.716   1.839   1.436
  260TIP3    H2  742   2.595   1.770   1.495
  261TIP3   OH2  743   2.183   1.851   1.938
  261TIP3    H1  744   2.232   1.850   2.021
  261TIP3    H2  745   2.142   1.937   1.936
  262TIP3   OH2  746   1.393   1.503   2.295
  262TIP3    H1  747   1.368   1.461   2.378
  262TIP3    H2  748   1.322   1.482   2.235
  263TIP3   OH2  749   2.081   1.605   2.201
  263TIP3    H1  750   2.002   1.558   2.175
  263TIP3    H2  751   2.152   1.557   2.158
  264TIP3   OH2  752   2.328   2.135   1.815
  264TIP3    H1  753   2.233   2.127   1.826
  264TIP3    H2  754   2.357   2.185   1.892
  265TIP3   OH2  755   2.975   2.072   1.762
  265TIP3    H1  756   2.880   2.058   1.767
  265TIP3    H2  757   3.000   2.035   1.677
  266TIP3   OH2  758   2.656   2.014   0.722
  266TIP3    H1  759   2.633   1.975   0.806
  266TIP3    H2  760   2.574   2.052   0.691
  267TIP3   OH2  761   2.432   1.684   1.481
  267TIP3    H1  762   2.339   1.663   1.473
  267TIP3    H2  763   2.475   1.599   1.489
  268TIP3   OH2  764   1.872   2.205   1.692
  268TIP3    H1  765   1.903   2.282   1.643
  268TIP3    H2  766   1.948   2.175   1.742
  269TIP3   OH2  767   2.228   1.853   1.666
  269TIP3    H1  768   2.224   1.841   1.761
  269TIP3    H2  769   2.304   1.803   1.638
  270TIP3   OH2  770   2.479   2.377   1.680
  270TIP3    H1  771   2.400   2.323   1.685
  270TIP3    H2  772   2.461   2.439   1.608
  271TIP3   OH2  773   1.283   2.085   1.876
  271TIP3    H1  774   1.344   2.033   1.928
  271TIP3    H2  775   1.304   2.176   1.898
  272TIP3   OH2  776   2.410   1.054   1.904
  272TIP3    H1  777   2.493   1.098   1.921
  272TIP3    H2  778   2.409   0.979   1.964
  273TIP3   OH2  779   2.257   1.286   1.954
  273TIP3    H1  780   2.280   1.318   2.041
  273TIP3    H2  781   2.308   1.206   1.944
  274TIP3   OH2  782   2.865   1.194   1.941
  274TIP3    H1  783   2.770   1.203   1.952
  274TIP3    H2  784   2.875   1.144   1.860
  275TIP3   OH2  785   2.514   1.426   1.458
  275TIP3    H1  786   2.507   1.331   1.456
  275TIP3    H2  787   2.603   1.444   1.427
  276TIP3   OH2  788   2.528   2.353   1.281
  276TIP3    H1  789   2.475   2.387   1.209
  276TIP3    H2  790   2.617   2.382   1.261
  277TIP3   OH2  791   1.335   2.407   2.156
  277TIP3    H1  792   1.398   2.411   2.228
  277TIP3    H2  793   1.257   2.367   2.194
  278TIP3   OH2  794   1.762   2.319   2.302
  278TIP3    H1  795   1.857   2.309   2.308
  278TIP3    H2  796   1.736   2.262   2.230
  279TIP3   OH2  797   2.383   2.261   2.054
  279TIP3    H1  798   2.395   2.190   2.117
  279TIP3    H2  799   2.459   2.318   2.067
  280TIP3   OH2  800   1.392   1.777   2.413
  280TIP3    H1  801   1.428   1.688   2.419
  280TIP3    H2  802   1.303   1.765   2.379
  281TIP3   OH2  803   2.015   1.881   2.219
  281TIP3    H1  804   1.970   1.903   2.137
  281TIP3    H2  805   2.049   1.792   2.204
  282TIP3   OH2  806   2.493   1.911   1.834
  282TIP3    H1  807   2.570   1.944   1.788
  282TIP3    H2  808   2.428   1.981   1.824
  283TIP3   OH2  809   1.870   1.447   2.122
  283TIP3    H1  810   1.781   1.482   2.117
  283TIP3    H2  811   1.902   1.448   2.032
  284TIP3   OH2  812   2.372   1.796   2.197
  284TIP3    H1  813   2.456   1.781   2.152
  284TIP3    H2  814   2.380   1.747   2.279
  285TIP3   OH2  815   1.993   1.497   1.880
  285TIP3    H1  816   2.076   1.541   1.862
  285TIP3    H2  817   1.926   1.559   1.851
  286TIP3   OH2  818   2.619   1.494   2.277
  286TIP3    H1  819   2.679   1.421   2.263
  286TIP3    H2  820   2.671   1.572   2.259
  287TIP3   OH2  821   2.620   1.747   2.004
  287TIP3    H1  822   2.563   1.804   1.951
  287TIP3    H2  823   2.708   1.764   1.971
  288TIP3   OH2  824   1.881   1.343   2.374
  288TIP3    H1  825   1.805   1.368   2.427
  288TIP3    H2  826   1.867   1.386   2.290
  289TIP3   OH2  827   2.162   1.222   2.343
  289TIP3    H1  828   2.231   1.214   2.408
  289TIP3    H2  829   2.190   1.295   2.287
  290TIP3   OH2  830   2.481   1.205   2.195
  290TIP3    H1  831   2.429   1.127   2.209
  290TIP3    H2  832   2.563   1.189   2.243
  291TIP3   OH2  833   2.709   1.152   2.338
  291TIP3    H1  834   2.734   1.060   2.347
  291TIP3    H2  835   2.707   1.186   2.427
  292TIP3   OH2  836   1.802   1.078   2.450
  292TIP3    H1  837   1.765   0.990   2.440
  292TIP3    H2  838   1.765   1.110   2.532
  293TIP3   OH2  839   2.770   2.474   1.240
  293TIP3    H1  840   2.804   2.478   1.329
  293TIP3    H2  841   2.847   2.484   1.184
  294TIP3   OH2  842   2.806   2.458   1.522
  294TIP3    H1  843   2.758   2.375   1.515
  294TIP3    H2  844   2.875   2.441   1.585
  295TIP3   OH2  845   2.845   2.141   2.098
  295TIP3    H1  846   2.772   2.152   2.159
  295TIP3    H2  847   2.889   2.226   2.097
  296TIP3   OH2  848   2.618   1.734   0.806
  296TIP3    H1  849   2.678   1.745   0.732
  296TIP3    H2  850   2.666   1.769   0.881
  297TIP3   OH2  851   2.771   1.545   0.974
  297TIP3    H1  852   2.684   1.521   1.007
  297TIP3    H2  853   2.785   1.634   1.007
  298TIP3   OH2  854   2.822   1.922   1.310
  298TIP3    H1  855   2.826   1.875   1.227
  298TIP3    H2  856   2.828   2.015   1.286
  299TIP3   OH2  857   2.670   2.219   1.551
  299TIP3    H1  858   2.597   2.265   1.592
  299TIP3    H2  859   2.631   2.176   1.475
  300TIP3   OH2  860   2.567   1.418   1.094
  300TIP3    H1  861   2.575   1.342   1.151
  300TIP3    H2  862   2.491   1.466   1.128
  301TIP3   OH2  863   2.871   1.799   1.904
  301TIP3    H1  864   2.939   1.735   1.884
  301TIP3    H2  865   2.873   1.860   1.830
  302TIP3   OH2  866   3.052   1.593   1.907
  302TIP3    H1  867   2.977   1.550   1.949
  302TIP3    H2  868   3.128   1.544   1.936
  303TIP3   OH2  869   2.739   1.214   1.504
  303TIP3    H1  870   2.825   1.184   1.475
  303TIP3    H2  871   2.758   1.288   1.562
  304TIP3   OH2  872   2.809   1.416   1.689
  304TIP3    H1  873   2.731   1.445   1.737
  304TIP3    H2  874   2.843   1.496   1.648
  305TIP3   OH2  875   1.481   1.188   2.520
  305TIP3    H1  876   1.536   1.149   2.453
  305TIP3    H2  877   1.541   1.242   2.572
  306TIP3   OH2  878   3.277   1.020   2.218
  306TIP3    H1  879   3.340   0.961   2.177
  306TIP3    H2  880   3.240   1.071   2.145
  307TIP3   OH2  881   3.126   1.140   2.022
  307TIP3    H1  882   3.039   1.180   2.028
  307TIP3    H2  883   3.111   1.057   1.977
  308TIP3   OH2  884   2.317   2.289   0.843
  308TIP3    H1  885   2.351   2.226   0.779
  308TIP3    H2  886   2.395   2.330   0.880
  309TIP3   OH2  887   1.452   2.108   2.269
  309TIP3    H1  888   1.365   2.070   2.264
  309TIP3    H2  889   1.443   2.184   2.326
  310TIP3   OH2  890   1.635   2.172   1.832
  310TIP3    H1  891   1.587   2.246   1.795
  310TIP3    H2  892   1.722   2.178   1.794
  311TIP3   OH2  893   2.043   2.394   1.953
  311TIP3    H1  894   2.080   2.392   2.041
  311TIP3    H2  895   2.105   2.447   1.902
  312TIP3   OH2  896   2.234   2.550   1.829
  312TIP3    H1  897   2.296   2.505   1.771
  312TIP3    H2  898   2.288   2.607   1.883
  313TIP3   OH2  899   3.052   0.887   1.939
  313TIP3    H1  900   2.965   0.865   1.908
  313TIP3    H2  901   3.102   0.806   1.932
  314TIP3   OH2  902   1.302   2.374   1.882
  314TIP3    H1  903   1.222   2.423   1.864
  314TIP3    H2  904   1.321   2.391   1.974
  315TIP3   OH2  905   1.526   2.399   1.718
  315TIP3    H1  906   1.444   2.399   1.768
  315TIP3    H2  907   1.503   2.439   1.635
  316TIP3   OH2  908   1.952   2.414   1.527
  316TIP3    H1  909   1.882   2.396   1.464
  316TIP3    H2  910   1.948   2.508   1.542
  317TIP3   OH2  911   2.219   2.351   1.566
  317TIP3    H1  912   2.126   2.369   1.553
  317TIP3    H2  913   2.264   2.413   1.509
  318TIP3   OH2  914   2.422   2.534   1.459
  318TIP3    H1  915   2.414   2.619   1.416
  318TIP3    H2  916   2.457   2.476   1.392
  319TIP3   OH2  917   1.313   2.139   1.605
  319TIP3    H1  918   1.279   2.119   1.693
  319TIP3    H2  919   1.408   2.136   1.616
  320TIP3   OH2  920   1.653   2.141   1.533
  320TIP3    H1  921   1.664   2.050   1.505
  320TIP3    H2  922   1.730   2.158   1.587
  321TIP3   OH2  923   1.734   0.814   2.445
  321TIP3    H1  924   1.682   0.739   2.472
  321TIP3    H2  925   1.821   0.797   2.483
  322TIP3   OH2  926   1.973   0.782   2.580
  322TIP3    H1  927   2.052   0.732   2.559
  322TIP3    H2  928   1.939   0.739   2.659
  323TIP3   OH2  929   2.790   0.890   2.352
  323TIP3    H1  930   2.806   0.856   2.440
  323TIP3    H2  931   2.876   0.885   2.309
  324TIP3   OH2  932   2.702   2.419   1.845
  324TIP3    H1  933   2.628   2.389   1.794
  324TIP3    H2  934   2.690   2.514   1.852
  325TIP3   OH2  935   3.991   1.810   0.613
  325TIP3    H1  936   3.953   1.891   0.577
  325TIP3    H2  937   3.916   1.752   0.624
  326TIP3   OH2  938   3.981   1.798   0.999
  326TIP3    H1  939   4.027   1.782   1.082
  326TIP3    H2  940   3.941   1.714   0.977
  327TIP3   OH2  941   3.304   1.671   1.356
  327TIP3    H1  942   3.336   1.617   1.428
  327TIP3    H2  943   3.382   1.691   1.304
  328TIP3   OH2  944   4.243   2.104   0.681
  328TIP3    H1  945   4.227   2.039   0.749
  328TIP3    H2  946   4.264   2.184   0.729
  329TIP3   OH2  947   3.279   2.139   1.084
  329TIP3    H1  948   3.257   2.046   1.091
  329TIP3    H2  949   3.371   2.139   1.056
  330TIP3   OH2  950   2.974   1.409   0.848
  330TIP3    H1  951   2.983   1.503   0.834
  330TIP3    H2  952   2.881   1.397   0.869
  331TIP3   OH2  953   3.011   1.615   1.119
  331TIP3    H1  954   3.071   1.541   1.124
  331TIP3    H2  955   3.049   1.673   1.053
  332TIP3   OH2  956   3.892   2.545   0.689
  332TIP3    H1  957   3.924   2.479   0.628
  332TIP3    H2  958   3.876   2.497   0.770
  333TIP3   OH2  959   3.776   2.021   1.012
  333TIP3    H1  960   3.817   1.942   0.976
  333TIP3    H2  961   3.850   2.074   1.044
  334TIP3   OH2  962   4.210   1.519   1.059
  334TIP3    H1  963   4.248   1.435   1.083
  334TIP3    H2  964   4.162   1.502   0.978
  335TIP3   OH2  965   3.403   1.152   1.060
  335TIP3    H1  966   3.429   1.224   1.003
  335TIP3    H2  967   3.418   1.073   1.008
  336TIP3   OH2  968   4.243   1.271   0.657
  336TIP3    H1  969   4.318   1.284   0.716
  336TIP3    H2  970   4.255   1.336   0.588
  337TIP3   OH2  971   3.210   1.433   1.155
  337TIP3    H1  972   3.269   1.414   1.229
  337TIP3    H2  973   3.185   1.346   1.122
  338TIP3   OH2  974   3.614   1.617   0.961
  338TIP3    H1  975   3.708   1.600   0.959
  338TIP3    H2  976   3.574   1.533   0.938
  339TIP3   OH2  977   4.860   1.545   1.228
  339TIP3    H1  978   4.783   1.589   1.192
  339TIP3    H2  979   4.897   1.609   1.289
  340TIP3   OH2  980   3.553   1.204   1.523
  340TIP3    H1  981   3.506   1.224   1.442
  340TIP3    H2  982   3.489   1.216   1.592
  341TIP3   OH2  983   3.869   2.011   0.478
  341TIP3    H1  984   3.849   2.010   0.384
  341TIP3    H2  985   3.826   2.090   0.511
  342TIP3   OH2  986   3.629   1.955   1.238
  342TIP3    H1  987   3.569   2.023   1.269
  342TIP3    H2  988   3.670   1.993   1.161
  343TIP3   OH2  989   4.440   1.266   0.848
  343TIP3    H1  990   4.390   1.243   0.927
  343TIP3    H2  991   4.488   1.345   0.873
  344TIP3   OH2  992   3.411   1.283   1.300
  344TIP3    H1  993   3.476   1.352   1.299
  344TIP3    H2  994   3.423   1.236   1.217
  345TIP3   OH2  995   3.462   2.148   1.341
  345TIP3    H1  996   3.442   2.233   1.303
  345TIP3    H2  997   3.384   2.123   1.390
  346TIP3   OH2  998   2.794   1.821   0.585
  346TIP3    H1  999   2.710   1.792   0.548
  346TIP3    H2 1000   2.771   1.898   0.637
  347TIP3   OH2 1001   4.284   2.351   0.823
  347TIP3    H1 1002   4.198   2.342   0.863
  347TIP3    H2 1003   4.280   2.434   0.776
  348TIP3   OH2 1004   4.585   1.216   1.183
  348TIP3    H1 1005   4.500   1.252   1.159
  348TIP3    H2 1006   4.642   1.238   1.110
  349TIP3   OH2 1007   3.911   0.862   1.294
  349TIP3    H1 1008   3.885   0.792   1.353
  349TIP3    H2 1009   3.861   0.938   1.322
  350TIP3   OH2 1010   3.988   2.384   0.482
  350TIP3    H1 1011   4.038   2.303   0.471
  350TIP3    H2 1012   4.048   2.454   0.454
  351TIP3   OH2 1013   4.140   2.165   0.432
  351TIP3    H1 1014   4.130   2.084   0.382
  351TIP3    H2 1015   4.179   2.138   0.515
  352TIP3   OH2 1016   4.517   2.240   1.170
  352TIP3    H1 1017   4.499   2.166   1.112
  352TIP3    H2 1018   4.500   2.317   1.116
  353TIP3   OH2 1019   3.802   1.647   0.421
  353TIP3    H1 1020   3.741   1.721   0.418
  353TIP3    H2 1021   3.853   1.655   0.340
  354TIP3   OH2 1022   3.768   1.520   0.133
  354TIP3    H1 1023   3.857   1.553   0.147
  354TIP3    H2 1024   3.777   1.452   0.067
  355TIP3   OH2 1025   4.701   1.901   1.033
  355TIP3    H1 1026   4.617   1.946   1.030
  355TIP3    H2 1027   4.737   1.910   0.945
  356TIP3   OH2 1028   4.162   1.758   0.408
  356TIP3    H1 1029   4.109   1.779   0.485
  356TIP3    H2 1030   4.241   1.717   0.444
  357TIP3   OH2 1031   4.390   1.764   1.333
  357TIP3    H1 1032   4.387   1.847   1.381
  357TIP3    H2 1033   4.307   1.761   1.285
  358TIP3   OH2 1034   3.422   1.757   0.824
  358TIP3    H1 1035   3.351   1.701   0.856
  358TIP3    H2 1036   3.500   1.725   0.871
  359TIP3   OH2 1037   3.525   2.146   0.946
  359TIP3    H1 1038   3.493   2.119   0.860
  359TIP3    H2 1039   3.610   2.103   0.955
  360TIP3   OH2 1040   3.519   1.711   1.198
  360TIP3    H1 1041   3.552   1.684   1.112
  360TIP3    H2 1042   3.555   1.798   1.212
  361TIP3   OH2 1043   4.050   2.341   0.958
  361TIP3    H1 1044   4.032   2.421   1.008
  361TIP3    H2 1045   4.031   2.270   1.019
  362TIP3   OH2 1046   3.661   2.248   1.503
  362TIP3    H1 1047   3.601   2.307   1.549
  362TIP3    H2 1048   3.604   2.197   1.445
  363TIP3   OH2 1049   3.989   1.664   0.219
  363TIP3    H1 1050   4.047   1.689   0.292
  363TIP3    H2 1051   4.039   1.687   0.141
  364TIP3   OH2 1052   3.418   1.792   1.649
  364TIP3    H1 1053   3.421   1.886   1.665
  364TIP3    H2 1054   3.324   1.772   1.641
  365TIP3   OH2 1055   3.745   2.256   0.516
  365TIP3    H1 1056   3.824   2.310   0.512
  365TIP3    H2 1057   3.697   2.278   0.437
  366TIP3   OH2 1058   3.452   2.407   1.587
  366TIP3    H1 1059   3.426   2.415   1.496
  366TIP3    H2 1060   3.370   2.389   1.634
  367TIP3   OH2 1061   3.185   1.515   0.675
  367TIP3    H1 1062   3.128   1.576   0.629
  367TIP3    H2 1063   3.146   1.429   0.659
  368TIP3   OH2 1064   6.889   5.888   6.202
  368TIP3    H1 1065   6.903   5.979   6.176
  368TIP3    H2 1066   6.975   5.847   6.192
  369TIP3   OH2 1067   3.028   1.954   1.518
  369TIP3    H1 1068   2.964   1.947   1.448
  369TIP3    H2 1069   3.069   1.868   1.522
  370TIP3   OH2 1070   2.913   2.163   1.211
  370TIP3    H1 1071   2.967   2.121   1.143
  370TIP3    H2 1072   2.972   2.227   1.251
  371TIP3   OH2 1073   4.748   2.612   1.231
  371TIP3    H1 1074   4.754   2.517   1.241
  371TIP3    H2 1075   4.667   2.636   1.277
  372TIP3   OH2 1076   3.850   2.386   1.360
  372TIP3    H1 1077   3.844   2.477   1.387
  372TIP3    H2 1078   3.782   2.341   1.410
  373TIP3   OH2 1079   3.628   2.518   0.301
  373TIP3    H1 1080   3.596   2.513   0.212
  373TIP3    H2 1081   3.589   2.597   0.338
  374TIP3   OH2 1082   3.061   2.345   0.699
  374TIP3    H1 1083   3.102   2.340   0.785
  374TIP3    H2 1084   2.986   2.286   0.704
  375TIP3   OH2 1085   6.454   6.106   6.317
  375TIP3    H1 1086   6.504   6.035   6.276
  375TIP3    H2 1087   6.480   6.102   6.410
  376TIP3   OH2 1088   3.884   2.458   0.224
  376TIP3    H1 1089   3.794   2.469   0.258
  376TIP3    H2 1090   3.933   2.423   0.299
  377TIP3   OH2 1091   4.628   1.730   1.512
  377TIP3    H1 1092   4.551   1.740   1.457
  377TIP3    H2 1093   4.648   1.636   1.509
  378TIP3   OH2 1094   3.240   2.137   1.505
  378TIP3    H1 1095   3.287   2.123   1.587
  378TIP3    H2 1096   3.166   2.076   1.508
  379TIP3   OH2 1097   3.739   1.044   1.391
  379TIP3    H1 1098   3.684   1.027   1.314
  379TIP3    H2 1099   3.679   1.082   1.455
  380TIP3   OH2 1100   4.176   1.069   1.542
  380TIP3    H1 1101   4.257   1.048   1.590
  380TIP3    H2 1102   4.106   1.035   1.598
  381TIP3   OH2 1103   4.406   1.499   1.423
  381TIP3    H1 1104   4.363   1.500   1.509
  381TIP3    H2 1105   4.385   1.584   1.384
  382TIP3   OH2 1106   6.747   5.382   6.370
  382TIP3    H1 1107   6.664   5.388   6.323
  382TIP3    H2 1108   6.811   5.417   6.309
  383TIP3   OH2 1109   3.821   1.042   0.243
  383TIP3    H1 1110   3.782   1.114   0.293
  383TIP3    H2 1111   3.770   0.965   0.268
  384TIP3   OH2 1112   3.586   1.485   1.338
  384TIP3    H1 1113   3.545   1.498   1.423
  384TIP3    H2 1114   3.573   1.568   1.292
  385TIP3   OH2 1115   3.486   1.375   0.907
  385TIP3    H1 1116   3.391   1.369   0.902
  385TIP3    H2 1117   3.514   1.391   0.817
  386TIP3   OH2 1118   3.956   1.505   0.586
  386TIP3    H1 1119   3.898   1.558   0.532
  386TIP3    H2 1120   4.032   1.488   0.530
  387TIP3   OH2 1121   4.121   1.712   1.641
  387TIP3    H1 1122   4.098   1.648   1.708
  387TIP3    H2 1123   4.214   1.730   1.657
  388TIP3   OH2 1124   4.111   1.468   0.809
  388TIP3    H1 1125   4.048   1.507   0.748
  388TIP3    H2 1126   4.132   1.383   0.771
  389TIP3   OH2 1127   3.412   1.508   1.555
  389TIP3    H1 1128   3.415   1.577   1.621
  389TIP3    H2 1129   3.388   1.429   1.603
  390TIP3   OH2 1130   2.995   0.917   1.136
  390TIP3    H1 1131   3.038   1.003   1.137
  390TIP3    H2 1132   2.958   0.910   1.048
  391TIP3   OH2 1133   4.132   1.717   1.223
  391TIP3    H1 1134   4.163   1.652   1.160
  391TIP3    H2 1135   4.090   1.666   1.292
  392TIP3   OH2 1136   3.923   1.239   0.902
  392TIP3    H1 1137   3.850   1.232   0.963
  392TIP3    H2 1138   3.999   1.209   0.953
  393TIP3   OH2 1139   3.223   1.306   0.894
  393TIP3    H1 1140   3.140   1.346   0.865
  393TIP3    H2 1141   3.217   1.215   0.864
  394TIP3   OH2 1142   3.531   1.225   0.655
  394TIP3    H1 1143   3.610   1.279   0.651
  394TIP3    H2 1144   3.467   1.273   0.603
  395TIP3   OH2 1145   4.303   1.266   1.130
  395TIP3    H1 1146   4.278   1.289   1.219
  395TIP3    H2 1147   4.234   1.207   1.100
  396TIP3   OH2 1148   4.457   2.949   1.327
  396TIP3    H1 1149   4.454   2.967   1.233
  396TIP3    H2 1150   4.535   2.995   1.358
  397TIP3   OH2 1151   3.400   2.055   1.743
  397TIP3    H1 1152   3.480   2.080   1.789
  397TIP3    H2 1153   3.330   2.065   1.808
  398TIP3   OH2 1154   3.875   1.536   0.984
  398TIP3    H1 1155   3.923   1.467   0.938
  398TIP3    H2 1156   3.869   1.504   1.075
  399TIP3   OH2 1157   3.440   0.938   0.896
  399TIP3    H1 1158   3.391   0.860   0.922
  399TIP3    H2 1159   3.454   0.927   0.802
  400TIP3   OH2 1160   3.846   1.456   1.241
  400TIP3    H1 1161   3.761   1.451   1.285
  400TIP3    H2 1162   3.907   1.483   1.310
  401TIP3   OH2 1163   3.615   1.849   0.405
  401TIP3    H1 1164   3.556   1.773   0.405
  401TIP3    H2 1165   3.607   1.884   0.494
  402TIP3   OH2 1166   4.464   2.035   0.992
  402TIP3    H1 1167   4.496   2.087   0.918
  402TIP3    H2 1168   4.383   1.996   0.960
  403TIP3   OH2 1169   4.101   1.049   0.309
  403TIP3    H1 1170   4.016   1.035   0.267
  403TIP3    H2 1171   4.163   1.053   0.236
  404TIP3   OH2 1172   3.975   2.125   1.394
  404TIP3    H1 1173   4.016   2.119   1.480
  404TIP3    H2 1174   3.930   2.210   1.394
  405TIP3   OH2 1175   4.156   1.437   0.416
  405TIP3    H1 1176   4.248   1.424   0.392
  405TIP3    H2 1177   4.107   1.409   0.339
  406TIP3   OH2 1178   3.275   1.865   1.076
  406TIP3    H1 1179   3.302   1.829   0.992
  406TIP3    H2 1180   3.293   1.795   1.139
  407TIP3   OH2 1181   3.755   1.989   0.214
  407TIP3    H1 1182   3.715   2.075   0.230
  407TIP3    H2 1183   3.705   1.929   0.270
  408TIP3   OH2 1184   3.153   1.723   1.675
  408TIP3    H1 1185   3.153   1.704   1.769
  408TIP3    H2 1186   3.070   1.686   1.643
  409TIP3   OH2 1187   3.883   1.862   1.698
  409TIP3    H1 1188   3.810   1.809   1.667
  409TIP3    H2 1189   3.960   1.826   1.654
  410TIP3   OH2 1190   4.123   2.401   1.283
  410TIP3    H1 1191   4.028   2.390   1.289
  410TIP3    H2 1192   4.147   2.442   1.367
  411TIP3   OH2 1193   4.561   1.453   0.219
  411TIP3    H1 1194   4.517   1.406   0.148
  411TIP3    H2 1195   4.574   1.541   0.185
  412TIP3   OH2 1196   4.763   2.333   1.255
  412TIP3    H1 1197   4.669   2.315   1.255
  412TIP3    H2 1198   4.794   2.296   1.172
  413TIP3   OH2 1199   4.256   2.272   0.106
  413TIP3    H1 1200   4.222   2.203   0.163
  413TIP3    H2 1201   4.256   2.233   0.019
  414TIP3   OH2 1202   4.233   1.901   0.892
  414TIP3    H1 1203   4.142   1.879   0.912
  414TIP3    H2 1204   4.270   1.822   0.854
  415TIP3   OH2 1205   3.359   2.131   0.702
  415TIP3    H1 1206   3.351   2.215   0.656
  415TIP3    H2 1207   3.269   2.100   0.711
  416TIP3   OH2 1208   3.540   1.936   0.651
  416TIP3    H1 1209   3.488   2.015   0.666
  416TIP3    H2 1210   3.507   1.872   0.715
  417TIP3   OH2 1211   3.661   2.462   1.156
  417TIP3    H1 1212   3.698   2.534   1.105
  417TIP3    H2 1213   3.735   2.427   1.205
  418TIP3   OH2 1214   3.300   2.368   0.562
  418TIP3    H1 1215   3.212   2.369   0.601
  418TIP3    H2 1216   3.329   2.459   0.566
  419TIP3   OH2 1217   4.016   2.116   1.122
  419TIP3    H1 1218   4.005   2.113   1.217
  419TIP3    H2 1219   4.089   2.058   1.104
  420TIP3   OH2 1220   3.968   1.994   0.037
  420TIP3    H1 1221   4.047   1.978   0.089
  420TIP3    H2 1222   3.898   2.000   0.102
  421TIP3   OH2 1223   4.273   2.625   1.165
  421TIP3    H1 1224   4.200   2.564   1.176
  421TIP3    H2 1225   4.246   2.682   1.093
  422TIP3   OH2 1226   6.930   6.162   6.170
  422TIP3    H1 1227   6.987   6.238   6.159
  422TIP3    H2 1228   6.849   6.198   6.207
  423TIP3   OH2 1229   3.342   1.263   1.688
  423TIP3    H1 1230   3.248   1.281   1.688
  423TIP3    H2 1231   3.355   1.205   1.763
  424TIP3   OH2 1232   4.182   1.956   0.216
  424TIP3    H1 1233   4.166   1.886   0.279
  424TIP3    H2 1234   4.273   1.944   0.189
  425TIP3   OH2 1235   3.093   2.344   1.329
  425TIP3    H1 1236   3.149   2.277   1.367
  425TIP3    H2 1237   3.111   2.423   1.379
  426TIP3   OH2 1238   5.852   5.650   6.331
  426TIP3    H1 1239   5.843   5.557   6.309
  426TIP3    H2 1240   5.924   5.653   6.393
  427TIP3   OH2 1241   3.351   1.993   0.406
  427TIP3    H1 1242   3.440   2.009   0.438
  427TIP3    H2 1243   3.309   2.079   0.409
  428TIP3   OH2 1244   3.008   1.665   0.500
  428TIP3    H1 1245   2.938   1.710   0.548
  428TIP3    H2 1246   3.045   1.732   0.443
  429TIP3   OH2 1247   4.201   1.305   1.388
  429TIP3    H1 1248   4.281   1.343   1.425
  429TIP3    H2 1249   4.185   1.227   1.442
  430TIP3   OH2 1250   4.172   1.022   0.579
  430TIP3    H1 1251   4.146   1.024   0.486
  430TIP3    H2 1252   4.182   1.115   0.603
  431TIP3   OH2 1253   3.632   2.228   0.253
  431TIP3    H1 1254   3.549   2.265   0.282
  431TIP3    H2 1255   3.640   2.255   0.161
  432TIP3   OH2 1256   3.778   1.324   0.686
  432TIP3    H1 1257   3.834   1.388   0.642
  432TIP3    H2 1258   3.831   1.291   0.758
  433TIP3   OH2 1259   4.046   1.546   1.417
  433TIP3    H1 1260   4.068   1.589   1.499
  433TIP3    H2 1261   4.090   1.461   1.421
  434TIP3   OH2 1262   3.958   0.994   0.746
  434TIP3    H1 1263   3.933   1.081   0.777
  434TIP3    H2 1264   4.026   1.010   0.680
  435TIP3   OH2 1265   3.369   2.270   0.316
  435TIP3    H1 1266   3.306   2.317   0.262
  435TIP3    H2 1267   3.352   2.299   0.405
  436TIP3   OH2 1268   3.484   0.958   0.636
  436TIP3    H1 1269   3.498   1.053   0.629
  436TIP3    H2 1270   3.450   0.933   0.550
  437TIP3   OH2 1271   4.675   1.463   1.436
  437TIP3    H1 1272   4.580   1.454   1.425
  437TIP3    H2 1273   4.709   1.460   1.347
  438TIP3   OH2 1274   4.336   1.642   0.807
  438TIP3    H1 1275   4.257   1.591   0.822
  438TIP3    H2 1276   4.403   1.600   0.861
  439TIP3   OH2 1277   3.089   1.878   0.358
  439TIP3    H1 1278   3.136   1.961   0.365
  439TIP3    H2 1279   3.035   1.887   0.280
  440TIP3   OH2 1280   4.300   2.620   0.741
  440TIP3    H1 1281   4.257   2.669   0.671
  440TIP3    H2 1282   4.394   2.631   0.725
  441TIP3   OH2 1283   3.440   0.936   1.441
  441TIP3    H1 1284   3.500   0.936   1.366
  441TIP3    H2 1285   3.426   0.843   1.461
  442TIP3   OH2 1286   2.857   2.172   0.644
  442TIP3    H1 1287   2.800   2.116   0.697
  442TIP3    H2 1288   2.854   2.134   0.557
  443TIP3   OH2 1289   3.083   2.656   1.735
  443TIP3    H1 1290   3.166   2.658   1.783
  443TIP3    H2 1291   3.062   2.562   1.729
  444TIP3   OH2 1292   3.552   2.575   1.782
  444TIP3    H1 1293   3.646   2.555   1.788
  444TIP3    H2 1294   3.520   2.519   1.710
  445TIP3   OH2 1295   6.202   5.886   6.338
  445TIP3    H1 1296   6.156   5.806   6.365
  445TIP3    H2 1297   6.250   5.861   6.260
  446TIP3   OH2 1298   4.178   2.510   1.530
  446TIP3    H1 1299   4.190   2.441   1.595
  446TIP3    H2 1300   4.252   2.569   1.544
  447TIP3   OH2 1301   6.605   5.885   6.226
  447TIP3    H1 1302   6.586   5.807   6.278
  447TIP3    H2 1303   6.699   5.879   6.208
  448TIP3   OH2 1304   3.194   2.050   1.931
  448TIP3    H1 1305   3.209   1.956   1.940
  448TIP3    H2 1306   3.111   2.057   1.883
  449TIP3   OH2 1307   3.299   1.764   0.185
  449TIP3    H1 1308   3.274   1.796   0.272
  449TIP3    H2 1309   3.218   1.730   0.148
  450TIP3   OH2 1310   3.813   2.139   1.705
  450TIP3    H1 1311   3.767   2.160   1.624
  450TIP3    H2 1312   3.845   2.050   1.692
  451TIP3   OH2 1313   6.252   5.598   6.322
  451TIP3    H1 1314   6.288   5.644   6.398
  451TIP3    H2 1315   6.216   5.518   6.357
  452TIP3   OH2 1316   4.292   2.176   1.321
  452TIP3    H1 1317   4.368   2.207   1.272
  452TIP3    H2 1318   4.225   2.242   1.304
  453TIP3   OH2 1319   3.311   1.791   1.936
  453TIP3    H1 1320   3.383   1.783   1.873
  453TIP3    H2 1321   3.353   1.817   2.018
  454TIP3   OH2 1322   3.471   1.614   0.402
  454TIP3    H1 1323   3.398   1.655   0.448
  454TIP3    H2 1324   3.431   1.546   0.348
  455TIP3   OH2 1325   3.676   1.695   1.604
  455TIP3    H1 1326   3.588   1.731   1.610
  455TIP3    H2 1327   3.707   1.721   1.517
  456TIP3   OH2 1328   3.445   1.380   0.212
  456TIP3    H1 1329   3.353   1.355   0.206
  456TIP3    H2 1330   3.468   1.409   0.124
  457TIP3   OH2 1331   4.173   2.062   1.690
  457TIP3    H1 1332   4.234   2.020   1.629
  457TIP3    H2 1333   4.166   2.001   1.763
  458TIP3   OH2 1334   6.918   5.427   6.158
  458TIP3    H1 1335   6.912   5.341   6.118
  458TIP3    H2 1336   6.851   5.479   6.115
  459TIP3   OH2 1337   3.798   1.479   1.718
  459TIP3    H1 1338   3.804   1.411   1.651
  459TIP3    H2 1339   3.755   1.552   1.673
  460TIP3   OH2 1340   3.811   1.296   1.520
  460TIP3    H1 1341   3.850   1.238   1.455
  460TIP3    H2 1342   3.719   1.268   1.525
  461TIP3   OH2 1343   3.796   1.793   1.382
  461TIP3    H1 1344   3.883   1.805   1.345
  461TIP3    H2 1345   3.741   1.854   1.334
  462TIP3   OH2 1346   4.393   1.754   1.747
  462TIP3    H1 1347   4.444   1.678   1.718
  462TIP3    H2 1348   4.452   1.828   1.738
  463TIP3   OH2 1349   4.411   2.001   1.488
  463TIP3    H1 1350   4.358   2.062   1.438
  463TIP3    H2 1351   4.501   2.017   1.458
  464TIP3   OH2 1352   3.651   1.547   1.947
  464TIP3    H1 1353   3.586   1.478   1.960
  464TIP3    H2 1354   3.694   1.523   1.864
  465TIP3   OH2 1355   4.051   1.509   1.819
  465TIP3    H1 1356   4.021   1.543   1.903
  465TIP3    H2 1357   3.972   1.484   1.773
  466TIP3   OH2 1358   4.293   1.461   1.667
  466TIP3    H1 1359   4.213   1.457   1.719
  466TIP3    H2 1360   4.360   1.420   1.723
  467TIP3   OH2 1361   4.498   1.372   1.835
  467TIP3    H1 1362   4.525   1.282   1.855
  467TIP3    H2 1363   4.498   1.417   1.919
  468TIP3   OH2 1364   3.490   1.328   2.007
  468TIP3    H1 1365   3.502   1.239   1.975
  468TIP3    H2 1366   3.514   1.324   2.100
  469TIP3   OH2 1367   3.322   2.509   0.095
  469TIP3    H1 1368   3.415   2.502   0.072
  469TIP3    H2 1369   3.282   2.552   0.020
  470TIP3   OH2 1370   2.724   2.506   0.793
  470TIP3    H1 1371   2.680   2.455   0.725
  470TIP3    H2 1372   2.759   2.440   0.853
  471TIP3   OH2 1373   2.843   2.303   0.935
  471TIP3    H1 1374   2.894   2.223   0.922
  471TIP3    H2 1375   2.883   2.344   1.012
  472TIP3   OH2 1376   4.571   2.670   0.729
  472TIP3    H1 1377   4.589   2.700   0.818
  472TIP3    H2 1378   4.623   2.729   0.673
  473TIP3   OH2 1379   4.586   2.704   1.009
  473TIP3    H1 1380   4.539   2.621   1.005
  473TIP3    H2 1381   4.657   2.688   1.072
  474TIP3   OH2 1382   4.640   2.398   1.581
  474TIP3    H1 1383   4.567   2.408   1.642
  474TIP3    H2 1384   4.685   2.483   1.583
  475TIP3   OH2 1385   4.457   1.901   0.178
  475TIP3    H1 1386   4.515   1.975   0.156
  475TIP3    H2 1387   4.495   1.864   0.258
  476TIP3   OH2 1388   4.575   1.780   0.397
  476TIP3    H1 1389   4.506   1.745   0.452
  476TIP3    H2 1390   4.636   1.821   0.458
  477TIP3   OH2 1391   4.635   2.181   0.827
  477TIP3    H1 1392   4.689   2.113   0.786
  477TIP3    H2 1393   4.633   2.252   0.763
  478TIP3   OH2 1394   4.448   2.462   1.020
  478TIP3    H1 1395   4.379   2.506   1.069
  478TIP3    H2 1396   4.402   2.421   0.947
  479TIP3   OH2 1397   4.482   1.683   0.005
  479TIP3    H1 1398   4.433   1.713  -0.072
  479TIP3    H2 1399   4.468   1.752   0.070
  480TIP3   OH2 1400   7.027   5.080   6.360
  480TIP3    H1 1401   7.037   5.174   6.351
  480TIP3    H2 1402   7.064   5.044   6.280
  481TIP3   OH2 1403   4.383   1.641   0.535
  481TIP3    H1 1404   4.396   1.547   0.522
  481TIP3    H2 1405   4.368   1.650   0.629
  482TIP3   OH2 1406   3.039   1.699   1.369
  482TIP3    H1 1407   3.006   1.687   1.280
  482TIP3    H2 1408   3.134   1.700   1.360
  483TIP3   OH2 1409   4.666   2.053   1.391
  483TIP3    H1 1410   4.734   1.989   1.370
  483TIP3    H2 1411   4.667   2.113   1.317
  484TIP3   OH2 1412   4.845   1.842   1.382
  484TIP3    H1 1413   4.771   1.805   1.431
  484TIP3    H2 1414   4.921   1.792   1.413
  485TIP3   OH2 1415   4.425   1.372   0.444
  485TIP3    H1 1416   4.451   1.281   0.457
  485TIP3    H2 1417   4.478   1.401   0.370
  486TIP3   OH2 1418   4.561   1.498   0.939
  486TIP3    H1 1419   4.649   1.462   0.923
  486TIP3    H2 1420   4.572   1.554   1.016
  487TIP3   OH2 1421   4.616   1.670   1.158
  487TIP3    H1 1422   4.538   1.698   1.207
  487TIP3    H2 1423   4.648   1.749   1.116
  488TIP3   OH2 1424   3.228   1.393   1.966
  488TIP3    H1 1425   3.323   1.385   1.973
  488TIP3    H2 1426   3.195   1.309   1.997
  489TIP3   OH2 1427   5.069   1.269   1.707
  489TIP3    H1 1428   5.133   1.210   1.668
  489TIP3    H2 1429   5.036   1.321   1.634
  490TIP3   OH2 1430   4.482   1.102   0.515
  490TIP3    H1 1431   4.422   1.120   0.588
  490TIP3    H2 1432   4.456   1.015   0.484
  491TIP3   OH2 1433   3.231   1.112   1.426
  491TIP3    H1 1434   3.298   1.046   1.447
  491TIP3    H2 1435   3.280   1.193   1.414
  492TIP3   OH2 1436   3.006   1.366   1.392
  492TIP3    H1 1437   2.973   1.352   1.303
  492TIP3    H2 1438   3.063   1.443   1.384
  493TIP3   OH2 1439   4.927   1.390   1.510
  493TIP3    H1 1440   4.840   1.431   1.515
  493TIP3    H2 1441   4.915   1.315   1.453
  494TIP3   OH2 1442   4.142   2.578   0.376
  494TIP3    H1 1443   4.193   2.569   0.296
  494TIP3    H2 1444   4.182   2.651   0.423
  495TIP3   OH2 1445   3.200   0.897   1.700
  495TIP3    H1 1446   3.143   0.919   1.774
  495TIP3    H2 1447   3.156   0.936   1.624
  496TIP3   OH2 1448   3.230   2.372   1.753
  496TIP3    H1 1449   3.136   2.356   1.742
  496TIP3    H2 1450   3.245   2.367   1.847
  497TIP3   OH2 1451   3.432   2.424   1.306
  497TIP3    H1 1452   3.380   2.497   1.272
  497TIP3    H2 1453   3.516   2.432   1.261
  498TIP3   OH2 1454   3.839   2.653   1.437
  498TIP3    H1 1455   3.876   2.647   1.525
  498TIP3    H2 1456   3.901   2.707   1.388
  499TIP3   OH2 1457   4.027   2.810   1.310
  499TIP3    H1 1458   4.090   2.758   1.260
  499TIP3    H2 1459   4.081   2.867   1.365
  500TIP3   OH2 1460   4.834   1.152   1.393
  500TIP3    H1 1461   4.750   1.148   1.348
  500TIP3    H2 1462   4.871   1.064   1.384
  501TIP3   OH2 1463   3.098   2.677   1.347
  501TIP3    H1 1464   3.007   2.697   1.325
  501TIP3    H2 1465   3.120   2.740   1.416
  502TIP3   OH2 1466   3.326   2.654   1.197
  502TIP3    H1 1467   3.243   2.662   1.244
  502TIP3    H2 1468   3.305   2.678   1.107
  503TIP3   OH2 1469   3.744   2.668   0.988
  503TIP3    H1 1470   3.673   2.680   0.925
  503TIP3    H2 1471   3.755   2.755   1.028
  504TIP3   OH2 1472   4.009   2.607   1.041
  504TIP3    H1 1473   3.917   2.624   1.020
  504TIP3    H2 1474   4.057   2.673   0.991
  505TIP3   OH2 1475   4.213   2.786   0.943
  505TIP3    H1 1476   4.207   2.872   0.902
  505TIP3    H2 1477   4.242   2.728   0.872
  506TIP3   OH2 1478   3.015   2.461   1.090
  506TIP3    H1 1479   3.044   2.429   1.176
  506TIP3    H2 1480   3.081   2.428   1.029
  507TIP3   OH2 1481   3.207   2.352   0.931
  507TIP3    H1 1482   3.215   2.269   0.979
  507TIP3    H2 1483   3.297   2.387   0.930
  508TIP3   OH2 1484   3.481   2.421   0.945
  508TIP3    H1 1485   3.498   2.328   0.929
  508TIP3    H2 1486   3.531   2.441   1.024
  509TIP3   OH2 1487   4.093   1.104   1.065
  509TIP3    H1 1488   4.018   1.051   1.094
  509TIP3    H2 1489   4.147   1.043   1.014
  510TIP3   OH2 1490   4.560   0.961   0.911
  510TIP3    H1 1491   4.613   1.041   0.911
  510TIP3    H2 1492   4.469   0.993   0.912
  511TIP3   OH2 1493   4.708   1.076   0.681
  511TIP3    H1 1494   4.662   1.043   0.603
  511TIP3    H2 1495   4.643   1.132   0.724
  512TIP3   OH2 1496   3.220   0.787   0.958
  512TIP3    H1 1497   3.228   0.821   1.047
  512TIP3    H2 1498   3.242   0.694   0.966
  513TIP3   OH2 1499   3.705   0.762   0.827
  513TIP3    H1 1500   3.783   0.750   0.772
  513TIP3    H2 1501   3.740   0.786   0.913
  514TIP3   OH2 1502   4.281   0.977   0.907
  514TIP3    H1 1503   4.233   0.948   0.829
  514TIP3    H2 1504   4.284   0.899   0.963
  515TIP3   OH2 1505   4.374   0.847   0.531
  515TIP3    H1 1506   4.296   0.889   0.565
  515TIP3    H2 1507   4.346   0.809   0.448
  516TIP3   OH2 1508   2.858   2.223   0.372
  516TIP3    H1 1509   2.773   2.182   0.386
  516TIP3    H2 1510   2.846   2.313   0.401
  517TIP3   OH2 1511   3.765   1.028   0.527
  517TIP3    H1 1512   3.773   1.012   0.621
  517TIP3    H2 1513   3.812   1.111   0.514
  518TIP3   OH2 1514   3.586   2.474   0.025
  518TIP3    H1 1515   3.671   2.503  -0.008
  518TIP3    H2 1516   3.580   2.382  -0.002
  519TIP3   OH2 1517   4.280   2.542   0.137
  519TIP3    H1 1518   4.275   2.446   0.131
  519TIP3    H2 1519   4.230   2.574   0.062
  520TIP3   OH2 1520   3.511   1.064   1.938
  520TIP3    H1 1521   3.487   0.997   2.002
  520TIP3    H2 1522   3.517   1.017   1.855
  521TIP3   OH2 1523   3.804   1.121   2.064
  521TIP3    H1 1524   3.789   1.106   1.971
  521TIP3    H2 1525   3.771   1.043   2.108
  522TIP3   OH2 1526   2.873   2.318   0.117
  522TIP3    H1 1527   2.852   2.294   0.208
  522TIP3    H2 1528   2.967   2.337   0.119
  523TIP3   OH2 1529   4.607   1.107   1.852
  523TIP3    H1 1530   4.634   1.031   1.903
  523TIP3    H2 1531   4.679   1.123   1.791
  524TIP3   OH2 1532   4.496   2.675   1.328
  524TIP3    H1 1533   4.421   2.645   1.278
  524TIP3    H2 1534   4.482   2.769   1.338
  525TIP3   OH2 1535   5.796   2.038   0.059
  525TIP3    H1 1536   5.769   2.130   0.054
  525TIP3    H2 1537   5.715   1.989   0.042
  526TIP3   OH2 1538   5.704   2.039   0.484
  526TIP3    H1 1539   5.736   2.023   0.573
  526TIP3    H2 1540   5.670   1.954   0.455
  527TIP3   OH2 1541   5.074   1.936   0.839
  527TIP3    H1 1542   5.100   1.871   0.904
  527TIP3    H2 1543   5.155   1.958   0.793
  528TIP3   OH2 1544   5.957   2.459   0.115
  528TIP3    H1 1545   5.979   2.365   0.114
  528TIP3    H2 1546   5.930   2.476   0.205
  529TIP3   OH2 1547   5.056   2.355   0.544
  529TIP3    H1 1548   5.039   2.261   0.549
  529TIP3    H2 1549   5.151   2.362   0.533
  530TIP3   OH2 1550   4.749   1.560   0.384
  530TIP3    H1 1551   4.702   1.643   0.390
  530TIP3    H2 1552   4.690   1.504   0.333
  531TIP3   OH2 1553   4.803   1.850   0.540
  531TIP3    H1 1554   4.854   1.775   0.572
  531TIP3    H2 1555   4.867   1.903   0.492
  532TIP3   OH2 1556   5.634   2.818   0.192
  532TIP3    H1 1557   5.687   2.763   0.134
  532TIP3    H2 1558   5.636   2.772   0.277
  533TIP3   OH2 1559   5.561   2.279   0.493
  533TIP3    H1 1560   5.597   2.194   0.468
  533TIP3    H2 1561   5.637   2.329   0.525
  534TIP3   OH2 1562   5.922   1.734   0.510
  534TIP3    H1 1563   5.955   1.709   0.597
  534TIP3    H2 1564   5.978   1.806   0.483
  535TIP3   OH2 1565   5.296   1.406   0.508
  535TIP3    H1 1566   5.298   1.478   0.445
  535TIP3    H2 1567   5.308   1.328   0.455
  536TIP3   OH2 1568   4.965   1.646   0.627
  536TIP3    H1 1569   5.033   1.620   0.689
  536TIP3    H2 1570   4.991   1.605   0.545
  537TIP3   OH2 1571   5.388   1.831   0.434
  537TIP3    H1 1572   5.480   1.810   0.449
  537TIP3    H2 1573   5.350   1.749   0.400
  538TIP3   OH2 1574   5.300   1.432   0.956
  538TIP3    H1 1575   5.250   1.471   0.884
  538TIP3    H2 1576   5.246   1.448   1.034
  539TIP3   OH2 1577   0.474   5.953   6.371
  539TIP3    H1 1578   0.445   5.939   6.281
  539TIP3    H2 1579   0.427   6.032   6.399
  540TIP3   OH2 1580   5.417   2.206   0.717
  540TIP3    H1 1581   5.358   2.273   0.753
  540TIP3    H2 1582   5.456   2.248   0.641
  541TIP3   OH2 1583   5.202   1.542   0.727
  541TIP3    H1 1584   5.266   1.611   0.740
  541TIP3    H2 1585   5.234   1.492   0.652
  542TIP3   OH2 1586   5.255   2.402   0.823
  542TIP3    H1 1587   5.238   2.491   0.791
  542TIP3    H2 1588   5.177   2.380   0.875
  543TIP3   OH2 1589   4.633   2.102   0.095
  543TIP3    H1 1590   4.591   2.122   0.011
  543TIP3    H2 1591   4.659   2.188   0.129
  544TIP3   OH2 1592   6.060   2.644   0.363
  544TIP3    H1 1593   5.975   2.616   0.397
  544TIP3    H2 1594   6.042   2.728   0.321
  545TIP3   OH2 1595   5.785   2.652   0.018
  545TIP3    H1 1596   5.842   2.579   0.043
  545TIP3    H2 1597   5.830   2.693  -0.056
  546TIP3   OH2 1598   6.282   2.576   0.747
  546TIP3    H1 1599   6.320   2.513   0.686
  546TIP3    H2 1600   6.261   2.652   0.693
  547TIP3   OH2 1601   6.541   2.174   0.474
  547TIP3    H1 1602   6.466   2.140   0.524
  547TIP3    H2 1603   6.569   2.100   0.420
  548TIP3   OH2 1604   6.104   2.035   0.848
  548TIP3    H1 1605   6.172   2.096   0.875
  548TIP3    H2 1606   6.039   2.090   0.803
  549TIP3   OH2 1607   5.189   1.980   0.301
  549TIP3    H1 1608   5.141   1.918   0.247
  549TIP3    H2 1609   5.262   1.929   0.336
  550TIP3   OH2 1610   5.314   2.396   0.439
  550TIP3    H1 1611   5.286   2.380   0.349
  550TIP3    H2 1612   5.401   2.356   0.445
  551TIP3   OH2 1613   5.297   1.963   0.666
  551TIP3    H1 1614   5.331   1.930   0.583
  551TIP3    H2 1615   5.342   2.047   0.679
  552TIP3   OH2 1616   5.811   2.590   0.452
  552TIP3    H1 1617   5.802   2.670   0.503
  552TIP3    H2 1618   5.798   2.519   0.515
  553TIP3   OH2 1619   5.453   2.499   0.989
  553TIP3    H1 1620   5.395   2.559   1.035
  553TIP3    H2 1621   5.395   2.449   0.931
  554TIP3   OH2 1622   5.212   2.050   1.125
  554TIP3    H1 1623   5.216   2.143   1.146
  554TIP3    H2 1624   5.119   2.031   1.118
  555TIP3   OH2 1625   5.539   2.516   0.021
  555TIP3    H1 1626   5.614   2.575   0.017
  555TIP3    H2 1627   5.463   2.574   0.028
  556TIP3   OH2 1628   5.248   2.662   1.075
  556TIP3    H1 1629   5.220   2.671   0.984
  556TIP3    H2 1630   5.167   2.644   1.123
  557TIP3   OH2 1631   5.040   1.814   0.130
  557TIP3    H1 1632   4.981   1.875   0.088
  557TIP3    H2 1633   5.006   1.727   0.108
  558TIP3   OH2 1634   4.837   2.213   1.021
  558TIP3    H1 1635   4.767   2.200   0.957
  558TIP3    H2 1636   4.872   2.125   1.036
  559TIP3   OH2 1637   4.680   2.412   0.666
  559TIP3    H1 1638   4.774   2.428   0.675
  559TIP3    H2 1639   4.639   2.490   0.702
  560TIP3   OH2 1640   6.549   2.914   0.762
  560TIP3    H1 1641   6.553   2.822   0.789
  560TIP3    H2 1642   6.458   2.939   0.774
  561TIP3   OH2 1643   5.641   2.642   0.848
  561TIP3    H1 1644   5.636   2.734   0.877
  561TIP3    H2 1645   5.572   2.598   0.898
  562TIP3   OH2 1646   4.862   2.600   0.175
  562TIP3    H1 1647   4.906   2.594   0.260
  562TIP3    H2 1648   4.814   2.517   0.167
  563TIP3   OH2 1649   5.039   2.398   0.993
  563TIP3    H1 1650   5.087   2.387   1.075
  563TIP3    H2 1651   4.966   2.336   0.999
  564TIP3   OH2 1652   5.360   1.209   0.806
  564TIP3    H1 1653   5.362   1.247   0.718
  564TIP3    H2 1654   5.338   1.282   0.864
  565TIP3   OH2 1655   5.942   1.370   1.069
  565TIP3    H1 1656   5.995   1.335   1.141
  565TIP3    H2 1657   5.855   1.333   1.084
  566TIP3   OH2 1658   6.241   1.734   0.950
  566TIP3    H1 1659   6.172   1.725   1.016
  566TIP3    H2 1660   6.195   1.735   0.866
  567TIP3   OH2 1661   5.367   1.745   0.820
  567TIP3    H1 1662   5.312   1.749   0.898
  567TIP3    H2 1663   5.344   1.825   0.771
  568TIP3   OH2 1664   5.262   1.613   0.319
  568TIP3    H1 1665   5.170   1.597   0.339
  568TIP3    H2 1666   5.264   1.629   0.225
  569TIP3   OH2 1667   5.900   1.974   1.147
  569TIP3    H1 1668   5.880   1.903   1.207
  569TIP3    H2 1669   5.993   1.993   1.161
  570TIP3   OH2 1670   5.188   1.756   1.030
  570TIP3    H1 1671   5.192   1.822   1.099
  570TIP3    H2 1672   5.167   1.675   1.075
  571TIP3   OH2 1673   4.894   1.272   0.590
  571TIP3    H1 1674   4.890   1.367   0.590
  571TIP3    H2 1675   4.842   1.245   0.514
  572TIP3   OH2 1676   5.831   1.971   0.718
  572TIP3    H1 1677   5.898   1.924   0.669
  572TIP3    H2 1678   5.823   1.923   0.800
  573TIP3   OH2 1679   7.703   3.796   0.046
  573TIP3    H1 1680   7.639   3.731   0.018
  573TIP3    H2 1681   7.762   3.748   0.105
  574TIP3   OH2 1682   5.013   1.521   0.383
  574TIP3    H1 1683   4.921   1.548   0.373
  574TIP3    H2 1684   5.012   1.427   0.365
  575TIP3   OH2 1685   6.253   3.217   0.821
  575TIP3    H1 1686   6.248   3.232   0.726
  575TIP3    H2 1687   6.333   3.262   0.848
  576TIP3   OH2 1688   5.197   2.312   1.228
  576TIP3    H1 1689   5.277   2.336   1.276
  576TIP3    H2 1690   5.127   2.321   1.292
  577TIP3   OH2 1691   5.647   1.763   0.504
  577TIP3    H1 1692   5.738   1.740   0.484
  577TIP3    H2 1693   5.633   1.728   0.592
  578TIP3   OH2 1694   5.629   1.688   0.771
  578TIP3    H1 1695   5.541   1.717   0.794
  578TIP3    H2 1696   5.686   1.737   0.830
  579TIP3   OH2 1697   0.155   5.651   6.281
  579TIP3    H1 1698   0.071   5.610   6.260
  579TIP3    H2 1699   0.133   5.722   6.340
  580TIP3   OH2 1700   6.190   2.283   0.484
  580TIP3    H1 1701   6.230   2.230   0.414
  580TIP3    H2 1702   6.098   2.258   0.482
  581TIP3   OH2 1703   5.790   2.399   0.886
  581TIP3    H1 1704   5.788   2.371   0.977
  581TIP3    H2 1705   5.732   2.476   0.883
  582TIP3   OH2 1706   5.060   2.074   0.529
  582TIP3    H1 1707   5.100   2.051   0.446
  582TIP3    H2 1708   5.112   2.027   0.595
  583TIP3   OH2 1709   4.943   1.977   1.151
  583TIP3    H1 1710   4.942   1.954   1.244
  583TIP3    H2 1711   4.867   1.933   1.115
  584TIP3   OH2 1712   5.666   2.123   1.177
  584TIP3    H1 1713   5.598   2.062   1.148
  584TIP3    H2 1714   5.748   2.082   1.150
  585TIP3   OH2 1715   5.908   2.671   0.759
  585TIP3    H1 1716   5.815   2.655   0.774
  585TIP3    H2 1717   5.939   2.706   0.843
  586TIP3   OH2 1718   6.533   2.650   0.833
  586TIP3    H1 1719   6.438   2.637   0.835
  586TIP3    H2 1720   6.558   2.634   0.742
  587TIP3   OH2 1721   5.950   2.159   0.463
  587TIP3    H1 1722   5.859   2.129   0.454
  587TIP3    H2 1723   6.002   2.078   0.464
  588TIP3   OH2 1724   5.176   2.396   0.196
  588TIP3    H1 1725   5.173   2.478   0.147
  588TIP3    H2 1726   5.085   2.379   0.219
  589TIP3   OH2 1727   7.367   5.352   6.360
  589TIP3    H1 1728   7.392   5.443   6.343
  589TIP3    H2 1729   7.272   5.350   6.346
  590TIP3   OH2 1730   5.245   2.154   0.090
  590TIP3    H1 1731   5.241   2.243   0.125
  590TIP3    H2 1732   5.230   2.098   0.166
  591TIP3   OH2 1733   5.454   2.717   0.645
  591TIP3    H1 1734   5.488   2.791   0.594
  591TIP3    H2 1735   5.530   2.686   0.695
  592TIP3   OH2 1736   5.118   2.632   0.065
  592TIP3    H1 1737   5.025   2.632   0.084
  592TIP3    H2 1738   5.141   2.724   0.052
  593TIP3   OH2 1739   5.799   2.362   0.609
  593TIP3    H1 1740   5.802   2.363   0.705
  593TIP3    H2 1741   5.869   2.301   0.584
  594TIP3   OH2 1742   6.040   2.915   0.673
  594TIP3    H1 1743   5.971   2.849   0.665
  594TIP3    H2 1744   6.026   2.973   0.599
  595TIP3   OH2 1745   5.133   1.505   1.164
  595TIP3    H1 1746   5.037   1.503   1.170
  595TIP3    H2 1747   5.162   1.446   1.234
  596TIP3   OH2 1748   4.886   2.605   0.798
  596TIP3    H1 1749   4.937   2.541   0.847
  596TIP3    H2 1750   4.901   2.688   0.844
  597TIP3   OH2 1751   7.675   5.892   6.244
  597TIP3    H1 1752   7.726   5.861   6.319
  597TIP3    H2 1753   7.730   5.959   6.204
  598TIP3   OH2 1754   7.437   5.623   6.359
  598TIP3    H1 1755   7.371   5.668   6.412
  598TIP3    H2 1756   7.445   5.676   6.280
  599TIP3   OH2 1757   5.992   1.571   0.891
  599TIP3    H1 1758   6.057   1.523   0.839
  599TIP3    H2 1759   5.966   1.510   0.960
  600TIP3   OH2 1760   5.829   1.804   0.934
  600TIP3    H1 1761   5.852   1.860   1.008
  600TIP3    H2 1762   5.874   1.721   0.953
  601TIP3   OH2 1763   6.090   1.930   0.426
  601TIP3    H1 1764   6.060   1.915   0.336
  601TIP3    H2 1765   6.185   1.919   0.423
  602TIP3   OH2 1766   7.430   5.808   6.149
  602TIP3    H1 1767   7.508   5.847   6.190
  602TIP3    H2 1768   7.450   5.809   6.055
  603TIP3   OH2 1769   6.038   2.893   0.243
  603TIP3    H1 1770   5.994   2.902   0.159
  603TIP3    H2 1771   6.131   2.906   0.224
  604TIP3   OH2 1772   4.696   2.371   0.172
  604TIP3    H1 1773   4.653   2.408   0.249
  604TIP3    H2 1774   4.648   2.407   0.098
  605TIP3   OH2 1775   4.878   2.912   1.221
  605TIP3    H1 1776   4.961   2.914   1.269
  605TIP3    H2 1777   4.856   2.819   1.214
  606TIP3   OH2 1778   5.348   2.832   1.269
  606TIP3    H1 1779   5.441   2.812   1.275
  606TIP3    H2 1780   5.316   2.775   1.198
  607TIP3   OH2 1781   5.976   2.762   1.010
  607TIP3    H1 1782   5.984   2.695   1.077
  607TIP3    H2 1783   6.048   2.823   1.028
  608TIP3   OH2 1784   4.990   2.309   1.414
  608TIP3    H1 1785   5.005   2.215   1.424
  608TIP3    H2 1786   4.904   2.316   1.372
  609TIP3   OH2 1787   5.610   2.397   1.190
  609TIP3    H1 1788   5.558   2.416   1.112
  609TIP3    H2 1789   5.635   2.305   1.180
  610TIP3   OH2 1790   6.060   2.414   0.831
  610TIP3    H1 1791   6.094   2.500   0.804
  610TIP3    H2 1792   5.966   2.428   0.842
  611TIP3   OH2 1793   5.106   2.051   1.421
  611TIP3    H1 1794   5.181   2.038   1.364
  611TIP3    H2 1795   5.143   2.075   1.505
  612TIP3   OH2 1796   5.468   1.945   1.079
  612TIP3    H1 1797   5.381   1.982   1.087
  612TIP3    H2 1798   5.499   1.973   0.993
  613TIP3   OH2 1799   5.958   2.320   1.185
  613TIP3    H1 1800   6.032   2.282   1.138
  613TIP3    H2 1801   5.949   2.265   1.264
  614TIP3   OH2 1802   5.570   1.711   1.182
  614TIP3    H1 1803   5.565   1.639   1.119
  614TIP3    H2 1804   5.534   1.787   1.135
  615TIP3   OH2 1805   5.563   1.510   0.985
  615TIP3    H1 1806   5.591   1.545   0.900
  615TIP3    H2 1807   5.472   1.483   0.972
  616TIP3   OH2 1808   5.585   2.039   0.853
  616TIP3    H1 1809   5.667   2.039   0.804
  616TIP3    H2 1810   5.530   2.103   0.809
  617TIP3   OH2 1811   6.166   2.026   1.252
  617TIP3    H1 1812   6.220   1.947   1.248
  617TIP3    H2 1813   6.227   2.098   1.242
  618TIP3   OH2 1814   6.195   2.282   1.027
  618TIP3    H1 1815   6.134   2.329   0.971
  618TIP3    H2 1816   6.280   2.292   0.984
  619TIP3   OH2 1817   5.457   1.795   1.427
  619TIP3    H1 1818   5.387   1.733   1.447
  619TIP3    H2 1819   5.483   1.774   1.337
  620TIP3   OH2 1820   5.679   1.280   1.089
  620TIP3    H1 1821   5.638   1.358   1.051
  620TIP3    H2 1822   5.622   1.208   1.062
  621TIP3   OH2 1823   5.824   1.747   1.282
  621TIP3    H1 1824   5.810   1.735   1.375
  621TIP3    H2 1825   5.740   1.729   1.241
  622TIP3   OH2 1826   6.068   1.713   1.157
  622TIP3    H1 1827   5.982   1.712   1.199
  622TIP3    H2 1828   6.128   1.678   1.224
  623TIP3   OH2 1829   6.283   1.643   1.315
  623TIP3    H1 1830   6.283   1.554   1.349
  623TIP3    H2 1831   6.286   1.698   1.393
  624TIP3   OH2 1832   5.290   1.578   1.492
  624TIP3    H1 1833   5.294   1.490   1.455
  624TIP3    H2 1834   5.328   1.569   1.579
  625TIP3   OH2 1835   5.743   1.271   1.353
  625TIP3    H1 1836   5.799   1.194   1.351
  625TIP3    H2 1837   5.711   1.280   1.263
  626TIP3   OH2 1838   5.863   1.477   1.489
  626TIP3    H1 1839   5.829   1.406   1.434
  626TIP3    H2 1840   5.793   1.542   1.491
  627TIP3   OH2 1841   7.152   5.779   6.192
  627TIP3    H1 1842   7.243   5.801   6.172
  627TIP3    H2 1843   7.139   5.693   6.151
  628TIP3   OH2 1844   4.491   2.689   0.227
  628TIP3    H1 1845   4.423   2.637   0.185
  628TIP3    H2 1846   4.532   2.629   0.289
  629TIP3   OH2 1847   4.626   2.528   0.407
  629TIP3    H1 1848   4.613   2.461   0.474
  629TIP3    H2 1849   4.678   2.596   0.450
  630TIP3   OH2 1850   6.305   2.921   0.211
  630TIP3    H1 1851   6.347   2.946   0.293
  630TIP3    H2 1852   6.357   2.848   0.178
  631TIP3   OH2 1853   6.384   2.974   0.477
  631TIP3    H1 1854   6.342   2.894   0.510
  631TIP3    H2 1855   6.477   2.953   0.474
  632TIP3   OH2 1856   6.415   2.645   1.098
  632TIP3    H1 1857   6.344   2.665   1.159
  632TIP3    H2 1858   6.462   2.727   1.088
  633TIP3   OH2 1859   6.445   2.364   0.260
  633TIP3    H1 1860   6.480   2.314   0.186
  633TIP3    H2 1861   6.367   2.407   0.225
  634TIP3   OH2 1862   6.230   2.758   0.549
  634TIP3    H1 1863   6.159   2.808   0.590
  634TIP3    H2 1864   6.186   2.705   0.483
  635TIP3   OH2 1865   4.807   1.968   0.788
  635TIP3    H1 1866   4.793   1.928   0.702
  635TIP3    H2 1867   4.901   1.964   0.802
  636TIP3   OH2 1868   6.449   2.376   0.943
  636TIP3    H1 1869   6.483   2.377   0.853
  636TIP3    H2 1870   6.419   2.465   0.958
  637TIP3   OH2 1871   5.027   1.647   1.450
  637TIP3    H1 1872   5.122   1.640   1.458
  637TIP3    H2 1873   4.994   1.562   1.481
  638TIP3   OH2 1874   6.844   1.556   1.214
  638TIP3    H1 1875   6.853   1.503   1.293
  638TIP3    H2 1876   6.929   1.599   1.204
  639TIP3   OH2 1877   6.633   1.695   1.094
  639TIP3    H1 1878   6.560   1.634   1.090
  639TIP3    H2 1879   6.706   1.644   1.128
  640TIP3   OH2 1880   4.717   1.200   0.388
  640TIP3    H1 1881   4.634   1.159   0.415
  640TIP3    H2 1882   4.704   1.222   0.296
  641TIP3   OH2 1883   5.002   1.202   1.167
  641TIP3    H1 1884   4.945   1.208   1.243
  641TIP3    H2 1885   4.948   1.235   1.095
  642TIP3   OH2 1886   5.026   2.627   1.241
  642TIP3    H1 1887   4.932   2.613   1.228
  642TIP3    H2 1888   5.039   2.620   1.335
  643TIP3   OH2 1889   5.227   2.677   0.793
  643TIP3    H1 1890   5.173   2.749   0.760
  643TIP3    H2 1891   5.311   2.687   0.749
  644TIP3   OH2 1892   5.637   2.908   0.926
  644TIP3    H1 1893   5.674   2.902   1.014
  644TIP3    H2 1894   5.699   2.963   0.877
  645TIP3   OH2 1895   5.827   3.066   0.803
  645TIP3    H1 1896   5.896   3.013   0.762
  645TIP3    H2 1897   5.875   3.128   0.859
  646TIP3   OH2 1898   4.891   2.924   0.836
  646TIP3    H1 1899   4.799   2.940   0.812
  646TIP3    H2 1900   4.911   2.991   0.901
  647TIP3   OH2 1901   5.120   2.906   0.685
  647TIP3    H1 1902   5.038   2.914   0.734
  647TIP3    H2 1903   5.097   2.934   0.596
  648TIP3   OH2 1904   5.536   2.922   0.479
  648TIP3    H1 1905   5.471   2.933   0.409
  648TIP3    H2 1906   5.548   3.009   0.515
  649TIP3   OH2 1907   5.802   2.865   0.520
  649TIP3    H1 1908   5.708   2.880   0.508
  649TIP3    H2 1909   5.843   2.940   0.477
  650TIP3   OH2 1910   6.013   3.074   0.449
  650TIP3    H1 1911   5.985   3.155   0.407
  650TIP3    H2 1912   6.026   3.013   0.377
  651TIP3   OH2 1913   4.801   2.705   0.551
  651TIP3    H1 1914   4.824   2.678   0.639
  651TIP3    H2 1915   4.872   2.672   0.496
  652TIP3   OH2 1916   5.002   2.587   0.412
  652TIP3    H1 1917   5.012   2.506   0.460
  652TIP3    H2 1918   5.089   2.628   0.415
  653TIP3   OH2 1919   5.268   2.669   0.443
  653TIP3    H1 1920   5.287   2.576   0.430
  653TIP3    H2 1921   5.322   2.694   0.519
  654TIP3   OH2 1922   7.162   6.158   6.333
  654TIP3    H1 1923   7.087   6.114   6.295
  654TIP3    H2 1924   7.154   6.249   6.304
  655TIP3   OH2 1925   5.296   1.307   1.407
  655TIP3    H1 1926   5.262   1.238   1.464
  655TIP3    H2 1927   5.388   1.316   1.433
  656TIP3   OH2 1928   5.540   1.320   1.533
  656TIP3    H1 1929   5.614   1.302   1.475
  656TIP3    H2 1930   5.540   1.247   1.595
  657TIP3   OH2 1931   6.362   1.379   1.362
  657TIP3    H1 1932   6.379   1.346   1.450
  657TIP3    H2 1933   6.425   1.333   1.307
  658TIP3   OH2 1934   6.279   2.945   0.820
  658TIP3    H1 1935   6.198   2.917   0.777
  658TIP3    H2 1936   6.269   3.039   0.832
  659TIP3   OH2 1937   6.827   2.175   0.315
  659TIP3    H1 1938   6.912   2.150   0.278
  659TIP3    H2 1939   6.845   2.254   0.366
  660TIP3   OH2 1940   6.991   2.430   0.643
  660TIP3    H1 1941   7.062   2.494   0.648
  660TIP3    H2 1942   6.961   2.433   0.552
  661TIP3   OH2 1943   7.064   2.989   0.612
  661TIP3    H1 1944   7.046   2.991   0.518
  661TIP3    H2 1945   6.980   2.966   0.651
  662TIP3   OH2 1946   6.675   2.408   0.421
  662TIP3    H1 1947   6.621   2.468   0.369
  662TIP3    H2 1948   6.621   2.329   0.430
  663TIP3   OH2 1949   6.547   2.624   0.303
  663TIP3    H1 1950   6.619   2.666   0.256
  663TIP3    H2 1951   6.473   2.630   0.243
  664TIP3   OH2 1952   6.856   2.729   0.515
  664TIP3    H1 1953   6.874   2.777   0.596
  664TIP3    H2 1954   6.775   2.681   0.534
  665TIP3   OH2 1955   6.970   2.666   0.846
  665TIP3    H1 1956   7.007   2.642   0.931
  665TIP3    H2 1957   6.902   2.600   0.830
  666TIP3   OH2 1958   6.744   2.181   0.666
  666TIP3    H1 1959   6.734   2.128   0.746
  666TIP3    H2 1960   6.686   2.139   0.603
  667TIP3   OH2 1961   6.650   2.910   0.426
  667TIP3    H1 1962   6.739   2.881   0.445
  667TIP3    H2 1963   6.660   3.002   0.402
  668TIP3   OH2 1964   6.669   3.163   0.706
  668TIP3    H1 1965   6.751   3.153   0.756
  668TIP3    H2 1966   6.629   3.076   0.709
  669TIP3   OH2 1967   6.722   2.609   1.026
  669TIP3    H1 1968   6.758   2.532   0.983
  669TIP3    H2 1969   6.643   2.630   0.976
  670TIP3   OH2 1970   6.797   2.193   0.944
  670TIP3    H1 1971   6.892   2.184   0.946
  670TIP3    H2 1972   6.782   2.279   0.905
  671TIP3   OH2 1973   6.829   2.895   0.739
  671TIP3    H1 1974   6.735   2.902   0.753
  671TIP3    H2 1975   6.860   2.837   0.809
  672TIP3   OH2 1976   6.651   3.171   0.356
  672TIP3    H1 1977   6.570   3.215   0.327
  672TIP3    H2 1978   6.701   3.240   0.399
  673TIP3   OH2 1979   0.317   3.401   1.359
  673TIP3    H1 1980   0.402   3.402   1.316
  673TIP3    H2 1981   0.319   3.477   1.417
  674TIP3   OH2 1982   7.746   3.836   1.390
  674TIP3    H1 1983   7.798   3.756   1.378
  674TIP3    H2 1984   7.729   3.839   1.485
  675TIP3   OH2 1985   0.808   2.661   1.719
  675TIP3    H1 1986   0.836   2.721   1.789
  675TIP3    H2 1987   0.869   2.679   1.647
  676TIP3   OH2 1988   0.893   2.830   1.916
  676TIP3    H1 1989   0.827   2.895   1.893
  676TIP3    H2 1990   0.959   2.878   1.966
  677TIP3   OH2 1991   0.318   3.630   1.521
  677TIP3    H1 1992   0.225   3.629   1.542
  677TIP3    H2 1993   0.331   3.711   1.472
  678TIP3   OH2 1994   0.628   2.524   1.870
  678TIP3    H1 1995   0.560   2.588   1.891
  678TIP3    H2 1996   0.685   2.570   1.808
  679TIP3   OH2 1997   0.567   3.541   1.851
  679TIP3    H1 1998   0.560   3.470   1.787
  679TIP3    H2 1999   0.552   3.621   1.801
  680TIP3   OH2 2000   0.757   3.204   1.733
  680TIP3    H1 2001   0.683   3.253   1.698
  680TIP3    H2 2002   0.789   3.153   1.659
  681TIP3   OH2 2003   0.445   3.069   2.010
  681TIP3    H1 2004   0.437   3.151   2.059
  681TIP3    H2 2005   0.371   3.070   1.949
  682TIP3   OH2 2006   0.056   3.644   1.612
  682TIP3    H1 2007   0.075   3.719   1.670
  682TIP3    H2 2008   0.067   3.567   1.668
  683TIP3   OH2 2009   7.564   3.577   2.231
  683TIP3    H1 2010   7.505   3.639   2.189
  683TIP3    H2 2011   7.532   3.491   2.204
  684TIP3   OH2 2012   0.790   3.912   1.896
  684TIP3    H1 2013   0.797   3.817   1.905
  684TIP3    H2 2014   0.712   3.935   1.945
  685TIP3   OH2 2015   7.734   3.655   2.028
  685TIP3    H1 2016   7.737   3.748   2.048
  685TIP3    H2 2017   7.679   3.618   2.097
  686TIP3   OH2 2018   0.671   3.028   2.186
  686TIP3    H1 2019   0.600   3.034   2.122
  686TIP3    H2 2020   0.693   2.935   2.188
  687TIP3   OH2 2021   0.441   2.790   2.054
  687TIP3    H1 2022   0.394   2.772   2.136
  687TIP3    H2 2023   0.432   2.884   2.041
  688TIP3   OH2 2024   0.175   3.023   2.334
  688TIP3    H1 2025   0.145   2.951   2.388
  688TIP3    H2 2026   0.270   3.026   2.347
  689TIP3   OH2 2027   0.215   3.022   1.857
  689TIP3    H1 2028   0.210   2.946   1.798
  689TIP3    H2 2029   0.169   2.993   1.936
  690TIP3   OH2 2030   0.495   4.257   1.986
  690TIP3    H1 2031   0.500   4.265   1.890
  690TIP3    H2 2032   0.573   4.302   2.018
  691TIP3   OH2 2033   0.533   3.352   1.661
  691TIP3    H1 2034   0.549   3.398   1.578
  691TIP3    H2 2035   0.443   3.319   1.652
  692TIP3   OH2 2036   0.000   3.372   2.039
  692TIP3    H1 2037   0.072   3.373   2.102
  692TIP3    H2 2038  -0.018   3.464   2.021
  693TIP3   OH2 2039   7.747   3.175   2.351
  693TIP3    H1 2040   7.697   3.155   2.272
  693TIP3    H2 2041   7.831   3.131   2.338
  694TIP3   OH2 2042   0.187   3.712   1.933
  694TIP3    H1 2043   0.097   3.683   1.947
  694TIP3    H2 2044   0.215   3.748   2.017
  695TIP3   OH2 2045   0.817   3.635   1.916
  695TIP3    H1 2046   0.725   3.612   1.926
  695TIP3    H2 2047   0.842   3.597   1.831
  696TIP3   OH2 2048   0.275   3.235   1.659
  696TIP3    H1 2049   0.265   3.154   1.710
  696TIP3    H2 2050   0.271   3.206   1.568
  697TIP3   OH2 2051   7.566   3.723   1.811
  697TIP3    H1 2052   7.597   3.776   1.738
  697TIP3    H2 2053   7.645   3.700   1.860
  698TIP3   OH2 2054   0.091   3.419   1.767
  698TIP3    H1 2055   0.077   3.378   1.852
  698TIP3    H2 2056   0.159   3.365   1.725
  699TIP3   OH2 2057   0.329   3.933   1.828
  699TIP3    H1 2058   0.260   3.868   1.838
  699TIP3    H2 2059   0.305   3.982   1.749
  700TIP3   OH2 2060   0.107   2.917   2.090
  700TIP3    H1 2061   0.132   2.959   2.172
  700TIP3    H2 2062   0.135   2.826   2.101
  701TIP3   OH2 2063   0.705   2.759   2.122
  701TIP3    H1 2064   0.614   2.749   2.094
  701TIP3    H2 2065   0.756   2.750   2.042
  702TIP3   OH2 2066   0.366   3.876   1.417
  702TIP3    H1 2067   0.322   3.934   1.355
  702TIP3    H2 2068   0.460   3.895   1.407
  703TIP3   OH2 2069   7.440   3.953   2.288
  703TIP3    H1 2070   7.466   4.044   2.301
  703TIP3    H2 2071   7.459   3.935   2.196
  704TIP3   OH2 2072   0.238   3.800   2.188
  704TIP3    H1 2073   0.248   3.728   2.251
  704TIP3    H2 2074   0.313   3.856   2.205
  705TIP3   OH2 2075   7.742   3.448   2.415
  705TIP3    H1 2076   7.693   3.488   2.344
  705TIP3    H2 2077   7.756   3.358   2.386
  706TIP3   OH2 2078   0.334   3.481   1.987
  706TIP3    H1 2079   0.418   3.499   1.945
  706TIP3    H2 2080   0.276   3.550   1.957
  707TIP3   OH2 2081   0.235   3.347   2.341
  707TIP3    H1 2082   0.308   3.322   2.285
  707TIP3    H2 2083   0.244   3.292   2.418
  708TIP3   OH2 2084   7.683   3.110   2.088
  708TIP3    H1 2085   7.741   3.036   2.068
  708TIP3    H2 2086   7.727   3.186   2.049
  709TIP3   OH2 2087   0.451   3.017   2.415
  709TIP3    H1 2088   0.477   2.927   2.432
  709TIP3    H2 2089   0.526   3.057   2.371
  710TIP3   OH2 2090   0.455   3.312   2.162
  710TIP3    H1 2091   0.406   3.373   2.107
  710TIP3    H2 2092   0.546   3.321   2.132
  711TIP3   OH2 2093   7.554   2.830   2.557
  711TIP3    H1 2094   7.470   2.875   2.565
  711TIP3    H2 2095   7.567   2.820   2.463
  712TIP3   OH2 2096   0.105   2.804   2.481
  712TIP3    H1 2097   0.151   2.815   2.564
  712TIP3    H2 2098   0.064   2.718   2.487
  713TIP3   OH2 2099   0.317   2.756   2.297
  713TIP3    H1 2100   0.245   2.755   2.360
  713TIP3    H2 2101   0.394   2.732   2.349
  714TIP3   OH2 2102   0.527   2.725   2.476
  714TIP3    H1 2103   0.546   2.631   2.480
  714TIP3    H2 2104   0.537   2.756   2.566
  715TIP3   OH2 2105   0.138   2.536   2.603
  715TIP3    H1 2106   0.135   2.446   2.571
  715TIP3    H2 2107   0.051   2.552   2.638
  716TIP3   OH2 2108   0.621   3.973   1.398
  716TIP3    H1 2109   0.641   4.007   1.486
  716TIP3    H2 2110   0.668   4.032   1.339
  717TIP3   OH2 2111   0.630   4.007   1.678
  717TIP3    H1 2112   0.590   3.920   1.670
  717TIP3    H2 2113   0.702   3.995   1.739
  718TIP3   OH2 2114   0.685   3.708   2.231
  718TIP3    H1 2115   0.620   3.712   2.301
  718TIP3    H2 2116   0.733   3.791   2.238
  719TIP3   OH2 2117   0.632   3.483   1.440
  719TIP3    H1 2118   0.708   3.426   1.438
  719TIP3    H2 2119   0.661   3.563   1.396
  720TIP3   OH2 2120   0.502   3.758   1.696
  720TIP3    H1 2121   0.435   3.809   1.742
  720TIP3    H2 2122   0.453   3.710   1.628
  721TIP3   OH2 2123   0.707   3.350   2.057
  721TIP3    H1 2124   0.775   3.284   2.045
  721TIP3    H2 2125   0.705   3.398   1.974
  722TIP3   OH2 2126   0.889   3.147   2.062
  722TIP3    H1 2127   0.817   3.101   2.105
  722TIP3    H2 2128   0.966   3.093   2.081
  723TIP3   OH2 2129   0.550   2.897   1.601
  723TIP3    H1 2130   0.608   2.876   1.527
  723TIP3    H2 2131   0.608   2.901   1.677
  724TIP3   OH2 2132   0.670   2.979   1.858
  724TIP3    H1 2133   0.587   3.004   1.897
  724TIP3    H2 2134   0.704   3.059   1.818
  725TIP3   OH2 2135   1.142   2.574   2.377
  725TIP3    H1 2136   1.129   2.483   2.350
  725TIP3    H2 2137   1.095   2.625   2.310
  726TIP3   OH2 2138   0.973   2.696   2.193
  726TIP3    H1 2139   0.889   2.731   2.223
  726TIP3    H2 2140   0.950   2.626   2.133
  727TIP3   OH2 2141   0.253   3.903   0.919
  727TIP3    H1 2142   0.190   3.831   0.919
  727TIP3    H2 2143   0.214   3.970   0.975
  728TIP3   OH2 2144   7.397   3.726   2.080
  728TIP3    H1 2145   7.303   3.706   2.071
  728TIP3    H2 2146   7.429   3.726   1.990
  729TIP3   OH2 2147   7.738   3.916   2.103
  729TIP3    H1 2148   7.774   3.915   2.192
  729TIP3    H2 2149   7.801   3.967   2.053
  730TIP3   OH2 2150   0.092   4.088   1.958
  730TIP3    H1 2151   0.142   4.044   1.889
  730TIP3    H2 2152   0.158   4.137   2.008
  731TIP3   OH2 2153   0.853   2.486   2.041
  731TIP3    H1 2154   0.769   2.493   1.995
  731TIP3    H2 2155   0.873   2.392   2.041
  732TIP3   OH2 2156   7.612   3.967   1.652
  732TIP3    H1 2157   7.534   3.996   1.605
  732TIP3    H2 2158   7.640   4.043   1.702
  733TIP3   OH2 2159   0.071   3.905   1.706
  733TIP3    H1 2160  -0.019   3.929   1.684
  733TIP3    H2 2161   0.124   3.966   1.655
  734TIP3   OH2 2162   0.260   4.070   1.597
  734TIP3    H1 2163   0.264   4.160   1.565
  734TIP3    H2 2164   0.291   4.018   1.523
  735TIP3   OH2 2165   0.600   2.462   2.507
  735TIP3    H1 2166   0.623   2.427   2.593
  735TIP3    H2 2167   0.681   2.455   2.456
  736TIP3   OH2 2168   0.543   3.984   2.000
  736TIP3    H1 2169   0.472   3.954   1.943
  736TIP3    H2 2170   0.530   4.078   2.008
  737TIP3   OH2 2171   1.903   3.470   0.822
  737TIP3    H1 2172   1.824   3.519   0.799
  737TIP3    H2 2173   1.871   3.384   0.849
  738TIP3   OH2 2174   1.818   3.364   1.163
  738TIP3    H1 2175   1.864   3.367   1.247
  738TIP3    H2 2176   1.792   3.273   1.153
  739TIP3   OH2 2177   1.117   3.226   1.492
  739TIP3    H1 2178   1.136   3.178   1.573
  739TIP3    H2 2179   1.202   3.239   1.452
  740TIP3   OH2 2180   2.106   3.671   0.813
  740TIP3    H1 2181   2.054   3.603   0.857
  740TIP3    H2 2182   2.118   3.739   0.880
  741TIP3   OH2 2183   1.102   3.667   1.209
  741TIP3    H1 2184   1.080   3.576   1.230
  741TIP3    H2 2185   1.197   3.667   1.198
  742TIP3   OH2 2186   0.847   3.202   1.207
  742TIP3    H1 2187   0.893   3.123   1.235
  742TIP3    H2 2188   0.917   3.266   1.192
  743TIP3   OH2 2189   1.730   4.107   0.852
  743TIP3    H1 2190   1.764   4.041   0.792
  743TIP3    H2 2191   1.727   4.064   0.937
  744TIP3   OH2 2192   1.624   3.586   1.178
  744TIP3    H1 2193   1.660   3.505   1.143
  744TIP3    H2 2194   1.701   3.637   1.204
  745TIP3   OH2 2195   2.648   2.900   1.176
  745TIP3    H1 2196   2.667   2.981   1.222
  745TIP3    H2 2197   2.688   2.912   1.090
  746TIP3   OH2 2198   2.091   3.102   1.259
  746TIP3    H1 2199   2.127   3.018   1.287
  746TIP3    H2 2200   2.054   3.085   1.173
  747TIP3   OH2 2201   1.165   2.787   1.163
  747TIP3    H1 2202   1.243   2.842   1.154
  747TIP3    H2 2203   1.198   2.697   1.157
  748TIP3   OH2 2204   2.125   2.877   0.820
  748TIP3    H1 2205   2.183   2.851   0.891
  748TIP3    H2 2206   2.182   2.919   0.755
  749TIP3   OH2 2207   1.004   2.993   1.300
  749TIP3    H1 2208   1.088   2.969   1.340
  749TIP3    H2 2209   0.950   2.915   1.310
  750TIP3   OH2 2210   1.462   3.130   1.142
  750TIP3    H1 2211   1.550   3.136   1.106
  750TIP3    H2 2212   1.425   3.051   1.102
  751TIP3   OH2 2213   2.710   3.117   1.345
  751TIP3    H1 2214   2.621   3.152   1.341
  751TIP3    H2 2215   2.744   3.145   1.430
  752TIP3   OH2 2216   1.371   2.737   1.629
  752TIP3    H1 2217   1.307   2.775   1.568
  752TIP3    H2 2218   1.335   2.755   1.716
  753TIP3   OH2 2219   1.691   3.593   0.688
  753TIP3    H1 2220   1.755   3.629   0.628
  753TIP3    H2 2221   1.631   3.665   0.706
  754TIP3   OH2 2222   1.469   3.510   1.393
  754TIP3    H1 2223   1.411   3.580   1.423
  754TIP3    H2 2224   1.517   3.549   1.319
  755TIP3   OH2 2225   2.279   2.844   1.043
  755TIP3    H1 2226   2.241   2.832   1.130
  755TIP3    H2 2227   2.330   2.924   1.050
  756TIP3   OH2 2228   1.227   2.884   1.435
  756TIP3    H1 2229   1.281   2.951   1.478
  756TIP3    H2 2230   1.282   2.850   1.365
  757TIP3   OH2 2231   1.299   3.706   1.488
  757TIP3    H1 2232   1.284   3.795   1.457
  757TIP3    H2 2233   1.221   3.685   1.540
  758TIP3   OH2 2234   2.118   3.910   0.978
  758TIP3    H1 2235   2.030   3.901   1.014
  758TIP3    H2 2236   2.117   3.993   0.930
  759TIP3   OH2 2237   2.448   2.798   1.356
  759TIP3    H1 2238   2.359   2.817   1.326
  759TIP3    H2 2239   2.504   2.822   1.282
  760TIP3   OH2 2240   1.703   2.378   1.398
  760TIP3    H1 2241   1.679   2.298   1.446
  760TIP3    H2 2242   1.638   2.443   1.427
  761TIP3   OH2 2243   1.831   3.941   0.659
  761TIP3    H1 2244   1.874   3.856   0.642
  761TIP3    H2 2245   1.894   4.006   0.627
  762TIP3   OH2 2246   1.946   3.705   0.595
  762TIP3    H1 2247   1.987   3.663   0.519
  762TIP3    H2 2248   2.010   3.693   0.665
  763TIP3   OH2 2249   2.355   3.806   1.321
  763TIP3    H1 2250   2.340   3.730   1.265
  763TIP3    H2 2251   2.340   3.881   1.264
  764TIP3   OH2 2252   1.559   3.112   0.506
  764TIP3    H1 2253   1.595   3.192   0.544
  764TIP3    H2 2254   1.613   3.095   0.429
  765TIP3   OH2 2255   2.543   3.461   1.182
  765TIP3    H1 2256   2.458   3.507   1.183
  765TIP3    H2 2257   2.575   3.473   1.093
  766TIP3   OH2 2258   2.032   3.372   0.595
  766TIP3    H1 2259   1.988   3.412   0.670
  766TIP3    H2 2260   2.106   3.326   0.634
  767TIP3   OH2 2261   2.230   3.328   1.491
  767TIP3    H1 2262   2.230   3.409   1.541
  767TIP3    H2 2263   2.147   3.328   1.444
  768TIP3   OH2 2264   1.227   3.254   1.094
  768TIP3    H1 2265   1.187   3.167   1.086
  768TIP3    H2 2266   1.320   3.237   1.103
  769TIP3   OH2 2267   1.371   3.687   1.104
  769TIP3    H1 2268   1.355   3.630   1.029
  769TIP3    H2 2269   1.460   3.664   1.133
  770TIP3   OH2 2270   1.363   3.259   1.371
  770TIP3    H1 2271   1.402   3.223   1.291
  770TIP3    H2 2272   1.400   3.346   1.378
  771TIP3   OH2 2273   1.876   3.902   1.102
  771TIP3    H1 2274   1.868   3.981   1.156
  771TIP3    H2 2275   1.868   3.830   1.164
  772TIP3   OH2 2276   1.502   3.806   1.649
  772TIP3    H1 2277   1.443   3.865   1.697
  772TIP3    H2 2278   1.445   3.754   1.594
  773TIP3   OH2 2279   1.992   3.176   0.407
  773TIP3    H1 2280   2.006   3.256   0.458
  773TIP3    H2 2281   1.979   3.206   0.317
  774TIP3   OH2 2282   1.262   3.361   1.782
  774TIP3    H1 2283   1.267   3.454   1.805
  774TIP3    H2 2284   1.168   3.341   1.786
  775TIP3   OH2 2285   1.570   3.848   0.664
  775TIP3    H1 2286   1.661   3.878   0.672
  775TIP3    H2 2287   1.526   3.919   0.618
  776TIP3   OH2 2288   1.291   3.966   1.733
  776TIP3    H1 2289   1.267   3.974   1.641
  776TIP3    H2 2290   1.208   3.951   1.778
  777TIP3   OH2 2291   2.183   3.796   0.026
  777TIP3    H1 2292   2.189   3.883  -0.014
  777TIP3    H2 2293   2.267   3.755   0.004
  778TIP3   OH2 2294   0.885   3.503   1.684
  778TIP3    H1 2295   0.844   3.465   1.606
  778TIP3    H2 2296   0.927   3.428   1.727
  779TIP3   OH2 2297   0.746   3.709   1.318
  779TIP3    H1 2298   0.841   3.704   1.309
  779TIP3    H2 2299   0.731   3.788   1.369
  780TIP3   OH2 2300   2.586   4.163   1.382
  780TIP3    H1 2301   2.592   4.069   1.394
  780TIP3    H2 2302   2.507   4.188   1.429
  781TIP3   OH2 2303   1.691   3.947   1.509
  781TIP3    H1 2304   1.685   4.038   1.539
  781TIP3    H2 2305   1.625   3.900   1.559
  782TIP3   OH2 2306   1.513   4.074   0.490
  782TIP3    H1 2307   1.488   4.059   0.399
  782TIP3    H2 2308   1.462   4.151   0.517
  783TIP3   OH2 2309   0.894   3.924   0.867
  783TIP3    H1 2310   0.945   3.914   0.947
  783TIP3    H2 2311   0.849   3.840   0.856
  784TIP3   OH2 2312   1.723   4.020   0.110
  784TIP3    H1 2313   1.797   3.995   0.055
  784TIP3    H2 2314   1.755   4.009   0.200
  785TIP3   OH2 2315   1.761   4.017   0.380
  785TIP3    H1 2316   1.681   4.026   0.432
  785TIP3    H2 2317   1.821   3.969   0.436
  786TIP3   OH2 2318   2.477   3.278   1.653
  786TIP3    H1 2319   2.395   3.285   1.604
  786TIP3    H2 2320   2.496   3.185   1.653
  787TIP3   OH2 2321   1.079   3.699   1.655
  787TIP3    H1 2322   1.130   3.688   1.736
  787TIP3    H2 2323   1.009   3.634   1.662
  788TIP3   OH2 2324   1.503   2.553   1.476
  788TIP3    H1 2325   1.434   2.492   1.452
  788TIP3    H2 2326   1.459   2.622   1.525
  789TIP3   OH2 2327   2.015   2.648   1.682
  789TIP3    H1 2328   2.083   2.612   1.739
  789TIP3    H2 2329   1.933   2.614   1.719
  790TIP3   OH2 2330   2.243   3.067   1.585
  790TIP3    H1 2331   2.199   3.064   1.670
  790TIP3    H2 2332   2.220   3.152   1.549
  791TIP3   OH2 2333   1.911   3.270   0.163
  791TIP3    H1 2334   1.856   3.216   0.106
  791TIP3    H2 2335   1.979   3.303   0.104
  792TIP3   OH2 2336   1.435   3.044   1.520
  792TIP3    H1 2337   1.391   3.059   1.604
  792TIP3    H2 2338   1.422   3.125   1.471
  793TIP3   OH2 2339   1.332   2.933   0.989
  793TIP3    H1 2340   1.264   2.872   0.961
  793TIP3    H2 2341   1.370   2.966   0.907
  794TIP3   OH2 2342   1.736   2.929   0.637
  794TIP3    H1 2343   1.689   2.998   0.588
  794TIP3    H2 2344   1.826   2.960   0.640
  795TIP3   OH2 2345   1.954   3.268   1.798
  795TIP3    H1 2346   1.928   3.199   1.859
  795TIP3    H2 2347   2.046   3.283   1.817
  796TIP3   OH2 2348   2.002   3.043   1.007
  796TIP3    H1 2349   1.908   3.034   1.026
  796TIP3    H2 2350   2.021   2.974   0.943
  797TIP3   OH2 2351   1.232   3.066   1.708
  797TIP3    H1 2352   1.250   3.136   1.771
  797TIP3    H2 2353   1.224   2.987   1.761
  798TIP3   OH2 2354   1.955   3.290   1.397
  798TIP3    H1 2355   2.001   3.230   1.338
  798TIP3    H2 2356   1.916   3.234   1.464
  799TIP3   OH2 2357   1.580   2.729   1.067
  799TIP3    H1 2358   1.520   2.677   1.012
  799TIP3    H2 2359   1.641   2.664   1.103
  800TIP3   OH2 2360   2.158   2.828   1.292
  800TIP3    H1 2361   2.127   2.838   1.382
  800TIP3    H2 2362   2.083   2.791   1.245
  801TIP3   OH2 2363   2.297   4.507   1.478
  801TIP3    H1 2364   2.294   4.522   1.384
  801TIP3    H2 2365   2.375   4.553   1.508
  802TIP3   OH2 2366   1.240   3.622   1.888
  802TIP3    H1 2367   1.322   3.641   1.934
  802TIP3    H2 2368   1.173   3.625   1.956
  803TIP3   OH2 2369   1.762   3.093   1.188
  803TIP3    H1 2370   1.716   3.044   1.120
  803TIP3    H2 2371   1.737   3.050   1.269
  804TIP3   OH2 2372   1.679   2.970   1.421
  804TIP3    H1 2373   1.596   2.997   1.462
  804TIP3    H2 2374   1.747   3.011   1.475
  805TIP3   OH2 2375   1.390   3.307   0.682
  805TIP3    H1 2376   1.322   3.290   0.616
  805TIP3    H2 2377   1.464   3.341   0.631
  806TIP3   OH2 2378   2.308   3.599   1.148
  806TIP3    H1 2379   2.336   3.645   1.069
  806TIP3    H2 2380   2.225   3.558   1.124
  807TIP3   OH2 2381   1.677   2.725   0.347
  807TIP3    H1 2382   1.711   2.668   0.416
  807TIP3    H2 2383   1.674   2.812   0.387
  808TIP3   OH2 2384   1.818   3.679   1.541
  808TIP3    H1 2385   1.866   3.664   1.623
  808TIP3    H2 2386   1.778   3.765   1.552
  809TIP3   OH2 2387   1.965   2.860   0.419
  809TIP3    H1 2388   2.041   2.882   0.473
  809TIP3    H2 2389   1.962   2.929   0.352
  810TIP3   OH2 2390   1.065   3.396   1.255
  810TIP3    H1 2391   1.130   3.358   1.196
  810TIP3    H2 2392   1.085   3.357   1.340
  811TIP3   OH2 2393   1.683   3.638   0.398
  811TIP3    H1 2394   1.595   3.647   0.435
  811TIP3    H2 2395   1.704   3.545   0.408
  812TIP3   OH2 2396   0.997   3.298   1.832
  812TIP3    H1 2397   1.011   3.282   1.925
  812TIP3    H2 2398   0.920   3.246   1.809
  813TIP3   OH2 2399   1.721   3.421   1.838
  813TIP3    H1 2400   1.653   3.360   1.807
  813TIP3    H2 2401   1.803   3.382   1.809
  814TIP3   OH2 2402   1.963   3.965   1.429
  814TIP3    H1 2403   1.868   3.950   1.435
  814TIP3    H2 2404   1.987   4.002   1.513
  815TIP3   OH2 2405   2.374   3.059   0.366
  815TIP3    H1 2406   2.399   2.983   0.314
  815TIP3    H2 2407   2.406   3.134   0.316
  816TIP3   OH2 2408   2.602   3.884   1.408
  816TIP3    H1 2409   2.508   3.869   1.405
  816TIP3    H2 2410   2.634   3.852   1.323
  817TIP3   OH2 2411   2.079   3.837   0.278
  817TIP3    H1 2412   2.052   3.755   0.320
  817TIP3    H2 2413   2.116   3.810   0.194
  818TIP3   OH2 2414   2.078   3.465   1.078
  818TIP3    H1 2415   1.984   3.443   1.081
  818TIP3    H2 2416   2.118   3.389   1.035
  819TIP3   OH2 2417   1.189   3.689   0.843
  819TIP3    H1 2418   1.182   3.776   0.803
  819TIP3    H2 2419   1.109   3.681   0.895
  820TIP3   OH2 2420   1.361   3.484   0.896
  820TIP3    H1 2421   1.301   3.550   0.861
  820TIP3    H2 2422   1.376   3.423   0.824
  821TIP3   OH2 2423   1.505   4.018   1.304
  821TIP3    H1 2424   1.541   4.092   1.255
  821TIP3    H2 2425   1.579   3.985   1.355
  822TIP3   OH2 2426   1.119   3.928   0.716
  822TIP3    H1 2427   1.035   3.935   0.762
  822TIP3    H2 2428   1.151   4.018   0.711
  823TIP3   OH2 2429   1.869   3.678   1.271
  823TIP3    H1 2430   1.856   3.673   1.365
  823TIP3    H2 2431   1.946   3.624   1.254
  824TIP3   OH2 2432   1.890   3.580   0.191
  824TIP3    H1 2433   1.967   3.564   0.245
  824TIP3    H2 2434   1.816   3.563   0.249
  825TIP3   OH2 2435   2.114   4.183   1.318
  825TIP3    H1 2436   2.044   4.119   1.331
  825TIP3    H2 2437   2.083   4.238   1.246
  826TIP3   OH2 2438   7.380   0.380   6.325
  826TIP3    H1 2439   7.431   0.460   6.313
  826TIP3    H2 2440   7.294   0.411   6.355
  827TIP3   OH2 2441   1.229   2.825   1.854
  827TIP3    H1 2442   1.149   2.786   1.820
  827TIP3    H2 2443   1.257   2.765   1.924
  828TIP3   OH2 2444   2.068   3.553   0.394
  828TIP3    H1 2445   2.046   3.488   0.461
  828TIP3    H2 2446   2.161   3.537   0.375
  829TIP3   OH2 2447   0.930   3.908   1.470
  829TIP3    H1 2448   0.979   3.843   1.520
  829TIP3    H2 2449   0.954   3.992   1.509
  830TIP3   OH2 2450   1.006   3.500   0.443
  830TIP3    H1 2451   1.037   3.461   0.525
  830TIP3    H2 2452   1.087   3.516   0.393
  831TIP3   OH2 2453   2.042   2.874   1.535
  831TIP3    H1 2454   2.118   2.912   1.581
  831TIP3    H2 2455   2.023   2.793   1.584
  832TIP3   OH2 2456   1.935   2.631   0.786
  832TIP3    H1 2457   1.925   2.618   0.692
  832TIP3    H2 2458   2.029   2.641   0.799
  833TIP3   OH2 2459   1.419   3.748   0.390
  833TIP3    H1 2460   1.337   3.782   0.426
  833TIP3    H2 2461   1.466   3.826   0.360
  834TIP3   OH2 2462   1.594   2.758   0.784
  834TIP3    H1 2463   1.643   2.813   0.723
  834TIP3    H2 2464   1.627   2.783   0.870
  835TIP3   OH2 2465   1.877   3.095   1.576
  835TIP3    H1 2466   1.901   3.140   1.658
  835TIP3    H2 2467   1.934   3.019   1.572
  836TIP3   OH2 2468   1.704   2.521   0.868
  836TIP3    H1 2469   1.642   2.585   0.834
  836TIP3    H2 2470   1.789   2.550   0.834
  837TIP3   OH2 2471   1.172   3.814   0.474
  837TIP3    H1 2472   1.131   3.858   0.400
  837TIP3    H2 2473   1.126   3.847   0.550
  838TIP3   OH2 2474   2.503   2.999   1.563
  838TIP3    H1 2475   2.409   3.015   1.575
  838TIP3    H2 2476   2.508   2.936   1.491
  839TIP3   OH2 2477   2.191   3.230   0.971
  839TIP3    H1 2478   2.117   3.172   0.985
  839TIP3    H2 2479   2.263   3.190   1.019
  840TIP3   OH2 2480   2.140   4.178   0.893
  840TIP3    H1 2481   2.097   4.228   0.823
  840TIP3    H2 2482   2.233   4.191   0.878
  841TIP3   OH2 2483   1.335   2.349   1.437
  841TIP3    H1 2484   1.359   2.319   1.350
  841TIP3    H2 2485   1.324   2.269   1.488
  842TIP3   OH2 2486   0.773   3.689   0.797
  842TIP3    H1 2487   0.754   3.597   0.816
  842TIP3    H2 2488   0.695   3.721   0.751
  843TIP3   OH2 2489   0.932   4.215   1.886
  843TIP3    H1 2490   1.014   4.222   1.935
  843TIP3    H2 2491   0.920   4.122   1.873
  844TIP3   OH2 2492   1.395   4.133   1.925
  844TIP3    H1 2493   1.487   4.107   1.937
  844TIP3    H2 2494   1.363   4.078   1.854
  845TIP3   OH2 2495   1.320   3.768   0.106
  845TIP3    H1 2496   1.280   3.713   0.173
  845TIP3    H2 2497   1.412   3.743   0.107
  846TIP3   OH2 2498   2.018   4.069   1.676
  846TIP3    H1 2499   2.025   3.998   1.740
  846TIP3    H2 2500   2.094   4.125   1.694
  847TIP3   OH2 2501   7.116   0.209   6.330
  847TIP3    H1 2502   7.065   0.128   6.329
  847TIP3    H2 2503   7.205   0.182   6.353
  848TIP3   OH2 2504   1.038   3.612   2.080
  848TIP3    H1 2505   1.057   3.519   2.088
  848TIP3    H2 2506   0.955   3.616   2.034
  849TIP3   OH2 2507   1.652   3.697   1.855
  849TIP3    H1 2508   1.610   3.718   1.772
  849TIP3    H2 2509   1.688   3.609   1.843
  850TIP3   OH2 2510   1.429   3.500   0.134
  850TIP3    H1 2511   1.488   3.575   0.139
  850TIP3    H2 2512   1.486   3.423   0.137
  851TIP3   OH2 2513   2.132   3.739   1.471
  851TIP3    H1 2514   2.210   3.768   1.424
  851TIP3    H2 2515   2.066   3.805   1.452
  852TIP3   OH2 2516   1.157   3.355   2.077
  852TIP3    H1 2517   1.238   3.336   2.030
  852TIP3    H2 2518   1.185   3.375   2.166
  853TIP3   OH2 2519   1.510   3.242   1.740
  853TIP3    H1 2520   1.427   3.290   1.747
  853TIP3    H2 2521   1.548   3.271   1.658
  854TIP3   OH2 2522   2.013   3.617   1.832
  854TIP3    H1 2523   2.083   3.580   1.779
  854TIP3    H2 2524   2.010   3.562   1.911
  855TIP3   OH2 2525   4.643   6.962   6.275
  855TIP3    H1 2526   4.684   6.879   6.251
  855TIP3    H2 2527   4.716   7.025   6.277
  856TIP3   OH2 2528   1.617   3.014   1.852
  856TIP3    H1 2529   1.624   2.941   1.790
  856TIP3    H2 2530   1.583   3.087   1.799
  857TIP3   OH2 2531   1.636   2.805   1.664
  857TIP3    H1 2532   1.677   2.808   1.577
  857TIP3    H2 2533   1.544   2.784   1.647
  858TIP3   OH2 2534   1.641   3.342   1.526
  858TIP3    H1 2535   1.731   3.358   1.497
  858TIP3    H2 2536   1.590   3.409   1.481
  859TIP3   OH2 2537   2.222   3.297   1.897
  859TIP3    H1 2538   2.258   3.209   1.907
  859TIP3    H2 2539   2.298   3.353   1.877
  860TIP3   OH2 2540   2.256   3.565   1.640
  860TIP3    H1 2541   2.203   3.626   1.589
  860TIP3    H2 2542   2.345   3.579   1.608
  861TIP3   OH2 2543   1.502   3.111   2.089
  861TIP3    H1 2544   1.435   3.047   2.112
  861TIP3    H2 2545   1.532   3.085   2.002
  862TIP3   OH2 2546   1.754   2.567   1.752
  862TIP3    H1 2547   1.718   2.648   1.717
  862TIP3    H2 2548   1.686   2.502   1.735
  863TIP3   OH2 2549   1.874   3.054   1.949
  863TIP3    H1 2550   1.865   3.041   2.044
  863TIP3    H2 2551   1.788   3.033   1.914
  864TIP3   OH2 2552   2.120   3.013   1.818
  864TIP3    H1 2553   2.041   3.009   1.872
  864TIP3    H2 2554   2.190   2.982   1.876
  865TIP3   OH2 2555   2.353   2.968   1.967
  865TIP3    H1 2556   2.368   2.874   1.975
  865TIP3    H2 2557   2.349   3.000   2.057
  866TIP3   OH2 2558   1.334   2.909   2.172
  866TIP3    H1 2559   1.338   2.825   2.125
  866TIP3    H2 2560   1.373   2.891   2.257
  867TIP3   OH2 2561   1.819   2.557   2.016
  867TIP3    H1 2562   1.889   2.491   2.010
  867TIP3    H2 2563   1.788   2.567   1.926
  868TIP3   OH2 2564   1.908   2.777   2.156
  868TIP3    H1 2565   1.880   2.704   2.100
  868TIP3    H2 2566   1.834   2.838   2.155
  869TIP3   OH2 2567   1.115   3.964   0.256
  869TIP3    H1 2568   1.160   4.040   0.220
  869TIP3    H2 2569   1.079   3.919   0.179
  870TIP3   OH2 2570   0.514   3.979   0.880
  870TIP3    H1 2571   0.425   3.944   0.881
  870TIP3    H2 2572   0.560   3.929   0.947
  871TIP3   OH2 2573   0.651   3.862   1.087
  871TIP3    H1 2574   0.650   3.785   1.144
  871TIP3    H2 2575   0.713   3.921   1.129
  872TIP3   OH2 2576   2.407   4.241   0.877
  872TIP3    H1 2577   2.433   4.266   0.966
  872TIP3    H2 2578   2.471   4.284   0.820
  873TIP3   OH2 2579   2.435   4.261   1.159
  873TIP3    H1 2580   2.385   4.179   1.152
  873TIP3    H2 2581   2.503   4.241   1.224
  874TIP3   OH2 2582   2.474   3.960   1.730
  874TIP3    H1 2583   2.404   3.968   1.795
  874TIP3    H2 2584   2.521   4.044   1.736
  875TIP3   OH2 2585   2.328   3.494   0.353
  875TIP3    H1 2586   2.390   3.561   0.326
  875TIP3    H2 2587   2.369   3.453   0.429
  876TIP3   OH2 2588   2.432   3.347   0.556
  876TIP3    H1 2589   2.364   3.313   0.615
  876TIP3    H2 2590   2.501   3.378   0.614
  877TIP3   OH2 2591   2.479   3.733   0.973
  877TIP3    H1 2592   2.531   3.663   0.935
  877TIP3    H2 2593   2.479   3.802   0.906
  878TIP3   OH2 2594   2.289   4.024   1.166
  878TIP3    H1 2595   2.222   4.068   1.219
  878TIP3    H2 2596   2.240   3.981   1.096
  879TIP3   OH2 2597   2.401   3.293   0.185
  879TIP3    H1 2598   2.318   3.247   0.173
  879TIP3    H2 2599   2.379   3.365   0.244
  880TIP3   OH2 2600   2.198   2.891   0.128
  880TIP3    H1 2601   2.132   2.861   0.065
  880TIP3    H2 2602   2.196   2.826   0.198
  881TIP3   OH2 2603   2.233   3.219   0.703
  881TIP3    H1 2604   2.269   3.132   0.689
  881TIP3    H2 2605   2.227   3.228   0.798
  882TIP3   OH2 2606   0.850   3.318   1.460
  882TIP3    H1 2607   0.830   3.275   1.377
  882TIP3    H2 2608   0.939   3.288   1.481
  883TIP3   OH2 2609   2.512   3.611   1.542
  883TIP3    H1 2610   2.579   3.544   1.528
  883TIP3    H2 2611   2.527   3.674   1.471
  884TIP3   OH2 2612   2.690   3.402   1.535
  884TIP3    H1 2613   2.616   3.359   1.577
  884TIP3    H2 2614   2.765   3.345   1.555
  885TIP3   OH2 2615   2.227   2.598   0.063
  885TIP3    H1 2616   2.307   2.576   0.111
  885TIP3    H2 2617   2.159   2.549   0.108
  886TIP3   OH2 2618   2.277   2.966   0.606
  886TIP3    H1 2619   2.330   2.887   0.610
  886TIP3    H2 2620   2.298   3.005   0.521
  887TIP3   OH2 2621   2.395   3.089   1.091
  887TIP3    H1 2622   2.477   3.109   1.046
  887TIP3    H2 2623   2.406   3.126   1.178
  888TIP3   OH2 2624   2.454   3.236   1.319
  888TIP3    H1 2625   2.377   3.263   1.369
  888TIP3    H2 2626   2.485   3.316   1.277
  889TIP3   OH2 2627   1.067   2.945   2.115
  889TIP3    H1 2628   1.162   2.944   2.125
  889TIP3    H2 2629   1.038   2.863   2.155
  890TIP3   OH2 2630   2.910   2.831   1.855
  890TIP3    H1 2631   2.972   2.771   1.814
  890TIP3    H2 2632   2.872   2.881   1.782
  891TIP3   OH2 2633   2.429   2.740   0.615
  891TIP3    H1 2634   2.464   2.740   0.704
  891TIP3    H2 2635   2.391   2.652   0.605
  892TIP3   OH2 2636   1.066   2.737   1.646
  892TIP3    H1 2637   1.105   2.661   1.604
  892TIP3    H2 2638   1.069   2.805   1.579
  893TIP3   OH2 2639   0.861   3.023   1.552
  893TIP3    H1 2640   0.808   2.971   1.492
  893TIP3    H2 2641   0.939   3.047   1.501
  894TIP3   OH2 2642   2.764   2.948   1.657
  894TIP3    H1 2643   2.679   2.987   1.678
  894TIP3    H2 2644   2.742   2.872   1.602
  895TIP3   OH2 2645   2.436   2.560   0.240
  895TIP3    H1 2646   2.487   2.480   0.229
  895TIP3    H2 2647   2.494   2.620   0.287
  896TIP3   OH2 2648   1.994   4.123   0.542
  896TIP3    H1 2649   2.039   4.125   0.458
  896TIP3    H2 2650   2.024   4.201   0.588
  897TIP3   OH2 2651   1.064   2.518   1.853
  897TIP3    H1 2652   0.995   2.515   1.919
  897TIP3    H2 2653   1.033   2.579   1.787
  898TIP3   OH2 2654   1.066   3.937   1.895
  898TIP3    H1 2655   0.973   3.916   1.889
  898TIP3    H2 2656   1.089   3.919   1.986
  899TIP3   OH2 2657   1.275   3.979   1.451
  899TIP3    H1 2658   1.226   4.054   1.418
  899TIP3    H2 2659   1.361   3.986   1.408
  900TIP3   OH2 2660   1.680   4.214   1.590
  900TIP3    H1 2661   1.718   4.205   1.677
  900TIP3    H2 2662   1.743   4.266   1.541
  901TIP3   OH2 2663   1.871   4.366   1.460
  901TIP3    H1 2664   1.934   4.310   1.414
  901TIP3    H2 2665   1.925   4.422   1.516
  902TIP3   OH2 2666   2.675   2.702   1.550
  902TIP3    H1 2667   2.589   2.693   1.509
  902TIP3    H2 2668   2.714   2.615   1.542
  903TIP3   OH2 2669   0.951   4.210   1.505
  903TIP3    H1 2670   0.859   4.225   1.481
  903TIP3    H2 2671   0.971   4.279   1.568
  904TIP3   OH2 2672   1.174   4.210   1.343
  904TIP3    H1 2673   1.091   4.214   1.392
  904TIP3    H2 2674   1.150   4.234   1.254
  905TIP3   OH2 2675   1.586   4.228   1.139
  905TIP3    H1 2676   1.517   4.239   1.074
  905TIP3    H2 2677   1.596   4.314   1.179
  906TIP3   OH2 2678   1.852   4.168   1.189
  906TIP3    H1 2679   1.759   4.185   1.170
  906TIP3    H2 2680   1.899   4.235   1.141
  907TIP3   OH2 2681   2.056   4.346   1.094
  907TIP3    H1 2682   2.049   4.432   1.052
  907TIP3    H2 2683   2.084   4.287   1.025
  908TIP3   OH2 2684   0.851   4.009   1.222
  908TIP3    H1 2685   0.871   3.981   1.311
  908TIP3    H2 2686   0.925   3.978   1.170
  909TIP3   OH2 2687   1.058   3.901   1.083
  909TIP3    H1 2688   1.068   3.819   1.130
  909TIP3    H2 2689   1.146   3.939   1.081
  910TIP3   OH2 2690   1.327   3.969   1.093
  910TIP3    H1 2691   1.345   3.876   1.078
  910TIP3    H2 2692   1.380   3.991   1.170
  911TIP3   OH2 2693   1.951   2.713   1.148
  911TIP3    H1 2694   1.877   2.654   1.161
  911TIP3    H2 2695   2.022   2.657   1.117
  912TIP3   OH2 2696   2.409   2.519   1.104
  912TIP3    H1 2697   2.449   2.573   1.037
  912TIP3    H2 2698   2.315   2.533   1.093
  913TIP3   OH2 2699   2.514   2.653   0.884
  913TIP3    H1 2700   2.587   2.594   0.863
  913TIP3    H2 2701   2.551   2.740   0.877
  914TIP3   OH2 2702   1.625   2.279   0.959
  914TIP3    H1 2703   1.639   2.368   0.925
  914TIP3    H2 2704   1.687   2.271   1.031
  915TIP3   OH2 2705   2.132   2.523   1.077
  915TIP3    H1 2706   2.126   2.459   1.006
  915TIP3    H2 2707   2.123   2.471   1.157
  916TIP3   OH2 2708   2.113   2.427   0.687
  916TIP3    H1 2709   2.104   2.398   0.596
  916TIP3    H2 2710   2.208   2.430   0.703
  917TIP3   OH2 2711   0.589   3.811   0.636
  917TIP3    H1 2712   0.599   3.837   0.545
  917TIP3    H2 2713   0.555   3.890   0.679
  918TIP3   OH2 2714   1.475   3.987   0.228
  918TIP3    H1 2715   1.557   4.006   0.182
  918TIP3    H2 2716   1.435   3.917   0.177
  919TIP3   OH2 2717   2.118   4.107   0.292
  919TIP3    H1 2718   2.106   4.012   0.291
  919TIP3    H2 2719   2.071   4.138   0.215
  920TIP3   OH2 2720   1.355   2.663   2.053
  920TIP3    H1 2721   1.320   2.580   2.087
  920TIP3    H2 2722   1.448   2.661   2.075
  921TIP3   OH2 2723   1.600   2.623   2.187
  921TIP3    H1 2724   1.677   2.598   2.136
  921TIP3    H2 2725   1.583   2.548   2.244
  922TIP3   OH2 2726   2.418   2.698   1.979
  922TIP3    H1 2727   2.435   2.669   2.068
  922TIP3    H2 2728   2.504   2.692   1.936
  923TIP3   OH2 2729   2.337   4.233   1.481
  923TIP3    H1 2730   2.262   4.203   1.430
  923TIP3    H2 2731   2.323   4.327   1.491
  924TIP3   OH2 2732   3.602   3.609   0.246
  924TIP3    H1 2733   3.579   3.700   0.229
  924TIP3    H2 2734   3.531   3.558   0.206
  925TIP3   OH2 2735   3.612   3.612   0.645
  925TIP3    H1 2736   3.661   3.591   0.725
  925TIP3    H2 2737   3.568   3.530   0.623
  926TIP3   OH2 2738   2.910   3.479   0.991
  926TIP3    H1 2739   2.945   3.425   1.062
  926TIP3    H2 2740   2.987   3.504   0.940
  927TIP3   OH2 2741   3.880   3.911   0.326
  927TIP3    H1 2742   3.869   3.848   0.397
  927TIP3    H2 2743   3.900   3.993   0.371
  928TIP3   OH2 2744   2.896   3.908   0.690
  928TIP3    H1 2745   2.881   3.813   0.694
  928TIP3    H2 2746   2.990   3.917   0.679
  929TIP3   OH2 2747   2.607   3.133   0.496
  929TIP3    H1 2748   2.562   3.216   0.513
  929TIP3    H2 2749   2.538   3.075   0.465
  930TIP3   OH2 2750   2.666   3.410   0.684
  930TIP3    H1 2751   2.715   3.331   0.710
  930TIP3    H2 2752   2.733   3.469   0.650
  931TIP3   OH2 2753   3.541   4.345   0.347
  931TIP3    H1 2754   3.572   4.279   0.286
  931TIP3    H2 2755   3.532   4.298   0.430
  932TIP3   OH2 2756   3.413   3.836   0.652
  932TIP3    H1 2757   3.454   3.756   0.619
  932TIP3    H2 2758   3.486   3.890   0.683
  933TIP3   OH2 2759   4.448   3.155   0.668
  933TIP3    H1 2760   4.464   3.240   0.710
  933TIP3    H2 2761   4.481   3.165   0.579
  934TIP3   OH2 2762   3.828   3.323   0.689
  934TIP3    H1 2763   3.863   3.238   0.715
  934TIP3    H2 2764   3.787   3.308   0.604
  935TIP3   OH2 2765   3.183   2.984   0.648
  935TIP3    H1 2766   3.162   3.059   0.593
  935TIP3    H2 2767   3.132   2.911   0.611
  936TIP3   OH2 2768   3.865   3.079   0.297
  936TIP3    H1 2769   3.932   3.069   0.365
  936TIP3    H2 2770   3.914   3.113   0.222
  937TIP3   OH2 2771   2.808   3.191   0.774
  937TIP3    H1 2772   2.891   3.172   0.817
  937TIP3    H2 2773   2.810   3.139   0.693
  938TIP3   OH2 2774   3.228   3.398   0.593
  938TIP3    H1 2775   3.322   3.382   0.598
  938TIP3    H2 2776   3.191   3.317   0.558
  939TIP3   OH2 2777   4.506   3.374   0.836
  939TIP3    H1 2778   4.416   3.408   0.830
  939TIP3    H2 2779   4.539   3.409   0.918
  940TIP3   OH2 2780   3.162   2.984   1.101
  940TIP3    H1 2781   3.110   3.016   1.027
  940TIP3    H2 2782   3.106   2.998   1.177
  941TIP3   OH2 2783   3.508   3.843   0.131
  941TIP3    H1 2784   3.473   3.813   0.048
  941TIP3    H2 2785   3.453   3.918   0.154
  942TIP3   OH2 2786   3.258   3.760   0.869
  942TIP3    H1 2787   3.203   3.830   0.903
  942TIP3    H2 2788   3.305   3.800   0.795
  943TIP3   OH2 2789   4.043   3.095   0.504
  943TIP3    H1 2790   4.000   3.074   0.587
  943TIP3    H2 2791   4.097   3.172   0.523
  944TIP3   OH2 2792   3.051   3.088   0.870
  944TIP3    H1 2793   3.107   3.163   0.893
  944TIP3    H2 2794   3.097   3.045   0.798
  945TIP3   OH2 2795   3.098   3.960   0.973
  945TIP3    H1 2796   3.081   4.049   0.942
  945TIP3    H2 2797   3.021   3.939   1.026
  946TIP3   OH2 2798   2.498   3.672   0.236
  946TIP3    H1 2799   2.464   3.686   0.148
  946TIP3    H2 2800   2.520   3.759   0.268
  947TIP3   OH2 2801   3.906   4.163   0.457
  947TIP3    H1 2802   3.820   4.152   0.496
  947TIP3    H2 2803   3.899   4.244   0.406
  948TIP3   OH2 2804   4.243   3.049   0.835
  948TIP3    H1 2805   4.157   3.070   0.798
  948TIP3    H2 2806   4.305   3.076   0.767
  949TIP3   OH2 2807   3.505   2.678   0.824
  949TIP3    H1 2808   3.497   2.586   0.849
  949TIP3    H2 2809   3.430   2.721   0.865
  950TIP3   OH2 2810   3.640   4.187   0.136
  950TIP3    H1 2811   3.677   4.101   0.117
  950TIP3    H2 2812   3.711   4.248   0.118
  951TIP3   OH2 2813   3.760   3.944   0.081
  951TIP3    H1 2814   3.679   3.894   0.095
  951TIP3    H2 2815   3.812   3.926   0.159
  952TIP3   OH2 2816   4.152   4.053   0.809
  952TIP3    H1 2817   4.135   3.976   0.755
  952TIP3    H2 2818   4.133   4.127   0.752
  953TIP3   OH2 2819   3.433   3.470   0.071
  953TIP3    H1 2820   3.350   3.516   0.056
  953TIP3    H2 2821   3.475   3.467  -0.015
  954TIP3   OH2 2822   6.008   6.906   6.180
  954TIP3    H1 2823   6.077   6.970   6.195
  954TIP3    H2 2824   6.055   6.827   6.152
  955TIP3   OH2 2825   4.336   3.710   0.668
  955TIP3    H1 2826   4.251   3.754   0.672
  955TIP3    H2 2827   4.367   3.726   0.579
  956TIP3   OH2 2828   3.785   3.500   0.074
  956TIP3    H1 2829   3.733   3.539   0.145
  956TIP3    H2 2830   3.871   3.487   0.113
  957TIP3   OH2 2831   4.026   3.578   0.976
  957TIP3    H1 2832   4.023   3.661   1.024
  957TIP3    H2 2833   3.943   3.575   0.928
  958TIP3   OH2 2834   3.021   3.525   0.449
  958TIP3    H1 2835   2.986   3.465   0.384
  958TIP3    H2 2836   3.096   3.479   0.487
  959TIP3   OH2 2837   3.157   3.954   0.585
  959TIP3    H1 2838   3.133   3.936   0.494
  959TIP3    H2 2839   3.244   3.915   0.595
  960TIP3   OH2 2840   3.128   3.523   0.818
  960TIP3    H1 2841   3.166   3.487   0.738
  960TIP3    H2 2842   3.178   3.603   0.835
  961TIP3   OH2 2843   3.672   4.153   0.593
  961TIP3    H1 2844   3.659   4.231   0.646
  961TIP3    H2 2845   3.661   4.080   0.654
  962TIP3   OH2 2846   3.297   4.062   1.137
  962TIP3    H1 2847   3.237   4.120   1.185
  962TIP3    H2 2848   3.240   4.009   1.081
  963TIP3   OH2 2849   6.232   7.088   6.234
  963TIP3    H1 2850   6.281   7.123   6.308
  963TIP3    H2 2851   6.254   7.147   6.161
  964TIP3   OH2 2852   3.053   3.610   1.272
  964TIP3    H1 2853   3.057   3.702   1.296
  964TIP3    H2 2854   2.960   3.590   1.268
  965TIP3   OH2 2855   3.375   4.090   0.145
  965TIP3    H1 2856   3.462   4.130   0.146
  965TIP3    H2 2857   3.323   4.147   0.089
  966TIP3   OH2 2858   3.086   4.221   1.222
  966TIP3    H1 2859   3.060   4.228   1.130
  966TIP3    H2 2860   3.004   4.205   1.269
  967TIP3   OH2 2861   6.740   6.322   6.290
  967TIP3    H1 2862   6.657   6.332   6.337
  967TIP3    H2 2863   6.748   6.403   6.239
  968TIP3   OH2 2864   2.902   3.368   0.246
  968TIP3    H1 2865   2.831   3.423   0.210
  968TIP3    H2 2866   2.862   3.282   0.256
  969TIP3   OH2 2867   2.678   3.773   1.171
  969TIP3    H1 2868   2.609   3.754   1.107
  969TIP3    H2 2869   2.712   3.686   1.194
  970TIP3   OH2 2870   2.538   3.956   0.806
  970TIP3    H1 2871   2.633   3.957   0.801
  970TIP3    H2 2872   2.516   4.032   0.860
  971TIP3   OH2 2873   4.377   4.422   0.886
  971TIP3    H1 2874   4.386   4.327   0.889
  971TIP3    H2 2875   4.301   4.441   0.941
  972TIP3   OH2 2876   3.487   4.202   0.996
  972TIP3    H1 2877   3.481   4.293   1.025
  972TIP3    H2 2878   3.419   4.156   1.047
  973TIP3   OH2 2879   0.648   0.620   6.338
  973TIP3    H1 2880   0.584   0.574   6.283
  973TIP3    H2 2881   0.605   0.702   6.360
  974TIP3   OH2 2882   2.701   4.159   0.333
  974TIP3    H1 2883   2.746   4.154   0.417
  974TIP3    H2 2884   2.652   4.077   0.327
  975TIP3   OH2 2885   0.909   0.707   6.341
  975TIP3    H1 2886   0.822   0.671   6.323
  975TIP3    H2 2887   0.960   0.632   6.372
  976TIP3   OH2 2888   4.272   3.533   1.140
  976TIP3    H1 2889   4.189   3.543   1.092
  976TIP3    H2 2890   4.290   3.439   1.136
  977TIP3   OH2 2891   2.880   3.957   1.142
  977TIP3    H1 2892   2.930   3.944   1.223
  977TIP3    H2 2893   2.808   3.894   1.149
  978TIP3   OH2 2894   3.273   2.774   0.953
  978TIP3    H1 2895   3.188   2.740   0.924
  978TIP3    H2 2896   3.252   2.853   1.002
  979TIP3   OH2 2897   3.807   2.887   1.149
  979TIP3    H1 2898   3.876   2.863   1.211
  979TIP3    H2 2899   3.725   2.870   1.196
  980TIP3   OH2 2900   4.031   3.314   1.068
  980TIP3    H1 2901   3.989   3.310   1.154
  980TIP3    H2 2902   4.013   3.403   1.036
  981TIP3   OH2 2903   5.992   6.514   6.265
  981TIP3    H1 2904   5.994   6.501   6.360
  981TIP3    H2 2905   5.899   6.512   6.242
  982TIP3   OH2 2906   3.204   3.299   0.964
  982TIP3    H1 2907   3.157   3.305   1.047
  982TIP3    H2 2908   3.184   3.380   0.918
  983TIP3   OH2 2909   3.089   3.186   0.489
  983TIP3    H1 2910   3.001   3.157   0.514
  983TIP3    H2 2911   3.102   3.147   0.402
  984TIP3   OH2 2912   3.565   3.266   0.208
  984TIP3    H1 2913   3.516   3.336   0.166
  984TIP3    H2 2914   3.621   3.231   0.138
  985TIP3   OH2 2915   3.750   3.524   1.286
  985TIP3    H1 2916   3.723   3.455   1.347
  985TIP3    H2 2917   3.842   3.539   1.306
  986TIP3   OH2 2918   3.728   3.276   0.438
  986TIP3    H1 2919   3.663   3.303   0.373
  986TIP3    H2 2920   3.770   3.200   0.399
  987TIP3   OH2 2921   3.037   3.314   1.182
  987TIP3    H1 2922   3.053   3.377   1.253
  987TIP3    H2 2923   3.019   3.231   1.227
  988TIP3   OH2 2924   5.705   6.481   6.273
  988TIP3    H1 2925   5.703   6.489   6.368
  988TIP3    H2 2926   5.614   6.485   6.246
  989TIP3   OH2 2927   2.643   2.864   0.773
  989TIP3    H1 2928   2.709   2.895   0.834
  989TIP3    H2 2929   2.692   2.842   0.694
  990TIP3   OH2 2930   2.702   2.883   0.313
  990TIP3    H1 2931   2.750   2.930   0.245
  990TIP3    H2 2932   2.614   2.871   0.276
  991TIP3   OH2 2933   3.770   3.523   0.862
  991TIP3    H1 2934   3.797   3.457   0.799
  991TIP3    H2 2935   3.728   3.474   0.933
  992TIP3   OH2 2936   3.449   2.981   0.539
  992TIP3    H1 2937   3.370   2.978   0.593
  992TIP3    H2 2938   3.521   2.969   0.602
  993TIP3   OH2 2939   2.860   3.047   0.547
  993TIP3    H1 2940   2.772   3.058   0.510
  993TIP3    H2 2941   2.888   2.961   0.517
  994TIP3   OH2 2942   3.114   3.045   0.257
  994TIP3    H1 2943   3.207   3.064   0.239
  994TIP3    H2 2944   3.069   3.068   0.175
  995TIP3   OH2 2945   3.901   3.060   0.743
  995TIP3    H1 2946   3.880   3.077   0.835
  995TIP3    H2 2947   3.833   2.998   0.714
  996TIP3   OH2 2948   5.568   6.750   6.402
  996TIP3    H1 2949   5.484   6.715   6.373
  996TIP3    H2 2950   5.611   6.780   6.322
  997TIP3   OH2 2951   4.092   4.751   1.002
  997TIP3    H1 2952   4.079   4.763   0.908
  997TIP3    H2 2953   4.173   4.799   1.021
  998TIP3   OH2 2954   3.038   3.874   1.375
  998TIP3    H1 2955   3.118   3.894   1.423
  998TIP3    H2 2956   2.968   3.878   1.441
  999TIP3   OH2 2957   3.499   3.340   0.642
  999TIP3    H1 2958   3.563   3.290   0.592
  999TIP3    H2 2959   3.497   3.298   0.728
 1000TIP3   OH2 2960   3.009   2.810   0.512
 1000TIP3    H1 2961   2.987   2.736   0.569
 1000TIP3    H2 2962   3.030   2.770   0.428
 1001TIP3   OH2 2963   3.472   3.243   0.907
 1001TIP3    H1 2964   3.384   3.273   0.931
 1001TIP3    H2 2965   3.530   3.295   0.962
 1002TIP3   OH2 2966   3.190   3.611   0.015
 1002TIP3    H1 2967   3.127   3.541  -0.001
 1002TIP3    H2 2968   3.169   3.641   0.104
 1003TIP3   OH2 2969   4.095   3.842   0.640
 1003TIP3    H1 2970   4.130   3.889   0.565
 1003TIP3    H2 2971   4.014   3.802   0.608
 1004TIP3   OH2 2972   6.266   6.583   6.314
 1004TIP3    H1 2973   6.181   6.565   6.274
 1004TIP3    H2 2974   6.274   6.679   6.310
 1005TIP3   OH2 2975   3.612   3.935   1.033
 1005TIP3    H1 2976   3.658   3.923   1.116
 1005TIP3    H2 2977   3.570   4.020   1.040
 1006TIP3   OH2 2978   6.327   6.853   6.362
 1006TIP3    H1 2979   6.420   6.856   6.383
 1006TIP3    H2 2980   6.313   6.931   6.307
 1007TIP3   OH2 2981   2.899   3.623   0.676
 1007TIP3    H1 2982   2.935   3.600   0.591
 1007TIP3    H2 2983   2.962   3.589   0.739
 1008TIP3   OH2 2984   0.781   0.097   6.270
 1008TIP3    H1 2985   0.736   0.171   6.228
 1008TIP3    H2 2986   0.710   0.039   6.297
 1009TIP3   OH2 2987   2.781   3.545   1.305
 1009TIP3    H1 2988   2.786   3.522   1.397
 1009TIP3    H2 2989   2.707   3.494   1.271
 1010TIP3   OH2 2990   3.515   3.676   1.324
 1010TIP3    H1 2991   3.447   3.616   1.296
 1010TIP3    H2 2992   3.597   3.636   1.295
 1011TIP3   OH2 2993   3.759   4.215   0.920
 1011TIP3    H1 2994   3.664   4.203   0.924
 1011TIP3    H2 2995   3.782   4.253   1.004
 1012TIP3   OH2 2996   6.734   6.943   6.221
 1012TIP3    H1 2997   6.716   6.911   6.132
 1012TIP3    H2 2998   6.726   7.038   6.214
 1013TIP3   OH2 2999   4.398   4.145   0.894
 1013TIP3    H1 3000   4.304   4.127   0.897
 1013TIP3    H2 3001   4.427   4.108   0.811
 1014TIP3   OH2 3002   3.864   3.715   0.534
 1014TIP3    H1 3003   3.773   3.693   0.555
 1014TIP3    H2 3004   3.901   3.635   0.496
 1015TIP3   OH2 3005   3.015   3.948   0.338
 1015TIP3    H1 3006   3.014   4.024   0.280
 1015TIP3    H2 3007   2.923   3.927   0.353
 1016TIP3   OH2 3008   2.614   3.274   0.017
 1016TIP3    H1 3009   2.659   3.357   0.030
 1016TIP3    H2 3010   2.541   3.276   0.079
 1017TIP3   OH2 3011   3.117   3.703   0.258
 1017TIP3    H1 3012   3.095   3.792   0.284
 1017TIP3    H2 3013   3.085   3.648   0.330
 1018TIP3   OH2 3014   3.298   4.276   0.793
 1018TIP3    H1 3015   3.334   4.349   0.743
 1018TIP3    H2 3016   3.373   4.241   0.842
 1019TIP3   OH2 3017   2.928   4.169   0.180
 1019TIP3    H1 3018   2.842   4.171   0.221
 1019TIP3    H2 3019   2.962   4.258   0.193
 1020TIP3   OH2 3020   3.654   3.931   0.760
 1020TIP3    H1 3021   3.643   3.928   0.855
 1020TIP3    H2 3022   3.725   3.869   0.743
 1021TIP3   OH2 3023   3.901   4.437   0.818
 1021TIP3    H1 3024   3.833   4.371   0.833
 1021TIP3    H2 3025   3.871   4.485   0.741
 1022TIP3   OH2 3026   2.986   3.062   1.304
 1022TIP3    H1 3027   2.891   3.069   1.307
 1022TIP3    H2 3028   3.008   3.002   1.376
 1023TIP3   OH2 3029   6.421   7.320   6.209
 1023TIP3    H1 3030   6.420   7.282   6.297
 1023TIP3    H2 3031   6.425   7.415   6.224
 1024TIP3   OH2 3032   2.723   4.160   0.955
 1024TIP3    H1 3033   2.773   4.093   1.002
 1024TIP3    H2 3034   2.741   4.241   1.001
 1025TIP3   OH2 3035   0.419   0.155   6.033
 1025TIP3    H1 3036   0.385   0.100   5.962
 1025TIP3    H2 3037   0.375   0.123   6.111
 1026TIP3   OH2 3038   0.350   0.134   6.310
 1026TIP3    H1 3039   0.424   0.083   6.343
 1026TIP3    H2 3040   0.380   0.225   6.313
 1027TIP3   OH2 3041   2.699   3.513   0.129
 1027TIP3    H1 3042   2.633   3.556   0.183
 1027TIP3    H2 3043   2.716   3.575   0.058
 1028TIP3   OH2 3044   3.840   3.120   1.004
 1028TIP3    H1 3045   3.917   3.164   1.039
 1028TIP3    H2 3046   3.830   3.043   1.059
 1029TIP3   OH2 3047   3.728   2.856   0.204
 1029TIP3    H1 3048   3.705   2.873   0.112
 1029TIP3    H2 3049   3.770   2.938   0.233
 1030TIP3   OH2 3050   0.611   0.293   6.174
 1030TIP3    H1 3051   0.546   0.347   6.220
 1030TIP3    H2 3052   0.561   0.250   6.104
 1031TIP3   OH2 3053   3.391   3.065   0.280
 1031TIP3    H1 3054   3.450   3.136   0.256
 1031TIP3    H2 3055   3.410   3.048   0.372
 1032TIP3   OH2 3056   3.677   3.359   1.061
 1032TIP3    H1 3057   3.701   3.402   1.143
 1032TIP3    H2 3058   3.727   3.277   1.062
 1033TIP3   OH2 3059   3.537   2.770   0.378
 1033TIP3    H1 3060   3.514   2.847   0.430
 1033TIP3    H2 3061   3.610   2.798   0.323
 1034TIP3   OH2 3062   0.395   0.417   6.296
 1034TIP3    H1 3063   0.316   0.440   6.247
 1034TIP3    H2 3064   0.375   0.442   6.386
 1035TIP3   OH2 3065   3.086   2.776   0.191
 1035TIP3    H1 3066   3.071   2.866   0.221
 1035TIP3    H2 3067   3.181   2.768   0.186
 1036TIP3   OH2 3068   4.295   3.257   1.049
 1036TIP3    H1 3069   4.200   3.268   1.061
 1036TIP3    H2 3070   4.303   3.200   0.973
 1037TIP3   OH2 3071   3.957   3.461   0.445
 1037TIP3    H1 3072   3.879   3.407   0.453
 1037TIP3    H2 3073   4.023   3.418   0.500
 1038TIP3   OH2 3074   0.092   0.030   6.296
 1038TIP3    H1 3075   0.169   0.086   6.310
 1038TIP3    H2 3076   0.122  -0.037   6.235
 1039TIP3   OH2 3077   2.674   3.014   0.057
 1039TIP3    H1 3078   2.651   3.106   0.048
 1039TIP3    H2 3079   2.674   2.980  -0.032
 1040TIP3   OH2 3080   3.917   4.432   0.371
 1040TIP3    H1 3081   3.878   4.478   0.297
 1040TIP3    H2 3082   4.012   4.438   0.356
 1041TIP3   OH2 3083   3.010   2.692   0.927
 1041TIP3    H1 3084   2.991   2.657   0.840
 1041TIP3    H2 3085   2.999   2.617   0.985
 1042TIP3   OH2 3086   2.533   3.937   0.313
 1042TIP3    H1 3087   2.484   3.972   0.387
 1042TIP3    H2 3088   2.493   3.978   0.236
 1043TIP3   OH2 3089   2.723   4.473   1.375
 1043TIP3    H1 3090   2.806   4.477   1.423
 1043TIP3    H2 3091   2.705   4.380   1.365
 1044TIP3   OH2 3092   3.190   4.391   1.413
 1044TIP3    H1 3093   3.281   4.365   1.424
 1044TIP3    H2 3094   3.157   4.335   1.342
 1045TIP3   OH2 3095   3.814   4.324   1.165
 1045TIP3    H1 3096   3.822   4.254   1.229
 1045TIP3    H2 3097   3.888   4.382   1.183
 1046TIP3   OH2 3098   2.832   3.871   1.563
 1046TIP3    H1 3099   2.851   3.778   1.574
 1046TIP3    H2 3100   2.745   3.873   1.523
 1047TIP3   OH2 3101   5.411   7.193   6.152
 1047TIP3    H1 3102   5.487   7.140   6.176
 1047TIP3    H2 3103   5.404   7.184   6.057
 1048TIP3   OH2 3104   3.450   3.954   1.341
 1048TIP3    H1 3105   3.405   3.974   1.259
 1048TIP3    H2 3106   3.483   3.865   1.329
 1049TIP3   OH2 3107   3.928   3.991   0.960
 1049TIP3    H1 3108   4.005   4.021   0.913
 1049TIP3    H2 3109   3.861   4.056   0.942
 1050TIP3   OH2 3110   2.949   3.616   1.567
 1050TIP3    H1 3111   3.026   3.589   1.517
 1050TIP3    H2 3112   2.982   3.634   1.655
 1051TIP3   OH2 3113   3.017   3.402  -0.016
 1051TIP3    H1 3114   2.983   3.377   0.070
 1051TIP3    H2 3115   3.055   3.321  -0.051
 1052TIP3   OH2 3116   3.307   3.498   1.228
 1052TIP3    H1 3117   3.222   3.541   1.235
 1052TIP3    H2 3118   3.340   3.526   1.142
 1053TIP3   OH2 3119   5.735   6.868   6.213
 1053TIP3    H1 3120   5.701   6.880   6.125
 1053TIP3    H2 3121   5.829   6.882   6.205
 1054TIP3   OH2 3122   3.808   3.875   1.321
 1054TIP3    H1 3123   3.876   3.835   1.267
 1054TIP3    H2 3124   3.803   3.820   1.399
 1055TIP3   OH2 3125   3.413   3.268   1.335
 1055TIP3    H1 3126   3.415   3.196   1.272
 1055TIP3    H2 3127   3.377   3.342   1.286
 1056TIP3   OH2 3128   3.421   3.067   1.135
 1056TIP3    H1 3129   3.447   3.104   1.050
 1056TIP3    H2 3130   3.330   3.041   1.123
 1057TIP3   OH2 3131   3.429   3.592   1.004
 1057TIP3    H1 3132   3.518   3.621   0.987
 1057TIP3    H2 3133   3.374   3.656   0.958
 1058TIP3   OH2 3134   4.018   3.554   1.385
 1058TIP3    H1 3135   4.058   3.468   1.395
 1058TIP3    H2 3136   4.091   3.613   1.367
 1059TIP3   OH2 3137   4.053   3.817   1.126
 1059TIP3    H1 3138   3.998   3.878   1.076
 1059TIP3    H2 3139   4.142   3.832   1.094
 1060TIP3   OH2 3140   3.296   3.357   1.577
 1060TIP3    H1 3141   3.227   3.294   1.598
 1060TIP3    H2 3142   3.325   3.332   1.489
 1061TIP3   OH2 3143   3.543   2.833   1.231
 1061TIP3    H1 3144   3.501   2.913   1.200
 1061TIP3    H2 3145   3.476   2.765   1.219
 1062TIP3   OH2 3146   3.668   3.310   1.436
 1062TIP3    H1 3147   3.657   3.297   1.530
 1062TIP3    H2 3148   3.583   3.289   1.399
 1063TIP3   OH2 3149   3.913   3.266   1.305
 1063TIP3    H1 3150   3.834   3.265   1.360
 1063TIP3    H2 3151   3.983   3.238   1.364
 1064TIP3   OH2 3152   4.150   3.226   1.453
 1064TIP3    H1 3153   4.163   3.132   1.460
 1064TIP3    H2 3154   4.145   3.258   1.543
 1065TIP3   OH2 3155   3.131   3.137   1.640
 1065TIP3    H1 3156   3.134   3.049   1.604
 1065TIP3    H2 3157   3.169   3.128   1.728
 1066TIP3   OH2 3158   3.613   2.815   1.496
 1066TIP3    H1 3159   3.682   2.749   1.489
 1066TIP3    H2 3160   3.581   2.825   1.407
 1067TIP3   OH2 3161   3.704   3.033   1.640
 1067TIP3    H1 3162   3.674   2.960   1.585
 1067TIP3    H2 3163   3.631   3.094   1.640
 1068TIP3   OH2 3164   5.021   7.347   6.337
 1068TIP3    H1 3165   5.110   7.368   6.309
 1068TIP3    H2 3166   5.008   7.256   6.310
 1069TIP3   OH2 3167   2.330   4.252   0.384
 1069TIP3    H1 3168   2.262   4.201   0.341
 1069TIP3    H2 3169   2.371   4.191   0.445
 1070TIP3   OH2 3170   2.466   4.086   0.558
 1070TIP3    H1 3171   2.455   4.017   0.624
 1070TIP3    H2 3172   2.517   4.154   0.602
 1071TIP3   OH2 3173   4.194   4.474   0.408
 1071TIP3    H1 3174   4.212   4.461   0.501
 1071TIP3    H2 3175   4.166   4.566   0.402
 1072TIP3   OH2 3176   4.202   4.506   0.684
 1072TIP3    H1 3177   4.148   4.428   0.678
 1072TIP3    H2 3178   4.266   4.486   0.753
 1073TIP3   OH2 3179   4.271   4.215   1.216
 1073TIP3    H1 3180   4.200   4.222   1.280
 1073TIP3    H2 3181   4.316   4.299   1.222
 1074TIP3   OH2 3182   4.237   3.543   0.018
 1074TIP3    H1 3183   4.162   3.528   0.075
 1074TIP3    H2 3184   4.294   3.602   0.068
 1075TIP3   OH2 3185   4.261   3.979   0.468
 1075TIP3    H1 3186   4.316   3.915   0.423
 1075TIP3    H2 3187   4.240   4.044   0.401
 1076TIP3   OH2 3188   4.064   4.268   0.658
 1076TIP3    H1 3189   3.993   4.302   0.713
 1076TIP3    H2 3190   4.019   4.225   0.585
 1077TIP3   OH2 3191   4.033   3.440   0.180
 1077TIP3    H1 3192   4.040   3.345   0.173
 1077TIP3    H2 3193   4.018   3.456   0.273
 1078TIP3   OH2 3194   2.647   3.518   0.935
 1078TIP3    H1 3195   2.639   3.481   0.846
 1078TIP3    H2 3196   2.741   3.515   0.953
 1079TIP3   OH2 3197   4.308   3.867   1.028
 1079TIP3    H1 3198   4.375   3.801   1.014
 1079TIP3    H2 3199   4.315   3.925   0.952
 1080TIP3   OH2 3200   4.485   3.657   1.024
 1080TIP3    H1 3201   4.411   3.615   1.066
 1080TIP3    H2 3202   4.560   3.601   1.045
 1081TIP3   OH2 3203   4.011   3.161   0.075
 1081TIP3    H1 3204   4.055   3.076   0.086
 1081TIP3    H2 3205   4.055   3.200  -0.000
 1082TIP3   OH2 3206   4.170   3.332   0.579
 1082TIP3    H1 3207   4.251   3.351   0.533
 1082TIP3    H2 3208   4.182   3.371   0.666
 1083TIP3   OH2 3209   4.245   3.485   0.804
 1083TIP3    H1 3210   4.172   3.516   0.857
 1083TIP3    H2 3211   4.278   3.563   0.759
 1084TIP3   OH2 3212   2.866   3.196   1.586
 1084TIP3    H1 3213   2.960   3.192   1.600
 1084TIP3    H2 3214   2.832   3.114   1.624
 1085TIP3   OH2 3215   4.708   3.088   1.343
 1085TIP3    H1 3216   4.769   3.028   1.301
 1085TIP3    H2 3217   4.669   3.137   1.271
 1086TIP3   OH2 3218   4.131   2.913   0.113
 1086TIP3    H1 3219   4.179   2.898   0.195
 1086TIP3    H2 3220   4.070   2.840   0.107
 1087TIP3   OH2 3221   2.844   2.912   0.952
 1087TIP3    H1 3222   2.896   2.832   0.955
 1087TIP3    H2 3223   2.906   2.980   0.928
 1088TIP3   OH2 3224   2.631   3.180   0.990
 1088TIP3    H1 3225   2.682   3.170   0.909
 1088TIP3    H2 3226   2.670   3.256   1.033
 1089TIP3   OH2 3227   4.559   3.204   1.147
 1089TIP3    H1 3228   4.478   3.245   1.178
 1089TIP3    H2 3229   4.530   3.132   1.091
 1090TIP3   OH2 3230   6.828   6.501   6.090
 1090TIP3    H1 3231   6.801   6.450   6.014
 1090TIP3    H2 3232   6.918   6.472   6.108
 1091TIP3   OH2 3233   2.670   2.689   0.501
 1091TIP3    H1 3234   2.584   2.710   0.536
 1091TIP3    H2 3235   2.689   2.760   0.439
 1092TIP3   OH2 3236   3.821   4.370   0.054
 1092TIP3    H1 3237   3.834   4.384  -0.040
 1092TIP3    H2 3238   3.825   4.457   0.092
 1093TIP3   OH2 3239   2.841   2.769   1.328
 1093TIP3    H1 3240   2.786   2.746   1.404
 1093TIP3    H2 3241   2.779   2.797   1.261
 1094TIP3   OH2 3242   2.862   4.192   1.387
 1094TIP3    H1 3243   2.769   4.172   1.378
 1094TIP3    H2 3244   2.882   4.175   1.479
 1095TIP3   OH2 3245   3.068   4.235   0.939
 1095TIP3    H1 3246   3.017   4.309   0.906
 1095TIP3    H2 3247   3.154   4.244   0.897
 1096TIP3   OH2 3248   3.476   4.469   1.075
 1096TIP3    H1 3249   3.514   4.461   1.162
 1096TIP3    H2 3250   3.540   4.521   1.026
 1097TIP3   OH2 3251   3.668   4.622   0.947
 1097TIP3    H1 3252   3.734   4.566   0.906
 1097TIP3    H2 3253   3.718   4.679   1.006
 1098TIP3   OH2 3254   4.469   2.957   1.037
 1098TIP3    H1 3255   4.381   2.950   1.000
 1098TIP3    H2 3256   4.504   2.868   1.031
 1099TIP3   OH2 3257   2.732   4.486   0.983
 1099TIP3    H1 3258   2.641   4.505   0.961
 1099TIP3    H2 3259   2.754   4.550   1.051
 1100TIP3   OH2 3260   2.962   4.466   0.833
 1100TIP3    H1 3261   2.879   4.474   0.881
 1100TIP3    H2 3262   2.940   4.492   0.743
 1101TIP3   OH2 3263   3.379   4.484   0.627
 1101TIP3    H1 3264   3.308   4.496   0.564
 1101TIP3    H2 3265   3.390   4.570   0.668
 1102TIP3   OH2 3266   3.637   4.410   0.686
 1102TIP3    H1 3267   3.546   4.433   0.664
 1102TIP3    H2 3268   3.690   4.475   0.640
 1103TIP3   OH2 3269   3.836   4.580   0.588
 1103TIP3    H1 3270   3.810   4.663   0.548
 1103TIP3    H2 3271   3.864   4.526   0.515
 1104TIP3   OH2 3272   2.642   4.260   0.707
 1104TIP3    H1 3273   2.667   4.233   0.795
 1104TIP3    H2 3274   2.714   4.228   0.652
 1105TIP3   OH2 3275   2.846   4.147   0.567
 1105TIP3    H1 3276   2.857   4.062   0.611
 1105TIP3    H2 3277   2.933   4.187   0.569
 1106TIP3   OH2 3278   3.114   4.231   0.587
 1106TIP3    H1 3279   3.133   4.139   0.571
 1106TIP3    H2 3280   3.167   4.253   0.664
 1107TIP3   OH2 3281   3.677   2.882   0.674
 1107TIP3    H1 3282   3.637   2.809   0.722
 1107TIP3    H2 3283   3.745   2.841   0.621
 1108TIP3   OH2 3284   4.182   2.791   0.561
 1108TIP3    H1 3285   4.219   2.842   0.488
 1108TIP3    H2 3286   4.089   2.812   0.559
 1109TIP3   OH2 3287   4.302   2.869   0.324
 1109TIP3    H1 3288   4.369   2.808   0.294
 1109TIP3    H2 3289   4.341   2.955   0.309
 1110TIP3   OH2 3290   2.951   2.597   0.674
 1110TIP3    H1 3291   2.862   2.578   0.701
 1110TIP3    H2 3292   2.994   2.512   0.667
 1111TIP3   OH2 3293   2.824   2.491   0.394
 1111TIP3    H1 3294   2.833   2.538   0.311
 1111TIP3    H2 3295   2.780   2.554   0.452
 1112TIP3   OH2 3296   3.381   2.628   0.568
 1112TIP3    H1 3297   3.432   2.672   0.499
 1112TIP3    H2 3298   3.425   2.654   0.649
 1113TIP3   OH2 3299   3.893   2.771   0.539
 1113TIP3    H1 3300   3.896   2.737   0.449
 1113TIP3    H2 3301   3.896   2.693   0.594
 1114TIP3   OH2 3302   3.949   2.705   0.116
 1114TIP3    H1 3303   3.866   2.749   0.135
 1114TIP3    H2 3304   3.938   2.617   0.152
 1115TIP3   OH2 3305   2.424   4.058   0.094
 1115TIP3    H1 3306   2.342   4.020   0.062
 1115TIP3    H2 3307   2.416   4.152   0.074
 1116TIP3   OH2 3308   2.866   2.615   0.153
 1116TIP3    H1 3309   2.883   2.541   0.094
 1116TIP3    H2 3310   2.950   2.660   0.159
 1117TIP3   OH2 3311   3.356   2.817   0.170
 1117TIP3    H1 3312   3.411   2.767   0.230
 1117TIP3    H2 3313   3.367   2.908   0.198
 1118TIP3   OH2 3314   3.140   2.865   1.558
 1118TIP3    H1 3315   3.104   2.797   1.615
 1118TIP3    H2 3316   3.232   2.871   1.584
 1119TIP3   OH2 3317   3.390   2.868   1.677
 1119TIP3    H1 3318   3.468   2.845   1.626
 1119TIP3    H2 3319   3.382   2.798   1.741
 1120TIP3   OH2 3320   7.744   0.466   6.152
 1120TIP3    H1 3321   7.717   0.420   6.232
 1120TIP3    H2 3322   7.741   0.399   6.084
 1121TIP3   OH2 3323   4.213   2.955   1.464
 1121TIP3    H1 3324   4.229   2.926   1.554
 1121TIP3    H2 3325   4.299   2.949   1.422
 1122TIP3   OH2 3326   4.126   4.479   0.982
 1122TIP3    H1 3327   4.050   4.454   0.929
 1122TIP3    H2 3328   4.113   4.573   0.998
 1123TIP3   OH2 3329   4.692   3.727   0.492
 1123TIP3    H1 3330   4.728   3.673   0.562
 1123TIP3    H2 3331   4.769   3.763   0.448
 1124TIP3   OH2 3332   4.640   4.050   0.289
 1124TIP3    H1 3333   4.641   3.959   0.260
 1124TIP3    H2 3334   4.679   4.099   0.216
 1125TIP3   OH2 3335   6.984   6.996   6.329
 1125TIP3    H1 3336   6.955   7.084   6.352
 1125TIP3    H2 3337   6.906   6.952   6.295
 1126TIP3   OH2 3338   4.448   3.655   0.166
 1126TIP3    H1 3339   4.489   3.575   0.199
 1126TIP3    H2 3340   4.522   3.715   0.151
 1127TIP3   OH2 3341   5.594   3.557   0.146
 1127TIP3    H1 3342   5.620   3.472   0.181
 1127TIP3    H2 3343   5.657   3.575   0.076
 1128TIP3   OH2 3344   4.929   3.274   0.118
 1128TIP3    H1 3345   4.896   3.342   0.060
 1128TIP3    H2 3346   4.884   3.194   0.090
 1129TIP3   OH2 3347   4.589   3.446   0.277
 1129TIP3    H1 3348   4.674   3.439   0.320
 1129TIP3    H2 3349   4.592   3.380   0.208
 1130TIP3   OH2 3350   5.095   3.684   0.107
 1130TIP3    H1 3351   5.155   3.610   0.118
 1130TIP3    H2 3352   5.030   3.653   0.044
 1131TIP3   OH2 3353   6.289   3.584   0.333
 1131TIP3    H1 3354   6.212   3.632   0.302
 1131TIP3    H2 3355   6.320   3.633   0.409
 1132TIP3   OH2 3356   4.952   3.238   0.593
 1132TIP3    H1 3357   4.902   3.273   0.519
 1132TIP3    H2 3358   4.897   3.255   0.670
 1133TIP3   OH2 3359   4.976   3.940   0.483
 1133TIP3    H1 3360   4.921   4.018   0.490
 1133TIP3    H2 3361   5.065   3.972   0.496
 1134TIP3   OH2 3362   4.837   3.348   0.367
 1134TIP3    H1 3363   4.898   3.417   0.393
 1134TIP3    H2 3364   4.872   3.315   0.284
 1135TIP3   OH2 3365   4.882   4.189   0.509
 1135TIP3    H1 3366   4.883   4.272   0.462
 1135TIP3    H2 3367   4.796   4.185   0.550
 1136TIP3   OH2 3368   5.952   3.295   0.300
 1136TIP3    H1 3369   5.858   3.305   0.285
 1136TIP3    H2 3370   5.992   3.339   0.225
 1137TIP3   OH2 3371   5.287   2.924   0.328
 1137TIP3    H1 3372   5.278   2.834   0.358
 1137TIP3    H2 3373   5.211   2.970   0.364
 1138TIP3   OH2 3374   5.845   3.817   0.469
 1138TIP3    H1 3375   5.819   3.887   0.529
 1138TIP3    H2 3376   5.769   3.804   0.413
 1139TIP3   OH2 3377   4.917   3.748   0.308
 1139TIP3    H1 3378   4.985   3.738   0.241
 1139TIP3    H2 3379   4.948   3.820   0.363
 1140TIP3   OH2 3380   5.096   4.313   0.641
 1140TIP3    H1 3381   5.035   4.370   0.688
 1140TIP3    H2 3382   5.039   4.247   0.599
 1141TIP3   OH2 3383   4.849   3.852   0.778
 1141TIP3    H1 3384   4.858   3.946   0.797
 1141TIP3    H2 3385   4.755   3.839   0.767
 1142TIP3   OH2 3386   4.875   4.454   0.738
 1142TIP3    H1 3387   4.848   4.432   0.649
 1142TIP3    H2 3388   4.797   4.435   0.791
 1143TIP3   OH2 3389   4.466   4.017   0.664
 1143TIP3    H1 3390   4.401   4.004   0.595
 1143TIP3    H2 3391   4.501   3.930   0.681
 1144TIP3   OH2 3392   4.228   4.208   0.300
 1144TIP3    H1 3393   4.323   4.219   0.294
 1144TIP3    H2 3394   4.199   4.279   0.356
 1145TIP3   OH2 3395   5.330   4.462   0.610
 1145TIP3    H1 3396   5.310   4.538   0.555
 1145TIP3    H2 3397   5.244   4.424   0.632
 1146TIP3   OH2 3398   6.068   3.779   0.639
 1146TIP3    H1 3399   5.987   3.780   0.588
 1146TIP3    H2 3400   6.088   3.685   0.649
 1147TIP3   OH2 3401   4.670   4.197   0.678
 1147TIP3    H1 3402   4.727   4.170   0.750
 1147TIP3    H2 3403   4.605   4.127   0.671
 1148TIP3   OH2 3404   5.053   3.024   0.445
 1148TIP3    H1 3405   4.968   2.994   0.412
 1148TIP3    H2 3406   5.032   3.105   0.493
 1149TIP3   OH2 3407   5.605   3.139   0.641
 1149TIP3    H1 3408   5.674   3.116   0.703
 1149TIP3    H2 3409   5.523   3.120   0.687
 1150TIP3   OH2 3410   5.833   3.551   0.556
 1150TIP3    H1 3411   5.793   3.551   0.642
 1150TIP3    H2 3412   5.816   3.638   0.521
 1151TIP3   OH2 3413   5.001   3.544   0.468
 1151TIP3    H1 3414   4.951   3.555   0.549
 1151TIP3    H2 3415   4.976   3.619   0.414
 1152TIP3   OH2 3416   5.553   3.779   0.786
 1152TIP3    H1 3417   5.525   3.707   0.843
 1152TIP3    H2 3418   5.647   3.789   0.806
 1153TIP3   OH2 3419   4.830   3.571   0.681
 1153TIP3    H1 3420   4.844   3.637   0.749
 1153TIP3    H2 3421   4.814   3.490   0.729
 1154TIP3   OH2 3422   4.435   3.095   0.256
 1154TIP3    H1 3423   4.495   3.127   0.324
 1154TIP3    H2 3424   4.468   3.133   0.175
 1155TIP3   OH2 3425   5.620   3.757   0.336
 1155TIP3    H1 3426   5.601   3.695   0.267
 1155TIP3    H2 3427   5.556   3.737   0.404
 1156TIP3   OH2 3428   5.196   3.192   0.086
 1156TIP3    H1 3429   5.108   3.221   0.107
 1156TIP3    H2 3430   5.249   3.272   0.088
 1157TIP3   OH2 3431   4.617   3.257   0.083
 1157TIP3    H1 3432   4.543   3.276   0.025
 1157TIP3    H2 3433   4.665   3.187   0.038
 1158TIP3   OH2 3434   5.675   3.317   0.256
 1158TIP3    H1 3435   5.645   3.340   0.343
 1158TIP3    H2 3436   5.623   3.241   0.231
 1159TIP3   OH2 3437   4.841   4.116   0.881
 1159TIP3    H1 3438   4.921   4.139   0.928
 1159TIP3    H2 3439   4.771   4.124   0.947
 1160TIP3   OH2 3440   5.293   3.491   0.150
 1160TIP3    H1 3441   5.383   3.520   0.134
 1160TIP3    H2 3442   5.288   3.481   0.245
 1161TIP3   OH2 3443   4.797   3.054   0.010
 1161TIP3    H1 3444   4.763   2.982   0.062
 1161TIP3    H2 3445   4.857   3.013  -0.052
 1162TIP3   OH2 3446   5.269   3.489   0.426
 1162TIP3    H1 3447   5.181   3.525   0.440
 1162TIP3    H2 3448   5.327   3.555   0.463
 1163TIP3   OH2 3449   5.430   4.200   0.618
 1163TIP3    H1 3450   5.478   4.176   0.697
 1163TIP3    H2 3451   5.415   4.294   0.626
 1164TIP3   OH2 3452   4.679   3.802   0.173
 1164TIP3    H1 3453   4.729   3.834   0.097
 1164TIP3    H2 3454   4.745   3.763   0.230
 1165TIP3   OH2 3455   4.576   3.792   0.794
 1165TIP3    H1 3456   4.577   3.769   0.886
 1165TIP3    H2 3457   4.504   3.742   0.757
 1166TIP3   OH2 3458   5.314   3.926   0.813
 1166TIP3    H1 3459   5.245   3.868   0.781
 1166TIP3    H2 3460   5.395   3.888   0.780
 1167TIP3   OH2 3461   5.565   4.408   0.471
 1167TIP3    H1 3462   5.470   4.411   0.467
 1167TIP3    H2 3463   5.588   4.473   0.538
 1168TIP3   OH2 3464   5.078   4.587   0.225
 1168TIP3    H1 3465   5.068   4.681   0.242
 1168TIP3    H2 3466   5.157   4.563   0.274
 1169TIP3   OH2 3467   5.493   4.145   0.290
 1169TIP3    H1 3468   5.472   4.203   0.364
 1169TIP3    H2 3469   5.587   4.129   0.298
 1170TIP3   OH2 3470   4.782   3.317   0.799
 1170TIP3    H1 3471   4.687   3.326   0.802
 1170TIP3    H2 3472   4.804   3.263   0.875
 1171TIP3   OH2 3473   4.498   4.382   0.579
 1171TIP3    H1 3474   4.551   4.316   0.624
 1171TIP3    H2 3475   4.562   4.443   0.541
 1172TIP3   OH2 3476   5.615   3.385   0.515
 1172TIP3    H1 3477   5.701   3.419   0.537
 1172TIP3    H2 3478   5.608   3.302   0.562
 1173TIP3   OH2 3479   5.479   3.634   0.547
 1173TIP3    H1 3480   5.508   3.679   0.626
 1173TIP3    H2 3481   5.522   3.548   0.551
 1174TIP3   OH2 3482   6.101   3.513   0.548
 1174TIP3    H1 3483   6.006   3.505   0.549
 1174TIP3    H2 3484   6.125   3.503   0.456
 1175TIP3   OH2 3485   4.792   2.942   0.398
 1175TIP3    H1 3486   4.765   2.909   0.312
 1175TIP3    H2 3487   4.785   2.866   0.456
 1176TIP3   OH2 3488   4.518   4.726   0.892
 1176TIP3    H1 3489   4.601   4.724   0.940
 1176TIP3    H2 3490   4.502   4.635   0.868
 1177TIP3   OH2 3491   4.988   4.648   0.898
 1177TIP3    H1 3492   5.078   4.625   0.920
 1177TIP3    H2 3493   4.955   4.573   0.848
 1178TIP3   OH2 3494   5.625   4.588   0.670
 1178TIP3    H1 3495   5.631   4.518   0.734
 1178TIP3    H2 3496   5.714   4.623   0.664
 1179TIP3   OH2 3497   4.625   4.123   1.055
 1179TIP3    H1 3498   4.640   4.029   1.066
 1179TIP3    H2 3499   4.540   4.129   1.012
 1180TIP3   OH2 3500   5.244   4.197   0.844
 1180TIP3    H1 3501   5.204   4.220   0.760
 1180TIP3    H2 3502   5.277   4.108   0.831
 1181TIP3   OH2 3503   5.727   4.188   0.433
 1181TIP3    H1 3504   5.766   4.203   0.346
 1181TIP3    H2 3505   5.671   4.264   0.448
 1182TIP3   OH2 3506   4.741   3.867   1.058
 1182TIP3    H1 3507   4.815   3.845   1.002
 1182TIP3    H2 3508   4.780   3.888   1.143
 1183TIP3   OH2 3509   5.109   3.755   0.710
 1183TIP3    H1 3510   5.022   3.795   0.715
 1183TIP3    H2 3511   5.136   3.769   0.619
 1184TIP3   OH2 3512   5.605   4.115   0.821
 1184TIP3    H1 3513   5.661   4.063   0.764
 1184TIP3    H2 3514   5.600   4.065   0.902
 1185TIP3   OH2 3515   5.209   3.527   0.825
 1185TIP3    H1 3516   5.209   3.452   0.765
 1185TIP3    H2 3517   5.175   3.600   0.774
 1186TIP3   OH2 3518   5.213   3.315   0.637
 1186TIP3    H1 3519   5.242   3.359   0.557
 1186TIP3    H2 3520   5.122   3.291   0.619
 1187TIP3   OH2 3521   5.251   3.800   0.479
 1187TIP3    H1 3522   5.343   3.783   0.497
 1187TIP3    H2 3523   5.245   3.895   0.471
 1188TIP3   OH2 3524   5.819   3.808   0.883
 1188TIP3    H1 3525   5.862   3.722   0.882
 1188TIP3    H2 3526   5.891   3.871   0.872
 1189TIP3   OH2 3527   5.826   4.044   0.638
 1189TIP3    H1 3528   5.784   4.093   0.567
 1189TIP3    H2 3529   5.919   4.046   0.616
 1190TIP3   OH2 3530   5.092   3.613   1.066
 1190TIP3    H1 3531   5.022   3.551   1.085
 1190TIP3    H2 3532   5.121   3.591   0.977
 1191TIP3   OH2 3533   5.340   3.083   0.720
 1191TIP3    H1 3534   5.299   3.164   0.691
 1191TIP3    H2 3535   5.273   3.015   0.706
 1192TIP3   OH2 3536   5.467   3.561   0.924
 1192TIP3    H1 3537   5.453   3.550   1.018
 1192TIP3    H2 3538   5.381   3.543   0.885
 1193TIP3   OH2 3539   5.714   3.525   0.795
 1193TIP3    H1 3540   5.633   3.522   0.847
 1193TIP3    H2 3541   5.783   3.498   0.856
 1194TIP3   OH2 3542   5.947   3.484   0.943
 1194TIP3    H1 3543   5.959   3.389   0.951
 1194TIP3    H2 3544   5.942   3.515   1.034
 1195TIP3   OH2 3545   4.925   3.393   1.127
 1195TIP3    H1 3546   4.930   3.305   1.091
 1195TIP3    H2 3547   4.963   3.386   1.215
 1196TIP3   OH2 3548   5.411   3.070   0.985
 1196TIP3    H1 3549   5.480   3.005   0.978
 1196TIP3    H2 3550   5.377   3.080   0.896
 1197TIP3   OH2 3551   5.500   3.288   1.128
 1197TIP3    H1 3552   5.470   3.216   1.072
 1197TIP3    H2 3553   5.427   3.350   1.128
 1198TIP3   OH2 3554   4.162   4.422   0.107
 1198TIP3    H1 3555   4.138   4.342   0.154
 1198TIP3    H2 3556   4.248   4.446   0.141
 1199TIP3   OH2 3557   6.144   4.442   0.595
 1199TIP3    H1 3558   6.051   4.424   0.579
 1199TIP3    H2 3559   6.148   4.537   0.605
 1200TIP3   OH2 3560   4.433   3.766   0.418
 1200TIP3    H1 3561   4.424   3.730   0.330
 1200TIP3    H2 3562   4.526   3.762   0.437
 1201TIP3   OH2 3563   6.087   4.087   0.570
 1201TIP3    H1 3564   6.149   4.025   0.530
 1201TIP3    H2 3565   6.069   4.151   0.502
 1202TIP3   OH2 3566   6.269   3.890   0.495
 1202TIP3    H1 3567   6.195   3.844   0.535
 1202TIP3    H2 3568   6.346   3.844   0.526
 1203TIP3   OH2 3569   6.056   3.732   0.296
 1203TIP3    H1 3570   5.982   3.748   0.355
 1203TIP3    H2 3571   6.063   3.813   0.244
 1204TIP3   OH2 3572   4.661   3.451   1.072
 1204TIP3    H1 3573   4.755   3.448   1.088
 1204TIP3    H2 3574   4.628   3.369   1.110
 1205TIP3   OH2 3575   6.511   3.340   0.835
 1205TIP3    H1 3576   6.571   3.282   0.789
 1205TIP3    H2 3577   6.472   3.395   0.767
 1206TIP3   OH2 3578   4.630   3.165   0.440
 1206TIP3    H1 3579   4.684   3.086   0.435
 1206TIP3    H2 3580   4.690   3.236   0.417
 1207TIP3   OH2 3581   4.412   3.430   0.492
 1207TIP3    H1 3582   4.466   3.425   0.413
 1207TIP3    H2 3583   4.437   3.512   0.533
 1208TIP3   OH2 3584   6.365   3.473   0.650
 1208TIP3    H1 3585   6.288   3.510   0.693
 1208TIP3    H2 3586   6.330   3.410   0.587
 1209TIP3   OH2 3587   6.976   6.613   6.333
 1209TIP3    H1 3588   6.903   6.600   6.394
 1209TIP3    H2 3589   6.945   6.683   6.275
 1210TIP3   OH2 3590   4.627   2.992   0.803
 1210TIP3    H1 3591   4.577   2.988   0.885
 1210TIP3    H2 3592   4.571   3.041   0.743
 1211TIP3   OH2 3593   4.653   4.441   0.899
 1211TIP3    H1 3594   4.561   4.426   0.879
 1211TIP3    H2 3595   4.660   4.426   0.993
 1212TIP3   OH2 3596   4.913   4.445   0.441
 1212TIP3    H1 3597   4.828   4.482   0.418
 1212TIP3    H2 3598   4.968   4.522   0.461
 1213TIP3   OH2 3599   5.320   4.797   0.647
 1213TIP3    H1 3600   5.366   4.754   0.719
 1213TIP3    H2 3601   5.389   4.825   0.587
 1214TIP3   OH2 3602   5.520   4.795   0.430
 1214TIP3    H1 3603   5.547   4.851   0.357
 1214TIP3    H2 3604   5.584   4.813   0.498
 1215TIP3   OH2 3605   6.262   3.213   0.535
 1215TIP3    H1 3606   6.171   3.192   0.512
 1215TIP3    H2 3607   6.310   3.132   0.521
 1216TIP3   OH2 3608   4.589   4.833   0.445
 1216TIP3    H1 3609   4.519   4.781   0.405
 1216TIP3    H2 3610   4.583   4.812   0.539
 1217TIP3   OH2 3611   4.816   4.777   0.308
 1217TIP3    H1 3612   4.731   4.776   0.352
 1217TIP3    H2 3613   4.809   4.710   0.240
 1218TIP3   OH2 3614   4.449   4.476   0.125
 1218TIP3    H1 3615   4.477   4.406   0.185
 1218TIP3    H2 3616   4.491   4.454   0.042
 1219TIP3   OH2 3617   5.513   3.095   0.214
 1219TIP3    H1 3618   5.419   3.082   0.222
 1219TIP3    H2 3619   5.547   3.010   0.189
 1220TIP3   OH2 3620   4.716   2.833   0.153
 1220TIP3    H1 3621   4.627   2.801   0.167
 1220TIP3    H2 3622   4.770   2.754   0.149
 1221TIP3   OH2 3623   7.083   6.403   6.196
 1221TIP3    H1 3624   7.165   6.440   6.164
 1221TIP3    H2 3625   7.051   6.468   6.259
 1222TIP3   OH2 3626   5.176   2.908   0.069
 1222TIP3    H1 3627   5.179   3.001   0.045
 1222TIP3    H2 3628   5.221   2.904   0.153
 1223TIP3   OH2 3629   4.934   3.121   1.042
 1223TIP3    H1 3630   4.898   3.053   1.100
 1223TIP3    H2 3631   5.026   3.127   1.067
 1224TIP3   OH2 3632   5.184   3.125   1.163
 1224TIP3    H1 3633   5.263   3.101   1.114
 1224TIP3    H2 3634   5.175   3.055   1.228
 1225TIP3   OH2 3635   6.008   3.215   0.956
 1225TIP3    H1 3636   6.025   3.186   1.045
 1225TIP3    H2 3637   6.094   3.212   0.913
 1226TIP3   OH2 3638   5.784   4.790   0.336
 1226TIP3    H1 3639   5.801   4.696   0.340
 1226TIP3    H2 3640   5.797   4.820   0.426
 1227TIP3   OH2 3641   6.580   3.583   0.369
 1227TIP3    H1 3642   6.499   3.573   0.319
 1227TIP3    H2 3643   6.612   3.494   0.382
 1228TIP3   OH2 3644   6.348   4.267   0.614
 1228TIP3    H1 3645   6.413   4.283   0.546
 1228TIP3    H2 3646   6.276   4.327   0.594
 1229TIP3   OH2 3647   6.540   4.065   0.496
 1229TIP3    H1 3648   6.507   3.976   0.491
 1229TIP3    H2 3649   6.542   4.085   0.590
 1230TIP3   OH2 3650   6.888   3.896   0.520
 1230TIP3    H1 3651   6.837   3.820   0.548
 1230TIP3    H2 3652   6.890   3.890   0.425
 1231TIP3   OH2 3653   6.757   3.669   0.605
 1231TIP3    H1 3654   6.735   3.590   0.555
 1231TIP3    H2 3655   6.787   3.635   0.690
 1232TIP3   OH2 3656   6.467   3.726   0.577
 1232TIP3    H1 3657   6.537   3.697   0.519
 1232TIP3    H2 3658   6.439   3.647   0.624
 1233TIP3   OH2 3659   6.419   3.325   0.326
 1233TIP3    H1 3660   6.365   3.282   0.393
 1233TIP3    H2 3661   6.367   3.400   0.298
 1234TIP3   OH2 3662   6.731   3.377   0.536
 1234TIP3    H1 3663   6.691   3.306   0.588
 1234TIP3    H2 3664   6.819   3.386   0.572
 1235TIP3   OH2 3665   6.967   3.381   0.681
 1235TIP3    H1 3666   7.054   3.365   0.646
 1235TIP3    H2 3667   6.954   3.312   0.746
 1236TIP3   OH2 3668   0.522   4.455   1.350
 1236TIP3    H1 3669   0.539   4.535   1.400
 1236TIP3    H2 3670   0.543   4.478   1.260
 1237TIP3   OH2 3671   0.576   4.665   1.525
 1237TIP3    H1 3672   0.486   4.694   1.509
 1237TIP3    H2 3673   0.621   4.743   1.558
 1238TIP3   OH2 3674   0.149   4.375   1.292
 1238TIP3    H1 3675   0.189   4.315   1.230
 1238TIP3    H2 3676   0.181   4.462   1.266
 1239TIP3   OH2 3677   0.324   4.327   1.504
 1239TIP3    H1 3678   0.245   4.340   1.453
 1239TIP3    H2 3679   0.393   4.369   1.452
 1240TIP3   OH2 3680   0.479   4.978   1.299
 1240TIP3    H1 3681   0.418   5.052   1.299
 1240TIP3    H2 3682   0.560   5.013   1.263
 1241TIP3   OH2 3683   0.140   4.898   1.613
 1241TIP3    H1 3684   0.181   4.962   1.672
 1241TIP3    H2 3685   0.047   4.921   1.612
 1242TIP3   OH2 3686   0.461   5.668   1.597
 1242TIP3    H1 3687   0.421   5.582   1.596
 1242TIP3    H2 3688   0.402   5.722   1.650
 1243TIP3   OH2 3689   7.685   4.193   1.800
 1243TIP3    H1 3690   7.745   4.165   1.869
 1243TIP3    H2 3691   7.603   4.212   1.846
 1244TIP3   OH2 3692   0.103   4.668   1.761
 1244TIP3    H1 3693   0.062   4.591   1.721
 1244TIP3    H2 3694   0.120   4.726   1.687
 1245TIP3   OH2 3695   7.695   4.803   1.970
 1245TIP3    H1 3696   7.635   4.776   2.040
 1245TIP3    H2 3697   7.677   4.896   1.959
 1246TIP3   OH2 3698   7.734   4.318   1.454
 1246TIP3    H1 3699   7.688   4.249   1.407
 1246TIP3    H2 3700   7.805   4.343   1.395
 1247TIP3   OH2 3701   0.385   5.412   1.535
 1247TIP3    H1 3702   0.325   5.398   1.462
 1247TIP3    H2 3703   0.467   5.369   1.507
 1248TIP3   OH2 3704   7.712   4.454   1.688
 1248TIP3    H1 3705   7.723   4.420   1.599
 1248TIP3    H2 3706   7.714   4.376   1.744
 1249TIP3   OH2 3707   7.601   4.709   1.729
 1249TIP3    H1 3708   7.616   4.724   1.822
 1249TIP3    H2 3709   7.642   4.624   1.711
 1250TIP3   OH2 3710   7.678   5.075   1.972
 1250TIP3    H1 3711   7.759   5.103   1.931
 1250TIP3    H2 3712   7.701   5.057   2.063
 1251TIP3   OH2 3713   0.171   4.861   2.048
 1251TIP3    H1 3714   0.148   4.840   2.139
 1251TIP3    H2 3715   0.206   4.950   2.052
 1252TIP3   OH2 3716   0.100   5.128   1.807
 1252TIP3    H1 3717   0.031   5.115   1.742
 1252TIP3    H2 3718   0.175   5.159   1.757
 1253TIP3   OH2 3719   7.419   4.224   1.871
 1253TIP3    H1 3720   7.382   4.275   1.799
 1253TIP3    H2 3721   7.407   4.133   1.845
 1254TIP3   OH2 3722   7.348   4.675   2.156
 1254TIP3    H1 3723   7.431   4.669   2.204
 1254TIP3    H2 3724   7.349   4.599   2.098
 1255TIP3   OH2 3725   0.055   4.559   2.027
 1255TIP3    H1 3726  -0.037   4.538   2.014
 1255TIP3    H2 3727   0.087   4.488   2.083
 1256TIP3   OH2 3728   7.572   4.131   2.103
 1256TIP3    H1 3729   7.624   4.051   2.107
 1256TIP3    H2 3730   7.519   4.121   2.024
 1257TIP3   OH2 3731   7.516   4.413   2.251
 1257TIP3    H1 3732   7.537   4.324   2.222
 1257TIP3    H2 3733   7.422   4.411   2.269
 1258TIP3   OH2 3734   0.309   5.508   1.878
 1258TIP3    H1 3735   0.231   5.526   1.931
 1258TIP3    H2 3736   0.364   5.587   1.888
 1259TIP3   OH2 3737   0.341   5.174   1.685
 1259TIP3    H1 3738   0.420   5.120   1.678
 1259TIP3    H2 3739   0.362   5.253   1.635
 1260TIP3   OH2 3740   0.546   4.991   1.789
 1260TIP3    H1 3741   0.579   4.904   1.766
 1260TIP3    H2 3742   0.623   5.048   1.782
 1261TIP3   OH2 3743   0.262   4.624   1.249
 1261TIP3    H1 3744   0.346   4.639   1.206
 1261TIP3    H2 3745   0.272   4.663   1.336
 1262TIP3   OH2 3746   0.336   4.786   1.461
 1262TIP3    H1 3747   0.265   4.825   1.511
 1262TIP3    H2 3748   0.370   4.857   1.407
 1263TIP3   OH2 3749   0.751   4.385   2.004
 1263TIP3    H1 3750   0.815   4.324   1.967
 1263TIP3    H2 3751   0.717   4.432   1.929
 1264TIP3   OH2 3752   0.602   4.498   1.805
 1264TIP3    H1 3753   0.516   4.532   1.829
 1264TIP3    H2 3754   0.582   4.423   1.749
 1265TIP3   OH2 3755   0.514   4.259   1.699
 1265TIP3    H1 3756   0.437   4.269   1.643
 1265TIP3    H2 3757   0.538   4.167   1.691
 1266TIP3   OH2 3758   0.246   4.074   1.282
 1266TIP3    H1 3759   0.297   4.105   1.207
 1266TIP3    H2 3760   0.158   4.060   1.246
 1267TIP3   OH2 3761   0.370   4.158   1.057
 1267TIP3    H1 3762   0.424   4.101   1.002
 1267TIP3    H2 3763   0.391   4.247   1.028
 1268TIP3   OH2 3764   7.797   4.013   1.182
 1268TIP3    H1 3765   7.713   4.038   1.145
 1268TIP3    H2 3766   7.776   3.951   1.252
 1269TIP3   OH2 3767   0.252   4.235   2.122
 1269TIP3    H1 3768   0.277   4.223   2.213
 1269TIP3    H2 3769   0.334   4.253   2.076
 1270TIP3   OH2 3770   1.445   5.190   0.395
 1270TIP3    H1 3771   1.505   5.235   0.454
 1270TIP3    H2 3772   1.501   5.135   0.341
 1271TIP3   OH2 3773   1.465   5.158   0.791
 1271TIP3    H1 3774   1.508   5.144   0.875
 1271TIP3    H2 3775   1.421   5.075   0.773
 1272TIP3   OH2 3776   0.744   5.030   1.166
 1272TIP3    H1 3777   0.781   4.967   1.227
 1272TIP3    H2 3778   0.811   5.039   1.098
 1273TIP3   OH2 3779   1.665   5.480   0.504
 1273TIP3    H1 3780   1.679   5.408   0.566
 1273TIP3    H2 3781   1.724   5.549   0.536
 1274TIP3   OH2 3782   1.292   5.384   0.798
 1274TIP3    H1 3783   1.330   5.299   0.775
 1274TIP3    H2 3784   1.365   5.432   0.838
 1275TIP3   OH2 3785   2.284   4.712   0.814
 1275TIP3    H1 3786   2.305   4.796   0.856
 1275TIP3    H2 3787   2.311   4.723   0.723
 1276TIP3   OH2 3788   1.682   4.883   0.849
 1276TIP3    H1 3789   1.715   4.798   0.876
 1276TIP3    H2 3790   1.639   4.867   0.765
 1277TIP3   OH2 3791   1.022   4.546   0.789
 1277TIP3    H1 3792   0.987   4.609   0.727
 1277TIP3    H2 3793   0.986   4.462   0.762
 1278TIP3   OH2 3794   1.724   4.639   0.439
 1278TIP3    H1 3795   1.787   4.629   0.510
 1278TIP3    H2 3796   1.776   4.671   0.365
 1279TIP3   OH2 3797   0.679   4.764   0.981
 1279TIP3    H1 3798   0.768   4.729   0.988
 1279TIP3    H2 3799   0.659   4.760   0.887
 1280TIP3   OH2 3800   1.096   4.970   0.767
 1280TIP3    H1 3801   1.188   4.945   0.778
 1280TIP3    H2 3802   1.077   4.949   0.676
 1281TIP3   OH2 3803   2.349   4.930   0.983
 1281TIP3    H1 3804   2.259   4.964   0.979
 1281TIP3    H2 3805   2.384   4.964   1.065
 1282TIP3   OH2 3806   1.011   4.526   1.262
 1282TIP3    H1 3807   0.962   4.564   1.189
 1282TIP3    H2 3808   0.955   4.539   1.338
 1283TIP3   OH2 3809   1.113   5.306   0.998
 1283TIP3    H1 3810   1.071   5.381   1.041
 1283TIP3    H2 3811   1.169   5.346   0.931
 1284TIP3   OH2 3812   1.886   4.658   0.656
 1284TIP3    H1 3813   1.845   4.636   0.740
 1284TIP3    H2 3814   1.941   4.733   0.676
 1285TIP3   OH2 3815   0.919   4.637   1.027
 1285TIP3    H1 3816   0.975   4.711   1.052
 1285TIP3    H2 3817   0.961   4.601   0.949
 1286TIP3   OH2 3818   0.971   5.514   1.110
 1286TIP3    H1 3819   0.939   5.551   1.028
 1286TIP3    H2 3820   0.892   5.501   1.163
 1287TIP3   OH2 3821   1.779   5.719   0.611
 1287TIP3    H1 3822   1.695   5.719   0.658
 1287TIP3    H2 3823   1.761   5.768   0.530
 1288TIP3   OH2 3824   2.082   4.609   0.986
 1288TIP3    H1 3825   1.995   4.627   0.948
 1288TIP3    H2 3826   2.143   4.634   0.917
 1289TIP3   OH2 3827   1.349   4.235   0.973
 1289TIP3    H1 3828   1.342   4.142   0.995
 1289TIP3    H2 3829   1.272   4.275   1.014
 1290TIP3   OH2 3830   1.991   5.618   0.956
 1290TIP3    H1 3831   1.975   5.542   0.900
 1290TIP3    H2 3832   1.981   5.693   0.898
 1291TIP3   OH2 3833   2.177   5.271   0.821
 1291TIP3    H1 3834   2.093   5.317   0.820
 1291TIP3    H2 3835   2.213   5.285   0.734
 1292TIP3   OH2 3836   1.630   5.070   0.223
 1292TIP3    H1 3837   1.644   5.140   0.159
 1292TIP3    H2 3838   1.716   5.055   0.262
 1293TIP3   OH2 3839   1.868   5.136   1.128
 1293TIP3    H1 3840   1.866   5.219   1.177
 1293TIP3    H2 3841   1.785   5.133   1.082
 1294TIP3   OH2 3842   0.967   5.071   0.985
 1294TIP3    H1 3843   1.007   5.030   0.909
 1294TIP3    H2 3844   1.019   5.150   1.001
 1295TIP3   OH2 3845   1.548   5.715   0.763
 1295TIP3    H1 3846   1.521   5.789   0.816
 1295TIP3    H2 3847   1.534   5.639   0.819
 1296TIP3   OH2 3848   1.134   5.622   1.302
 1296TIP3    H1 3849   1.067   5.676   1.343
 1296TIP3    H2 3850   1.087   5.575   1.232
 1297TIP3   OH2 3851   0.934   5.184   1.418
 1297TIP3    H1 3852   0.950   5.267   1.462
 1297TIP3    H2 3853   0.839   5.179   1.409
 1298TIP3   OH2 3854   0.913   5.773   1.384
 1298TIP3    H1 3855   0.859   5.777   1.305
 1298TIP3    H2 3856   0.852   5.748   1.454
 1299TIP3   OH2 3857   1.976   4.203   0.072
 1299TIP3    H1 3858   1.896   4.223   0.121
 1299TIP3    H2 3859   1.988   4.278   0.014
 1300TIP3   OH2 3860   0.382   5.247   1.284
 1300TIP3    H1 3861   0.400   5.291   1.201
 1300TIP3    H2 3862   0.466   5.251   1.331
 1301TIP3   OH2 3863   2.223   5.972   1.019
 1301TIP3    H1 3864   2.228   5.877   1.032
 1301TIP3    H2 3865   2.143   5.998   1.066
 1302TIP3   OH2 3866   1.340   5.745   1.174
 1302TIP3    H1 3867   1.338   5.838   1.198
 1302TIP3    H2 3868   1.269   5.706   1.225
 1303TIP3   OH2 3869   2.111   5.092   1.292
 1303TIP3    H1 3870   2.030   5.099   1.241
 1303TIP3    H2 3871   2.131   4.998   1.292
 1304TIP3   OH2 3872   0.792   5.473   1.324
 1304TIP3    H1 3873   0.854   5.479   1.397
 1304TIP3    H2 3874   0.738   5.396   1.345
 1305TIP3   OH2 3875   1.112   4.323   1.099
 1305TIP3    H1 3876   1.029   4.292   1.065
 1305TIP3    H2 3877   1.090   4.400   1.151
 1306TIP3   OH2 3878   1.652   4.446   1.301
 1306TIP3    H1 3879   1.723   4.419   1.361
 1306TIP3    H2 3880   1.572   4.426   1.349
 1307TIP3   OH2 3881   1.874   4.872   1.219
 1307TIP3    H1 3882   1.832   4.868   1.304
 1307TIP3    H2 3883   1.856   4.960   1.186
 1308TIP3   OH2 3884   1.289   4.439  -0.002
 1308TIP3    H1 3885   1.305   4.450   0.092
 1308TIP3    H2 3886   1.342   4.364  -0.026
 1309TIP3   OH2 3887   1.053   4.854   1.137
 1309TIP3    H1 3888   1.006   4.859   1.220
 1309TIP3    H2 3889   1.029   4.935   1.091
 1310TIP3   OH2 3890   0.909   4.714   0.606
 1310TIP3    H1 3891   0.829   4.764   0.587
 1310TIP3    H2 3892   0.979   4.764   0.565
 1311TIP3   OH2 3893   1.417   4.844   0.379
 1311TIP3    H1 3894   1.364   4.918   0.351
 1311TIP3    H2 3895   1.454   4.809   0.298
 1312TIP3   OH2 3896   1.593   5.083   1.437
 1312TIP3    H1 3897   1.565   5.015   1.498
 1312TIP3    H2 3898   1.686   5.096   1.456
 1313TIP3   OH2 3899   1.587   4.827   0.596
 1313TIP3    H1 3900   1.519   4.849   0.532
 1313TIP3    H2 3901   1.631   4.751   0.558
 1314TIP3   OH2 3902   0.874   4.850   1.350
 1314TIP3    H1 3903   0.829   4.901   1.417
 1314TIP3    H2 3904   0.873   4.760   1.384
 1315TIP3   OH2 3905   0.456   4.397   0.959
 1315TIP3    H1 3906   0.532   4.429   1.009
 1315TIP3    H2 3907   0.487   4.395   0.868
 1316TIP3   OH2 3908   1.612   5.083   1.017
 1316TIP3    H1 3909   1.642   5.016   0.956
 1316TIP3    H2 3910   1.570   5.034   1.088
 1317TIP3   OH2 3911   1.293   4.548   0.694
 1317TIP3    H1 3912   1.210   4.545   0.742
 1317TIP3    H2 3913   1.360   4.530   0.761
 1318TIP3   OH2 3914   1.746   4.616   0.897
 1318TIP3    H1 3915   1.723   4.633   0.989
 1318TIP3    H2 3916   1.679   4.555   0.867
 1319TIP3   OH2 3917   1.943   6.314   1.121
 1319TIP3    H1 3918   1.938   6.328   1.027
 1319TIP3    H2 3919   2.023   6.361   1.148
 1320TIP3   OH2 3920   0.927   5.424   1.562
 1320TIP3    H1 3921   0.999   5.449   1.619
 1320TIP3    H2 3922   0.849   5.431   1.617
 1321TIP3   OH2 3923   1.361   4.893   0.802
 1321TIP3    H1 3924   1.411   4.832   0.748
 1321TIP3    H2 3925   1.353   4.850   0.887
 1322TIP3   OH2 3926   0.908   4.315   0.698
 1322TIP3    H1 3927   0.841   4.256   0.733
 1322TIP3    H2 3928   0.989   4.264   0.703
 1323TIP3   OH2 3929   1.316   4.797   1.064
 1323TIP3    H1 3930   1.230   4.829   1.089
 1323TIP3    H2 3931   1.377   4.849   1.116
 1324TIP3   OH2 3932   1.940   5.409   0.782
 1324TIP3    H1 3933   1.975   5.457   0.707
 1324TIP3    H2 3934   1.861   5.366   0.748
 1325TIP3   OH2 3935   1.562   4.513   0.083
 1325TIP3    H1 3936   1.518   4.493   0.000
 1325TIP3    H2 3937   1.601   4.599   0.069
 1326TIP3   OH2 3938   1.458   5.486   1.187
 1326TIP3    H1 3939   1.499   5.472   1.272
 1326TIP3    H2 3940   1.417   5.572   1.194
 1327TIP3   OH2 3941   1.619   4.801   0.148
 1327TIP3    H1 3942   1.708   4.771   0.169
 1327TIP3    H2 3943   1.619   4.893   0.173
 1328TIP3   OH2 3944   0.659   4.937   1.512
 1328TIP3    H1 3945   0.669   5.027   1.541
 1328TIP3    H2 3946   0.588   4.940   1.447
 1329TIP3   OH2 3947   1.360   5.236   1.477
 1329TIP3    H1 3948   1.292   5.174   1.449
 1329TIP3    H2 3949   1.442   5.195   1.448
 1330TIP3   OH2 3950   1.599   5.774   1.070
 1330TIP3    H1 3951   1.506   5.755   1.085
 1330TIP3    H2 3952   1.628   5.814   1.152
 1331TIP3   OH2 3953   7.217   1.142   6.358
 1331TIP3    H1 3954   7.143   1.095   6.319
 1331TIP3    H2 3955   7.225   1.221   6.304
 1332TIP3   OH2 3956   2.238   5.693   1.048
 1332TIP3    H1 3957   2.143   5.680   1.044
 1332TIP3    H2 3958   2.269   5.662   0.963
 1333TIP3   OH2 3959   1.707   5.268   0.685
 1333TIP3    H1 3960   1.622   5.241   0.720
 1333TIP3    H2 3961   1.747   5.187   0.653
 1334TIP3   OH2 3962   1.144   5.831   0.985
 1334TIP3    H1 3963   1.178   5.915   0.954
 1334TIP3    H2 3964   1.215   5.796   1.039
 1335TIP3   OH2 3965   1.521   5.480   0.919
 1335TIP3    H1 3966   1.499   5.480   1.013
 1335TIP3    H2 3967   1.603   5.432   0.914
 1336TIP3   OH2 3968   1.759   5.981   0.958
 1336TIP3    H1 3969   1.687   5.919   0.963
 1336TIP3    H2 3970   1.728   6.048   0.897
 1337TIP3   OH2 3971   0.845   4.592   1.474
 1337TIP3    H1 3972   0.751   4.603   1.490
 1337TIP3    H2 3973   0.876   4.542   1.550
 1338TIP3   OH2 3974   1.680   4.679   1.157
 1338TIP3    H1 3975   1.760   4.721   1.190
 1338TIP3    H2 3976   1.671   4.601   1.211
 1339TIP3   OH2 3977   1.573   4.431   0.342
 1339TIP3    H1 3978   1.559   4.455   0.251
 1339TIP3    H2 3979   1.619   4.506   0.380
 1340TIP3   OH2 3980   1.226   4.643   0.439
 1340TIP3    H1 3981   1.289   4.712   0.421
 1340TIP3    H2 3982   1.243   4.618   0.530
 1341TIP3   OH2 3983   1.522   4.914   1.213
 1341TIP3    H1 3984   1.545   4.955   1.296
 1341TIP3    H2 3985   1.571   4.832   1.211
 1342TIP3   OH2 3986   1.397   4.340   0.531
 1342TIP3    H1 3987   1.370   4.414   0.586
 1342TIP3    H2 3988   1.463   4.376   0.472
 1343TIP3   OH2 3989   2.138   4.815   1.201
 1343TIP3    H1 3990   2.044   4.826   1.213
 1343TIP3    H2 3991   2.146   4.756   1.127
 1344TIP3   OH2 3992   1.800   5.017   0.599
 1344TIP3    H1 3993   1.726   4.957   0.608
 1344TIP3    H2 3994   1.870   4.977   0.650
 1345TIP3   OH2 3995   1.777   6.069   0.550
 1345TIP3    H1 3996   1.750   5.997   0.493
 1345TIP3    H2 3997   1.871   6.075   0.539
 1346TIP3   OH2 3998   0.850   4.239   1.061
 1346TIP3    H1 3999   0.812   4.207   0.978
 1346TIP3    H2 4000   0.842   4.164   1.121
 1347TIP3   OH2 4001   0.553   6.039   1.639
 1347TIP3    H1 4002   0.647   6.053   1.653
 1347TIP3    H2 4003   0.538   6.067   1.549
 1348TIP3   OH2 4004   1.032   5.954   1.553
 1348TIP3    H1 4005   1.125   5.935   1.565
 1348TIP3    H2 4006   1.000   5.886   1.493
 1349TIP3   OH2 4007   1.661   5.883   1.314
 1349TIP3    H1 4008   1.669   5.811   1.377
 1349TIP3    H2 4009   1.736   5.940   1.333
 1350TIP3   OH2 4010   0.691   5.426   1.725
 1350TIP3    H1 4011   0.688   5.332   1.706
 1350TIP3    H2 4012   0.624   5.464   1.667
 1351TIP3   OH2 4013   1.295   5.511   1.497
 1351TIP3    H1 4014   1.242   5.531   1.420
 1351TIP3    H2 4015   1.325   5.421   1.483
 1352TIP3   OH2 4016   1.770   5.547   1.106
 1352TIP3    H1 4017   1.847   5.579   1.060
 1352TIP3    H2 4018   1.704   5.615   1.091
 1353TIP3   OH2 4019   0.788   5.118   1.756
 1353TIP3    H1 4020   0.849   5.129   1.683
 1353TIP3    H2 4021   0.825   5.171   1.826
 1354TIP3   OH2 4022   1.171   5.052   1.377
 1354TIP3    H1 4023   1.085   5.091   1.385
 1354TIP3    H2 4024   1.201   5.078   1.289
 1355TIP3   OH2 4025   1.651   5.432   1.469
 1355TIP3    H1 4026   1.720   5.393   1.415
 1355TIP3    H2 4027   1.646   5.376   1.546
 1356TIP3   OH2 4028   1.258   4.821   1.492
 1356TIP3    H1 4029   1.260   4.749   1.428
 1356TIP3    H2 4030   1.226   4.896   1.442
 1357TIP3   OH2 4031   1.268   4.621   1.290
 1357TIP3    H1 4032   1.292   4.660   1.206
 1357TIP3    H2 4033   1.178   4.592   1.279
 1358TIP3   OH2 4034   1.281   5.145   1.146
 1358TIP3    H1 4035   1.370   5.177   1.133
 1358TIP3    H2 4036   1.226   5.205   1.095
 1359TIP3   OH2 4037   1.862   5.108   1.534
 1359TIP3    H1 4038   1.892   5.018   1.544
 1359TIP3    H2 4039   1.940   5.157   1.508
 1360TIP3   OH2 4040   1.893   5.377   1.277
 1360TIP3    H1 4041   1.840   5.437   1.225
 1360TIP3    H2 4042   1.983   5.390   1.246
 1361TIP3   OH2 4043   1.137   4.914   1.731
 1361TIP3    H1 4044   1.067   4.852   1.749
 1361TIP3    H2 4045   1.165   4.893   1.642
 1362TIP3   OH2 4046   1.390   4.388   1.382
 1362TIP3    H1 4047   1.349   4.469   1.351
 1362TIP3    H2 4048   1.324   4.320   1.368
 1363TIP3   OH2 4049   1.513   4.869   1.588
 1363TIP3    H1 4050   1.504   4.857   1.683
 1363TIP3    H2 4051   1.427   4.845   1.553
 1364TIP3   OH2 4052   1.757   4.828   1.457
 1364TIP3    H1 4053   1.678   4.825   1.511
 1364TIP3    H2 4054   1.827   4.795   1.514
 1365TIP3   OH2 4055   1.989   4.780   1.604
 1365TIP3    H1 4056   2.004   4.686   1.613
 1365TIP3    H2 4057   1.985   4.812   1.694
 1366TIP3   OH2 4058   0.970   4.696   1.799
 1366TIP3    H1 4059   0.976   4.610   1.758
 1366TIP3    H2 4060   1.012   4.686   1.884
 1367TIP3   OH2 4061   1.453   4.374   1.649
 1367TIP3    H1 4062   1.523   4.309   1.646
 1367TIP3    H2 4063   1.424   4.383   1.558
 1368TIP3   OH2 4064   1.546   4.592   1.791
 1368TIP3    H1 4065   1.517   4.519   1.736
 1368TIP3    H2 4066   1.473   4.653   1.791
 1369TIP3   OH2 4067   2.046   6.101   0.505
 1369TIP3    H1 4068   2.071   6.109   0.597
 1369TIP3    H2 4069   2.128   6.108   0.456
 1370TIP3   OH2 4070   2.079   6.079   0.790
 1370TIP3    H1 4071   2.032   5.996   0.783
 1370TIP3    H2 4072   2.150   6.061   0.853
 1371TIP3   OH2 4073   2.114   5.773   1.369
 1371TIP3    H1 4074   2.045   5.781   1.434
 1371TIP3    H2 4075   2.159   5.857   1.372
 1372TIP3   OH2 4076   7.151   1.560   6.333
 1372TIP3    H1 4077   7.188   1.646   6.314
 1372TIP3    H2 4078   7.187   1.536   6.418
 1373TIP3   OH2 4079   2.065   5.139   0.196
 1373TIP3    H1 4080   2.000   5.098   0.254
 1373TIP3    H2 4081   2.129   5.178   0.255
 1374TIP3   OH2 4082   2.109   5.544   0.610
 1374TIP3    H1 4083   2.167   5.476   0.573
 1374TIP3    H2 4084   2.120   5.619   0.552
 1375TIP3   OH2 4085   1.940   5.840   0.799
 1375TIP3    H1 4086   1.871   5.881   0.852
 1375TIP3    H2 4087   1.893   5.798   0.727
 1376TIP3   OH2 4088   7.227   1.349   6.183
 1376TIP3    H1 4089   7.248   1.375   6.093
 1376TIP3    H2 4090   7.212   1.432   6.228
 1377TIP3   OH2 4091   7.013   1.027   6.228
 1377TIP3    H1 4092   6.995   1.067   6.143
 1377TIP3    H2 4093   6.997   0.934   6.215
 1378TIP3   OH2 4094   1.870   4.996   0.334
 1378TIP3    H1 4095   1.884   4.903   0.321
 1378TIP3    H2 4096   1.853   5.005   0.428
 1379TIP3   OH2 4097   2.150   5.424   1.179
 1379TIP3    H1 4098   2.215   5.356   1.165
 1379TIP3    H2 4099   2.167   5.489   1.111
 1380TIP3   OH2 4100   2.326   5.214   1.176
 1380TIP3    H1 4101   2.252   5.171   1.218
 1380TIP3    H2 4102   2.401   5.157   1.194
 1381TIP3   OH2 4103   6.987   0.758   6.192
 1381TIP3    H1 4104   7.079   0.731   6.201
 1381TIP3    H2 4105   6.938   0.676   6.186
 1382TIP3   OH2 4106   1.884   4.730   0.223
 1382TIP3    H1 4107   1.921   4.643   0.234
 1382TIP3    H2 4108   1.932   4.768   0.150
 1383TIP3   OH2 4109   2.017   4.895   0.725
 1383TIP3    H1 4110   2.097   4.913   0.677
 1383TIP3    H2 4111   2.032   4.932   0.812
 1384TIP3   OH2 4112   2.089   5.043   0.953
 1384TIP3    H1 4113   2.015   5.073   1.006
 1384TIP3    H2 4114   2.122   5.123   0.910
 1385TIP3   OH2 4115   0.698   4.756   1.786
 1385TIP3    H1 4116   0.794   4.753   1.787
 1385TIP3    H2 4117   0.671   4.664   1.785
 1386TIP3   OH2 4118   2.545   4.647   1.491
 1386TIP3    H1 4119   2.609   4.587   1.452
 1386TIP3    H2 4120   2.508   4.695   1.417
 1387TIP3   OH2 4121   1.982   4.476   0.260
 1387TIP3    H1 4122   2.027   4.460   0.343
 1387TIP3    H2 4123   1.917   4.407   0.254
 1388TIP3   OH2 4124   0.690   4.461   1.088
 1388TIP3    H1 4125   0.746   4.383   1.088
 1388TIP3    H2 4126   0.751   4.534   1.073
 1389TIP3   OH2 4127   0.515   4.713   1.194
 1389TIP3    H1 4128   0.569   4.721   1.116
 1389TIP3    H2 4129   0.513   4.802   1.231
 1390TIP3   OH2 4130   2.398   4.757   1.288
 1390TIP3    H1 4131   2.311   4.796   1.300
 1390TIP3    H2 4132   2.381   4.677   1.237
 1391TIP3   OH2 4133   7.257   0.711   6.247
 1391TIP3    H1 4134   7.334   0.657   6.228
 1391TIP3    H2 4135   7.292   0.800   6.254
 1392TIP3   OH2 4136   0.688   4.272   1.472
 1392TIP3    H1 4137   0.639   4.273   1.554
 1392TIP3    H2 4138   0.638   4.329   1.414
 1393TIP3   OH2 4139   0.729   5.727   1.578
 1393TIP3    H1 4140   0.634   5.716   1.570
 1393TIP3    H2 4141   0.744   5.740   1.672
 1394TIP3   OH2 4142   1.332   6.013   1.225
 1394TIP3    H1 4143   1.373   6.020   1.311
 1394TIP3    H2 4144   1.380   6.074   1.170
 1395TIP3   OH2 4145   1.553   6.147   1.091
 1395TIP3    H1 4146   1.622   6.081   1.079
 1395TIP3    H2 4147   1.593   6.211   1.150
 1396TIP3   OH2 4148   2.312   4.508   1.188
 1396TIP3    H1 4149   2.223   4.495   1.155
 1396TIP3    H2 4150   2.353   4.421   1.183
 1397TIP3   OH2 4151   1.475   5.986   0.837
 1397TIP3    H1 4152   1.381   5.999   0.851
 1397TIP3    H2 4153   1.515   6.069   0.860
 1398TIP3   OH2 4154   1.695   6.191   0.785
 1398TIP3    H1 4155   1.620   6.249   0.769
 1398TIP3    H2 4156   1.712   6.150   0.701
 1399TIP3   OH2 4157   1.522   4.438   0.828
 1399TIP3    H1 4158   1.479   4.365   0.871
 1399TIP3    H2 4159   1.587   4.398   0.771
 1400TIP3   OH2 4160   2.018   4.348   0.714
 1400TIP3    H1 4161   2.057   4.398   0.642
 1400TIP3    H2 4162   1.925   4.368   0.709
 1401TIP3   OH2 4163   2.139   4.429   0.481
 1401TIP3    H1 4164   2.208   4.370   0.452
 1401TIP3    H2 4165   2.174   4.517   0.467
 1402TIP3   OH2 4166   0.735   4.138   0.828
 1402TIP3    H1 4167   0.648   4.100   0.837
 1402TIP3    H2 4168   0.794   4.063   0.831
 1403TIP3   OH2 4169   1.166   4.207   0.737
 1403TIP3    H1 4170   1.206   4.200   0.650
 1403TIP3    H2 4171   1.238   4.231   0.795
 1404TIP3   OH2 4172   1.733   4.324   0.687
 1404TIP3    H1 4173   1.733   4.284   0.600
 1404TIP3    H2 4174   1.735   4.250   0.747
 1405TIP3   OH2 4175   1.796   4.274   0.276
 1405TIP3    H1 4176   1.711   4.314   0.292
 1405TIP3    H2 4177   1.789   4.186   0.312
 1406TIP3   OH2 4178   1.229   4.396   0.312
 1406TIP3    H1 4179   1.275   4.364   0.389
 1406TIP3    H2 4180   1.206   4.487   0.333
 1407TIP3   OH2 4181   0.979   4.423   1.704
 1407TIP3    H1 4182   0.945   4.357   1.763
 1407TIP3    H2 4183   1.072   4.431   1.727
 1408TIP3   OH2 4184   1.230   4.426   1.824
 1408TIP3    H1 4185   1.308   4.406   1.773
 1408TIP3    H2 4186   1.225   4.357   1.890
 1409TIP3   OH2 4187   2.055   4.510   1.617
 1409TIP3    H1 4188   2.071   4.480   1.706
 1409TIP3    H2 4189   2.140   4.505   1.574
 1410TIP3   OH2 4190   1.977   6.041   1.123
 1410TIP3    H1 4191   1.904   6.010   1.069
 1410TIP3    H2 4192   1.964   6.135   1.128
 1411TIP3   OH2 4193   3.117   5.427   0.309
 1411TIP3    H1 4194   3.162   5.401   0.389
 1411TIP3    H2 4195   3.144   5.361   0.244
 1412TIP3   OH2 4196   2.548   5.307   0.642
 1412TIP3    H1 4197   2.576   5.241   0.706
 1412TIP3    H2 4198   2.630   5.351   0.617
 1413TIP3   OH2 4199   2.524   5.719   0.339
 1413TIP3    H1 4200   2.510   5.624   0.346
 1413TIP3    H2 4201   2.617   5.728   0.321
 1414TIP3   OH2 4202   2.237   4.933   0.112
 1414TIP3    H1 4203   2.192   5.012   0.141
 1414TIP3    H2 4204   2.167   4.876   0.079
 1415TIP3   OH2 4205   2.296   5.225   0.325
 1415TIP3    H1 4206   2.347   5.149   0.352
 1415TIP3    H2 4207   2.360   5.284   0.285
 1416TIP3   OH2 4208   3.037   5.682   0.331
 1416TIP3    H1 4209   3.054   5.590   0.311
 1416TIP3    H2 4210   3.111   5.709   0.386
 1417TIP3   OH2 4211   3.929   4.851   0.231
 1417TIP3    H1 4212   3.964   4.920   0.287
 1417TIP3    H2 4213   3.947   4.881   0.142
 1418TIP3   OH2 4214   3.388   5.098   0.308
 1418TIP3    H1 4215   3.458   5.068   0.365
 1418TIP3    H2 4216   3.392   5.040   0.232
 1419TIP3   OH2 4217   2.802   4.793   0.291
 1419TIP3    H1 4218   2.786   4.865   0.231
 1419TIP3    H2 4219   2.750   4.720   0.255
 1420TIP3   OH2 4220   2.440   5.009   0.416
 1420TIP3    H1 4221   2.522   4.992   0.463
 1420TIP3    H2 4222   2.446   4.956   0.337
 1421TIP3   OH2 4223   2.864   5.199   0.213
 1421TIP3    H1 4224   2.954   5.172   0.233
 1421TIP3    H2 4225   2.823   5.120   0.178
 1422TIP3   OH2 4226   4.111   5.241   0.588
 1422TIP3    H1 4227   4.063   5.255   0.507
 1422TIP3    H2 4228   4.057   5.180   0.638
 1423TIP3   OH2 4229   2.796   4.795   0.739
 1423TIP3    H1 4230   2.745   4.830   0.666
 1423TIP3    H2 4231   2.741   4.810   0.816
 1424TIP3   OH2 4232   2.888   5.569   0.533
 1424TIP3    H1 4233   2.825   5.632   0.568
 1424TIP3    H2 4234   2.936   5.618   0.467
 1425TIP3   OH2 4235   3.631   4.885   0.123
 1425TIP3    H1 4236   3.592   4.850   0.203
 1425TIP3    H2 4237   3.698   4.946   0.153
 1426TIP3   OH2 4238   2.680   4.902   0.513
 1426TIP3    H1 4239   2.736   4.977   0.534
 1426TIP3    H2 4240   2.724   4.860   0.439
 1427TIP3   OH2 4241   2.721   5.766   0.620
 1427TIP3    H1 4242   2.710   5.855   0.587
 1427TIP3    H2 4243   2.641   5.749   0.671
 1428TIP3   OH2 4244   7.277   1.792   6.254
 1428TIP3    H1 4245   7.272   1.827   6.165
 1428TIP3    H2 4246   7.324   1.858   6.304
 1429TIP3   OH2 4247   3.781   4.818   0.465
 1429TIP3    H1 4248   3.691   4.811   0.433
 1429TIP3    H2 4249   3.834   4.826   0.385
 1430TIP3   OH2 4250   3.139   4.488   0.468
 1430TIP3    H1 4251   3.131   4.397   0.496
 1430TIP3    H2 4252   3.064   4.532   0.508
 1431TIP3   OH2 4253   3.807   5.879   0.387
 1431TIP3    H1 4254   3.816   5.821   0.311
 1431TIP3    H2 4255   3.713   5.890   0.398
 1432TIP3   OH2 4256   3.970   5.507   0.273
 1432TIP3    H1 4257   3.954   5.601   0.279
 1432TIP3    H2 4258   4.051   5.501   0.222
 1433TIP3   OH2 4259   3.597   5.361   0.725
 1433TIP3    H1 4260   3.587   5.444   0.770
 1433TIP3    H2 4261   3.546   5.371   0.644
 1434TIP3   OH2 4262   2.674   5.369   0.108
 1434TIP3    H1 4263   2.610   5.314   0.062
 1434TIP3    H2 4264   2.742   5.308   0.136
 1435TIP3   OH2 4265   2.786   5.745   0.232
 1435TIP3    H1 4266   2.786   5.698   0.149
 1435TIP3    H2 4267   2.872   5.727   0.270
 1436TIP3   OH2 4268   2.779   5.332   0.446
 1436TIP3    H1 4269   2.817   5.301   0.364
 1436TIP3    H2 4270   2.828   5.412   0.467
 1437TIP3   OH2 4271   3.344   5.924   0.185
 1437TIP3    H1 4272   3.429   5.968   0.191
 1437TIP3    H2 4273   3.307   5.932   0.273
 1438TIP3   OH2 4274   2.906   5.849   0.813
 1438TIP3    H1 4275   2.844   5.914   0.846
 1438TIP3    H2 4276   2.856   5.800   0.748
 1439TIP3   OH2 4277   2.684   5.439   0.906
 1439TIP3    H1 4278   2.683   5.532   0.930
 1439TIP3    H2 4279   2.592   5.414   0.905
 1440TIP3   OH2 4280   2.715   6.041   0.860
 1440TIP3    H1 4281   2.691   6.045   0.768
 1440TIP3    H2 4282   2.632   6.027   0.906
 1441TIP3   OH2 4283   7.670   1.554   6.349
 1441TIP3    H1 4284   7.621   1.609   6.287
 1441TIP3    H2 4285   7.621   1.472   6.352
 1442TIP3   OH2 4286   2.310   5.586   0.809
 1442TIP3    H1 4287   2.243   5.564   0.745
 1442TIP3    H2 4288   2.347   5.501   0.835
 1443TIP3   OH2 4289   2.205   5.766   0.461
 1443TIP3    H1 4290   2.290   5.747   0.421
 1443TIP3    H2 4291   2.222   5.837   0.522
 1444TIP3   OH2 4292   4.020   6.214   0.635
 1444TIP3    H1 4293   4.026   6.120   0.616
 1444TIP3    H2 4294   3.926   6.234   0.627
 1445TIP3   OH2 4295   3.044   6.037   0.672
 1445TIP3    H1 4296   3.045   6.114   0.730
 1445TIP3    H2 4297   3.017   5.965   0.728
 1446TIP3   OH2 4298   2.285   5.977   0.016
 1446TIP3    H1 4299   2.369   5.967   0.061
 1446TIP3    H2 4300   2.220   5.951   0.082
 1447TIP3   OH2 4301   3.861   5.334   0.804
 1447TIP3    H1 4302   3.774   5.348   0.766
 1447TIP3    H2 4303   3.880   5.241   0.789
 1448TIP3   OH2 4304   2.503   5.778   0.786
 1448TIP3    H1 4305   2.556   5.765   0.865
 1448TIP3    H2 4306   2.435   5.712   0.792
 1449TIP3   OH2 4307   2.903   4.583   0.589
 1449TIP3    H1 4308   2.819   4.551   0.557
 1449TIP3    H2 4309   2.881   4.663   0.637
 1450TIP3   OH2 4310   3.446   4.699   0.789
 1450TIP3    H1 4311   3.516   4.676   0.849
 1450TIP3    H2 4312   3.366   4.681   0.838
 1451TIP3   OH2 4313   3.654   5.093   0.732
 1451TIP3    H1 4314   3.618   5.073   0.818
 1451TIP3    H2 4315   3.630   5.184   0.716
 1452TIP3   OH2 4316   2.835   5.112   0.597
 1452TIP3    H1 4317   2.790   5.125   0.680
 1452TIP3    H2 4318   2.816   5.190   0.546
 1453TIP3   OH2 4319   2.721   4.985   0.112
 1453TIP3    H1 4320   2.633   4.962   0.141
 1453TIP3    H2 4321   2.726   4.953   0.022
 1454TIP3   OH2 4322   3.387   5.332   0.936
 1454TIP3    H1 4323   3.359   5.264   0.997
 1454TIP3    H2 4324   3.481   5.341   0.951
 1455TIP3   OH2 4325   3.365   4.992   0.049
 1455TIP3    H1 4326   3.377   5.075   0.003
 1455TIP3    H2 4327   3.437   4.938   0.019
 1456TIP3   OH2 4328   2.661   5.121   0.817
 1456TIP3    H1 4329   2.726   5.169   0.869
 1456TIP3    H2 4330   2.647   5.039   0.865
 1457TIP3   OH2 4331   2.262   4.654   0.397
 1457TIP3    H1 4332   2.337   4.685   0.448
 1457TIP3    H2 4333   2.300   4.623   0.315
 1458TIP3   OH2 4334   7.399   0.947   6.275
 1458TIP3    H1 4335   7.462   0.970   6.207
 1458TIP3    H2 4336   7.347   1.026   6.288
 1459TIP3   OH2 4337   3.268   5.341   0.523
 1459TIP3    H1 4338   3.355   5.349   0.484
 1459TIP3    H2 4339   3.277   5.271   0.588
 1460TIP3   OH2 4340   3.064   4.774   0.190
 1460TIP3    H1 4341   2.987   4.781   0.245
 1460TIP3    H2 4342   3.138   4.788   0.250
 1461TIP3   OH2 4343   2.490   4.863   0.190
 1461TIP3    H1 4344   2.401   4.870   0.154
 1461TIP3    H2 4345   2.516   4.773   0.172
 1462TIP3   OH2 4346   0.147   1.190   6.230
 1462TIP3    H1 4347   0.240   1.181   6.249
 1462TIP3    H2 4348   0.144   1.238   6.147
 1463TIP3   OH2 4349   3.522   4.829   0.375
 1463TIP3    H1 4350   3.495   4.864   0.460
 1463TIP3    H2 4351   3.448   4.776   0.346
 1464TIP3   OH2 4352   3.782   6.538   0.476
 1464TIP3    H1 4353   3.751   6.628   0.467
 1464TIP3    H2 4354   3.800   6.528   0.569
 1465TIP3   OH2 4355   2.665   5.697   1.012
 1465TIP3    H1 4356   2.748   5.712   1.058
 1465TIP3    H2 4357   2.600   5.698   1.082
 1466TIP3   OH2 4358   3.110   5.109   0.298
 1466TIP3    H1 4359   3.205   5.109   0.285
 1466TIP3    H2 4360   3.098   5.076   0.387
 1467TIP3   OH2 4361   2.624   4.620   0.155
 1467TIP3    H1 4362   2.602   4.539   0.202
 1467TIP3    H2 4363   2.642   4.592   0.065
 1468TIP3   OH2 4364   3.098   5.038   0.565
 1468TIP3    H1 4365   3.012   5.076   0.582
 1468TIP3    H2 4366   3.159   5.091   0.616
 1469TIP3   OH2 4367   3.768   5.680   0.195
 1469TIP3    H1 4368   3.721   5.733   0.130
 1469TIP3    H2 4369   3.702   5.621   0.231
 1470TIP3   OH2 4370   3.207   5.695   0.753
 1470TIP3    H1 4371   3.265   5.667   0.824
 1470TIP3    H2 4372   3.233   5.785   0.735
 1471TIP3   OH2 4373   2.532   5.437   0.337
 1471TIP3    H1 4374   2.576   5.425   0.252
 1471TIP3    H2 4375   2.590   5.394   0.400
 1472TIP3   OH2 4376   2.414   5.366   0.947
 1472TIP3    H1 4377   2.428   5.342   1.039
 1472TIP3    H2 4378   2.345   5.307   0.917
 1473TIP3   OH2 4379   3.161   5.488   0.959
 1473TIP3    H1 4380   3.114   5.479   0.876
 1473TIP3    H2 4381   3.243   5.440   0.945
 1474TIP3   OH2 4382   3.321   5.928   0.679
 1474TIP3    H1 4383   3.273   5.955   0.601
 1474TIP3    H2 4384   3.359   6.009   0.713
 1475TIP3   OH2 4385   4.016   5.959   0.544
 1475TIP3    H1 4386   3.932   5.927   0.512
 1475TIP3    H2 4387   4.054   6.006   0.469
 1476TIP3   OH2 4388   3.555   5.524   0.261
 1476TIP3    H1 4389   3.474   5.541   0.212
 1476TIP3    H2 4390   3.536   5.447   0.314
 1477TIP3   OH2 4391   0.183   1.921   6.366
 1477TIP3    H1 4392   0.126   1.929   6.289
 1477TIP3    H2 4393   0.156   1.839   6.407
 1478TIP3   OH2 4394   2.923   6.063   0.435
 1478TIP3    H1 4395   2.946   6.147   0.396
 1478TIP3    H2 4396   2.971   6.063   0.518
 1479TIP3   OH2 4397   3.265   5.667   0.482
 1479TIP3    H1 4398   3.229   5.658   0.571
 1479TIP3    H2 4399   3.356   5.690   0.496
 1480TIP3   OH2 4400   3.567   6.337   0.412
 1480TIP3    H1 4401   3.515   6.261   0.438
 1480TIP3    H2 4402   3.530   6.364   0.328
 1481TIP3   OH2 4403   2.625   4.871   0.946
 1481TIP3    H1 4404   2.530   4.878   0.951
 1481TIP3    H2 4405   2.649   4.815   1.020
 1482TIP3   OH2 4406   2.353   5.974   0.608
 1482TIP3    H1 4407   2.409   5.915   0.658
 1482TIP3    H2 4408   2.370   6.061   0.645
 1483TIP3   OH2 4409   3.469   4.919   0.627
 1483TIP3    H1 4410   3.541   4.970   0.664
 1483TIP3    H2 4411   3.459   4.845   0.686
 1484TIP3   OH2 4412   0.412   1.174   6.300
 1484TIP3    H1 4413   0.479   1.241   6.284
 1484TIP3    H2 4414   0.424   1.151   6.392
 1485TIP3   OH2 4415   3.301   5.157   0.720
 1485TIP3    H1 4416   3.333   5.208   0.794
 1485TIP3    H2 4417   3.356   5.079   0.719
 1486TIP3   OH2 4418   3.176   4.568   0.041
 1486TIP3    H1 4419   3.140   4.644   0.087
 1486TIP3    H2 4420   3.270   4.585   0.036
 1487TIP3   OH2 4421   0.079   0.915   6.244
 1487TIP3    H1 4422   0.080   1.011   6.235
 1487TIP3    H2 4423   0.170   0.890   6.227
 1488TIP3   OH2 4424   3.917   5.072   0.684
 1488TIP3    H1 4425   3.824   5.063   0.701
 1488TIP3    H2 4426   3.933   5.019   0.606
 1489TIP3   OH2 4427   3.557   5.212   0.031
 1489TIP3    H1 4428   3.584   5.122   0.047
 1489TIP3    H2 4429   3.632   5.265   0.061
 1490TIP3   OH2 4430   2.641   4.496   0.550
 1490TIP3    H1 4431   2.614   4.464   0.464
 1490TIP3    H2 4432   2.631   4.421   0.608
 1491TIP3   OH2 4433   2.211   5.684  -0.005
 1491TIP3    H1 4434   2.175   5.722   0.075
 1491TIP3    H2 4435   2.250   5.758  -0.051
 1492TIP3   OH2 4436   2.365   6.281   1.012
 1492TIP3    H1 4437   2.447   6.288   1.061
 1492TIP3    H2 4438   2.355   6.187   0.997
 1493TIP3   OH2 4439   2.828   6.208   1.049
 1493TIP3    H1 4440   2.922   6.192   1.050
 1493TIP3    H2 4441   2.795   6.152   0.978
 1494TIP3   OH2 4442   3.448   6.140   0.811
 1494TIP3    H1 4443   3.460   6.069   0.875
 1494TIP3    H2 4444   3.522   6.199   0.828
 1495TIP3   OH2 4445   2.466   5.683   1.206
 1495TIP3    H1 4446   2.488   5.590   1.213
 1495TIP3    H2 4447   2.380   5.684   1.164
 1496TIP3   OH2 4448   3.081   5.764   1.005
 1496TIP3    H1 4449   3.035   5.782   0.923
 1496TIP3    H2 4450   3.125   5.680   0.989
 1497TIP3   OH2 4451   3.488   5.716   0.650
 1497TIP3    H1 4452   3.553   5.747   0.587
 1497TIP3    H2 4453   3.432   5.792   0.666
 1498TIP3   OH2 4454   2.587   5.429   1.202
 1498TIP3    H1 4455   2.663   5.408   1.149
 1498TIP3    H2 4456   2.622   5.448   1.289
 1499TIP3   OH2 4457   2.896   5.275   0.853
 1499TIP3    H1 4458   2.831   5.342   0.875
 1499TIP3    H2 4459   2.958   5.320   0.796
 1500TIP3   OH2 4460   3.416   5.682   0.979
 1500TIP3    H1 4461   3.494   5.656   0.931
 1500TIP3    H2 4462   3.418   5.630   1.058
 1501TIP3   OH2 4463   3.046   5.081   0.975
 1501TIP3    H1 4464   3.052   5.006   0.917
 1501TIP3    H2 4465   3.000   5.147   0.924
 1502TIP3   OH2 4466   3.055   4.873   0.784
 1502TIP3    H1 4467   3.082   4.912   0.701
 1502TIP3    H2 4468   2.964   4.847   0.769
 1503TIP3   OH2 4469   3.060   5.420   0.692
 1503TIP3    H1 4470   3.136   5.405   0.636
 1503TIP3    H2 4471   3.005   5.479   0.642
 1504TIP3   OH2 4472   3.655   5.353   1.040
 1504TIP3    H1 4473   3.696   5.267   1.054
 1504TIP3    H2 4474   3.720   5.402   0.990
 1505TIP3   OH2 4475   3.647   5.611   0.838
 1505TIP3    H1 4476   3.593   5.652   0.771
 1505TIP3    H2 4477   3.736   5.616   0.804
 1506TIP3   OH2 4478   2.931   5.171   1.217
 1506TIP3    H1 4479   2.863   5.106   1.235
 1506TIP3    H2 4480   2.961   5.150   1.129
 1507TIP3   OH2 4481   3.181   4.642   0.869
 1507TIP3    H1 4482   3.139   4.723   0.840
 1507TIP3    H2 4483   3.115   4.575   0.857
 1508TIP3   OH2 4484   3.296   5.124   1.084
 1508TIP3    H1 4485   3.280   5.110   1.177
 1508TIP3    H2 4486   3.212   5.106   1.042
 1509TIP3   OH2 4487   3.534   5.051   0.965
 1509TIP3    H1 4488   3.456   5.065   1.018
 1509TIP3    H2 4489   3.604   5.037   1.028
 1510TIP3   OH2 4490   3.776   5.031   1.103
 1510TIP3    H1 4491   3.790   4.937   1.111
 1510TIP3    H2 4492   3.772   5.062   1.194
 1511TIP3   OH2 4493   2.766   4.951   1.280
 1511TIP3    H1 4494   2.772   4.863   1.242
 1511TIP3    H2 4495   2.806   4.942   1.366
 1512TIP3   OH2 4496   3.251   4.631   1.134
 1512TIP3    H1 4497   3.320   4.564   1.130
 1512TIP3    H2 4498   3.219   4.639   1.045
 1513TIP3   OH2 4499   3.340   4.848   1.278
 1513TIP3    H1 4500   3.312   4.775   1.222
 1513TIP3    H2 4501   3.266   4.908   1.279
 1514TIP3   OH2 4502   2.107   5.907   0.215
 1514TIP3    H1 4503   2.076   5.840   0.277
 1514TIP3    H2 4504   2.150   5.972   0.269
 1515TIP3   OH2 4505   3.879   6.023   0.838
 1515TIP3    H1 4506   3.813   6.022   0.908
 1515TIP3    H2 4507   3.916   6.111   0.842
 1516TIP3   OH2 4508   3.596   6.027   0.212
 1516TIP3    H1 4509   3.645   6.086   0.270
 1516TIP3    H2 4510   3.663   5.984   0.159
 1517TIP3   OH2 4511   2.286   5.335   0.576
 1517TIP3    H1 4512   2.278   5.299   0.488
 1517TIP3    H2 4513   2.380   5.334   0.595
 1518TIP3   OH2 4514   3.923   5.633   0.805
 1518TIP3    H1 4515   3.931   5.539   0.818
 1518TIP3    H2 4516   3.987   5.653   0.737
 1519TIP3   OH2 4517   4.116   5.423   0.843
 1519TIP3    H1 4518   4.032   5.382   0.818
 1519TIP3    H2 4519   4.170   5.350   0.872
 1520TIP3   OH2 4520   3.786   5.101   0.199
 1520TIP3    H1 4521   3.847   5.076   0.129
 1520TIP3    H2 4522   3.807   5.192   0.218
 1521TIP3   OH2 4523   3.908   5.272   0.394
 1521TIP3    H1 4524   3.834   5.307   0.444
 1521TIP3    H2 4525   3.943   5.348   0.348
 1522TIP3   OH2 4526   2.501   5.006   1.223
 1522TIP3    H1 4527   2.595   5.003   1.237
 1522TIP3    H2 4528   2.468   4.924   1.260
 1523TIP3   OH2 4529   4.339   4.898   0.997
 1523TIP3    H1 4530   4.404   4.840   0.958
 1523TIP3    H2 4531   4.290   4.933   0.923
 1524TIP3   OH2 4532   2.472   4.717   0.570
 1524TIP3    H1 4533   2.527   4.639   0.574
 1524TIP3    H2 4534   2.534   4.789   0.555
 1525TIP3   OH2 4535   2.258   4.986   0.629
 1525TIP3    H1 4536   2.308   4.978   0.548
 1525TIP3    H2 4537   2.296   5.062   0.674
 1526TIP3   OH2 4538   4.152   4.998   0.826
 1526TIP3    H1 4539   4.104   5.058   0.884
 1526TIP3    H2 4540   4.083   4.947   0.782
 1527TIP3   OH2 4541   2.242   4.499   0.146
 1527TIP3    H1 4542   2.154   4.488   0.181
 1527TIP3    H2 4543   2.230   4.549   0.066
 1528TIP3   OH2 4544   2.470   4.563   0.958
 1528TIP3    H1 4545   2.417   4.549   1.036
 1528TIP3    H2 4546   2.411   4.605   0.896
 1529TIP3   OH2 4547   2.494   6.011   1.025
 1529TIP3    H1 4548   2.403   5.985   1.018
 1529TIP3    H2 4549   2.518   5.991   1.116
 1530TIP3   OH2 4550   2.691   6.038   0.580
 1530TIP3    H1 4551   2.642   6.111   0.542
 1530TIP3    H2 4552   2.776   6.040   0.535
 1531TIP3   OH2 4553   3.052   6.283   0.800
 1531TIP3    H1 4554   3.122   6.283   0.865
 1531TIP3    H2 4555   3.096   6.300   0.717
 1532TIP3   OH2 4556   3.371   6.481   0.545
 1532TIP3    H1 4557   3.445   6.452   0.491
 1532TIP3    H2 4558   3.410   6.500   0.631
 1533TIP3   OH2 4559   4.038   4.744   0.732
 1533TIP3    H1 4560   3.956   4.722   0.687
 1533TIP3    H2 4561   4.097   4.672   0.710
 1534TIP3   OH2 4562   2.369   6.272   0.637
 1534TIP3    H1 4563   2.279   6.300   0.617
 1534TIP3    H2 4564   2.402   6.340   0.696
 1535TIP3   OH2 4565   2.585   6.262   0.466
 1535TIP3    H1 4566   2.503   6.270   0.516
 1535TIP3    H2 4567   2.562   6.292   0.378
 1536TIP3   OH2 4568   2.948   6.303   0.311
 1536TIP3    H1 4569   2.891   6.300   0.234
 1536TIP3    H2 4570   2.899   6.355   0.375
 1537TIP3   OH2 4571   3.240   6.202   0.292
 1537TIP3    H1 4572   3.179   6.173   0.224
 1537TIP3    H2 4573   3.286   6.276   0.253
 1538TIP3   OH2 4574   2.286   6.073   0.358
 1538TIP3    H1 4575   2.312   6.047   0.446
 1538TIP3    H2 4576   2.357   6.043   0.301
 1539TIP3   OH2 4577   2.484   5.961   0.211
 1539TIP3    H1 4578   2.492   5.875   0.253
 1539TIP3    H2 4579   2.573   5.993   0.205
 1540TIP3   OH2 4580   2.756   6.016   0.217
 1540TIP3    H1 4581   2.767   5.921   0.209
 1540TIP3    H2 4582   2.808   6.040   0.293
 1541TIP3   OH2 4583   3.308   4.669   0.309
 1541TIP3    H1 4584   3.262   4.600   0.357
 1541TIP3    H2 4585   3.378   4.622   0.262
 1542TIP3   OH2 4586   3.809   4.609   0.185
 1542TIP3    H1 4587   3.850   4.695   0.190
 1542TIP3    H2 4588   3.716   4.627   0.173
 1543TIP3   OH2 4589   2.557   4.394   0.305
 1543TIP3    H1 4590   2.468   4.360   0.317
 1543TIP3    H2 4591   2.612   4.315   0.300
 1544TIP3   OH2 4592   7.521   0.616   6.345
 1544TIP3    H1 4593   7.573   0.662   6.279
 1544TIP3    H2 4594   7.503   0.681   6.412
 1545TIP3   OH2 4595   3.017   4.423   0.219
 1545TIP3    H1 4596   3.064   4.475   0.154
 1545TIP3    H2 4597   3.054   4.450   0.303
 1546TIP3   OH2 4598   3.525   4.559   0.180
 1546TIP3    H1 4599   3.527   4.514   0.096
 1546TIP3    H2 4600   3.537   4.491   0.245
 1547TIP3   OH2 4601   7.671   0.748   6.159
 1547TIP3    H1 4602   7.711   0.667   6.129
 1547TIP3    H2 4603   7.744   0.805   6.179
 1548TIP3   OH2 4604   0.355   0.910   6.222
 1548TIP3    H1 4605   0.426   0.865   6.269
 1548TIP3    H2 4606   0.377   1.003   6.228
 1549TIP3   OH2 4607   2.777   4.679   1.193
 1549TIP3    H1 4608   2.741   4.612   1.252
 1549TIP3    H2 4609   2.869   4.685   1.217
 1550TIP3   OH2 4610   3.027   4.683   1.314
 1550TIP3    H1 4611   3.105   4.661   1.264
 1550TIP3    H2 4612   3.019   4.614   1.380
 1551TIP3   OH2 4613   3.842   4.764   1.114
 1551TIP3    H1 4614   3.853   4.735   1.205
 1551TIP3    H2 4615   3.930   4.757   1.076
 1552TIP3   OH2 4616   3.750   6.257   0.598
 1552TIP3    H1 4617   3.692   6.293   0.531
 1552TIP3    H2 4618   3.760   6.327   0.662
 1553TIP3   OH2 4619   4.473   4.953   0.185
 1553TIP3    H1 4620   4.569   4.959   0.177
 1553TIP3    H2 4621   4.455   4.985   0.273
 1554TIP3   OH2 4622   4.522   5.642   0.345
 1554TIP3    H1 4623   4.562   5.729   0.351
 1554TIP3    H2 4624   4.429   5.658   0.359
 1555TIP3   OH2 4625   4.066   5.772   0.272
 1555TIP3    H1 4626   4.057   5.830   0.197
 1555TIP3    H2 4627   4.125   5.818   0.331
 1556TIP3   OH2 4628   4.409   5.297   0.296
 1556TIP3    H1 4629   4.438   5.383   0.266
 1556TIP3    H2 4630   4.488   5.243   0.296
 1557TIP3   OH2 4631   4.522   5.975   0.499
 1557TIP3    H1 4632   4.456   6.043   0.489
 1557TIP3    H2 4633   4.527   5.960   0.594
 1558TIP3   OH2 4634   4.249   5.604   0.403
 1558TIP3    H1 4635   4.236   5.690   0.442
 1558TIP3    H2 4636   4.165   5.582   0.364
 1559TIP3   OH2 4637   4.986   5.830   0.497
 1559TIP3    H1 4638   4.954   5.757   0.444
 1559TIP3    H2 4639   5.074   5.848   0.462
 1560TIP3   OH2 4640   4.405   5.031   0.440
 1560TIP3    H1 4641   4.397   5.110   0.493
 1560TIP3    H2 4642   4.488   4.991   0.468
 1561TIP3   OH2 4643   4.071   6.475   0.582
 1561TIP3    H1 4644   4.150   6.498   0.533
 1561TIP3    H2 4645   4.051   6.385   0.554
 1562TIP3   OH2 4646   4.206   5.978   0.763
 1562TIP3    H1 4647   4.219   5.886   0.790
 1562TIP3    H2 4648   4.127   5.976   0.709
 1563TIP3   OH2 4649   4.355   5.745   0.762
 1563TIP3    H1 4650   4.433   5.726   0.710
 1563TIP3    H2 4651   4.381   5.724   0.852
 1564TIP3   OH2 4652   4.891   5.263   0.484
 1564TIP3    H1 4653   4.816   5.204   0.481
 1564TIP3    H2 4654   4.872   5.330   0.418
 1565TIP3   OH2 4655   5.549   5.712   0.532
 1565TIP3    H1 4656   5.459   5.687   0.514
 1565TIP3    H2 4657   5.600   5.668   0.464
 1566TIP3   OH2 4658   4.680   5.444   0.734
 1566TIP3    H1 4659   4.612   5.387   0.769
 1566TIP3    H2 4660   4.688   5.418   0.642
 1567TIP3   OH2 4661   5.072   4.849   0.355
 1567TIP3    H1 4662   5.086   4.943   0.339
 1567TIP3    H2 4663   4.980   4.835   0.330
 1568TIP3   OH2 4664   5.631   5.146   0.606
 1568TIP3    H1 4665   5.557   5.110   0.558
 1568TIP3    H2 4666   5.607   5.237   0.623
 1569TIP3   OH2 4667   4.558   5.210   0.855
 1569TIP3    H1 4668   4.549   5.125   0.812
 1569TIP3    H2 4669   4.615   5.192   0.930
 1570TIP3   OH2 4670   5.076   4.901   0.631
 1570TIP3    H1 4671   5.163   4.868   0.651
 1570TIP3    H2 4672   5.054   4.864   0.546
 1571TIP3   OH2 4673   5.089   5.100   0.811
 1571TIP3    H1 4674   5.080   5.026   0.750
 1571TIP3    H2 4675   5.008   5.149   0.801
 1572TIP3   OH2 4676   4.284   5.226   0.917
 1572TIP3    H1 4677   4.377   5.249   0.909
 1572TIP3    H2 4678   4.274   5.148   0.864
 1573TIP3   OH2 4679   4.139   4.740   0.436
 1573TIP3    H1 4680   4.186   4.775   0.511
 1573TIP3    H2 4681   4.069   4.804   0.419
 1574TIP3   OH2 4682   4.318   6.148   0.525
 1574TIP3    H1 4683   4.236   6.160   0.477
 1574TIP3    H2 4684   4.307   6.200   0.604
 1575TIP3   OH2 4685   4.581   4.950   0.730
 1575TIP3    H1 4686   4.538   4.872   0.764
 1575TIP3    H2 4687   4.672   4.943   0.759
 1576TIP3   OH2 4688   4.834   4.922   0.830
 1576TIP3    H1 4689   4.917   4.891   0.795
 1576TIP3    H2 4690   4.813   4.859   0.900
 1577TIP3   OH2 4691   5.712   4.892   0.595
 1577TIP3    H1 4692   5.744   4.861   0.680
 1577TIP3    H2 4693   5.684   4.982   0.611
 1578TIP3   OH2 4694   2.015   6.732   0.675
 1578TIP3    H1 4695   1.961   6.752   0.599
 1578TIP3    H2 4696   2.030   6.816   0.717
 1579TIP3   OH2 4697   1.778   6.856   0.942
 1579TIP3    H1 4698   1.699   6.887   0.986
 1579TIP3    H2 4699   1.824   6.805   1.009
 1580TIP3   OH2 4700   1.314   6.290   1.097
 1580TIP3    H1 4701   1.397   6.255   1.066
 1580TIP3    H2 4702   1.304   6.374   1.051
 1581TIP3   OH2 4703   1.774   6.640   0.770
 1581TIP3    H1 4704   1.748   6.713   0.825
 1581TIP3    H2 4705   1.868   6.655   0.753
 1582TIP3   OH2 4706   1.584   6.901   1.128
 1582TIP3    H1 4707   1.527   6.824   1.137
 1582TIP3    H2 4708   1.533   6.973   1.165
 1583TIP3   OH2 4709   1.433   6.677   1.192
 1583TIP3    H1 4710   1.388   6.651   1.272
 1583TIP3    H2 4711   1.517   6.631   1.196
 1584TIP3   OH2 4712   1.684   6.577   1.258
 1584TIP3    H1 4713   1.681   6.482   1.264
 1584TIP3    H2 4714   1.664   6.607   1.347
 1585TIP3   OH2 4715   1.109   6.178   1.272
 1585TIP3    H1 4716   1.174   6.108   1.270
 1585TIP3    H2 4717   1.111   6.215   1.184
 1586TIP3   OH2 4718   1.183   6.399   1.417
 1586TIP3    H1 4719   1.172   6.322   1.361
 1586TIP3    H2 4720   1.093   6.430   1.432
 1587TIP3   OH2 4721   2.192   6.453   1.132
 1587TIP3    H1 4722   2.254   6.393   1.090
 1587TIP3    H2 4723   2.154   6.503   1.060
 1588TIP3   OH2 4724   2.037   6.579   0.947
 1588TIP3    H1 4725   1.967   6.616   1.001
 1588TIP3    H2 4726   1.992   6.514   0.892
 1589TIP3   OH2 4727   1.943   6.320   0.840
 1589TIP3    H1 4728   1.854   6.290   0.823
 1589TIP3    H2 4729   1.998   6.244   0.821
 1590TIP3   OH2 4730   0.906   6.287   1.511
 1590TIP3    H1 4731   0.952   6.237   1.443
 1590TIP3    H2 4732   0.879   6.221   1.575
 1591TIP3   OH2 4733   1.703   6.304   1.259
 1591TIP3    H1 4734   1.719   6.277   1.349
 1591TIP3    H2 4735   1.790   6.304   1.219
 1592TIP3   OH2 4736   2.426   6.576   0.414
 1592TIP3    H1 4737   2.395   6.628   0.340
 1592TIP3    H2 4738   2.368   6.600   0.486
 1593TIP3   OH2 4739   2.389   6.708   0.182
 1593TIP3    H1 4740   2.377   6.803   0.177
 1593TIP3    H2 4741   2.445   6.687   0.108
 1594TIP3   OH2 4742   2.751   6.288   0.128
 1594TIP3    H1 4743   2.727   6.196   0.120
 1594TIP3    H2 4744   2.669   6.334   0.141
 1595TIP3   OH2 4745   2.508   6.385   0.232
 1595TIP3    H1 4746   2.428   6.362   0.185
 1595TIP3    H2 4747   2.483   6.458   0.289
 1596TIP3   OH2 4748   3.041   6.548   0.455
 1596TIP3    H1 4749   3.090   6.544   0.537
 1596TIP3    H2 4750   2.960   6.500   0.474
 1597TIP3   OH2 4751   3.388   7.042   0.375
 1597TIP3    H1 4752   3.310   6.987   0.385
 1597TIP3    H2 4753   3.389   7.066   0.282
 1598TIP3   OH2 4754   2.290   6.942   0.503
 1598TIP3    H1 4755   2.326   6.968   0.587
 1598TIP3    H2 4756   2.289   6.847   0.505
 1599TIP3   OH2 4757   2.655   6.889   0.259
 1599TIP3    H1 4758   2.637   6.915   0.169
 1599TIP3    H2 4759   2.717   6.955   0.292
 1600TIP3   OH2 4760   2.278   6.663   0.627
 1600TIP3    H1 4761   2.184   6.671   0.641
 1600TIP3    H2 4762   2.306   6.596   0.690
 1601TIP3   OH2 4763   3.200   6.696   0.288
 1601TIP3    H1 4764   3.237   6.746   0.361
 1601TIP3    H2 4765   3.143   6.632   0.330
 1602TIP3   OH2 4766   2.834   7.039   0.411
 1602TIP3    H1 4767   2.840   7.089   0.492
 1602TIP3    H2 4768   2.875   6.955   0.430
 1603TIP3   OH2 4769   2.273   6.265   0.143
 1603TIP3    H1 4770   2.302   6.204   0.075
 1603TIP3    H2 4771   2.267   6.212   0.222
 1604TIP3   OH2 4772   2.632   6.887   0.587
 1604TIP3    H1 4773   2.660   6.798   0.562
 1604TIP3    H2 4774   2.610   6.929   0.504
 1605TIP3   OH2 4775   2.682   6.663   0.426
 1605TIP3    H1 4776   2.689   6.728   0.356
 1605TIP3    H2 4777   2.592   6.631   0.419
 1606TIP3   OH2 4778   3.447   7.147   0.616
 1606TIP3    H1 4779   3.430   7.091   0.541
 1606TIP3    H2 4780   3.372   7.133   0.674
 1607TIP3   OH2 4781   2.537   6.965   0.838
 1607TIP3    H1 4782   2.484   6.889   0.862
 1607TIP3    H2 4783   2.563   6.948   0.747
 1608TIP3   OH2 4784   2.798   6.432   0.507
 1608TIP3    H1 4785   2.757   6.514   0.480
 1608TIP3    H2 4786   2.727   6.367   0.502
 1609TIP3   OH2 4787   2.851   7.014   0.701
 1609TIP3    H1 4788   2.835   6.998   0.794
 1609TIP3    H2 4789   2.777   6.971   0.657
 1610TIP3   OH2 4790   3.256   6.836   0.521
 1610TIP3    H1 4791   3.164   6.853   0.539
 1610TIP3    H2 4792   3.298   6.839   0.607
 1611TIP3   OH2 4793   2.405   6.744   0.925
 1611TIP3    H1 4794   2.406   6.658   0.884
 1611TIP3    H2 4795   2.446   6.730   1.011
 1612TIP3   OH2 4796   2.853   6.465   0.781
 1612TIP3    H1 4797   2.919   6.399   0.799
 1612TIP3    H2 4798   2.835   6.457   0.687
 1613TIP3   OH2 4799   2.949   6.669   0.942
 1613TIP3    H1 4800   2.931   6.602   0.877
 1613TIP3    H2 4801   2.884   6.737   0.926
 1614TIP3   OH2 4802   2.153   6.843   0.908
 1614TIP3    H1 4803   2.244   6.814   0.903
 1614TIP3    H2 4804   2.102   6.762   0.916
 1615TIP3   OH2 4805   3.972   6.704   0.671
 1615TIP3    H1 4806   4.017   6.624   0.644
 1615TIP3    H2 4807   3.952   6.750   0.589
 1616TIP3   OH2 4808   3.857   6.823   0.459
 1616TIP3    H1 4809   3.812   6.908   0.458
 1616TIP3    H2 4810   3.863   6.798   0.367
 1617TIP3   OH2 4811   2.123   6.386   0.618
 1617TIP3    H1 4812   2.050   6.389   0.680
 1617TIP3    H2 4813   2.093   6.439   0.543
 1618TIP3   OH2 4814   2.410   6.483   0.827
 1618TIP3    H1 4815   2.373   6.416   0.884
 1618TIP3    H2 4816   2.500   6.493   0.856
 1619TIP3   OH2 4817   2.649   6.505   0.960
 1619TIP3    H1 4818   2.724   6.491   0.902
 1619TIP3    H2 4819   2.651   6.431   1.020
 1620TIP3   OH2 4820   3.482   6.560   0.778
 1620TIP3    H1 4821   3.493   6.527   0.867
 1620TIP3    H2 4822   3.567   6.598   0.756
 1621TIP3   OH2 4823   1.309   0.208   3.846
 1621TIP3    H1 4824   1.392   0.162   3.862
 1621TIP3    H2 4825   1.330   0.300   3.860
 1622TIP3   OH2 4826   1.155   0.603   3.909
 1622TIP3    H1 4827   1.222   0.536   3.892
 1622TIP3    H2 4828   1.120   0.580   3.995
 1623TIP3   OH2 4829   7.294   7.014   4.394
 1623TIP3    H1 4830   7.221   7.075   4.382
 1623TIP3    H2 4831   7.350   7.056   4.459
 1624TIP3   OH2 4832   1.532   0.507   4.009
 1624TIP3    H1 4833   1.449   0.472   4.041
 1624TIP3    H2 4834   1.510   0.591   3.970
 1625TIP3   OH2 4835   1.331   0.472   3.716
 1625TIP3    H1 4836   1.384   0.408   3.669
 1625TIP3    H2 4837   1.356   0.556   3.677
 1626TIP3   OH2 4838   1.463   0.279   3.567
 1626TIP3    H1 4839   1.452   0.186   3.548
 1626TIP3    H2 4840   1.533   0.282   3.632
 1627TIP3   OH2 4841   1.730   0.372   4.344
 1627TIP3    H1 4842   1.753   0.308   4.277
 1627TIP3    H2 4843   1.718   0.454   4.296
 1628TIP3   OH2 4844   1.965   0.051   4.221
 1628TIP3    H1 4845   1.885   0.103   4.207
 1628TIP3    H2 4846   2.006   0.048   4.134
 1629TIP3   OH2 4847   6.832   7.303   4.520
 1629TIP3    H1 4848   6.836   7.382   4.573
 1629TIP3    H2 4849   6.738   7.286   4.510
 1630TIP3   OH2 4850   1.293   0.412   4.089
 1630TIP3    H1 4851   1.222   0.461   4.131
 1630TIP3    H2 4852   1.309   0.338   4.148
 1631TIP3   OH2 4853   0.916   0.454   3.501
 1631TIP3    H1 4854   0.978   0.393   3.540
 1631TIP3    H2 4855   0.879   0.502   3.575
 1632TIP3   OH2 4856   1.981   0.719   4.430
 1632TIP3    H1 4857   1.980   0.624   4.419
 1632TIP3    H2 4858   1.891   0.742   4.454
 1633TIP3   OH2 4859   1.061   0.534   4.549
 1633TIP3    H1 4860   1.067   0.626   4.576
 1633TIP3    H2 4861   1.026   0.489   4.626
 1634TIP3   OH2 4862   1.129   0.620   3.446
 1634TIP3    H1 4863   1.040   0.586   3.455
 1634TIP3    H2 4864   1.182   0.544   3.424
 1635TIP3   OH2 4865   7.057   7.216   4.675
 1635TIP3    H1 4866   6.977   7.262   4.652
 1635TIP3    H2 4867   7.042   7.126   4.648
 1636TIP3   OH2 4868   1.681   1.064   4.495
 1636TIP3    H1 4869   1.673   1.078   4.401
 1636TIP3    H2 4870   1.758   1.115   4.521
 1637TIP3   OH2 4871   1.758   0.193   4.122
 1637TIP3    H1 4872   1.813   0.263   4.087
 1637TIP3    H2 4873   1.669   0.225   4.110
 1638TIP3   OH2 4874   1.235   0.247   4.555
 1638TIP3    H1 4875   1.296   0.183   4.591
 1638TIP3    H2 4876   1.197   0.290   4.631
 1639TIP3   OH2 4877   1.339   0.527   4.442
 1639TIP3    H1 4878   1.247   0.501   4.449
 1639TIP3    H2 4879   1.358   0.570   4.525
 1640TIP3   OH2 4880   1.984   0.439   4.401
 1640TIP3    H1 4881   1.889   0.425   4.404
 1640TIP3    H2 4882   2.008   0.422   4.310
 1641TIP3   OH2 4883   1.522   0.372   3.308
 1641TIP3    H1 4884   1.490   0.362   3.397
 1641TIP3    H2 4885   1.557   0.286   3.284
 1642TIP3   OH2 4886   6.606   7.343   4.135
 1642TIP3    H1 4887   6.529   7.286   4.134
 1642TIP3    H2 4888   6.668   7.300   4.076
 1643TIP3   OH2 4889   0.850   0.599   4.382
 1643TIP3    H1 4890   0.870   0.687   4.349
 1643TIP3    H2 4891   0.927   0.575   4.433
 1644TIP3   OH2 4892   1.236   0.203   4.286
 1644TIP3    H1 4893   1.245   0.205   4.381
 1644TIP3    H2 4894   1.321   0.174   4.254
 1645TIP3   OH2 4895   1.502   0.756   4.343
 1645TIP3    H1 4896   1.426   0.699   4.358
 1645TIP3    H2 4897   1.473   0.819   4.277
 1646TIP3   OH2 4898   1.553   0.611   2.964
 1646TIP3    H1 4899   1.603   0.690   2.946
 1646TIP3    H2 4900   1.467   0.642   2.992
 1647TIP3   OH2 4901   6.946   6.989   4.541
 1647TIP3    H1 4902   6.883   6.933   4.586
 1647TIP3    H2 4903   7.006   6.929   4.498
 1648TIP3   OH2 4904   6.774   7.158   4.027
 1648TIP3    H1 4905   6.740   7.088   4.083
 1648TIP3    H2 4906   6.868   7.157   4.042
 1649TIP3   OH2 4907   1.510   0.759   3.911
 1649TIP3    H1 4908   1.466   0.807   3.841
 1649TIP3    H2 4909   1.603   0.777   3.898
 1650TIP3   OH2 4910   1.384   0.637   4.689
 1650TIP3    H1 4911   1.387   0.566   4.753
 1650TIP3    H2 4912   1.462   0.689   4.707
 1651TIP3   OH2 4913   1.522   0.305   4.503
 1651TIP3    H1 4914   1.596   0.340   4.453
 1651TIP3    H2 4915   1.449   0.362   4.482
 1652TIP3   OH2 4916   1.466   0.211   4.891
 1652TIP3    H1 4917   1.527   0.178   4.825
 1652TIP3    H2 4918   1.481   0.157   4.968
 1653TIP3   OH2 4919   1.666   0.168   4.688
 1653TIP3    H1 4920   1.608   0.220   4.632
 1653TIP3    H2 4921   1.754   0.185   4.654
 1654TIP3   OH2 4922   1.769   0.829   3.891
 1654TIP3    H1 4923   1.805   0.842   3.978
 1654TIP3    H2 4924   1.844   0.836   3.832
 1655TIP3   OH2 4925   1.828   0.836   4.169
 1655TIP3    H1 4926   1.781   0.753   4.180
 1655TIP3    H2 4927   1.918   0.816   4.195
 1656TIP3   OH2 4928   1.849   0.513   4.767
 1656TIP3    H1 4929   1.772   0.527   4.822
 1656TIP3    H2 4930   1.889   0.600   4.760
 1657TIP3   OH2 4931   1.630   0.118   3.286
 1657TIP3    H1 4932   1.714   0.147   3.322
 1657TIP3    H2 4933   1.642   0.024   3.270
 1658TIP3   OH2 4934   6.992   7.214   3.532
 1658TIP3    H1 4935   6.933   7.191   3.604
 1658TIP3    H2 4936   7.027   7.299   3.557
 1659TIP3   OH2 4937   1.686   0.605   4.212
 1659TIP3    H1 4938   1.616   0.651   4.259
 1659TIP3    H2 4939   1.643   0.567   4.135
 1660TIP3   OH2 4940   6.800   7.149   3.745
 1660TIP3    H1 4941   6.734   7.117   3.685
 1660TIP3    H2 4942   6.751   7.175   3.824
 1661TIP3   OH2 4943   1.916   0.207   4.578
 1661TIP3    H1 4944   1.980   0.137   4.560
 1661TIP3    H2 4945   1.942   0.278   4.519
 1662TIP3   OH2 4946   7.288   7.342   4.580
 1662TIP3    H1 4947   7.208   7.304   4.617
 1662TIP3    H2 4948   7.353   7.272   4.587
 1663TIP3   OH2 4949   7.026   7.127   4.108
 1663TIP3    H1 4950   7.108   7.118   4.060
 1663TIP3    H2 4951   7.054   7.136   4.200
 1664TIP3   OH2 4952   7.082   7.193   4.367
 1664TIP3    H1 4953   7.019   7.215   4.435
 1664TIP3    H2 4954   7.111   7.277   4.331
 1665TIP3   OH2 4955   1.439   0.665   3.552
 1665TIP3    H1 4956   1.451   0.659   3.457
 1665TIP3    H2 4957   1.455   0.758   3.572
 1666TIP3   OH2 4958   1.052   0.796   4.627
 1666TIP3    H1 4959   1.092   0.786   4.713
 1666TIP3    H2 4960   1.117   0.845   4.576
 1667TIP3   OH2 4961   1.241   0.934   4.488
 1667TIP3    H1 4962   1.276   0.885   4.413
 1667TIP3    H2 4963   1.318   0.975   4.528
 1668TIP3   OH2 4964   0.585   0.774   4.258
 1668TIP3    H1 4965   0.648   0.829   4.305
 1668TIP3    H2 4966   0.541   0.834   4.198
 1669TIP3   OH2 4967   0.939   0.813   4.230
 1669TIP3    H1 4968   0.934   0.809   4.134
 1669TIP3    H2 4969   1.010   0.875   4.248
 1670TIP3   OH2 4970   1.237   0.789   4.244
 1670TIP3    H1 4971   1.198   0.707   4.215
 1670TIP3    H2 4972   1.279   0.825   4.165
 1671TIP3   OH2 4973   1.456   0.929   4.118
 1671TIP3    H1 4974   1.437   1.013   4.076
 1671TIP3    H2 4975   1.476   0.870   4.045
 1672TIP3   OH2 4976   0.758   0.552   4.121
 1672TIP3    H1 4977   0.744   0.457   4.115
 1672TIP3    H2 4978   0.765   0.570   4.214
 1673TIP3   OH2 4979   1.496   0.643   3.281
 1673TIP3    H1 4980   1.503   0.547   3.276
 1673TIP3    H2 4981   1.444   0.667   3.204
 1674TIP3   OH2 4982   1.722   0.791   4.510
 1674TIP3    H1 4983   1.648   0.763   4.455
 1674TIP3    H2 4984   1.714   0.887   4.513
 1675TIP3   OH2 4985   2.978   0.154   3.264
 1675TIP3    H1 4986   2.966   0.249   3.263
 1675TIP3    H2 4987   2.903   0.120   3.216
 1676TIP3   OH2 4988   2.967   0.181   3.648
 1676TIP3    H1 4989   3.005   0.179   3.736
 1676TIP3    H2 4990   2.926   0.095   3.638
 1677TIP3   OH2 4991   2.317   0.096   3.989
 1677TIP3    H1 4992   2.346   0.012   4.024
 1677TIP3    H2 4993   2.351   0.161   4.051
 1678TIP3   OH2 4994   3.232   0.483   3.337
 1678TIP3    H1 4995   3.222   0.423   3.411
 1678TIP3    H2 4996   3.260   0.566   3.377
 1679TIP3   OH2 4997   2.302   0.475   3.709
 1679TIP3    H1 4998   2.274   0.384   3.700
 1679TIP3    H2 4999   2.335   0.481   3.799
 1680TIP3   OH2 5000   7.120   7.015   3.376
 1680TIP3    H1 5001   7.148   7.073   3.447
 1680TIP3    H2 5002   7.024   7.018   3.379
 1681TIP3   OH2 5003   2.080  -0.021   3.655
 1681TIP3    H1 5004   2.138  -0.049   3.725
 1681TIP3    H2 5005   2.097   0.073   3.645
 1682TIP3   OH2 5006   2.909   0.927   3.350
 1682TIP3    H1 5007   2.946   0.855   3.299
 1682TIP3    H2 5008   2.911   0.896   3.441
 1683TIP3   OH2 5009   2.860   0.411   3.518
 1683TIP3    H1 5010   2.878   0.325   3.554
 1683TIP3    H2 5011   2.902   0.472   3.579
 1684TIP3   OH2 5012   0.581   7.300   3.679
 1684TIP3    H1 5013   0.581   7.226   3.740
 1684TIP3    H2 5014   0.513   7.279   3.616
 1685TIP3   OH2 5015   7.751   6.931   3.666
 1685TIP3    H1 5016   7.726   7.001   3.605
 1685TIP3    H2 5017   7.687   6.862   3.651
 1686TIP3   OH2 5018   0.675   6.888   3.309
 1686TIP3    H1 5019   0.698   6.929   3.392
 1686TIP3    H2 5020   0.586   6.920   3.291
 1687TIP3   OH2 5021   7.458   7.157   3.799
 1687TIP3    H1 5022   7.529   7.105   3.836
 1687TIP3    H2 5023   7.422   7.103   3.729
 1688TIP3   OH2 5024   0.006   7.315   3.572
 1688TIP3    H1 5025   0.098   7.295   3.591
 1688TIP3    H2 5026  -0.029   7.233   3.537
 1689TIP3   OH2 5027   1.307   7.283   3.939
 1689TIP3    H1 5028   1.348   7.207   3.899
 1689TIP3    H2 5029   1.327   7.355   3.879
 1690TIP3   OH2 5030   2.841   0.391   3.174
 1690TIP3    H1 5031   2.810   0.331   3.106
 1690TIP3    H2 5032   2.888   0.459   3.127
 1691TIP3   OH2 5033   2.645   0.331   3.884
 1691TIP3    H1 5034   2.569   0.378   3.918
 1691TIP3    H2 5035   2.703   0.400   3.851
 1692TIP3   OH2 5036   7.647   6.994   3.917
 1692TIP3    H1 5037   7.702   7.056   3.964
 1692TIP3    H2 5038   7.701   6.966   3.842
 1693TIP3   OH2 5039   2.455   0.515   3.974
 1693TIP3    H1 5040   2.443   0.609   3.959
 1693TIP3    H2 5041   2.391   0.493   4.042
 1694TIP3   OH2 5042   1.887   0.236   3.246
 1694TIP3    H1 5043   1.820   0.265   3.184
 1694TIP3    H2 5044   1.911   0.315   3.294
 1695TIP3   OH2 5045   3.278   0.725   3.480
 1695TIP3    H1 5046   3.187   0.718   3.511
 1695TIP3    H2 5047   3.282   0.810   3.436
 1696TIP3   OH2 5048   2.990   0.741   3.161
 1696TIP3    H1 5049   3.035   0.661   3.136
 1696TIP3    H2 5050   3.042   0.811   3.122
 1697TIP3   OH2 5051   3.107   0.507   3.092
 1697TIP3    H1 5052   3.149   0.459   3.021
 1697TIP3    H2 5053   3.164   0.493   3.168
 1698TIP3   OH2 5054   3.524   0.616   3.822
 1698TIP3    H1 5055   3.506   0.543   3.762
 1698TIP3    H2 5056   3.507   0.694   3.770
 1699TIP3   OH2 5057   2.794   0.091   3.065
 1699TIP3    H1 5058   2.707   0.124   3.044
 1699TIP3    H2 5059   2.839   0.087   2.981
 1700TIP3   OH2 5060   0.184   7.170   2.826
 1700TIP3    H1 5061   0.233   7.237   2.873
 1700TIP3    H2 5062   0.247   7.129   2.767
 1701TIP3   OH2 5063   3.697   0.270   3.674
 1701TIP3    H1 5064   3.614   0.318   3.677
 1701TIP3    H2 5065   3.738   0.298   3.592
 1702TIP3   OH2 5066   3.157   0.132   3.056
 1702TIP3    H1 5067   3.102   0.140   3.133
 1702TIP3    H2 5068   3.244   0.112   3.090
 1703TIP3   OH2 5069   3.370   0.184   3.973
 1703TIP3    H1 5070   3.357   0.270   4.012
 1703TIP3    H2 5071   3.284   0.162   3.936
 1704TIP3   OH2 5072   2.402   0.106   3.464
 1704TIP3    H1 5073   2.356   0.049   3.403
 1704TIP3    H2 5074   2.472   0.052   3.500
 1705TIP3   OH2 5075   2.583   0.059   3.833
 1705TIP3    H1 5076   2.584   0.039   3.740
 1705TIP3    H2 5077   2.596   0.153   3.838
 1706TIP3   OH2 5078   3.025   0.704   3.589
 1706TIP3    H1 5079   3.022   0.789   3.633
 1706TIP3    H2 5080   3.026   0.640   3.660
 1707TIP3   OH2 5081   2.664   0.612   4.145
 1707TIP3    H1 5082   2.607   0.673   4.192
 1707TIP3    H2 5083   2.604   0.559   4.094
 1708TIP3   OH2 5084   2.992  -0.007   2.886
 1708TIP3    H1 5085   3.055   0.044   2.939
 1708TIP3    H2 5086   3.019   0.009   2.796
 1709TIP3   OH2 5087   2.423   0.202   4.233
 1709TIP3    H1 5088   2.425   0.285   4.280
 1709TIP3    H2 5089   2.350   0.154   4.271
 1710TIP3   OH2 5090   2.757   0.640   3.279
 1710TIP3    H1 5091   2.832   0.685   3.241
 1710TIP3    H2 5092   2.681   0.689   3.250
 1711TIP3   OH2 5093   2.469   0.786   4.230
 1711TIP3    H1 5094   2.440   0.797   4.140
 1711TIP3    H2 5095   2.389   0.770   4.280
 1712TIP3   OH2 5096   7.475   7.298   3.269
 1712TIP3    H1 5097   7.397   7.339   3.231
 1712TIP3    H2 5098   7.445   7.214   3.302
 1713TIP3   OH2 5099   3.336   0.572   2.490
 1713TIP3    H1 5100   3.332   0.666   2.468
 1713TIP3    H2 5101   3.424   0.545   2.465
 1714TIP3   OH2 5102   3.759   0.993   3.887
 1714TIP3    H1 5103   3.764   0.897   3.893
 1714TIP3    H2 5104   3.677   1.015   3.930
 1715TIP3   OH2 5105   2.852   0.761   4.009
 1715TIP3    H1 5106   2.848   0.852   4.039
 1715TIP3    H2 5107   2.785   0.716   4.060
 1716TIP3   OH2 5108   2.643   0.882   2.957
 1716TIP3    H1 5109   2.585   0.862   2.884
 1716TIP3    H2 5110   2.608   0.963   2.994
 1717TIP3   OH2 5111   2.078   0.716   3.345
 1717TIP3    H1 5112   2.115   0.716   3.433
 1717TIP3    H2 5113   2.028   0.634   3.340
 1718TIP3   OH2 5114   2.834   0.787   2.602
 1718TIP3    H1 5115   2.886   0.715   2.566
 1718TIP3    H2 5116   2.870   0.802   2.689
 1719TIP3   OH2 5117   2.897   0.841   2.863
 1719TIP3    H1 5118   2.812   0.845   2.909
 1719TIP3    H2 5119   2.961   0.830   2.934
 1720TIP3   OH2 5120   3.503   0.101   4.199
 1720TIP3    H1 5121   3.473   0.145   4.119
 1720TIP3    H2 5122   3.591   0.071   4.178
 1721TIP3   OH2 5123   2.274   0.492   4.173
 1721TIP3    H1 5124   2.287   0.473   4.265
 1721TIP3    H2 5125   2.189   0.453   4.152
 1722TIP3   OH2 5126   0.730   7.247   4.098
 1722TIP3    H1 5127   0.745   7.233   4.191
 1722TIP3    H2 5128   0.760   7.336   4.081
 1723TIP3   OH2 5129   3.081   0.036   2.635
 1723TIP3    H1 5130   3.032   0.021   2.554
 1723TIP3    H2 5131   3.169   0.060   2.605
 1724TIP3   OH2 5132   7.795   7.212   4.020
 1724TIP3    H1 5133   7.727   7.230   4.084
 1724TIP3    H2 5134   7.789   7.285   3.958
 1725TIP3   OH2 5135   7.666   7.099   3.462
 1725TIP3    H1 5136   7.587   7.051   3.486
 1725TIP3    H2 5137   7.676   7.084   3.369
 1726TIP3   OH2 5138   0.242   7.222   3.215
 1726TIP3    H1 5139   0.213   7.297   3.163
 1726TIP3    H2 5140   0.329   7.202   3.180
 1727TIP3   OH2 5141   3.121   0.097   4.305
 1727TIP3    H1 5142   3.091   0.033   4.369
 1727TIP3    H2 5143   3.214   0.109   4.324
 1728TIP3   OH2 5144   0.471   7.262   3.428
 1728TIP3    H1 5145   0.422   7.339   3.397
 1728TIP3    H2 5146   0.438   7.190   3.375
 1729TIP3   OH2 5147   7.567   7.236   4.174
 1729TIP3    H1 5148   7.523   7.295   4.235
 1729TIP3    H2 5149   7.523   7.152   4.186
 1730TIP3   OH2 5150   3.113   0.111   3.884
 1730TIP3    H1 5151   3.142   0.054   3.813
 1730TIP3    H2 5152   3.082   0.051   3.952
 1731TIP3   OH2 5153   0.204   6.983   3.551
 1731TIP3    H1 5154   0.128   6.955   3.602
 1731TIP3    H2 5155   0.277   6.933   3.588
 1732TIP3   OH2 5156   7.468   6.929   3.544
 1732TIP3    H1 5157   7.382   6.963   3.570
 1732TIP3    H2 5158   7.449   6.844   3.504
 1733TIP3   OH2 5159   7.695   7.022   3.195
 1733TIP3    H1 5160   7.782   6.988   3.216
 1733TIP3    H2 5161   7.701   7.051   3.104
 1734TIP3   OH2 5162   3.468   1.316   3.978
 1734TIP3    H1 5163   3.460   1.338   3.886
 1734TIP3    H2 5164   3.546   1.362   4.009
 1735TIP3   OH2 5165   2.405   0.399   4.426
 1735TIP3    H1 5166   2.479   0.442   4.470
 1735TIP3    H2 5167   2.385   0.324   4.482
 1736TIP3   OH2 5168   0.269   7.265   3.656
 1736TIP3    H1 5169   0.279   7.182   3.609
 1736TIP3    H2 5170   0.261   7.240   3.748
 1737TIP3   OH2 5171   0.251   7.183   3.914
 1737TIP3    H1 5172   0.166   7.186   3.958
 1737TIP3    H2 5173   0.314   7.211   3.980
 1738TIP3   OH2 5174   2.543   0.214   3.048
 1738TIP3    H1 5175   2.484   0.139   3.039
 1738TIP3    H2 5176   2.539   0.236   3.141
 1739TIP3   OH2 5177   3.467   0.417   3.641
 1739TIP3    H1 5178   3.502   0.466   3.567
 1739TIP3    H2 5179   3.380   0.389   3.612
 1740TIP3   OH2 5180   0.324   6.883   2.913
 1740TIP3    H1 5181   0.247   6.919   2.869
 1740TIP3    H2 5182   0.380   6.959   2.928
 1741TIP3   OH2 5183   2.973   0.497   4.032
 1741TIP3    H1 5184   3.008   0.473   4.117
 1741TIP3    H2 5185   2.932   0.583   4.046
 1742TIP3   OH2 5186   0.489   7.100   2.975
 1742TIP3    H1 5187   0.568   7.129   3.021
 1742TIP3    H2 5188   0.455   7.180   2.934
 1743TIP3   OH2 5189   2.272   0.195   3.707
 1743TIP3    H1 5190   2.322   0.159   3.634
 1743TIP3    H2 5191   2.307   0.151   3.785
 1744TIP3   OH2 5192   2.728   0.327   2.886
 1744TIP3    H1 5193   2.703   0.419   2.876
 1744TIP3    H2 5194   2.655   0.288   2.933
 1745TIP3   OH2 5195   2.215   0.051   4.331
 1745TIP3    H1 5196   2.200   0.052   4.426
 1745TIP3    H2 5197   2.128   0.060   4.293
 1746TIP3   OH2 5198   2.887   0.249   4.348
 1746TIP3    H1 5199   2.815   0.195   4.315
 1746TIP3    H2 5200   2.966   0.206   4.314
 1747TIP3   OH2 5201   3.128   0.772   3.935
 1747TIP3    H1 5202   3.033   0.763   3.942
 1747TIP3    H2 5203   3.155   0.813   4.017
 1748TIP3   OH2 5204   0.890   7.269   2.860
 1748TIP3    H1 5205   0.878   7.190   2.808
 1748TIP3    H2 5206   0.892   7.340   2.796
 1749TIP3   OH2 5207   3.767   0.715   3.904
 1749TIP3    H1 5208   3.674   0.692   3.902
 1749TIP3    H2 5209   3.801   0.683   3.820
 1750TIP3   OH2 5210   3.252   0.634   2.750
 1750TIP3    H1 5211   3.220   0.555   2.793
 1750TIP3    H2 5212   3.277   0.605   2.662
 1751TIP3   OH2 5213   3.215   0.307   3.554
 1751TIP3    H1 5214   3.129   0.278   3.583
 1751TIP3    H2 5215   3.255   0.230   3.515
 1752TIP3   OH2 5216   2.395   0.523   3.347
 1752TIP3    H1 5217   2.370   0.596   3.291
 1752TIP3    H2 5218   2.321   0.512   3.406
 1753TIP3   OH2 5219   2.542   0.297   3.312
 1753TIP3    H1 5220   2.487   0.375   3.321
 1753TIP3    H2 5221   2.499   0.231   3.367
 1754TIP3   OH2 5222   2.672   0.825   3.793
 1754TIP3    H1 5223   2.707   0.903   3.749
 1754TIP3    H2 5224   2.742   0.798   3.853
 1755TIP3   OH2 5225   2.307   0.739   3.200
 1755TIP3    H1 5226   2.220   0.744   3.240
 1755TIP3    H2 5227   2.339   0.829   3.201
 1756TIP3   OH2 5228   3.027   0.488   3.762
 1756TIP3    H1 5229   3.003   0.488   3.854
 1756TIP3    H2 5230   3.114   0.448   3.760
 1757TIP3   OH2 5231   3.022   0.379   2.656
 1757TIP3    H1 5232   3.063   0.360   2.740
 1757TIP3    H2 5233   2.938   0.334   2.660
 1758TIP3   OH2 5234   3.278   0.998   3.818
 1758TIP3    H1 5235   3.205   0.937   3.826
 1758TIP3    H2 5236   3.254   1.055   3.745
 1759TIP3   OH2 5237   3.339   0.845   2.458
 1759TIP3    H1 5238   3.370   0.912   2.397
 1759TIP3    H2 5239   3.266   0.886   2.504
 1760TIP3   OH2 5240   3.191   0.341   2.878
 1760TIP3    H1 5241   3.172   0.265   2.934
 1760TIP3    H2 5242   3.284   0.331   2.856
 1761TIP3   OH2 5243   2.065   0.670   3.971
 1761TIP3    H1 5244   2.025   0.586   3.993
 1761TIP3    H2 5245   2.142   0.675   4.028
 1762TIP3   OH2 5246   2.365   0.353   2.668
 1762TIP3    H1 5247   2.357   0.259   2.656
 1762TIP3    H2 5248   2.357   0.367   2.762
 1763TIP3   OH2 5249   2.325   0.366   2.939
 1763TIP3    H1 5250   2.401   0.329   2.985
 1763TIP3    H2 5251   2.332   0.460   2.955
 1764TIP3   OH2 5252   2.069   0.059   3.138
 1764TIP3    H1 5253   2.002   0.108   3.187
 1764TIP3    H2 5254   2.074   0.102   3.053
 1765TIP3   OH2 5255   2.611   0.570   2.874
 1765TIP3    H1 5256   2.525   0.590   2.912
 1765TIP3    H2 5257   2.627   0.643   2.814
 1766TIP3   OH2 5258   0.152   6.971   3.278
 1766TIP3    H1 5259   0.179   7.061   3.258
 1766TIP3    H2 5260   0.159   6.964   3.373
 1767TIP3   OH2 5261   0.445   7.290   4.086
 1767TIP3    H1 5262   0.460   7.343   4.164
 1767TIP3    H2 5263   0.522   7.234   4.080
 1768TIP3   OH2 5264   2.356   0.635   2.955
 1768TIP3    H1 5265   2.326   0.701   2.893
 1768TIP3    H2 5266   2.336   0.672   3.041
 1769TIP3   OH2 5267   0.868   7.150   3.869
 1769TIP3    H1 5268   0.860   7.160   3.963
 1769TIP3    H2 5269   0.958   7.175   3.849
 1770TIP3   OH2 5270   3.327   0.071   3.470
 1770TIP3    H1 5271   3.259   0.025   3.521
 1770TIP3    H2 5272   3.408   0.056   3.519
 1771TIP3   OH2 5273   2.092   0.223   2.910
 1771TIP3    H1 5274   2.172   0.273   2.927
 1771TIP3    H2 5275   2.024   0.290   2.899
 1772TIP3   OH2 5276   3.309   0.985   3.388
 1772TIP3    H1 5277   3.265   1.034   3.319
 1772TIP3    H2 5278   3.402   1.003   3.376
 1773TIP3   OH2 5279   1.905   0.499   3.328
 1773TIP3    H1 5280   1.861   0.538   3.404
 1773TIP3    H2 5281   1.861   0.537   3.253
 1774TIP3   OH2 5282   2.094   1.028   4.390
 1774TIP3    H1 5283   2.177   1.033   4.437
 1774TIP3    H2 5284   2.076   0.935   4.382
 1775TIP3   OH2 5285   2.561   0.953   4.432
 1775TIP3    H1 5286   2.654   0.931   4.444
 1775TIP3    H2 5287   2.533   0.898   4.359
 1776TIP3   OH2 5288   2.525   0.554   2.556
 1776TIP3    H1 5289   2.481   0.480   2.599
 1776TIP3    H2 5290   2.600   0.514   2.512
 1777TIP3   OH2 5291   3.194   0.881   4.179
 1777TIP3    H1 5292   3.205   0.813   4.246
 1777TIP3    H2 5293   3.264   0.944   4.197
 1778TIP3   OH2 5294   2.969   0.584   2.480
 1778TIP3    H1 5295   3.004   0.519   2.541
 1778TIP3    H2 5296   3.027   0.579   2.404
 1779TIP3   OH2 5297   2.298   0.093   2.763
 1779TIP3    H1 5298   2.338   0.058   2.842
 1779TIP3    H2 5299   2.209   0.116   2.788
 1780TIP3   OH2 5300   2.818   0.519   4.357
 1780TIP3    H1 5301   2.769   0.533   4.276
 1780TIP3    H2 5302   2.850   0.429   4.350
 1781TIP3   OH2 5303   2.760   0.268   2.618
 1781TIP3    H1 5304   2.736   0.282   2.709
 1781TIP3    H2 5305   2.752   0.174   2.604
 1782TIP3   OH2 5306   3.292   0.542   3.959
 1782TIP3    H1 5307   3.370   0.576   3.916
 1782TIP3    H2 5308   3.227   0.611   3.949
 1783TIP3   OH2 5309   2.387   0.162   4.573
 1783TIP3    H1 5310   2.463   0.104   4.581
 1783TIP3    H2 5311   2.333   0.142   4.650
 1784TIP3   OH2 5312   7.590   7.347   3.015
 1784TIP3    H1 5313   7.545   7.330   3.098
 1784TIP3    H2 5314   7.633   7.264   2.994
 1785TIP3   OH2 5315   2.669   0.080   4.266
 1785TIP3    H1 5316   2.581   0.117   4.257
 1785TIP3    H2 5317   2.711   0.099   4.182
 1786TIP3   OH2 5318   7.727   7.124   2.926
 1786TIP3    H1 5319   7.681   7.104   2.844
 1786TIP3    H2 5320   7.818   7.137   2.900
 1787TIP3   OH2 5321   3.186   0.439   4.350
 1787TIP3    H1 5322   3.261   0.404   4.302
 1787TIP3    H2 5323   3.172   0.377   4.421
 1788TIP3   OH2 5324   3.311   0.091   2.492
 1788TIP3    H1 5325   3.289   0.046   2.410
 1788TIP3    H2 5326   3.283   0.182   2.478
 1789TIP3   OH2 5327   0.188   7.200   4.344
 1789TIP3    H1 5328   0.183   7.136   4.273
 1789TIP3    H2 5329   0.145   7.278   4.309
 1790TIP3   OH2 5330   2.804   0.166   4.047
 1790TIP3    H1 5331   2.887   0.162   4.000
 1790TIP3    H2 5332   2.747   0.218   3.989
 1791TIP3   OH2 5333   3.426   0.198   4.436
 1791TIP3    H1 5334   3.510   0.211   4.480
 1791TIP3    H2 5335   3.448   0.183   4.344
 1792TIP3   OH2 5336   3.408   0.406   4.164
 1792TIP3    H1 5337   3.352   0.460   4.108
 1792TIP3    H2 5338   3.496   0.414   4.126
 1793TIP3   OH2 5339   0.015   7.337   4.565
 1793TIP3    H1 5340   0.058   7.251   4.568
 1793TIP3    H2 5341   0.036   7.371   4.479
 1794TIP3   OH2 5342   0.431   7.252   4.464
 1794TIP3    H1 5343   0.473   7.166   4.467
 1794TIP3    H2 5344   0.342   7.234   4.434
 1795TIP3   OH2 5345   2.310   0.833   2.774
 1795TIP3    H1 5346   2.394   0.832   2.727
 1795TIP3    H2 5347   2.254   0.888   2.720
 1796TIP3   OH2 5348   1.690   0.803   3.384
 1796TIP3    H1 5349   1.627   0.747   3.339
 1796TIP3    H2 5350   1.733   0.746   3.447
 1797TIP3   OH2 5351   1.826   0.644   3.562
 1797TIP3    H1 5352   1.775   0.597   3.628
 1797TIP3    H2 5353   1.884   0.701   3.613
 1798TIP3   OH2 5354   3.571   1.064   3.372
 1798TIP3    H1 5355   3.595   1.095   3.459
 1798TIP3    H2 5356   3.632   1.108   3.313
 1799TIP3   OH2 5357   3.588   1.086   3.659
 1799TIP3    H1 5358   3.548   0.999   3.653
 1799TIP3    H2 5359   3.664   1.073   3.717
 1800TIP3   OH2 5360   3.461   0.306   2.840
 1800TIP3    H1 5361   3.520   0.374   2.809
 1800TIP3    H2 5362   3.504   0.271   2.918
 1801TIP3   OH2 5363   3.586   0.193   3.055
 1801TIP3    H1 5364   3.520   0.154   3.113
 1801TIP3    H2 5365   3.657   0.218   3.113
 1802TIP3   OH2 5366   3.647   0.547   3.472
 1802TIP3    H1 5367   3.699   0.478   3.431
 1802TIP3    H2 5368   3.660   0.623   3.416
 1803TIP3   OH2 5369   3.454   0.836   3.673
 1803TIP3    H1 5370   3.388   0.885   3.722
 1803TIP3    H2 5371   3.406   0.798   3.600
 1804TIP3   OH2 5372   3.518   0.103   2.665
 1804TIP3    H1 5373   3.449   0.099   2.598
 1804TIP3    H2 5374   3.496   0.180   2.717
 1805TIP3   OH2 5375   0.665   7.097   2.660
 1805TIP3    H1 5376   0.682   7.148   2.581
 1805TIP3    H2 5377   0.751   7.066   2.687
 1806TIP3   OH2 5378   3.383   0.067   3.198
 1806TIP3    H1 5379   3.372  -0.025   3.174
 1806TIP3    H2 5380   3.363   0.070   3.291
 1807TIP3   OH2 5381   2.050   0.057   3.959
 1807TIP3    H1 5382   2.015   0.145   3.949
 1807TIP3    H2 5383   2.145   0.069   3.962
 1808TIP3   OH2 5384   3.653   0.444   4.048
 1808TIP3    H1 5385   3.729   0.386   4.054
 1808TIP3    H2 5386   3.656   0.479   3.959
 1809TIP3   OH2 5387   3.858   0.276   4.103
 1809TIP3    H1 5388   3.815   0.191   4.106
 1809TIP3    H2 5389   3.951   0.255   4.092
 1810TIP3   OH2 5390   0.734   7.181   3.067
 1810TIP3    H1 5391   0.789   7.115   3.110
 1810TIP3    H2 5392   0.789   7.215   2.996
 1811TIP3   OH2 5393   0.944   7.324   3.600
 1811TIP3    H1 5394   1.030   7.355   3.569
 1811TIP3    H2 5395   0.944   7.342   3.694
 1812TIP3   OH2 5396   3.601   0.073   3.847
 1812TIP3    H1 5397   3.524   0.108   3.892
 1812TIP3    H2 5398   3.642   0.150   3.807
 1813TIP3   OH2 5399   7.455   7.124   4.599
 1813TIP3    H1 5400   7.550   7.130   4.594
 1813TIP3    H2 5401   7.439   7.069   4.676
 1814TIP3   OH2 5402   7.267   7.127   3.992
 1814TIP3    H1 5403   7.339   7.112   3.930
 1814TIP3    H2 5404   7.258   7.222   3.995
 1815TIP3   OH2 5405   3.125   0.934   3.027
 1815TIP3    H1 5406   3.185   0.930   2.953
 1815TIP3    H2 5407   3.159   1.005   3.082
 1816TIP3   OH2 5408   2.254   0.752   4.399
 1816TIP3    H1 5409   2.161   0.731   4.404
 1816TIP3    H2 5410   2.290   0.719   4.481
 1817TIP3   OH2 5411   2.442   0.790   3.947
 1817TIP3    H1 5412   2.388   0.864   3.918
 1817TIP3    H2 5413   2.525   0.802   3.901
 1818TIP3   OH2 5414   2.852   1.027   4.089
 1818TIP3    H1 5415   2.887   1.020   4.178
 1818TIP3    H2 5416   2.916   1.080   4.042
 1819TIP3   OH2 5417   3.046   1.181   3.967
 1819TIP3    H1 5418   3.115   1.134   3.919
 1819TIP3    H2 5419   3.093   1.242   4.023
 1820TIP3   OH2 5420   2.115   1.083   3.986
 1820TIP3    H1 5421   2.022   1.092   3.969
 1820TIP3    H2 5422   2.130   1.138   4.063
 1821TIP3   OH2 5423   2.337   1.023   3.841
 1821TIP3    H1 5424   2.258   1.039   3.891
 1821TIP3    H2 5425   2.318   1.056   3.753
 1822TIP3   OH2 5426   2.761   1.044   3.645
 1822TIP3    H1 5427   2.688   1.060   3.585
 1822TIP3    H2 5428   2.773   1.127   3.691
 1823TIP3   OH2 5429   3.022   0.966   3.669
 1823TIP3    H1 5430   2.932   0.996   3.665
 1823TIP3    H2 5431   3.074   1.039   3.635
 1824TIP3   OH2 5432   3.219   1.149   3.592
 1824TIP3    H1 5433   3.220   1.238   3.557
 1824TIP3    H2 5434   3.252   1.094   3.520
 1825TIP3   OH2 5435   1.998   0.792   3.733
 1825TIP3    H1 5436   2.021   0.756   3.819
 1825TIP3    H2 5437   2.075   0.775   3.679
 1826TIP3   OH2 5438   2.214   0.705   3.585
 1826TIP3    H1 5439   2.238   0.625   3.632
 1826TIP3    H2 5440   2.293   0.759   3.590
 1827TIP3   OH2 5441   2.482   0.801   3.585
 1827TIP3    H1 5442   2.497   0.710   3.558
 1827TIP3    H2 5443   2.537   0.811   3.664
 1828TIP3   OH2 5444   1.798   0.605   3.093
 1828TIP3    H1 5445   1.714   0.572   3.060
 1828TIP3    H2 5446   1.792   0.700   3.086
 1829TIP3   OH2 5447   2.569   0.794   2.680
 1829TIP3    H1 5448   2.658   0.812   2.651
 1829TIP3    H2 5449   2.545   0.714   2.633
 1830TIP3   OH2 5450   3.284   0.904   2.800
 1830TIP3    H1 5451   3.279   0.809   2.787
 1830TIP3    H2 5452   3.245   0.941   2.721
 1831TIP3   OH2 5453   1.914   0.635   2.799
 1831TIP3    H1 5454   1.890   0.626   2.892
 1831TIP3    H2 5455   2.000   0.594   2.792
 1832TIP3   OH2 5456   3.502   1.042   3.985
 1832TIP3    H1 5457   3.428   1.014   3.932
 1832TIP3    H2 5458   3.493   1.137   3.991
 1833TIP3   OH2 5459   4.778   0.454   2.730
 1833TIP3    H1 5460   4.761   0.545   2.708
 1833TIP3    H2 5461   4.701   0.406   2.700
 1834TIP3   OH2 5462   4.764   0.473   3.120
 1834TIP3    H1 5463   4.804   0.482   3.207
 1834TIP3    H2 5464   4.750   0.379   3.110
 1835TIP3   OH2 5465   4.067   0.325   3.496
 1835TIP3    H1 5466   4.116   0.278   3.563
 1835TIP3    H2 5467   4.135   0.360   3.438
 1836TIP3   OH2 5468   5.044   0.743   2.818
 1836TIP3    H1 5469   5.032   0.678   2.887
 1836TIP3    H2 5470   5.070   0.823   2.865
 1837TIP3   OH2 5471   4.011   0.696   3.241
 1837TIP3    H1 5472   4.005   0.604   3.213
 1837TIP3    H2 5473   4.102   0.720   3.224
 1838TIP3   OH2 5474   3.738  -0.018   2.952
 1838TIP3    H1 5475   3.730   0.072   2.983
 1838TIP3    H2 5476   3.648  -0.043   2.929
 1839TIP3   OH2 5477   3.834   0.232   3.173
 1839TIP3    H1 5478   3.890   0.159   3.200
 1839TIP3    H2 5479   3.896   0.302   3.151
 1840TIP3   OH2 5480   4.693   1.175   2.839
 1840TIP3    H1 5481   4.735   1.108   2.785
 1840TIP3    H2 5482   4.694   1.139   2.928
 1841TIP3   OH2 5483   4.576   0.671   3.165
 1841TIP3    H1 5484   4.619   0.596   3.125
 1841TIP3    H2 5485   4.648   0.727   3.195
 1842TIP3   OH2 5486   4.883   0.227   3.191
 1842TIP3    H1 5487   4.970   0.196   3.215
 1842TIP3    H2 5488   4.872   0.200   3.100
 1843TIP3   OH2 5489   1.771   7.258   3.145
 1843TIP3    H1 5490   1.726   7.323   3.091
 1843TIP3    H2 5491   1.738   7.174   3.113
 1844TIP3   OH2 5492   2.544   7.295   2.817
 1844TIP3    H1 5493   2.596   7.246   2.753
 1844TIP3    H2 5494   2.455   7.292   2.784
 1845TIP3   OH2 5495   1.380   7.372   3.268
 1845TIP3    H1 5496   1.467   7.357   3.303
 1845TIP3    H2 5497   1.377   7.323   3.186
 1846TIP3   OH2 5498   4.354   0.261   3.099
 1846TIP3    H1 5499   4.447   0.242   3.111
 1846TIP3    H2 5500   4.320   0.187   3.049
 1847TIP3   OH2 5501   5.730   0.139   3.315
 1847TIP3    H1 5502   5.764   0.147   3.225
 1847TIP3    H2 5503   5.748   0.224   3.355
 1848TIP3   OH2 5504   4.686   0.671   2.580
 1848TIP3    H1 5505   4.648   0.631   2.502
 1848TIP3    H2 5506   4.631   0.747   2.597
 1849TIP3   OH2 5507   4.441   0.587   3.389
 1849TIP3    H1 5508   4.383   0.656   3.420
 1849TIP3    H2 5509   4.487   0.627   3.315
 1850TIP3   OH2 5510   1.619   7.302   3.370
 1850TIP3    H1 5511   1.674   7.373   3.401
 1850TIP3    H2 5512   1.670   7.260   3.300
 1851TIP3   OH2 5513   4.271   0.780   3.481
 1851TIP3    H1 5514   4.255   0.868   3.445
 1851TIP3    H2 5515   4.194   0.761   3.535
 1852TIP3   OH2 5516   3.638   0.480   2.721
 1852TIP3    H1 5517   3.607   0.503   2.634
 1852TIP3    H2 5518   3.662   0.563   2.762
 1853TIP3   OH2 5519   5.088   0.983   2.962
 1853TIP3    H1 5520   5.001   0.973   3.002
 1853TIP3    H2 5521   5.085   1.068   2.920
 1854TIP3   OH2 5522   4.790   1.019   2.633
 1854TIP3    H1 5523   4.846   0.943   2.618
 1854TIP3    H2 5524   4.828   1.088   2.579
 1855TIP3   OH2 5525   4.937   0.797   2.571
 1855TIP3    H1 5526   4.865   0.734   2.567
 1855TIP3    H2 5527   4.986   0.772   2.649
 1856TIP3   OH2 5528   5.325   0.873   3.308
 1856TIP3    H1 5529   5.300   0.804   3.247
 1856TIP3    H2 5530   5.311   0.954   3.259
 1857TIP3   OH2 5531   4.581   0.356   2.540
 1857TIP3    H1 5532   4.495   0.396   2.525
 1857TIP3    H2 5533   4.624   0.358   2.455
 1858TIP3   OH2 5534   4.563   0.101   2.296
 1858TIP3    H1 5535   4.625   0.154   2.345
 1858TIP3    H2 5536   4.618   0.039   2.247
 1859TIP3   OH2 5537   5.480   0.549   3.166
 1859TIP3    H1 5538   5.398   0.598   3.155
 1859TIP3    H2 5539   5.528   0.564   3.085
 1860TIP3   OH2 5540   4.959   0.382   2.537
 1860TIP3    H1 5541   4.905   0.406   2.612
 1860TIP3    H2 5542   5.046   0.368   2.574
 1861TIP3   OH2 5543   5.185   0.436   3.473
 1861TIP3    H1 5544   5.177   0.518   3.521
 1861TIP3    H2 5545   5.110   0.436   3.414
 1862TIP3   OH2 5546   4.172   0.376   2.927
 1862TIP3    H1 5547   4.145   0.307   2.867
 1862TIP3    H2 5548   4.245   0.339   2.976
 1863TIP3   OH2 5549   4.295   0.723   3.130
 1863TIP3    H1 5550   4.295   0.804   3.079
 1863TIP3    H2 5551   4.387   0.700   3.140
 1864TIP3   OH2 5552   4.265   0.393   3.315
 1864TIP3    H1 5553   4.301   0.357   3.234
 1864TIP3    H2 5554   4.324   0.465   3.337
 1865TIP3   OH2 5555   4.851   0.966   3.094
 1865TIP3    H1 5556   4.838   1.048   3.141
 1865TIP3    H2 5557   4.838   0.898   3.160
 1866TIP3   OH2 5558   4.472   0.879   3.643
 1866TIP3    H1 5559   4.412   0.941   3.686
 1866TIP3    H2 5560   4.415   0.829   3.584
 1867TIP3   OH2 5561   4.784   0.259   2.366
 1867TIP3    H1 5562   4.846   0.310   2.417
 1867TIP3    H2 5563   4.810   0.273   2.275
 1868TIP3   OH2 5564   4.222   0.462   3.764
 1868TIP3    H1 5565   4.231   0.547   3.808
 1868TIP3    H2 5566   4.128   0.448   3.757
 1869TIP3   OH2 5567   4.533   0.932   2.586
 1869TIP3    H1 5568   4.610   0.958   2.637
 1869TIP3    H2 5569   4.460   0.938   2.648
 1870TIP3   OH2 5570   4.262   1.041   3.717
 1870TIP3    H1 5571   4.238   1.051   3.625
 1870TIP3    H2 5572   4.179   1.021   3.761
 1871TIP3   OH2 5573   4.065   0.195   2.740
 1871TIP3    H1 5574   3.986   0.241   2.711
 1871TIP3    H2 5575   4.041   0.103   2.740
 1872TIP3   OH2 5576   5.129   0.830   1.982
 1872TIP3    H1 5577   5.127   0.924   1.963
 1872TIP3    H2 5578   5.219   0.804   1.965
 1873TIP3   OH2 5579   3.843   0.596   3.673
 1873TIP3    H1 5580   3.777   0.573   3.607
 1873TIP3    H2 5581   3.873   0.511   3.707
 1874TIP3   OH2 5582   3.743   0.759   3.314
 1874TIP3    H1 5583   3.833   0.740   3.286
 1874TIP3    H2 5584   3.750   0.841   3.363
 1875TIP3   OH2 5585   5.556   1.249   3.372
 1875TIP3    H1 5586   5.563   1.154   3.383
 1875TIP3    H2 5587   5.475   1.272   3.418
 1876TIP3   OH2 5588   4.666   1.018   3.508
 1876TIP3    H1 5589   4.658   1.110   3.534
 1876TIP3    H2 5590   4.596   0.973   3.555
 1877TIP3   OH2 5591   4.375   1.149   2.471
 1877TIP3    H1 5592   4.322   1.113   2.543
 1877TIP3    H2 5593   4.372   1.244   2.485
 1878TIP3   OH2 5594   3.905   0.989   2.838
 1878TIP3    H1 5595   3.995   0.994   2.808
 1878TIP3    H2 5596   3.882   0.897   2.830
 1879TIP3   OH2 5597   5.325   0.367   3.705
 1879TIP3    H1 5598   5.294   0.402   3.621
 1879TIP3    H2 5599   5.419   0.357   3.694
 1880TIP3   OH2 5600   4.057   0.769   3.650
 1880TIP3    H1 5601   4.096   0.765   3.737
 1880TIP3    H2 5602   3.982   0.710   3.655
 1881TIP3   OH2 5603   5.143   0.155   3.572
 1881TIP3    H1 5604   5.166   0.146   3.664
 1881TIP3    H2 5605   5.170   0.244   3.550
 1882TIP3   OH2 5606   4.870   0.281   2.115
 1882TIP3    H1 5607   4.830   0.254   2.032
 1882TIP3    H2 5608   4.956   0.315   2.090
 1883TIP3   OH2 5609   4.360   0.167   3.446
 1883TIP3    H1 5610   4.313   0.187   3.527
 1883TIP3    H2 5611   4.345   0.244   3.391
 1884TIP3   OH2 5612   4.237   0.055   2.966
 1884TIP3    H1 5613   4.151   0.011   2.970
 1884TIP3    H2 5614   4.268   0.037   2.877
 1885TIP3   OH2 5615   4.727   0.164   2.662
 1885TIP3    H1 5616   4.666   0.225   2.619
 1885TIP3    H2 5617   4.791   0.141   2.594
 1886TIP3   OH2 5618   4.945   0.370   3.804
 1886TIP3    H1 5619   4.939   0.295   3.862
 1886TIP3    H2 5620   5.027   0.413   3.829
 1887TIP3   OH2 5621   4.797   0.169   2.931
 1887TIP3    H1 5622   4.781   0.200   2.842
 1887TIP3    H2 5623   4.851   0.090   2.919
 1888TIP3   OH2 5624   4.224   0.196   3.681
 1888TIP3    H1 5625   4.232   0.278   3.730
 1888TIP3    H2 5626   4.281   0.135   3.727
 1889TIP3   OH2 5627   1.169   7.111   2.798
 1889TIP3    H1 5628   1.179   7.124   2.704
 1889TIP3    H2 5629   1.171   7.200   2.834
 1890TIP3   OH2 5630   4.932   0.437   3.351
 1890TIP3    H1 5631   4.930   0.368   3.285
 1890TIP3    H2 5632   4.910   0.391   3.433
 1891TIP3   OH2 5633   1.994   7.265   2.990
 1891TIP3    H1 5634   1.922   7.261   3.054
 1891TIP3    H2 5635   2.053   7.195   3.015
 1892TIP3   OH2 5636   1.403   7.273   2.997
 1892TIP3    H1 5637   1.314   7.300   2.974
 1892TIP3    H2 5638   1.403   7.178   2.986
 1893TIP3   OH2 5639   1.703   7.299   2.716
 1893TIP3    H1 5640   1.797   7.302   2.699
 1893TIP3    H2 5641   1.663   7.314   2.630
 1894TIP3   OH2 5642   1.532   7.305   2.493
 1894TIP3    H1 5643   1.492   7.231   2.448
 1894TIP3    H2 5644   1.576   7.354   2.424
 1895TIP3   OH2 5645   5.267   1.580   3.467
 1895TIP3    H1 5646   5.266   1.600   3.373
 1895TIP3    H2 5647   5.345   1.625   3.500
 1896TIP3   OH2 5648   4.192   0.701   3.904
 1896TIP3    H1 5649   4.275   0.726   3.946
 1896TIP3    H2 5650   4.127   0.711   3.973
 1897TIP3   OH2 5651   4.605   0.176   3.135
 1897TIP3    H1 5652   4.673   0.164   3.069
 1897TIP3    H2 5653   4.629   0.114   3.205
 1898TIP3   OH2 5654   4.557   0.018   3.552
 1898TIP3    H1 5655   4.500   0.082   3.509
 1898TIP3    H2 5656   4.636   0.016   3.499
 1899TIP3   OH2 5657   4.330   0.478   2.510
 1899TIP3    H1 5658   4.273   0.401   2.501
 1899TIP3    H2 5659   4.319   0.505   2.601
 1900TIP3   OH2 5660   5.248   0.687   3.124
 1900TIP3    H1 5661   5.284   0.733   3.048
 1900TIP3    H2 5662   5.168   0.646   3.091
 1901TIP3   OH2 5663   2.135   7.158   2.380
 1901TIP3    H1 5664   2.076   7.140   2.453
 1901TIP3    H2 5665   2.191   7.229   2.412
 1902TIP3   OH2 5666   4.779   0.750   3.542
 1902TIP3    H1 5667   4.830   0.742   3.623
 1902TIP3    H2 5668   4.743   0.839   3.546
 1903TIP3   OH2 5669   4.902   0.017   2.433
 1903TIP3    H1 5670   4.980   0.043   2.483
 1903TIP3    H2 5671   4.873   0.097   2.390
 1904TIP3   OH2 5672   4.033   0.423   3.162
 1904TIP3    H1 5673   4.072   0.422   3.075
 1904TIP3    H2 5674   4.107   0.413   3.222
 1905TIP3   OH2 5675   4.514   0.615   2.362
 1905TIP3    H1 5676   4.488   0.706   2.352
 1905TIP3    H2 5677   4.441   0.574   2.409
 1906TIP3   OH2 5678   3.959   0.397   3.832
 1906TIP3    H1 5679   4.003   0.401   3.916
 1906TIP3    H2 5680   3.944   0.304   3.816
 1907TIP3   OH2 5681   4.701   0.512   3.830
 1907TIP3    H1 5682   4.632   0.452   3.801
 1907TIP3    H2 5683   4.783   0.468   3.807
 1908TIP3   OH2 5684   4.930   1.035   3.416
 1908TIP3    H1 5685   4.836   1.023   3.428
 1908TIP3    H2 5686   4.960   1.074   3.498
 1909TIP3   OH2 5687   5.274   0.149   2.320
 1909TIP3    H1 5688   5.195   0.125   2.271
 1909TIP3    H2 5689   5.303   0.231   2.280
 1910TIP3   OH2 5690   5.571   0.973   3.398
 1910TIP3    H1 5691   5.478   0.953   3.405
 1910TIP3    H2 5692   5.595   0.943   3.310
 1911TIP3   OH2 5693   5.043   0.901   2.244
 1911TIP3    H1 5694   5.019   0.832   2.306
 1911TIP3    H2 5695   5.063   0.855   2.163
 1912TIP3   OH2 5696   5.024   0.551   3.021
 1912TIP3    H1 5697   4.931   0.537   3.041
 1912TIP3    H2 5698   5.054   0.467   2.988
 1913TIP3   OH2 5699   3.762   0.070   2.548
 1913TIP3    H1 5700   3.808   0.152   2.566
 1913TIP3    H2 5701   3.676   0.081   2.589
 1914TIP3   OH2 5702   4.275   0.567   2.758
 1914TIP3    H1 5703   4.269   0.652   2.800
 1914TIP3    H2 5704   4.239   0.505   2.821
 1915TIP3   OH2 5705   4.475   1.083   3.305
 1915TIP3    H1 5706   4.501   1.153   3.246
 1915TIP3    H2 5707   4.555   1.062   3.353
 1916TIP3   OH2 5708   4.829   0.747   3.272
 1916TIP3    H1 5709   4.811   0.744   3.366
 1916TIP3    H2 5710   4.912   0.700   3.262
 1917TIP3   OH2 5711   4.801   0.662   2.131
 1917TIP3    H1 5712   4.853   0.628   2.203
 1917TIP3    H2 5713   4.721   0.610   2.132
 1918TIP3   OH2 5714   5.078   1.255   3.305
 1918TIP3    H1 5715   5.006   1.193   3.317
 1918TIP3    H2 5716   5.049   1.312   3.234
 1919TIP3   OH2 5717   5.135   1.105   1.953
 1919TIP3    H1 5718   5.165   1.166   1.885
 1919TIP3    H2 5719   5.065   1.153   1.998
 1920TIP3   OH2 5720   4.977   0.562   2.323
 1920TIP3    H1 5721   4.962   0.507   2.400
 1920TIP3    H2 5722   5.072   0.572   2.318
 1921TIP3   OH2 5723   3.892   0.981   3.444
 1921TIP3    H1 5724   3.952   0.919   3.486
 1921TIP3    H2 5725   3.911   1.065   3.486
 1922TIP3   OH2 5726   4.162   0.598   2.151
 1922TIP3    H1 5727   4.176   0.507   2.125
 1922TIP3    H2 5728   4.141   0.593   2.244
 1923TIP3   OH2 5729   4.108   0.625   2.419
 1923TIP3    H1 5730   4.178   0.580   2.466
 1923TIP3    H2 5731   4.128   0.718   2.430
 1924TIP3   OH2 5732   3.845   0.319   2.630
 1924TIP3    H1 5733   3.778   0.363   2.682
 1924TIP3    H2 5734   3.866   0.381   2.560
 1925TIP3   OH2 5735   4.428   0.900   2.312
 1925TIP3    H1 5736   4.341   0.894   2.352
 1925TIP3    H2 5737   4.415   0.868   2.222
 1926TIP3   OH2 5738   1.995   7.278   2.714
 1926TIP3    H1 5739   2.006   7.373   2.711
 1926TIP3    H2 5740   1.985   7.258   2.807
 1927TIP3   OH2 5741   4.887   0.269   3.558
 1927TIP3    H1 5742   4.906   0.308   3.643
 1927TIP3    H2 5743   4.951   0.199   3.548
 1928TIP3   OH2 5744   4.175   0.891   2.431
 1928TIP3    H1 5745   4.101   0.946   2.403
 1928TIP3    H2 5746   4.191   0.918   2.522
 1929TIP3   OH2 5747   5.281  -0.011   3.397
 1929TIP3    H1 5748   5.228   0.027   3.467
 1929TIP3    H2 5749   5.366   0.031   3.406
 1930TIP3   OH2 5750   5.132   0.296   2.946
 1930TIP3    H1 5751   5.080   0.221   2.975
 1930TIP3    H2 5752   5.213   0.291   2.997
 1931TIP3   OH2 5753   3.861   0.500   2.418
 1931TIP3    H1 5754   3.931   0.565   2.429
 1931TIP3    H2 5755   3.896   0.437   2.355
 1932TIP3   OH2 5756   1.159   7.152   2.536
 1932TIP3    H1 5757   1.162   7.247   2.530
 1932TIP3    H2 5758   1.116   7.124   2.455
 1933TIP3   OH2 5759   5.105   1.248   2.877
 1933TIP3    H1 5760   5.064   1.290   2.802
 1933TIP3    H2 5761   5.199   1.262   2.864
 1934TIP3   OH2 5762   3.690   0.738   2.810
 1934TIP3    H1 5763   3.666   0.789   2.887
 1934TIP3    H2 5764   3.659   0.789   2.736
 1935TIP3   OH2 5765   3.890   1.288   3.871
 1935TIP3    H1 5766   3.972   1.290   3.922
 1935TIP3    H2 5767   3.873   1.195   3.858
 1936TIP3   OH2 5768   4.352   1.210   3.918
 1936TIP3    H1 5769   4.446   1.194   3.930
 1936TIP3    H2 5770   4.328   1.155   3.843
 1937TIP3   OH2 5771   4.346   0.791   2.078
 1937TIP3    H1 5772   4.284   0.721   2.098
 1937TIP3    H2 5773   4.354   0.789   1.983
 1938TIP3   OH2 5774   4.997   1.138   3.659
 1938TIP3    H1 5775   5.004   1.072   3.729
 1938TIP3    H2 5776   5.067   1.200   3.678
 1939TIP3   OH2 5777   4.740   0.874   1.953
 1939TIP3    H1 5778   4.769   0.818   2.025
 1939TIP3    H2 5779   4.805   0.859   1.884
 1940TIP3   OH2 5780   3.968   0.658   4.083
 1940TIP3    H1 5781   4.003   0.571   4.060
 1940TIP3    H2 5782   3.903   0.676   4.015
 1941TIP3   OH2 5783   3.989   0.305   2.280
 1941TIP3    H1 5784   4.039   0.285   2.359
 1941TIP3    H2 5785   4.055   0.312   2.211
 1942TIP3   OH2 5786   4.609   0.774   3.856
 1942TIP3    H1 5787   4.571   0.798   3.771
 1942TIP3    H2 5788   4.653   0.691   3.840
 1943TIP3   OH2 5789   4.556   0.529   2.099
 1943TIP3    H1 5790   4.526   0.547   2.188
 1943TIP3    H2 5791   4.540   0.435   2.087
 1944TIP3   OH2 5792   5.090   0.808   3.446
 1944TIP3    H1 5793   5.171   0.837   3.404
 1944TIP3    H2 5794   5.027   0.878   3.430
 1945TIP3   OH2 5795   4.125   0.421   4.057
 1945TIP3    H1 5796   4.203   0.372   4.029
 1945TIP3    H2 5797   4.152   0.464   4.138
 1946TIP3   OH2 5798   4.165   0.263   2.488
 1946TIP3    H1 5799   4.146   0.226   2.574
 1946TIP3    H2 5800   4.213   0.195   2.442
 1947TIP3   OH2 5801   4.481   0.367   3.741
 1947TIP3    H1 5802   4.398   0.415   3.742
 1947TIP3    H2 5803   4.515   0.381   3.652
 1948TIP3   OH2 5804   4.287   0.086   2.317
 1948TIP3    H1 5805   4.265   0.076   2.225
 1948TIP3    H2 5806   4.383   0.087   2.319
 1949TIP3   OH2 5807   4.977   0.703   3.839
 1949TIP3    H1 5808   5.054   0.667   3.796
 1949TIP3    H2 5809   4.970   0.655   3.921
 1950TIP3   OH2 5810   5.103   0.369   1.990
 1950TIP3    H1 5811   5.082   0.315   1.913
 1950TIP3    H2 5812   5.067   0.455   1.970
 1951TIP3   OH2 5813   4.449   0.111   3.812
 1951TIP3    H1 5814   4.521   0.060   3.774
 1951TIP3    H2 5815   4.470   0.202   3.790
 1952TIP3   OH2 5816   4.608   0.408   3.509
 1952TIP3    H1 5817   4.699   0.432   3.490
 1952TIP3    H2 5818   4.556   0.473   3.463
 1953TIP3   OH2 5819   5.184   0.454   3.920
 1953TIP3    H1 5820   5.240   0.427   3.992
 1953TIP3    H2 5821   5.240   0.447   3.842
 1954TIP3   OH2 5822   5.201   0.659   3.642
 1954TIP3    H1 5823   5.144   0.715   3.589
 1954TIP3    H2 5824   5.288   0.670   3.603
 1955TIP3   OH2 5825   4.331   0.227   4.043
 1955TIP3    H1 5826   4.374   0.185   4.117
 1955TIP3    H2 5827   4.395   0.222   3.972
 1956TIP3   OH2 5828   4.904   0.151   3.964
 1956TIP3    H1 5829   4.908   0.068   4.011
 1956TIP3    H2 5830   4.845   0.135   3.891
 1957TIP3   OH2 5831   4.060   1.061   2.182
 1957TIP3    H1 5832   4.155   1.050   2.179
 1957TIP3    H2 5833   4.025   0.976   2.157
 1958TIP3   OH2 5834   3.588   0.479   2.426
 1958TIP3    H1 5835   3.683   0.492   2.427
 1958TIP3    H2 5836   3.577   0.389   2.395
 1959TIP3   OH2 5837   3.497   1.058   2.888
 1959TIP3    H1 5838   3.429   1.004   2.846
 1959TIP3    H2 5839   3.541   0.998   2.948
 1960TIP3   OH2 5840   3.641   0.891   3.056
 1960TIP3    H1 5841   3.632   0.828   3.127
 1960TIP3    H2 5842   3.699   0.959   3.091
 1961TIP3   OH2 5843   5.376   1.303   2.869
 1961TIP3    H1 5844   5.394   1.331   2.958
 1961TIP3    H2 5845   5.430   1.361   2.815
 1962TIP3   OH2 5846   5.394   1.336   3.148
 1962TIP3    H1 5847   5.348   1.252   3.146
 1962TIP3    H2 5848   5.464   1.323   3.212
 1963TIP3   OH2 5849   5.429   1.043   3.705
 1963TIP3    H1 5850   5.365   1.048   3.776
 1963TIP3    H2 5851   5.480   1.124   3.714
 1964TIP3   OH2 5852   5.256   0.570   2.333
 1964TIP3    H1 5853   5.316   0.638   2.304
 1964TIP3    H2 5854   5.299   0.531   2.410
 1965TIP3   OH2 5855   5.390   0.438   2.534
 1965TIP3    H1 5856   5.326   0.401   2.595
 1965TIP3    H2 5857   5.462   0.467   2.590
 1966TIP3   OH2 5858   5.431   0.807   2.955
 1966TIP3    H1 5859   5.488   0.739   2.920
 1966TIP3    H2 5860   5.438   0.879   2.892
 1967TIP3   OH2 5861   5.254   1.095   3.159
 1967TIP3    H1 5862   5.186   1.140   3.209
 1967TIP3    H2 5863   5.207   1.053   3.087
 1968TIP3   OH2 5864   5.312   0.366   2.161
 1968TIP3    H1 5865   5.238   0.361   2.100
 1968TIP3    H2 5866   5.291   0.440   2.217
 1969TIP3   OH2 5867   5.091   0.036   2.152
 1969TIP3    H1 5868   5.037   0.050   2.074
 1969TIP3    H2 5869   5.154  -0.031   2.126
 1970TIP3   OH2 5870   5.190   0.310   2.678
 1970TIP3    H1 5871   5.173   0.219   2.650
 1970TIP3    H2 5872   5.163   0.313   2.769
 1971TIP3   OH2 5873   3.809   0.325   3.429
 1971TIP3    H1 5874   3.809   0.308   3.335
 1971TIP3    H2 5875   3.901   0.337   3.452
 1972TIP3   OH2 5876   5.434   0.694   3.509
 1972TIP3    H1 5877   5.517   0.647   3.499
 1972TIP3    H2 5878   5.427   0.746   3.429
 1973TIP3   OH2 5879   5.668   0.567   3.540
 1973TIP3    H1 5880   5.646   0.479   3.570
 1973TIP3    H2 5881   5.762   0.575   3.556
 1974TIP3   OH2 5882   5.149   0.068   2.547
 1974TIP3    H1 5883   5.194  -0.012   2.573
 1974TIP3    H2 5884   5.202   0.103   2.474
 1975TIP3   OH2 5885   5.373   0.236   3.083
 1975TIP3    H1 5886   5.450   0.245   3.028
 1975TIP3    H2 5887   5.394   0.283   3.163
 1976TIP3   OH2 5888   5.406   0.347   3.331
 1976TIP3    H1 5889   5.331   0.386   3.376
 1976TIP3    H2 5890   5.449   0.421   3.289
 1977TIP3   OH2 5891   4.093   0.109   4.083
 1977TIP3    H1 5892   4.173   0.150   4.051
 1977TIP3    H2 5893   4.092   0.023   4.042
 1978TIP3   OH2 5894   3.776   0.049   3.456
 1978TIP3    H1 5895   3.848   0.021   3.401
 1978TIP3    H2 5896   3.781   0.144   3.457
 1979TIP3   OH2 5897   4.887   1.225   2.474
 1979TIP3    H1 5898   4.960   1.203   2.415
 1979TIP3    H2 5899   4.927   1.279   2.542
 1980TIP3   OH2 5900   4.038   1.004   3.878
 1980TIP3    H1 5901   3.944   0.992   3.882
 1980TIP3    H2 5902   4.063   1.027   3.968
 1981TIP3   OH2 5903   4.237   1.052   3.435
 1981TIP3    H1 5904   4.191   1.130   3.405
 1981TIP3    H2 5905   4.323   1.057   3.392
 1982TIP3   OH2 5906   4.646   1.287   3.575
 1982TIP3    H1 5907   4.684   1.278   3.662
 1982TIP3    H2 5908   4.708   1.341   3.527
 1983TIP3   OH2 5909   4.840   1.438   3.450
 1983TIP3    H1 5910   4.908   1.383   3.410
 1983TIP3    H2 5911   4.889   1.498   3.506
 1984TIP3   OH2 5912   3.901   1.297   3.486
 1984TIP3    H1 5913   3.810   1.314   3.464
 1984TIP3    H2 5914   3.924   1.364   3.551
 1985TIP3   OH2 5915   4.132   1.286   3.336
 1985TIP3    H1 5916   4.049   1.294   3.382
 1985TIP3    H2 5917   4.113   1.314   3.246
 1986TIP3   OH2 5918   4.551   1.294   3.133
 1986TIP3    H1 5919   4.479   1.309   3.071
 1986TIP3    H2 5920   4.563   1.378   3.177
 1987TIP3   OH2 5921   4.817   1.230   3.171
 1987TIP3    H1 5922   4.724   1.252   3.160
 1987TIP3    H2 5923   4.864   1.304   3.132
 1988TIP3   OH2 5924   5.017   1.413   3.082
 1988TIP3    H1 5925   5.014   1.500   3.043
 1988TIP3    H2 5926   5.047   1.356   3.011
 1989TIP3   OH2 5927   3.825   1.063   3.187
 1989TIP3    H1 5928   3.847   1.038   3.276
 1989TIP3    H2 5929   3.900   1.034   3.135
 1990TIP3   OH2 5930   3.589   0.865   2.586
 1990TIP3    H1 5931   3.504   0.832   2.558
 1990TIP3    H2 5932   3.589   0.957   2.559
 1991TIP3   OH2 5933   5.081   1.168   2.286
 1991TIP3    H1 5934   5.075   1.073   2.275
 1991TIP3    H2 5935   5.038   1.204   2.208
 1992TIP3   OH2 5936   3.710   0.906   2.218
 1992TIP3    H1 5937   3.691   0.905   2.312
 1992TIP3    H2 5938   3.788   0.853   2.208
 1993TIP3   OH2 5939   5.303   1.306   3.466
 1993TIP3    H1 5940   5.226   1.276   3.418
 1993TIP3    H2 5941   5.289   1.400   3.478
 1994TIP3   OH2 5942   6.558   0.661   2.224
 1994TIP3    H1 5943   6.549   0.756   2.229
 1994TIP3    H2 5944   6.489   0.633   2.163
 1995TIP3   OH2 5945   6.547   0.713   2.601
 1995TIP3    H1 5946   6.591   0.714   2.686
 1995TIP3    H2 5947   6.505   0.627   2.597
 1996TIP3   OH2 5948   5.870   0.584   2.969
 1996TIP3    H1 5949   5.914   0.539   3.041
 1996TIP3    H2 5950   5.942   0.618   2.915
 1997TIP3   OH2 5951   6.837   0.994   2.307
 1997TIP3    H1 5952   6.824   0.931   2.377
 1997TIP3    H2 5953   6.863   1.075   2.351
 1998TIP3   OH2 5954   5.856   0.978   2.675
 1998TIP3    H1 5955   5.835   0.885   2.677
 1998TIP3    H2 5956   5.952   0.981   2.667
 1999TIP3   OH2 5957   5.554   0.264   2.395
 1999TIP3    H1 5958   5.497   0.329   2.437
 1999TIP3    H2 5959   5.497   0.188   2.382
 2000TIP3   OH2 5960   5.629   0.502   2.666
 2000TIP3    H1 5961   5.686   0.427   2.683
 2000TIP3    H2 5962   5.689   0.574   2.646
 2001TIP3   OH2 5963   6.494   1.428   2.322
 2001TIP3    H1 5964   6.528   1.358   2.266
 2001TIP3    H2 5965   6.493   1.390   2.410
 2002TIP3   OH2 5966   6.376   0.929   2.644
 2002TIP3    H1 5967   6.416   0.850   2.606
 2002TIP3    H2 5968   6.451   0.980   2.675
 2003TIP3   OH2 5969   6.755   0.463   2.655
 2003TIP3    H1 5970   6.772   0.383   2.705
 2003TIP3    H2 5971   6.717   0.433   2.573
 2004TIP3   OH2 5972   6.171   0.160   2.624
 2004TIP3    H1 5973   6.124   0.226   2.572
 2004TIP3    H2 5974   6.136   0.077   2.595
 2005TIP3   OH2 5975   5.781   0.288   2.749
 2005TIP3    H1 5976   5.871   0.263   2.772
 2005TIP3    H2 5977   5.751   0.220   2.689
 2006TIP3   OH2 5978   6.179   0.519   2.577
 2006TIP3    H1 5979   6.272   0.502   2.588
 2006TIP3    H2 5980   6.146   0.443   2.528
 2007TIP3   OH2 5981   6.488   0.911   2.080
 2007TIP3    H1 5982   6.444   0.881   2.000
 2007TIP3    H2 5983   6.434   0.983   2.112
 2008TIP3   OH2 5984   6.244   0.844   2.873
 2008TIP3    H1 5985   6.184   0.911   2.907
 2008TIP3    H2 5986   6.287   0.887   2.798
 2009TIP3   OH2 5987   6.022   0.208   2.849
 2009TIP3    H1 5988   6.080   0.278   2.878
 2009TIP3    H2 5989   6.072   0.161   2.782
 2010TIP3   OH2 5990   6.065   1.033   2.964
 2010TIP3    H1 5991   6.050   1.122   2.932
 2010TIP3    H2 5992   5.989   1.013   3.017
 2011TIP3   OH2 5993   5.439   0.745   2.219
 2011TIP3    H1 5994   5.407   0.763   2.131
 2011TIP3    H2 5995   5.464   0.831   2.253
 2012TIP3   OH2 5996   6.886   1.236   2.447
 2012TIP3    H1 5997   6.800   1.228   2.490
 2012TIP3    H2 5998   6.884   1.324   2.408
 2013TIP3   OH2 5999   6.594   1.267   2.116
 2013TIP3    H1 6000   6.646   1.187   2.103
 2013TIP3    H2 6001   6.652   1.338   2.089
 2014TIP3   OH2 6002   6.736   1.038   2.050
 2014TIP3    H1 6003   6.659   0.981   2.053
 2014TIP3    H2 6004   6.782   1.020   2.132
 2015TIP3   OH2 6005   7.106   1.121   2.801
 2015TIP3    H1 6006   7.095   1.053   2.735
 2015TIP3    H2 6007   7.113   1.202   2.751
 2016TIP3   OH2 6008   6.393   0.588   2.009
 2016TIP3    H1 6009   6.300   0.612   2.018
 2016TIP3    H2 6010   6.420   0.630   1.927
 2017TIP3   OH2 6011   6.768   0.609   2.055
 2017TIP3    H1 6012   6.698   0.636   2.115
 2017TIP3    H2 6013   6.846   0.604   2.109
 2018TIP3   OH2 6014   6.965   0.656   2.951
 2018TIP3    H1 6015   6.997   0.727   3.006
 2018TIP3    H2 6016   6.891   0.694   2.903
 2019TIP3   OH2 6017   5.970   0.624   2.426
 2019TIP3    H1 6018   5.938   0.557   2.366
 2019TIP3    H2 6019   6.046   0.584   2.469
 2020TIP3   OH2 6020   6.119   1.024   2.576
 2020TIP3    H1 6021   6.102   1.008   2.483
 2020TIP3    H2 6022   6.208   0.992   2.590
 2021TIP3   OH2 6023   6.074   0.648   2.790
 2021TIP3    H1 6024   6.112   0.614   2.709
 2021TIP3    H2 6025   6.132   0.719   2.817
 2022TIP3   OH2 6026   6.649   1.225   2.580
 2022TIP3    H1 6027   6.633   1.306   2.628
 2022TIP3    H2 6028   6.636   1.155   2.644
 2023TIP3   OH2 6029   6.262   1.136   3.129
 2023TIP3    H1 6030   6.203   1.195   3.176
 2023TIP3    H2 6031   6.204   1.084   3.073
 2024TIP3   OH2 6032   6.011   0.722   3.235
 2024TIP3    H1 6033   6.022   0.806   3.279
 2024TIP3    H2 6034   5.917   0.705   3.237
 2025TIP3   OH2 6035   6.344   1.144   2.122
 2025TIP3    H1 6036   6.422   1.199   2.131
 2025TIP3    H2 6037   6.279   1.201   2.081
 2026TIP3   OH2 6038   6.054   1.295   3.213
 2026TIP3    H1 6039   6.025   1.302   3.122
 2026TIP3    H2 6040   5.974   1.277   3.262
 2027TIP3   OH2 6041   5.850   0.452   2.237
 2027TIP3    H1 6042   5.773   0.501   2.206
 2027TIP3    H2 6043   5.814   0.376   2.282
 2028TIP3   OH2 6044   5.625   0.877   3.147
 2028TIP3    H1 6045   5.556   0.849   3.087
 2028TIP3    H2 6046   5.661   0.795   3.181
 2029TIP3   OH2 6047   5.494   1.038   2.804
 2029TIP3    H1 6048   5.589   1.050   2.814
 2029TIP3    H2 6049   5.456   1.115   2.845
 2030TIP3   OH2 6050   6.451   1.273   2.985
 2030TIP3    H1 6051   6.447   1.364   3.014
 2030TIP3    H2 6052   6.384   1.228   3.037
 2031TIP3   OH2 6053   6.227   1.386   1.952
 2031TIP3    H1 6054   6.181   1.368   1.870
 2031TIP3    H2 6055   6.191   1.469   1.982
 2032TIP3   OH2 6056   5.667   1.233   2.320
 2032TIP3    H1 6057   5.712   1.226   2.405
 2032TIP3    H2 6058   5.618   1.151   2.313
 2033TIP3   OH2 6059   6.435   1.293   1.606
 2033TIP3    H1 6060   6.494   1.226   1.570
 2033TIP3    H2 6061   6.465   1.304   1.696
 2034TIP3   OH2 6062   6.481   1.347   1.868
 2034TIP3    H1 6063   6.393   1.353   1.904
 2034TIP3    H2 6064   6.534   1.311   1.940
 2035TIP3   OH2 6065   5.847   1.038   3.131
 2035TIP3    H1 6066   5.890   1.028   3.216
 2035TIP3    H2 6067   5.770   0.982   3.137
 2036TIP3   OH2 6068   6.971   0.421   3.098
 2036TIP3    H1 6069   7.054   0.374   3.088
 2036TIP3    H2 6070   6.984   0.503   3.051
 2037TIP3   OH2 6071   6.175   0.424   2.920
 2037TIP3    H1 6072   6.123   0.441   2.999
 2037TIP3    H2 6073   6.153   0.497   2.861
 2038TIP3   OH2 6074   6.045   0.319   2.445
 2038TIP3    H1 6075   5.958   0.281   2.454
 2038TIP3    H2 6076   6.072   0.296   2.356
 2039TIP3   OH2 6077   6.540   0.375   2.091
 2039TIP3    H1 6078   6.472   0.438   2.065
 2039TIP3    H2 6079   6.622   0.419   2.070
 2040TIP3   OH2 6080   6.735   0.634   3.291
 2040TIP3    H1 6081   6.713   0.597   3.377
 2040TIP3    H2 6082   6.824   0.667   3.302
 2041TIP3   OH2 6083   6.612   0.433   2.405
 2041TIP3    H1 6084   6.613   0.511   2.350
 2041TIP3    H2 6085   6.643   0.362   2.348
 2042TIP3   OH2 6086   6.032   0.448   3.150
 2042TIP3    H1 6087   6.042   0.525   3.206
 2042TIP3    H2 6088   6.082   0.380   3.195
 2043TIP3   OH2 6089   3.011   7.349   2.237
 2043TIP3    H1 6090   3.044   7.396   2.161
 2043TIP3    H2 6091   2.926   7.315   2.210
 2044TIP3   OH2 6092   6.702   0.669   2.824
 2044TIP3    H1 6093   6.730   0.605   2.758
 2044TIP3    H2 6094   6.701   0.619   2.906
 2045TIP3   OH2 6095   6.400   0.165   2.483
 2045TIP3    H1 6096   6.324   0.165   2.541
 2045TIP3    H2 6097   6.443   0.081   2.500
 2046TIP3   OH2 6098   5.807   0.193   2.460
 2046TIP3    H1 6099   5.718   0.223   2.443
 2046TIP3    H2 6100   5.799   0.097   2.467
 2047TIP3   OH2 6101   6.112   0.207   2.196
 2047TIP3    H1 6102   6.207   0.222   2.195
 2047TIP3    H2 6103   6.084   0.228   2.107
 2048TIP3   OH2 6104   5.940   0.211   1.956
 2048TIP3    H1 6105   5.863   0.180   2.003
 2048TIP3    H2 6106   5.938   0.164   1.873
 2049TIP3   OH2 6107   7.047   1.836   2.964
 2049TIP3    H1 6108   7.035   1.853   2.871
 2049TIP3    H2 6109   7.128   1.882   2.987
 2050TIP3   OH2 6110   6.001   0.959   3.374
 2050TIP3    H1 6111   6.080   0.979   3.424
 2050TIP3    H2 6112   5.931   0.959   3.440
 2051TIP3   OH2 6113   6.440   0.452   2.620
 2051TIP3    H1 6114   6.499   0.425   2.549
 2051TIP3    H2 6115   6.466   0.398   2.694
 2052TIP3   OH2 6116   6.365   0.277   3.042
 2052TIP3    H1 6117   6.310   0.336   2.991
 2052TIP3    H2 6118   6.447   0.274   2.994
 2053TIP3   OH2 6119   6.135   0.693   1.995
 2053TIP3    H1 6120   6.072   0.622   1.984
 2053TIP3    H2 6121   6.120   0.724   2.084
 2054TIP3   OH2 6122   7.045   0.933   2.609
 2054TIP3    H1 6123   7.092   0.929   2.526
 2054TIP3    H2 6124   6.961   0.890   2.592
 2055TIP3   OH2 6125   6.574   1.004   3.023
 2055TIP3    H1 6126   6.623   0.995   3.104
 2055TIP3    H2 6127   6.532   1.090   3.029
 2056TIP3   OH2 6128   5.834   0.695   2.653
 2056TIP3    H1 6129   5.872   0.679   2.566
 2056TIP3    H2 6130   5.904   0.673   2.714
 2057TIP3   OH2 6131   6.319   0.844   1.862
 2057TIP3    H1 6132   6.281   0.933   1.857
 2057TIP3    H2 6133   6.251   0.793   1.907
 2058TIP3   OH2 6134   5.745   0.679   3.289
 2058TIP3    H1 6135   5.748   0.670   3.384
 2058TIP3    H2 6136   5.723   0.592   3.257
 2059TIP3   OH2 6137   6.490   0.769   3.314
 2059TIP3    H1 6138   6.418   0.710   3.290
 2059TIP3    H2 6139   6.569   0.723   3.285
 2060TIP3   OH2 6140   6.723   1.286   2.907
 2060TIP3    H1 6141   6.628   1.274   2.913
 2060TIP3    H2 6142   6.747   1.326   2.990
 2061TIP3   OH2 6143   6.820   1.139   1.762
 2061TIP3    H1 6144   6.794   1.105   1.848
 2061TIP3    H2 6145   6.814   1.063   1.704
 2062TIP3   OH2 6146   6.814   0.800   2.515
 2062TIP3    H1 6147   6.723   0.776   2.533
 2062TIP3    H2 6148   6.854   0.719   2.485
 2063TIP3   OH2 6149   5.982   1.030   2.324
 2063TIP3    H1 6150   5.975   1.106   2.266
 2063TIP3    H2 6151   5.892   1.016   2.356
 2064TIP3   OH2 6152   5.541   0.358   2.015
 2064TIP3    H1 6153   5.587   0.437   2.044
 2064TIP3    H2 6154   5.463   0.354   2.070
 2065TIP3   OH2 6155   6.084   0.789   2.239
 2065TIP3    H1 6156   6.062   0.879   2.263
 2065TIP3    H2 6157   6.047   0.735   2.309
 2066TIP3   OH2 6158   6.266   1.349   2.780
 2066TIP3    H1 6159   6.302   1.422   2.731
 2066TIP3    H2 6160   6.339   1.316   2.832
 2067TIP3   OH2 6161   5.897   1.251   2.170
 2067TIP3    H1 6162   5.811   1.256   2.212
 2067TIP3    H2 6163   5.932   1.340   2.175
 2068TIP3   OH2 6164   6.624   1.003   2.752
 2068TIP3    H1 6165   6.609   0.999   2.847
 2068TIP3    H2 6166   6.704   0.953   2.738
 2069TIP3   OH2 6167   6.609   0.909   1.649
 2069TIP3    H1 6168   6.661   0.863   1.715
 2069TIP3    H2 6169   6.525   0.862   1.648
 2070TIP3   OH2 6170   6.869   1.507   2.793
 2070TIP3    H1 6171   6.801   1.441   2.807
 2070TIP3    H2 6172   6.837   1.559   2.719
 2071TIP3   OH2 6173   6.903   1.392   1.422
 2071TIP3    H1 6174   6.951   1.323   1.467
 2071TIP3    H2 6175   6.849   1.432   1.490
 2072TIP3   OH2 6176   6.769   0.786   1.836
 2072TIP3    H1 6177   6.757   0.719   1.903
 2072TIP3    H2 6178   6.857   0.821   1.853
 2073TIP3   OH2 6179   5.693   1.235   2.941
 2073TIP3    H1 6180   5.744   1.173   2.992
 2073TIP3    H2 6181   5.706   1.319   2.986
 2074TIP3   OH2 6182   5.990   0.851   1.617
 2074TIP3    H1 6183   5.932   0.800   1.561
 2074TIP3    H2 6184   5.949   0.847   1.704
 2075TIP3   OH2 6185   5.908   0.869   1.887
 2075TIP3    H1 6186   5.982   0.838   1.938
 2075TIP3    H2 6187   5.907   0.964   1.900
 2076TIP3   OH2 6188   5.644   0.589   2.121
 2076TIP3    H1 6189   5.578   0.633   2.174
 2076TIP3    H2 6190   5.660   0.649   2.048
 2077TIP3   OH2 6191   6.180   1.075   1.846
 2077TIP3    H1 6192   6.092   1.090   1.883
 2077TIP3    H2 6193   6.196   1.152   1.792
 2078TIP3   OH2 6194   6.438   0.147   2.207
 2078TIP3    H1 6195   6.456   0.238   2.182
 2078TIP3    H2 6196   6.419   0.152   2.300
 2079TIP3   OH2 6197   6.698   0.506   3.038
 2079TIP3    H1 6198   6.710   0.553   3.120
 2079TIP3    H2 6199   6.747   0.424   3.050
 2080TIP3   OH2 6200   5.923   1.142   1.919
 2080TIP3    H1 6201   5.896   1.211   1.859
 2080TIP3    H2 6202   5.911   1.179   2.006
 2081TIP3   OH2 6203   6.943   0.569   2.418
 2081TIP3    H1 6204   6.904   0.482   2.427
 2081TIP3    H2 6205   7.037   0.553   2.410
 2082TIP3   OH2 6206   5.657   0.749   1.894
 2082TIP3    H1 6207   5.728   0.814   1.898
 2082TIP3    H2 6208   5.689   0.683   1.832
 2083TIP3   OH2 6209   5.654   0.112   1.992
 2083TIP3    H1 6210   5.625   0.199   2.019
 2083TIP3    H2 6211   5.610   0.098   1.908
 2084TIP3   OH2 6212   6.894   1.503   2.369
 2084TIP3    H1 6213   6.849   1.552   2.299
 2084TIP3    H2 6214   6.985   1.533   2.363
 2085TIP3   OH2 6215   5.496   1.009   2.300
 2085TIP3    H1 6216   5.453   1.046   2.377
 2085TIP3    H2 6217   5.453   1.052   2.226
 2086TIP3   OH2 6218   5.688   1.543   3.361
 2086TIP3    H1 6219   5.770   1.546   3.410
 2086TIP3    H2 6220   5.665   1.450   3.357
 2087TIP3   OH2 6221   6.155   1.466   3.404
 2087TIP3    H1 6222   6.248   1.443   3.414
 2087TIP3    H2 6223   6.124   1.409   3.335
 2088TIP3   OH2 6224   6.099   1.086   1.527
 2088TIP3    H1 6225   6.066   1.008   1.571
 2088TIP3    H2 6226   6.185   1.060   1.493
 2089TIP3   OH2 6227   6.776   1.396   3.152
 2089TIP3    H1 6228   6.787   1.328   3.218
 2089TIP3    H2 6229   6.847   1.458   3.168
 2090TIP3   OH2 6230   6.590   1.112   1.472
 2090TIP3    H1 6231   6.610   1.040   1.532
 2090TIP3    H2 6232   6.663   1.112   1.410
 2091TIP3   OH2 6233   5.793   0.948   3.560
 2091TIP3    H1 6234   5.787   0.864   3.605
 2091TIP3    H2 6235   5.711   0.955   3.511
 2092TIP3   OH2 6236   5.785   0.558   1.745
 2092TIP3    H1 6237   5.844   0.534   1.817
 2092TIP3    H2 6238   5.843   0.567   1.669
 2093TIP3   OH2 6239   6.415   1.036   3.334
 2093TIP3    H1 6240   6.368   1.055   3.253
 2093TIP3    H2 6241   6.451   0.948   3.321
 2094TIP3   OH2 6242   6.321   0.803   1.591
 2094TIP3    H1 6243   6.319   0.816   1.686
 2094TIP3    H2 6244   6.235   0.766   1.570
 2095TIP3   OH2 6245   6.891   1.056   2.954
 2095TIP3    H1 6246   6.967   1.082   2.903
 2095TIP3    H2 6247   6.825   1.123   2.936
 2096TIP3   OH2 6248   5.927   0.648   3.547
 2096TIP3    H1 6249   6.001   0.590   3.527
 2096TIP3    H2 6250   5.962   0.711   3.610
 2097TIP3   OH2 6251   5.952   0.485   1.976
 2097TIP3    H1 6252   5.924   0.486   2.067
 2097TIP3    H2 6253   5.960   0.392   1.954
 2098TIP3   OH2 6254   6.267   0.632   3.214
 2098TIP3    H1 6255   6.183   0.678   3.215
 2098TIP3    H2 6256   6.303   0.650   3.128
 2099TIP3   OH2 6257   6.773   0.959   3.310
 2099TIP3    H1 6258   6.845   0.916   3.264
 2099TIP3    H2 6259   6.767   0.912   3.393
 2100TIP3   OH2 6260   6.259   0.377   3.310
 2100TIP3    H1 6261   6.324   0.325   3.265
 2100TIP3    H2 6262   6.273   0.466   3.278
 2101TIP3   OH2 6263   6.421   0.669   2.992
 2101TIP3    H1 6264   6.508   0.700   2.967
 2101TIP3    H2 6265   6.361   0.730   2.948
 2102TIP3   OH2 6266   6.992   0.708   3.367
 2102TIP3    H1 6267   7.015   0.616   3.372
 2102TIP3    H2 6268   7.064   0.748   3.317
 2103TIP3   OH2 6269   7.035   0.887   3.113
 2103TIP3    H1 6270   6.977   0.946   3.064
 2103TIP3    H2 6271   7.121   0.898   3.072
 2104TIP3   OH2 6272   6.099   0.431   3.516
 2104TIP3    H1 6273   6.149   0.408   3.594
 2104TIP3    H2 6274   6.154   0.404   3.443
 2105TIP3   OH2 6275   6.676   0.300   3.381
 2105TIP3    H1 6276   6.669   0.265   3.469
 2105TIP3    H2 6277   6.608   0.368   3.376
 2106TIP3   OH2 6278   5.903   1.351   1.737
 2106TIP3    H1 6279   5.997   1.345   1.719
 2106TIP3    H2 6280   5.867   1.395   1.660
 2107TIP3   OH2 6281   5.387   0.740   1.937
 2107TIP3    H1 6282   5.480   0.756   1.922
 2107TIP3    H2 6283   5.371   0.654   1.898
 2108TIP3   OH2 6284   5.294   1.318   2.376
 2108TIP3    H1 6285   5.227   1.263   2.334
 2108TIP3    H2 6286   5.339   1.259   2.437
 2109TIP3   OH2 6287   5.437   1.155   2.547
 2109TIP3    H1 6288   5.429   1.087   2.614
 2109TIP3    H2 6289   5.488   1.224   2.589
 2110TIP3   OH2 6290   7.137   1.625   2.368
 2110TIP3    H1 6291   7.171   1.629   2.457
 2110TIP3    H2 6292   7.201   1.673   2.316
 2111TIP3   OH2 6293   7.171   1.600   2.650
 2111TIP3    H1 6294   7.135   1.512   2.636
 2111TIP3    H2 6295   7.223   1.593   2.729
 2112TIP3   OH2 6296   7.227   1.214   3.227
 2112TIP3    H1 6297   7.171   1.267   3.284
 2112TIP3    H2 6298   7.243   1.269   3.150
 2113TIP3   OH2 6299   7.054   1.350   2.644
 2113TIP3    H1 6300   6.985   1.385   2.700
 2113TIP3    H2 6301   7.008   1.303   2.575
 2114TIP3   OH2 6302   5.605   0.596   2.923
 2114TIP3    H1 6303   5.599   0.562   2.833
 2114TIP3    H2 6304   5.699   0.602   2.940
 2115TIP3   OH2 6305   5.852   0.335   3.469
 2115TIP3    H1 6306   5.938   0.377   3.479
 2115TIP3    H2 6307   5.836   0.291   3.553
 2116TIP3   OH2 6308   5.597   0.296   2.951
 2116TIP3    H1 6309   5.656   0.291   2.875
 2116TIP3    H2 6310   5.625   0.375   2.997
 2117TIP3   OH2 6311   6.740   1.463   2.005
 2117TIP3    H1 6312   6.802   1.454   1.932
 2117TIP3    H2 6313   6.777   1.533   2.059
 2118TIP3   OH2 6314   5.833   1.260   3.379
 2118TIP3    H1 6315   5.739   1.248   3.370
 2118TIP3    H2 6316   5.850   1.253   3.473
 2119TIP3   OH2 6317   6.036   1.307   2.928
 2119TIP3    H1 6318   5.984   1.381   2.897
 2119TIP3    H2 6319   6.121   1.318   2.885
 2120TIP3   OH2 6320   6.442   1.540   3.062
 2120TIP3    H1 6321   6.478   1.534   3.151
 2120TIP3    H2 6322   6.506   1.592   3.013
 2121TIP3   OH2 6323   6.635   1.692   2.936
 2121TIP3    H1 6324   6.703   1.639   2.895
 2121TIP3    H2 6325   6.683   1.751   2.995
 2122TIP3   OH2 6326   5.698   1.554   2.973
 2122TIP3    H1 6327   5.606   1.571   2.950
 2122TIP3    H2 6328   5.718   1.619   3.040
 2123TIP3   OH2 6329   5.928   1.539   2.823
 2123TIP3    H1 6330   5.846   1.545   2.871
 2123TIP3    H2 6331   5.906   1.565   2.734
 2124TIP3   OH2 6332   6.345   1.558   2.614
 2124TIP3    H1 6333   6.271   1.571   2.554
 2124TIP3    H2 6334   6.356   1.643   2.657
 2125TIP3   OH2 6335   6.607   1.487   2.660
 2125TIP3    H1 6336   6.515   1.509   2.645
 2125TIP3    H2 6337   6.656   1.559   2.621
 2126TIP3   OH2 6338   6.800   1.670   2.569
 2126TIP3    H1 6339   6.792   1.755   2.526
 2126TIP3    H2 6340   6.833   1.612   2.500
 2127TIP3   OH2 6341   5.610   1.332   2.692
 2127TIP3    H1 6342   5.632   1.306   2.782
 2127TIP3    H2 6343   5.683   1.300   2.639
 2128TIP3   OH2 6344   5.813   1.217   2.553
 2128TIP3    H1 6345   5.822   1.134   2.599
 2128TIP3    H2 6346   5.900   1.257   2.558
 2129TIP3   OH2 6347   6.081   1.303   2.575
 2129TIP3    H1 6348   6.097   1.209   2.563
 2129TIP3    H2 6349   6.134   1.326   2.651
 2130TIP3   OH2 6350   5.380   1.130   2.083
 2130TIP3    H1 6351   5.297   1.094   2.052
 2130TIP3    H2 6352   5.382   1.219   2.049
 2131TIP3   OH2 6353   6.170   1.303   1.681
 2131TIP3    H1 6354   6.259   1.316   1.651
 2131TIP3    H2 6355   6.133   1.239   1.620
 2132TIP3   OH2 6356   6.878   1.407   1.762
 2132TIP3    H1 6357   6.863   1.312   1.762
 2132TIP3    H2 6358   6.814   1.441   1.699
 2133TIP3   OH2 6359   5.479   1.133   1.737
 2133TIP3    H1 6360   5.484   1.146   1.832
 2133TIP3    H2 6361   5.559   1.086   1.715
 2134TIP3   OH2 6362   7.080   1.559   2.969
 2134TIP3    H1 6363   7.010   1.532   2.910
 2134TIP3    H2 6364   7.072   1.654   2.974
 2135TIP3   OH2 6365   7.040   1.600   1.869
 2135TIP3    H1 6366   6.995   1.525   1.830
 2135TIP3    H2 6367   7.121   1.607   1.819
 2136TIP3   OH2 6368   0.830   1.735   3.382
 2136TIP3    H1 6369   0.796   1.822   3.364
 2136TIP3    H2 6370   0.757   1.676   3.363
 2137TIP3   OH2 6371   0.830   1.721   3.794
 2137TIP3    H1 6372   0.871   1.730   3.880
 2137TIP3    H2 6373   0.793   1.632   3.795
 2138TIP3   OH2 6374   0.135   1.611   4.137
 2138TIP3    H1 6375   0.157   1.552   4.209
 2138TIP3    H2 6376   0.218   1.627   4.093
 2139TIP3   OH2 6377   1.079   2.042   3.495
 2139TIP3    H1 6378   1.078   1.968   3.555
 2139TIP3    H2 6379   1.094   2.118   3.551
 2140TIP3   OH2 6380   0.098   2.016   3.856
 2140TIP3    H1 6381   0.086   1.921   3.858
 2140TIP3    H2 6382   0.193   2.028   3.850
 2141TIP3   OH2 6383   7.698   1.542   3.852
 2141TIP3    H1 6384   7.742   1.460   3.875
 2141TIP3    H2 6385   7.770   1.603   3.835
 2142TIP3   OH2 6386   0.754   2.476   3.518
 2142TIP3    H1 6387   0.774   2.398   3.465
 2142TIP3    H2 6388   0.789   2.456   3.604
 2143TIP3   OH2 6389   0.619   1.936   3.810
 2143TIP3    H1 6390   0.659   1.860   3.768
 2143TIP3    H2 6391   0.693   1.982   3.852
 2144TIP3   OH2 6392   1.647   1.285   3.839
 2144TIP3    H1 6393   1.676   1.360   3.891
 2144TIP3    H2 6394   1.644   1.317   3.749
 2145TIP3   OH2 6395   1.050   1.439   3.852
 2145TIP3    H1 6396   1.099   1.360   3.877
 2145TIP3    H2 6397   1.002   1.414   3.773
 2146TIP3   OH2 6398   0.349   1.077   3.820
 2146TIP3    H1 6399   0.344   1.145   3.753
 2146TIP3    H2 6400   0.350   0.995   3.771
 2147TIP3   OH2 6401   1.090   1.197   3.442
 2147TIP3    H1 6402   1.155   1.212   3.510
 2147TIP3    H2 6403   1.129   1.235   3.363
 2148TIP3   OH2 6404   0.009   1.298   3.941
 2148TIP3    H1 6405   0.092   1.281   3.986
 2148TIP3    H2 6406  -0.006   1.222   3.886
 2149TIP3   OH2 6407   0.456   1.491   3.756
 2149TIP3    H1 6408   0.550   1.486   3.771
 2149TIP3    H2 6409   0.432   1.404   3.726
 2150TIP3   OH2 6410   1.723   1.499   3.999
 2150TIP3    H1 6411   1.633   1.531   3.998
 2150TIP3    H2 6412   1.760   1.534   4.081
 2151TIP3   OH2 6413   0.354   1.149   4.300
 2151TIP3    H1 6414   0.293   1.204   4.252
 2151TIP3    H2 6415   0.322   1.151   4.390
 2152TIP3   OH2 6416   0.725   1.956   3.253
 2152TIP3    H1 6417   0.692   1.932   3.166
 2152TIP3    H2 6418   0.671   2.031   3.279
 2153TIP3   OH2 6419   0.473   1.875   4.036
 2153TIP3    H1 6420   0.419   1.947   4.070
 2153TIP3    H2 6421   0.519   1.913   3.961
 2154TIP3   OH2 6422   1.274   1.239   3.635
 2154TIP3    H1 6423   1.250   1.186   3.712
 2154TIP3    H2 6424   1.320   1.314   3.671
 2155TIP3   OH2 6425   0.257   1.221   4.036
 2155TIP3    H1 6426   0.322   1.288   4.055
 2155TIP3    H2 6427   0.292   1.173   3.961
 2156TIP3   OH2 6428   0.312   2.074   4.140
 2156TIP3    H1 6429   0.301   2.165   4.112
 2156TIP3    H2 6430   0.236   2.057   4.196
 2157TIP3   OH2 6431   1.112   2.286   3.689
 2157TIP3    H1 6432   1.019   2.306   3.700
 2157TIP3    H2 6433   1.141   2.347   3.620
 2158TIP3   OH2 6434   1.446   1.182   4.007
 2158TIP3    H1 6435   1.358   1.195   3.972
 2158TIP3    H2 6436   1.504   1.207   3.935
 2159TIP3   OH2 6437   0.697   0.953   4.004
 2159TIP3    H1 6438   0.671   0.932   3.915
 2159TIP3    H2 6439   0.614   0.967   4.051
 2160TIP3   OH2 6440   0.834   2.315   3.286
 2160TIP3    H1 6441   0.889   2.237   3.274
 2160TIP3    H2 6442   0.892   2.388   3.263
 2161TIP3   OH2 6443   0.975   2.081   3.241
 2161TIP3    H1 6444   0.898   2.024   3.244
 2161TIP3    H2 6445   1.022   2.063   3.322
 2162TIP3   OH2 6446   0.660   1.566   3.233
 2162TIP3    H1 6447   0.579   1.613   3.214
 2162TIP3    H2 6448   0.709   1.570   3.151
 2163TIP3   OH2 6449   0.695   1.313   2.947
 2163TIP3    H1 6450   0.745   1.391   2.972
 2163TIP3    H2 6451   0.633   1.301   3.019
 2164TIP3   OH2 6452   1.555   1.831   3.834
 2164TIP3    H1 6453   1.473   1.880   3.840
 2164TIP3    H2 6454   1.583   1.843   3.743
 2165TIP3   OH2 6455   1.023   1.671   3.203
 2165TIP3    H1 6456   0.963   1.700   3.272
 2165TIP3    H2 6457   1.097   1.634   3.251
 2166TIP3   OH2 6458   1.239   1.701   4.115
 2166TIP3    H1 6459   1.246   1.796   4.111
 2166TIP3    H2 6460   1.151   1.682   4.080
 2167TIP3   OH2 6461   0.266   1.647   3.631
 2167TIP3    H1 6462   0.217   1.579   3.584
 2167TIP3    H2 6463   0.339   1.600   3.671
 2168TIP3   OH2 6464   0.364   2.059   3.755
 2168TIP3    H1 6465   0.346   2.046   3.662
 2168TIP3    H2 6466   0.452   2.024   3.768
 2169TIP3   OH2 6467   0.357   1.635   3.978
 2169TIP3    H1 6468   0.397   1.600   3.899
 2169TIP3    H2 6469   0.404   1.718   3.994
 2170TIP3   OH2 6470   0.501   2.167   4.323
 2170TIP3    H1 6471   0.441   2.230   4.362
 2170TIP3    H2 6472   0.449   2.120   4.258
 2171TIP3   OH2 6473   0.860   1.530   3.033
 2171TIP3    H1 6474   0.915   1.587   3.086
 2171TIP3    H2 6475   0.885   1.549   2.942
 2172TIP3   OH2 6476   0.279   1.727   4.427
 2172TIP3    H1 6477   0.286   1.818   4.457
 2172TIP3    H2 6478   0.184   1.710   4.424
 2173TIP3   OH2 6479   0.586   2.194   3.285
 2173TIP3    H1 6480   0.667   2.243   3.299
 2173TIP3    H2 6481   0.524   2.258   3.250
 2174TIP3   OH2 6482   0.302   2.344   4.393
 2174TIP3    H1 6483   0.284   2.359   4.300
 2174TIP3    H2 6484   0.216   2.338   4.433
 2175TIP3   OH2 6485   1.341   0.757   3.073
 2175TIP3    H1 6486   1.272   0.781   3.135
 2175TIP3    H2 6487   1.359   0.837   3.025
 2176TIP3   OH2 6488   0.128   1.469   3.467
 2176TIP3    H1 6489   0.118   1.537   3.402
 2176TIP3    H2 6490   0.046   1.419   3.463
 2177TIP3   OH2 6491   1.173   2.118   2.644
 2177TIP3    H1 6492   1.172   2.211   2.622
 2177TIP3    H2 6493   1.264   2.091   2.631
 2178TIP3   OH2 6494   7.765   1.843   4.336
 2178TIP3    H1 6495   7.701   1.820   4.269
 2178TIP3    H2 6496   7.774   1.764   4.389
 2179TIP3   OH2 6497   7.629   2.084   3.912
 2179TIP3    H1 6498   7.717   2.054   3.893
 2179TIP3    H2 6499   7.640   2.175   3.941
 2180TIP3   OH2 6500   1.625   2.577   4.041
 2180TIP3    H1 6501   1.577   2.515   3.986
 2180TIP3    H2 6502   1.567   2.594   4.114
 2181TIP3   OH2 6503   0.699   2.297   4.177
 2181TIP3    H1 6504   0.701   2.391   4.194
 2181TIP3    H2 6505   0.628   2.264   4.232
 2182TIP3   OH2 6506   0.466   2.412   3.113
 2182TIP3    H1 6507   0.424   2.406   3.027
 2182TIP3    H2 6508   0.444   2.500   3.144
 2183TIP3   OH2 6509   7.757   2.289   3.495
 2183TIP3    H1 6510   7.789   2.289   3.585
 2183TIP3    H2 6511   7.712   2.205   3.485
 2184TIP3   OH2 6512   0.670   2.362   2.758
 2184TIP3    H1 6513   0.718   2.287   2.723
 2184TIP3    H2 6514   0.707   2.376   2.845
 2185TIP3   OH2 6515   0.727   2.399   3.028
 2185TIP3    H1 6516   0.639   2.398   3.066
 2185TIP3    H2 6517   0.784   2.367   3.098
 2186TIP3   OH2 6518   1.469   1.657   4.296
 2186TIP3    H1 6519   1.392   1.663   4.239
 2186TIP3    H2 6520   1.495   1.565   4.291
 2187TIP3   OH2 6521   0.111   2.074   4.335
 2187TIP3    H1 6522   0.175   2.050   4.403
 2187TIP3    H2 6523   0.055   1.997   4.328
 2188TIP3   OH2 6524   0.442   0.966   4.108
 2188TIP3    H1 6525   0.395   0.965   4.025
 2188TIP3    H2 6526   0.406   1.041   4.155
 2189TIP3   OH2 6527   1.037   1.050   4.352
 2189TIP3    H1 6528   1.115   1.016   4.396
 2189TIP3    H2 6529   0.970   1.052   4.420
 2190TIP3   OH2 6530   1.252   1.446   4.243
 2190TIP3    H1 6531   1.210   1.444   4.328
 2190TIP3    H2 6532   1.227   1.530   4.205
 2191TIP3   OH2 6533   0.945   1.579   2.778
 2191TIP3    H1 6534   0.930   1.533   2.696
 2191TIP3    H2 6535   0.992   1.659   2.754
 2192TIP3   OH2 6536   0.422   1.419   4.136
 2192TIP3    H1 6537   0.374   1.431   4.218
 2192TIP3    H2 6538   0.404   1.498   4.085
 2193TIP3   OH2 6539   0.333   1.268   3.609
 2193TIP3    H1 6540   0.271   1.319   3.557
 2193TIP3    H2 6541   0.401   1.243   3.547
 2194TIP3   OH2 6542   0.781   1.361   3.372
 2194TIP3    H1 6543   0.737   1.435   3.330
 2194TIP3    H2 6544   0.845   1.332   3.307
 2195TIP3   OH2 6545   0.968   1.642   4.448
 2195TIP3    H1 6546   0.944   1.574   4.511
 2195TIP3    H2 6547   1.058   1.664   4.469
 2196TIP3   OH2 6548   0.938   1.381   3.607
 2196TIP3    H1 6549   0.874   1.406   3.540
 2196TIP3    H2 6550   0.979   1.302   3.573
 2197TIP3   OH2 6551   0.242   1.455   4.346
 2197TIP3    H1 6552   0.277   1.531   4.393
 2197TIP3    H2 6553   0.169   1.425   4.400
 2198TIP3   OH2 6554   0.983   1.635   4.029
 2198TIP3    H1 6555   1.005   1.569   3.962
 2198TIP3    H2 6556   0.934   1.586   4.095
 2199TIP3   OH2 6557   0.607   1.191   3.742
 2199TIP3    H1 6558   0.559   1.124   3.790
 2199TIP3    H2 6559   0.696   1.157   3.736
 2200TIP3   OH2 6560   1.174   1.201   3.934
 2200TIP3    H1 6561   1.136   1.228   4.018
 2200TIP3    H2 6562   1.118   1.129   3.905
 2201TIP3   OH2 6563   1.300   2.877   4.121
 2201TIP3    H1 6564   1.295   2.901   4.029
 2201TIP3    H2 6565   1.381   2.919   4.152
 2202TIP3   OH2 6566   0.260   1.980   4.549
 2202TIP3    H1 6567   0.338   2.000   4.600
 2202TIP3    H2 6568   0.190   1.971   4.613
 2203TIP3   OH2 6569   0.726   1.460   3.817
 2203TIP3    H1 6570   0.778   1.405   3.759
 2203TIP3    H2 6571   0.718   1.410   3.898
 2204TIP3   OH2 6572   0.684   1.352   4.079
 2204TIP3    H1 6573   0.597   1.388   4.099
 2204TIP3    H2 6574   0.745   1.406   4.129
 2205TIP3   OH2 6575   0.432   1.721   3.183
 2205TIP3    H1 6576   0.353   1.738   3.131
 2205TIP3    H2 6577   0.409   1.750   3.271
 2206TIP3   OH2 6578   1.312   1.957   3.819
 2206TIP3    H1 6579   1.345   2.024   3.760
 2206TIP3    H2 6580   1.230   1.928   3.779
 2207TIP3   OH2 6581   0.895   1.046   3.076
 2207TIP3    H1 6582   0.822   1.043   3.014
 2207TIP3    H2 6583   0.912   1.139   3.088
 2208TIP3   OH2 6584   0.838   2.060   4.204
 2208TIP3    H1 6585   0.881   2.068   4.289
 2208TIP3    H2 6586   0.795   2.145   4.191
 2209TIP3   OH2 6587   0.962   1.301   3.160
 2209TIP3    H1 6588   1.057   1.304   3.168
 2209TIP3    H2 6589   0.939   1.377   3.107
 2210TIP3   OH2 6590   0.111   1.735   3.843
 2210TIP3    H1 6591   0.164   1.716   3.766
 2210TIP3    H2 6592   0.162   1.702   3.917
 2211TIP3   OH2 6593   0.587   1.881   3.018
 2211TIP3    H1 6594   0.537   1.962   3.012
 2211TIP3    H2 6595   0.536   1.826   3.078
 2212TIP3   OH2 6596   0.023   1.631   4.506
 2212TIP3    H1 6597   0.064   1.649   4.591
 2212TIP3    H2 6598  -0.061   1.591   4.528
 2213TIP3   OH2 6599   0.738   1.794   4.489
 2213TIP3    H1 6600   0.671   1.737   4.451
 2213TIP3    H2 6601   0.821   1.756   4.459
 2214TIP3   OH2 6602   1.035   2.323   4.037
 2214TIP3    H1 6603   0.952   2.350   3.998
 2214TIP3    H2 6604   1.028   2.349   4.129
 2215TIP3   OH2 6605   1.409   1.367   3.024
 2215TIP3    H1 6606   1.351   1.348   2.950
 2215TIP3    H2 6607   1.444   1.455   3.006
 2216TIP3   OH2 6608   1.618   2.219   4.079
 2216TIP3    H1 6609   1.535   2.267   4.072
 2216TIP3    H2 6610   1.640   2.197   3.988
 2217TIP3   OH2 6611   1.106   2.202   2.912
 2217TIP3    H1 6612   1.071   2.134   2.971
 2217TIP3    H2 6613   1.118   2.157   2.828
 2218TIP3   OH2 6614   1.085   1.837   3.689
 2218TIP3    H1 6615   0.997   1.819   3.722
 2218TIP3    H2 6616   1.116   1.752   3.657
 2219TIP3   OH2 6617   0.232   2.066   3.495
 2219TIP3    H1 6618   0.241   2.145   3.441
 2219TIP3    H2 6619   0.140   2.066   3.521
 2220TIP3   OH2 6620   0.317   1.816   3.413
 2220TIP3    H1 6621   0.300   1.906   3.440
 2220TIP3    H2 6622   0.307   1.764   3.492
 2221TIP3   OH2 6623   0.518   2.383   3.958
 2221TIP3    H1 6624   0.545   2.458   3.906
 2221TIP3    H2 6625   0.600   2.346   3.991
 2222TIP3   OH2 6626   0.173   2.299   3.334
 2222TIP3    H1 6627   0.091   2.301   3.384
 2222TIP3    H2 6628   0.197   2.391   3.324
 2223TIP3   OH2 6629   0.851   2.011   3.935
 2223TIP3    H1 6630   0.853   2.018   4.031
 2223TIP3    H2 6631   0.901   2.086   3.904
 2224TIP3   OH2 6632   0.849   1.923   2.815
 2224TIP3    H1 6633   0.913   1.897   2.881
 2224TIP3    H2 6634   0.765   1.896   2.851
 2225TIP3   OH2 6635   1.183   2.397   2.614
 2225TIP3    H1 6636   1.196   2.445   2.532
 2225TIP3    H2 6637   1.112   2.443   2.658
 2226TIP3   OH2 6638   1.045   1.838   2.983
 2226TIP3    H1 6639   1.033   1.796   3.068
 2226TIP3    H2 6640   1.138   1.858   2.979
 2227TIP3   OH2 6641   7.760   2.252   4.168
 2227TIP3    H1 6642   7.832   2.208   4.214
 2227TIP3    H2 6643   7.732   2.320   4.229
 2228TIP3   OH2 6644   0.214   1.883   3.096
 2228TIP3    H1 6645   0.220   1.898   3.191
 2228TIP3    H2 6646   0.188   1.969   3.061
 2229TIP3   OH2 6647   1.057   1.264   4.181
 2229TIP3    H1 6648   1.138   1.305   4.212
 2229TIP3    H2 6649   1.048   1.185   4.233
 2230TIP3   OH2 6650   0.933   0.987   3.339
 2230TIP3    H1 6651   0.919   1.009   3.247
 2230TIP3    H2 6652   0.977   1.063   3.376
 2231TIP3   OH2 6653   0.435   2.104   2.992
 2231TIP3    H1 6654   0.352   2.117   3.037
 2231TIP3    H2 6655   0.465   2.192   2.969
 2232TIP3   OH2 6656   0.576   1.200   3.471
 2232TIP3    H1 6657   0.645   1.255   3.433
 2232TIP3    H2 6658   0.593   1.202   3.565
 2233TIP3   OH2 6659   0.880   1.475   4.230
 2233TIP3    H1 6660   0.911   1.523   4.307
 2233TIP3    H2 6661   0.938   1.400   4.224
 2234TIP3   OH2 6662   0.704   0.941   3.485
 2234TIP3    H1 6663   0.642   1.008   3.457
 2234TIP3    H2 6664   0.781   0.955   3.430
 2235TIP3   OH2 6665   0.186   2.168   3.093
 2235TIP3    H1 6666   0.159   2.239   3.035
 2235TIP3    H2 6667   0.182   2.206   3.181
 2236TIP3   OH2 6668   1.512   1.375   4.216
 2236TIP3    H1 6669   1.419   1.390   4.231
 2236TIP3    H2 6670   1.515   1.314   4.143
 2237TIP3   OH2 6671   1.169   1.574   3.603
 2237TIP3    H1 6672   1.090   1.525   3.628
 2237TIP3    H2 6673   1.238   1.539   3.659
 2238TIP3   OH2 6674   1.166   2.512   3.529
 2238TIP3    H1 6675   1.116   2.576   3.477
 2238TIP3    H2 6676   1.255   2.547   3.531
 2239TIP3   OH2 6677   7.629   2.050   3.450
 2239TIP3    H1 6678   7.557   2.110   3.431
 2239TIP3    H2 6679   7.629   1.988   3.378
 2240TIP3   OH2 6680   0.053   2.550   4.438
 2240TIP3    H1 6681   0.095   2.561   4.524
 2240TIP3    H2 6682   0.000   2.470   4.447
 2241TIP3   OH2 6683   0.410   2.521   4.573
 2241TIP3    H1 6684   0.502   2.502   4.588
 2241TIP3    H2 6685   0.382   2.456   4.508
 2242TIP3   OH2 6686   0.359   2.124   2.704
 2242TIP3    H1 6687   0.374   2.062   2.776
 2242TIP3    H2 6688   0.416   2.092   2.634
 2243TIP3   OH2 6689   1.031   2.431   4.313
 2243TIP3    H1 6690   1.035   2.365   4.382
 2243TIP3    H2 6691   1.104   2.490   4.332
 2244TIP3   OH2 6692   0.794   2.141   2.656
 2244TIP3    H1 6693   0.826   2.073   2.715
 2244TIP3    H2 6694   0.841   2.125   2.574
 2245TIP3   OH2 6695   0.032   1.954   4.712
 2245TIP3    H1 6696   0.053   1.861   4.719
 2245TIP3    H2 6697  -0.063   1.959   4.725
 2246TIP3   OH2 6698   0.673   2.070   4.512
 2246TIP3    H1 6699   0.624   2.093   4.433
 2246TIP3    H2 6700   0.707   1.982   4.495
 2247TIP3   OH2 6701   0.564   1.808   2.755
 2247TIP3    H1 6702   0.567   1.830   2.848
 2247TIP3    H2 6703   0.524   1.721   2.752
 2248TIP3   OH2 6704   0.167   1.709   4.728
 2248TIP3    H1 6705   0.254   1.681   4.697
 2248TIP3    H2 6706   0.182   1.736   4.819
 2249TIP3   OH2 6707   0.527   1.610   4.385
 2249TIP3    H1 6708   0.446   1.661   4.394
 2249TIP3    H2 6709   0.566   1.642   4.304
 2250TIP3   OH2 6710   1.059   2.004   4.525
 2250TIP3    H1 6711   1.154   2.005   4.520
 2250TIP3    H2 6712   1.039   1.933   4.586
 2251TIP3   OH2 6713   1.213   1.691   2.633
 2251TIP3    H1 6714   1.176   1.617   2.584
 2251TIP3    H2 6715   1.151   1.763   2.617
 2252TIP3   OH2 6716   0.634   1.388   4.501
 2252TIP3    H1 6717   0.635   1.315   4.440
 2252TIP3    H2 6718   0.597   1.461   4.451
 2253TIP3   OH2 6719   0.634   1.184   4.300
 2253TIP3    H1 6720   0.660   1.225   4.217
 2253TIP3    H2 6721   0.539   1.176   4.293
 2254TIP3   OH2 6722   0.654   1.724   4.176
 2254TIP3    H1 6723   0.743   1.756   4.157
 2254TIP3    H2 6724   0.596   1.783   4.128
 2255TIP3   OH2 6725   1.239   1.657   4.558
 2255TIP3    H1 6726   1.241   1.562   4.553
 2255TIP3    H2 6727   1.327   1.684   4.532
 2256TIP3   OH2 6728   0.516   1.488   4.739
 2256TIP3    H1 6729   0.446   1.426   4.755
 2256TIP3    H2 6730   0.549   1.465   4.652
 2257TIP3   OH2 6731   0.755   0.953   4.390
 2257TIP3    H1 6732   0.722   1.038   4.360
 2257TIP3    H2 6733   0.821   0.928   4.325
 2258TIP3   OH2 6734   0.887   1.431   4.604
 2258TIP3    H1 6735   0.872   1.424   4.698
 2258TIP3    H2 6736   0.802   1.411   4.565
 2259TIP3   OH2 6737   1.139   1.396   4.483
 2259TIP3    H1 6738   1.058   1.388   4.534
 2259TIP3    H2 6739   1.205   1.353   4.537
 2260TIP3   OH2 6740   1.369   1.337   4.625
 2260TIP3    H1 6741   1.386   1.243   4.632
 2260TIP3    H2 6742   1.367   1.368   4.716
 2261TIP3   OH2 6743   0.335   1.288   4.783
 2261TIP3    H1 6744   0.318   1.212   4.728
 2261TIP3    H2 6745   0.385   1.254   4.857
 2262TIP3   OH2 6746   0.820   0.943   4.662
 2262TIP3    H1 6747   0.895   0.882   4.657
 2262TIP3    H2 6748   0.782   0.941   4.575
 2263TIP3   OH2 6749   0.923   1.168   4.785
 2263TIP3    H1 6750   0.888   1.095   4.735
 2263TIP3    H2 6751   0.850   1.228   4.796
 2264TIP3   OH2 6752   0.144   2.380   2.920
 2264TIP3    H1 6753   0.234   2.388   2.888
 2264TIP3    H2 6754   0.090   2.373   2.842
 2265TIP3   OH2 6755   7.338   2.423   3.513
 2265TIP3    H1 6756   7.253   2.381   3.524
 2265TIP3    H2 6757   7.399   2.368   3.562
 2266TIP3   OH2 6758   7.535   2.284   3.695
 2266TIP3    H1 6759   7.521   2.189   3.689
 2266TIP3    H2 6760   7.594   2.295   3.770
 2267TIP3   OH2 6761   1.419   2.626   3.514
 2267TIP3    H1 6762   1.422   2.707   3.566
 2267TIP3    H2 6763   1.486   2.638   3.447
 2268TIP3   OH2 6764   1.489   2.309   4.390
 2268TIP3    H1 6765   1.414   2.328   4.447
 2268TIP3    H2 6766   1.532   2.393   4.379
 2269TIP3   OH2 6767   1.325   1.854   2.967
 2269TIP3    H1 6768   1.383   1.928   2.950
 2269TIP3    H2 6769   1.357   1.816   3.048
 2270TIP3   OH2 6770   1.403   1.719   3.204
 2270TIP3    H1 6771   1.342   1.659   3.247
 2270TIP3    H2 6772   1.424   1.784   3.271
 2271TIP3   OH2 6773   1.490   2.090   3.637
 2271TIP3    H1 6774   1.539   2.027   3.584
 2271TIP3    H2 6775   1.488   2.170   3.584
 2272TIP3   OH2 6776   1.295   1.586   2.886
 2272TIP3    H1 6777   1.253   1.503   2.867
 2272TIP3    H2 6778   1.247   1.622   2.960
 2273TIP3   OH2 6779   1.240   1.331   2.809
 2273TIP3    H1 6780   1.263   1.347   2.717
 2273TIP3    H2 6781   1.214   1.239   2.811
 2274TIP3   OH2 6782   1.232   1.550   3.336
 2274TIP3    H1 6783   1.241   1.456   3.327
 2274TIP3    H2 6784   1.213   1.563   3.430
 2275TIP3   OH2 6785   7.665   1.646   4.110
 2275TIP3    H1 6786   7.648   1.627   4.018
 2275TIP3    H2 6787   7.760   1.643   4.118
 2276TIP3   OH2 6788   1.693   1.808   4.251
 2276TIP3    H1 6789   1.610   1.762   4.261
 2276TIP3    H2 6790   1.759   1.739   4.247
 2277TIP3   OH2 6791   1.194   1.061   2.814
 2277TIP3    H1 6792   1.278   1.019   2.832
 2277TIP3    H2 6793   1.129   0.999   2.847
 2278TIP3   OH2 6794   1.241   1.284   3.224
 2278TIP3    H1 6795   1.277   1.197   3.241
 2278TIP3    H2 6796   1.300   1.322   3.160
 2279TIP3   OH2 6797   1.385   1.464   3.742
 2279TIP3    H1 6798   1.469   1.481   3.699
 2279TIP3    H2 6799   1.396   1.497   3.831
 2280TIP3   OH2 6800   1.465   1.607   3.967
 2280TIP3    H1 6801   1.386   1.634   4.014
 2280TIP3    H2 6802   1.495   1.687   3.923
 2281TIP3   OH2 6803   1.923   1.208   4.508
 2281TIP3    H1 6804   1.985   1.148   4.465
 2281TIP3    H2 6805   1.885   1.258   4.436
 2282TIP3   OH2 6806   1.351   1.035   3.264
 2282TIP3    H1 6807   1.403   1.024   3.343
 2282TIP3    H2 6808   1.288   0.963   3.266
 2283TIP3   OH2 6809   7.651   1.370   4.170
 2283TIP3    H1 6810   7.696   1.340   4.091
 2283TIP3    H2 6811   7.641   1.465   4.157
 2284TIP3   OH2 6812   1.770   1.321   4.310
 2284TIP3    H1 6813   1.683   1.360   4.319
 2284TIP3    H2 6814   1.756   1.242   4.257
 2285TIP3   OH2 6815   1.441   0.960   2.895
 2285TIP3    H1 6816   1.516   0.901   2.894
 2285TIP3    H2 6817   1.479   1.047   2.889
 2286TIP3   OH2 6818   0.976   2.520   3.181
 2286TIP3    H1 6819   1.031   2.507   3.104
 2286TIP3    H2 6820   1.026   2.579   3.237
 2287TIP3   OH2 6821   0.071   2.278   4.554
 2287TIP3    H1 6822   0.046   2.203   4.500
 2287TIP3    H2 6823   0.095   2.240   4.638
 2288TIP3   OH2 6824   0.293   2.347   4.111
 2288TIP3    H1 6825   0.244   2.421   4.076
 2288TIP3    H2 6826   0.379   2.353   4.068
 2289TIP3   OH2 6827   0.707   2.568   4.236
 2289TIP3    H1 6828   0.747   2.566   4.323
 2289TIP3    H2 6829   0.768   2.618   4.183
 2290TIP3   OH2 6830   0.881   2.733   4.102
 2290TIP3    H1 6831   0.941   2.694   4.039
 2290TIP3    H2 6832   0.937   2.786   4.159
 2291TIP3   OH2 6833   1.692   1.070   4.208
 2291TIP3    H1 6834   1.603   1.048   4.179
 2291TIP3    H2 6835   1.741   0.989   4.199
 2292TIP3   OH2 6836   7.761   2.603   4.098
 2292TIP3    H1 6837   7.674   2.636   4.072
 2292TIP3    H2 6838   7.779   2.645   4.181
 2293TIP3   OH2 6839   0.204   2.568   3.980
 2293TIP3    H1 6840   0.115   2.583   4.014
 2293TIP3    H2 6841   0.197   2.589   3.887
 2294TIP3   OH2 6842   0.576   2.588   3.780
 2294TIP3    H1 6843   0.647   2.542   3.736
 2294TIP3    H2 6844   0.618   2.662   3.824
 2295TIP3   OH2 6845   1.120   2.712   3.755
 2295TIP3    H1 6846   1.073   2.770   3.696
 2295TIP3    H2 6847   1.096   2.623   3.726
 2296TIP3   OH2 6848   7.682   2.362   3.918
 2296TIP3    H1 6849   7.710   2.362   4.009
 2296TIP3    H2 6850   7.762   2.345   3.868
 2297TIP3   OH2 6851   0.069   2.267   3.744
 2297TIP3    H1 6852   0.081   2.180   3.782
 2297TIP3    H2 6853   0.157   2.305   3.742
 2298TIP3   OH2 6854   0.332   2.339   3.751
 2298TIP3    H1 6855   0.358   2.246   3.747
 2298TIP3    H2 6856   0.388   2.376   3.819
 2299TIP3   OH2 6857   0.942   1.055   3.943
 2299TIP3    H1 6858   0.862   1.036   3.992
 2299TIP3    H2 6859   0.913   1.063   3.852
 2300TIP3   OH2 6860   1.407   0.916   3.718
 2300TIP3    H1 6861   1.431   0.965   3.639
 2300TIP3    H2 6862   1.322   0.877   3.697
 2301TIP3   OH2 6863   1.519   0.999   3.477
 2301TIP3    H1 6864   1.583   0.933   3.448
 2301TIP3    H2 6865   1.566   1.082   3.468
 2302TIP3   OH2 6866   0.618   0.887   3.751
 2302TIP3    H1 6867   0.639   0.873   3.659
 2302TIP3    H2 6868   0.584   0.803   3.781
 2303TIP3   OH2 6869   1.102   1.015   3.675
 2303TIP3    H1 6870   1.139   1.025   3.588
 2303TIP3    H2 6871   1.119   0.924   3.698
 2304TIP3   OH2 6872   1.162   0.833   3.275
 2304TIP3    H1 6873   1.078   0.878   3.289
 2304TIP3    H2 6874   1.158   0.758   3.335
 2305TIP3   OH2 6875   7.467   1.993   3.209
 2305TIP3    H1 6876   7.403   1.995   3.139
 2305TIP3    H2 6877   7.459   2.078   3.252
 2306TIP3   OH2 6878   0.407   2.356   2.839
 2306TIP3    H1 6879   0.494   2.380   2.806
 2306TIP3    H2 6880   0.381   2.281   2.786
 2307TIP3   OH2 6881   1.130   2.471   2.954
 2307TIP3    H1 6882   1.129   2.376   2.943
 2307TIP3    H2 6883   1.090   2.505   2.873
 2308TIP3   OH2 6884   0.684   1.009   4.904
 2308TIP3    H1 6885   0.715   0.978   4.818
 2308TIP3    H2 6886   0.755   0.987   4.964
 2309TIP3   OH2 6887   1.440   1.069   4.631
 2309TIP3    H1 6888   1.455   1.040   4.721
 2309TIP3    H2 6889   1.526   1.064   4.590
 2310TIP3   OH2 6890   1.385   2.614   4.179
 2310TIP3    H1 6891   1.367   2.548   4.112
 2310TIP3    H2 6892   1.344   2.694   4.146
 2311TIP3   OH2 6893   2.622   1.986   2.878
 2311TIP3    H1 6894   2.592   2.075   2.858
 2311TIP3    H2 6895   2.549   1.930   2.851
 2312TIP3   OH2 6896   2.617   1.983   3.297
 2312TIP3    H1 6897   2.668   1.971   3.377
 2312TIP3    H2 6898   2.572   1.899   3.284
 2313TIP3   OH2 6899   1.925   1.853   3.639
 2313TIP3    H1 6900   1.966   1.805   3.712
 2313TIP3    H2 6901   1.998   1.879   3.583
 2314TIP3   OH2 6902   2.887   2.289   2.971
 2314TIP3    H1 6903   2.876   2.226   3.042
 2314TIP3    H2 6904   2.907   2.371   3.015
 2315TIP3   OH2 6905   1.932   2.296   3.347
 2315TIP3    H1 6906   1.933   2.257   3.434
 2315TIP3    H2 6907   2.024   2.298   3.320
 2316TIP3   OH2 6908   1.620   1.573   3.096
 2316TIP3    H1 6909   1.550   1.618   3.142
 2316TIP3    H2 6910   1.644   1.500   3.153
 2317TIP3   OH2 6911   2.536   2.728   2.983
 2317TIP3    H1 6912   2.567   2.659   2.924
 2317TIP3    H2 6913   2.550   2.693   3.070
 2318TIP3   OH2 6914   2.432   2.206   3.307
 2318TIP3    H1 6915   2.477   2.125   3.282
 2318TIP3    H2 6916   2.502   2.264   3.337
 2319TIP3   OH2 6917   3.457   1.528   3.322
 2319TIP3    H1 6918   3.475   1.611   3.366
 2319TIP3    H2 6919   3.480   1.543   3.231
 2320TIP3   OH2 6920   2.834   1.695   3.340
 2320TIP3    H1 6921   2.869   1.611   3.369
 2320TIP3    H2 6922   2.797   1.678   3.254
 2321TIP3   OH2 6923   2.887   1.456   2.934
 2321TIP3    H1 6924   2.950   1.449   3.006
 2321TIP3    H2 6925   2.937   1.493   2.862
 2322TIP3   OH2 6926   1.778   1.638   3.462
 2322TIP3    H1 6927   1.857   1.644   3.515
 2322TIP3    H2 6928   1.793   1.565   3.403
 2323TIP3   OH2 6929   2.237   1.770   3.244
 2323TIP3    H1 6930   2.331   1.758   3.255
 2323TIP3    H2 6931   2.210   1.696   3.189
 2324TIP3   OH2 6932   3.515   1.742   3.493
 2324TIP3    H1 6933   3.433   1.790   3.480
 2324TIP3    H2 6934   3.555   1.783   3.570
 2325TIP3   OH2 6935   2.171   1.366   3.754
 2325TIP3    H1 6936   2.110   1.398   3.688
 2325TIP3    H2 6937   2.123   1.374   3.837
 2326TIP3   OH2 6938   2.498   2.198   2.753
 2326TIP3    H1 6939   2.466   2.181   2.664
 2326TIP3    H2 6940   2.457   2.281   2.777
 2327TIP3   OH2 6941   2.267   2.134   3.519
 2327TIP3    H1 6942   2.213   2.204   3.555
 2327TIP3    H2 6943   2.317   2.174   3.448
 2328TIP3   OH2 6944   3.052   1.473   3.152
 2328TIP3    H1 6945   3.008   1.454   3.235
 2328TIP3    H2 6946   3.108   1.549   3.171
 2329TIP3   OH2 6947   2.018   1.480   3.556
 2329TIP3    H1 6948   2.093   1.536   3.537
 2329TIP3    H2 6949   1.993   1.444   3.471
 2330TIP3   OH2 6950   2.103   2.333   3.623
 2330TIP3    H1 6951   2.093   2.425   3.597
 2330TIP3    H2 6952   2.030   2.317   3.682
 2331TIP3   OH2 6953   1.511   2.039   2.886
 2331TIP3    H1 6954   1.477   2.053   2.797
 2331TIP3    H2 6955   1.528   2.126   2.920
 2332TIP3   OH2 6956   2.926   2.534   3.109
 2332TIP3    H1 6957   2.840   2.530   3.152
 2332TIP3    H2 6958   2.927   2.619   3.067
 2333TIP3   OH2 6959   3.259   1.405   3.485
 2333TIP3    H1 6960   3.174   1.439   3.458
 2333TIP3    H2 6961   3.320   1.439   3.420
 2334TIP3   OH2 6962   2.530   1.071   3.488
 2334TIP3    H1 6963   2.510   0.978   3.500
 2334TIP3    H2 6964   2.456   1.116   3.528
 2335TIP3   OH2 6965   2.633   2.563   2.780
 2335TIP3    H1 6966   2.685   2.484   2.764
 2335TIP3    H2 6967   2.688   2.635   2.748
 2336TIP3   OH2 6968   2.786   2.345   2.719
 2336TIP3    H1 6969   2.754   2.262   2.684
 2336TIP3    H2 6970   2.827   2.322   2.803
 2337TIP3   OH2 6971   3.162   2.430   3.460
 2337TIP3    H1 6972   3.147   2.356   3.401
 2337TIP3    H2 6973   3.142   2.507   3.408
 2338TIP3   OH2 6974   2.447   1.830   2.723
 2338TIP3    H1 6975   2.366   1.879   2.706
 2338TIP3    H2 6976   2.497   1.838   2.642
 2339TIP3   OH2 6977   2.426   1.628   2.419
 2339TIP3    H1 6978   2.482   1.681   2.476
 2339TIP3    H2 6979   2.487   1.566   2.378
 2340TIP3   OH2 6980   3.347   2.085   3.322
 2340TIP3    H1 6981   3.264   2.132   3.324
 2340TIP3    H2 6982   3.383   2.102   3.235
 2341TIP3   OH2 6983   2.809   1.916   2.692
 2341TIP3    H1 6984   2.754   1.945   2.765
 2341TIP3    H2 6985   2.893   1.894   2.732
 2342TIP3   OH2 6986   3.037   1.949   3.628
 2342TIP3    H1 6987   3.036   2.032   3.675
 2342TIP3    H2 6988   2.954   1.948   3.580
 2343TIP3   OH2 6989   2.184   2.327   3.231
 2343TIP3    H1 6990   2.167   2.314   3.138
 2343TIP3    H2 6991   2.271   2.290   3.245
 2344TIP3   OH2 6992   2.144   1.892   3.475
 2344TIP3    H1 6993   2.172   1.863   3.388
 2344TIP3    H2 6994   2.186   1.977   3.486
 2345TIP3   OH2 6995   2.690   2.531   3.247
 2345TIP3    H1 6996   2.682   2.613   3.296
 2345TIP3    H2 6997   2.675   2.463   3.312
 2346TIP3   OH2 6998   2.310   2.433   3.789
 2346TIP3    H1 6999   2.251   2.493   3.835
 2346TIP3    H2 7000   2.253   2.381   3.733
 2347TIP3   OH2 7001   2.642   1.780   2.522
 2347TIP3    H1 7002   2.701   1.837   2.571
 2347TIP3    H2 7003   2.669   1.789   2.431
 2348TIP3   OH2 7004   2.065   1.978   3.932
 2348TIP3    H1 7005   2.070   2.071   3.950
 2348TIP3    H2 7006   1.972   1.958   3.932
 2349TIP3   OH2 7007   2.382   2.450   2.782
 2349TIP3    H1 7008   2.466   2.495   2.790
 2349TIP3    H2 7009   2.326   2.513   2.736
 2350TIP3   OH2 7010   2.107   2.596   3.875
 2350TIP3    H1 7011   2.075   2.607   3.785
 2350TIP3    H2 7012   2.029   2.575   3.926
 2351TIP3   OH2 7013   3.152   1.009   2.579
 2351TIP3    H1 7014   3.075   1.033   2.630
 2351TIP3    H2 7015   3.167   1.085   2.522
 2352TIP3   OH2 7016   1.839   1.711   3.004
 2352TIP3    H1 7017   1.831   1.782   2.940
 2352TIP3    H2 7018   1.754   1.668   3.004
 2353TIP3   OH2 7019   2.970   2.383   2.129
 2353TIP3    H1 7020   2.967   2.477   2.110
 2353TIP3    H2 7021   3.059   2.357   2.108
 2354TIP3   OH2 7022   1.698   2.137   3.824
 2354TIP3    H1 7023   1.620   2.119   3.771
 2354TIP3    H2 7024   1.727   2.051   3.854
 2355TIP3   OH2 7025   1.523   2.354   3.491
 2355TIP3    H1 7026   1.608   2.384   3.521
 2355TIP3    H2 7027   1.462   2.422   3.521
 2356TIP3   OH2 7028   3.391   2.812   3.535
 2356TIP3    H1 7029   3.388   2.718   3.551
 2356TIP3    H2 7030   3.312   2.846   3.578
 2357TIP3   OH2 7031   2.496   2.577   3.646
 2357TIP3    H1 7032   2.498   2.669   3.674
 2357TIP3    H2 7033   2.429   2.537   3.700
 2358TIP3   OH2 7034   2.277   2.675   2.610
 2358TIP3    H1 7035   2.234   2.660   2.526
 2358TIP3    H2 7036   2.244   2.760   2.639
 2359TIP3   OH2 7037   1.709   2.537   2.980
 2359TIP3    H1 7038   1.756   2.530   3.063
 2359TIP3    H2 7039   1.662   2.454   2.972
 2360TIP3   OH2 7040   2.478   2.607   2.233
 2360TIP3    H1 7041   2.531   2.535   2.199
 2360TIP3    H2 7042   2.511   2.621   2.322
 2361TIP3   OH2 7043   2.531   2.652   2.502
 2361TIP3    H1 7044   2.447   2.652   2.549
 2361TIP3    H2 7045   2.596   2.632   2.569
 2362TIP3   OH2 7046   3.283   1.913   3.803
 2362TIP3    H1 7047   3.201   1.924   3.756
 2362TIP3    H2 7048   3.301   1.819   3.797
 2363TIP3   OH2 7049   1.886   2.334   3.791
 2363TIP3    H1 7050   1.929   2.336   3.876
 2363TIP3    H2 7051   1.817   2.269   3.800
 2364TIP3   OH2 7052   2.296   1.167   3.603
 2364TIP3    H1 7053   2.217   1.119   3.579
 2364TIP3    H2 7054   2.264   1.242   3.653
 2365TIP3   OH2 7055   2.821   1.258   3.809
 2365TIP3    H1 7056   2.888   1.237   3.875
 2365TIP3    H2 7057   2.738   1.245   3.856
 2366TIP3   OH2 7058   3.042   1.683   3.716
 2366TIP3    H1 7059   3.001   1.680   3.802
 2366TIP3    H2 7060   3.026   1.773   3.685
 2367TIP3   OH2 7061   2.719   1.771   2.259
 2367TIP3    H1 7062   2.679   1.770   2.172
 2367TIP3    H2 7063   2.802   1.817   2.247
 2368TIP3   OH2 7064   2.378   1.187   2.534
 2368TIP3    H1 7065   2.353   1.196   2.626
 2368TIP3    H2 7066   2.445   1.119   2.534
 2369TIP3   OH2 7067   2.225   1.670   3.613
 2369TIP3    H1 7068   2.173   1.672   3.694
 2369TIP3    H2 7069   2.202   1.751   3.568
 2370TIP3   OH2 7070   2.111   1.553   3.115
 2370TIP3    H1 7071   2.090   1.477   3.169
 2370TIP3    H2 7072   2.129   1.517   3.028
 2371TIP3   OH2 7073   2.586   1.631   2.853
 2371TIP3    H1 7074   2.536   1.703   2.814
 2371TIP3    H2 7075   2.647   1.604   2.784
 2372TIP3   OH2 7076   2.763   1.897   3.938
 2372TIP3    H1 7077   2.737   1.830   4.001
 2372TIP3    H2 7078   2.855   1.915   3.959
 2373TIP3   OH2 7079   2.740   1.642   3.089
 2373TIP3    H1 7080   2.677   1.671   3.024
 2373TIP3    H2 7081   2.786   1.569   3.048
 2374TIP3   OH2 7082   2.055   1.690   3.832
 2374TIP3    H1 7083   2.059   1.756   3.902
 2374TIP3    H2 7084   2.036   1.608   3.877
 2375TIP3   OH2 7085   2.024   1.183   2.594
 2375TIP3    H1 7086   2.054   1.142   2.675
 2375TIP3    H2 7087   1.993   1.270   2.620
 2376TIP3   OH2 7088   1.685   1.194   3.373
 2376TIP3    H1 7089   1.753   1.260   3.360
 2376TIP3    H2 7090   1.688   1.141   3.293
 2377TIP3   OH2 7091   1.587   1.196   2.902
 2377TIP3    H1 7092   1.634   1.239   2.830
 2377TIP3    H2 7093   1.540   1.268   2.945
 2378TIP3   OH2 7094   2.781   1.897   3.514
 2378TIP3    H1 7095   2.804   1.830   3.451
 2378TIP3    H2 7096   2.738   1.850   3.585
 2379TIP3   OH2 7097   2.462   1.352   3.182
 2379TIP3    H1 7098   2.392   1.375   3.243
 2379TIP3    H2 7099   2.539   1.341   3.236
 2380TIP3   OH2 7100   2.137   1.419   2.885
 2380TIP3    H1 7101   2.230   1.432   2.863
 2380TIP3    H2 7102   2.091   1.434   2.802
 2381TIP3   OH2 7103   2.909   1.431   3.388
 2381TIP3    H1 7104   2.895   1.446   3.481
 2381TIP3    H2 7105   2.837   1.375   3.361
 2382TIP3   OH2 7106   1.991   1.452   2.659
 2382TIP3    H1 7107   1.896   1.444   2.654
 2382TIP3    H2 7108   2.017   1.490   2.576
 2383TIP3   OH2 7109   2.052   2.241   4.030
 2383TIP3    H1 7110   2.131   2.267   4.079
 2383TIP3    H2 7111   1.980   2.253   4.092
 2384TIP3   OH2 7112   2.506   1.714   3.293
 2384TIP3    H1 7113   2.578   1.669   3.249
 2384TIP3    H2 7114   2.507   1.678   3.382
 2385TIP3   OH2 7115   2.489   1.619   3.558
 2385TIP3    H1 7116   2.401   1.647   3.581
 2385TIP3    H2 7117   2.546   1.671   3.613
 2386TIP3   OH2 7118   2.207   1.968   2.671
 2386TIP3    H1 7119   2.134   1.909   2.651
 2386TIP3    H2 7120   2.184   2.006   2.756
 2387TIP3   OH2 7121   3.113   2.224   3.282
 2387TIP3    H1 7122   3.146   2.276   3.209
 2387TIP3    H2 7123   3.031   2.187   3.249
 2388TIP3   OH2 7124   2.654   1.297   2.573
 2388TIP3    H1 7125   2.562   1.312   2.551
 2388TIP3    H2 7126   2.691   1.385   2.583
 2389TIP3   OH2 7127   2.611   2.301   3.691
 2389TIP3    H1 7128   2.666   2.298   3.770
 2389TIP3    H2 7129   2.575   2.389   3.690
 2390TIP3   OH2 7130   2.752   1.547   2.638
 2390TIP3    H1 7131   2.847   1.555   2.653
 2390TIP3    H2 7132   2.730   1.626   2.588
 2391TIP3   OH2 7133   2.362   2.129   2.513
 2391TIP3    H1 7134   2.317   2.213   2.510
 2391TIP3    H2 7135   2.306   2.074   2.567
 2392TIP3   OH2 7136   1.795   1.910   3.971
 2392TIP3    H1 7137   1.793   1.910   4.066
 2392TIP3    H2 7138   1.714   1.866   3.945
 2393TIP3   OH2 7139   2.528   2.048   3.983
 2393TIP3    H1 7140   2.458   1.990   3.953
 2393TIP3    H2 7141   2.608   2.008   3.950
 2394TIP3   OH2 7142   2.769   2.562   3.591
 2394TIP3    H1 7143   2.674   2.569   3.588
 2394TIP3    H2 7144   2.795   2.621   3.661
 2395TIP3   OH2 7145   3.161   1.643   2.472
 2395TIP3    H1 7146   3.103   1.599   2.411
 2395TIP3    H2 7147   3.169   1.732   2.438
 2396TIP3   OH2 7148   3.406   2.515   3.553
 2396TIP3    H1 7149   3.312   2.502   3.547
 2396TIP3    H2 7150   3.440   2.487   3.468
 2397TIP3   OH2 7151   2.898   2.459   2.393
 2397TIP3    H1 7152   2.868   2.391   2.454
 2397TIP3    H2 7153   2.913   2.413   2.311
 2398TIP3   OH2 7154   2.878   2.093   3.182
 2398TIP3    H1 7155   2.788   2.074   3.207
 2398TIP3    H2 7156   2.911   2.011   3.145
 2399TIP3   OH2 7157   2.034   2.321   2.983
 2399TIP3    H1 7158   2.031   2.397   2.925
 2399TIP3    H2 7159   1.949   2.321   3.026
 2400TIP3   OH2 7160   1.545   1.657   2.699
 2400TIP3    H1 7161   1.620   1.714   2.717
 2400TIP3    H2 7162   1.583   1.573   2.677
 2401TIP3   OH2 7163   2.137   2.074   2.910
 2401TIP3    H1 7164   2.100   2.161   2.926
 2401TIP3    H2 7165   2.187   2.054   2.989
 2402TIP3   OH2 7166   2.312   2.653   3.442
 2402TIP3    H1 7167   2.348   2.725   3.391
 2402TIP3    H2 7168   2.386   2.619   3.493
 2403TIP3   OH2 7169   1.946   2.549   2.837
 2403TIP3    H1 7170   1.858   2.557   2.875
 2403TIP3    H2 7171   1.982   2.638   2.841
 2404TIP3   OH2 7172   2.667   2.307   3.420
 2404TIP3    H1 7173   2.648   2.302   3.514
 2404TIP3    H2 7174   2.757   2.276   3.412
 2405TIP3   OH2 7175   2.658   2.190   2.291
 2405TIP3    H1 7176   2.706   2.167   2.371
 2405TIP3    H2 7177   2.572   2.151   2.303
 2406TIP3   OH2 7178   2.929   2.813   3.456
 2406TIP3    H1 7179   2.840   2.782   3.444
 2406TIP3    H2 7180   2.920   2.908   3.463
 2407TIP3   OH2 7181   2.976   2.657   2.095
 2407TIP3    H1 7182   3.005   2.723   2.032
 2407TIP3    H2 7183   2.902   2.698   2.141
 2408TIP3   OH2 7184   2.002   1.437   3.967
 2408TIP3    H1 7185   1.906   1.445   3.965
 2408TIP3    H2 7186   2.019   1.372   4.035
 2409TIP3   OH2 7187   2.825   2.115   2.499
 2409TIP3    H1 7188   2.815   2.049   2.568
 2409TIP3    H2 7189   2.920   2.121   2.486
 2410TIP3   OH2 7190   1.740   2.520   3.603
 2410TIP3    H1 7191   1.790   2.461   3.659
 2410TIP3    H2 7192   1.740   2.604   3.651
 2411TIP3   OH2 7193   2.019   2.155   2.296
 2411TIP3    H1 7194   2.024   2.063   2.270
 2411TIP3    H2 7195   1.994   2.152   2.388
 2412TIP3   OH2 7196   1.949   2.172   2.565
 2412TIP3    H1 7197   2.022   2.147   2.622
 2412TIP3    H2 7198   1.945   2.267   2.570
 2413TIP3   OH2 7199   1.716   1.869   2.799
 2413TIP3    H1 7200   1.652   1.920   2.849
 2413TIP3    H2 7201   1.736   1.923   2.722
 2414TIP3   OH2 7202   2.861   1.481   3.650
 2414TIP3    H1 7203   2.932   1.534   3.688
 2414TIP3    H2 7204   2.849   1.409   3.712
 2415TIP3   OH2 7205   2.738   1.241   2.838
 2415TIP3    H1 7206   2.708   1.265   2.750
 2415TIP3    H2 7207   2.781   1.320   2.871
 2416TIP3   OH2 7208   2.220   2.359   2.509
 2416TIP3    H1 7209   2.135   2.384   2.546
 2416TIP3    H2 7210   2.248   2.435   2.458
 2417TIP3   OH2 7211   2.415   1.428   2.916
 2417TIP3    H1 7212   2.474   1.500   2.894
 2417TIP3    H2 7213   2.428   1.414   3.009
 2418TIP3   OH2 7214   2.690   1.735   3.718
 2418TIP3    H1 7215   2.709   1.787   3.795
 2418TIP3    H2 7216   2.739   1.654   3.730
 2419TIP3   OH2 7217   2.553   1.142   3.019
 2419TIP3    H1 7218   2.528   1.218   3.070
 2419TIP3    H2 7219   2.623   1.173   2.961
 2420TIP3   OH2 7220   1.968   2.443   2.584
 2420TIP3    H1 7221   1.947   2.514   2.523
 2420TIP3    H2 7222   1.959   2.483   2.671
 2421TIP3   OH2 7223   2.083   1.133   2.851
 2421TIP3    H1 7224   2.058   1.213   2.895
 2421TIP3    H2 7225   2.179   1.134   2.851
 2422TIP3   OH2 7226   3.311   1.647   3.712
 2422TIP3    H1 7227   3.216   1.642   3.715
 2422TIP3    H2 7228   3.334   1.629   3.620
 2423TIP3   OH2 7229   2.969   1.833   3.092
 2423TIP3    H1 7230   2.891   1.780   3.109
 2423TIP3    H2 7231   3.037   1.793   3.147
 2424TIP3   OH2 7232   1.696   2.042   2.575
 2424TIP3    H1 7233   1.759   2.114   2.579
 2424TIP3    H2 7234   1.731   1.984   2.507
 2425TIP3   OH2 7235   2.949   2.797   3.025
 2425TIP3    H1 7236   2.906   2.848   2.956
 2425TIP3    H2 7237   3.042   2.819   3.016
 2426TIP3   OH2 7238   2.064   1.033   3.573
 2426TIP3    H1 7239   2.012   1.023   3.493
 2426TIP3    H2 7240   2.017   0.982   3.639
 2427TIP3   OH2 7241   1.539   2.307   2.965
 2427TIP3    H1 7242   1.500   2.346   3.042
 2427TIP3    H2 7243   1.496   2.350   2.891
 2428TIP3   OH2 7244   1.728   2.844   4.020
 2428TIP3    H1 7245   1.811   2.841   4.067
 2428TIP3    H2 7246   1.699   2.753   4.016
 2429TIP3   OH2 7247   2.201   2.765   4.072
 2429TIP3    H1 7248   2.294   2.745   4.081
 2429TIP3    H2 7249   2.172   2.711   3.999
 2430TIP3   OH2 7250   2.166   2.364   2.193
 2430TIP3    H1 7251   2.122   2.290   2.235
 2430TIP3    H2 7252   2.242   2.324   2.150
 2431TIP3   OH2 7253   2.816   2.706   3.822
 2431TIP3    H1 7254   2.832   2.637   3.886
 2431TIP3    H2 7255   2.890   2.767   3.834
 2432TIP3   OH2 7256   2.614   2.400   2.115
 2432TIP3    H1 7257   2.649   2.335   2.176
 2432TIP3    H2 7258   2.671   2.395   2.039
 2433TIP3   OH2 7259   1.849   2.235   4.223
 2433TIP3    H1 7260   1.872   2.143   4.231
 2433TIP3    H2 7261   1.763   2.236   4.180
 2434TIP3   OH2 7262   1.832   1.861   2.421
 2434TIP3    H1 7263   1.886   1.834   2.495
 2434TIP3    H2 7264   1.895   1.873   2.349
 2435TIP3   OH2 7265   2.459   2.325   3.995
 2435TIP3    H1 7266   2.417   2.347   3.912
 2435TIP3    H2 7267   2.494   2.236   3.982
 2436TIP3   OH2 7268   2.395   2.071   2.248
 2436TIP3    H1 7269   2.372   2.086   2.339
 2436TIP3    H2 7270   2.371   1.980   2.232
 2437TIP3   OH2 7271   2.937   2.346   3.601
 2437TIP3    H1 7272   3.014   2.383   3.557
 2437TIP3    H2 7273   2.872   2.417   3.598
 2438TIP3   OH2 7274   1.971   1.982   4.223
 2438TIP3    H1 7275   2.046   1.973   4.165
 2438TIP3    H2 7276   2.008   2.006   4.307
 2439TIP3   OH2 7277   2.011   1.775   2.621
 2439TIP3    H1 7278   1.980   1.724   2.695
 2439TIP3    H2 7279   2.063   1.714   2.569
 2440TIP3   OH2 7280   2.325   1.876   3.882
 2440TIP3    H1 7281   2.238   1.913   3.890
 2440TIP3    H2 7282   2.355   1.902   3.795
 2441TIP3   OH2 7283   2.147   1.594   2.467
 2441TIP3    H1 7284   2.118   1.600   2.376
 2441TIP3    H2 7285   2.242   1.599   2.462
 2442TIP3   OH2 7286   2.818   2.249   3.976
 2442TIP3    H1 7287   2.885   2.209   3.922
 2442TIP3    H2 7288   2.812   2.193   4.054
 2443TIP3   OH2 7289   2.943   1.895   2.152
 2443TIP3    H1 7290   2.930   1.856   2.066
 2443TIP3    H2 7291   2.919   1.987   2.141
 2444TIP3   OH2 7292   2.427   1.644   3.988
 2444TIP3    H1 7293   2.427   1.573   3.924
 2444TIP3    H2 7294   2.392   1.719   3.941
 2445TIP3   OH2 7295   2.434   1.441   3.786
 2445TIP3    H1 7296   2.460   1.481   3.703
 2445TIP3    H2 7297   2.341   1.420   3.775
 2446TIP3   OH2 7298   2.443   1.971   3.655
 2446TIP3    H1 7299   2.528   2.015   3.647
 2446TIP3    H2 7300   2.382   2.028   3.608
 2447TIP3   OH2 7301   3.032   1.934   4.036
 2447TIP3    H1 7302   3.083   1.854   4.041
 2447TIP3    H2 7303   3.097   2.003   4.022
 2448TIP3   OH2 7304   3.066   2.187   3.777
 2448TIP3    H1 7305   3.009   2.244   3.724
 2448TIP3    H2 7306   3.154   2.206   3.746
 2449TIP3   OH2 7307   2.308   1.726   4.232
 2449TIP3    H1 7308   2.234   1.668   4.249
 2449TIP3    H2 7309   2.334   1.705   4.142
 2450TIP3   OH2 7310   2.552   1.205   3.882
 2450TIP3    H1 7311   2.512   1.286   3.851
 2450TIP3    H2 7312   2.485   1.138   3.868
 2451TIP3   OH2 7313   2.683   1.682   4.089
 2451TIP3    H1 7314   2.671   1.671   4.184
 2451TIP3    H2 7315   2.597   1.663   4.052
 2452TIP3   OH2 7316   2.923   1.633   3.953
 2452TIP3    H1 7317   2.845   1.637   4.008
 2452TIP3    H2 7318   2.995   1.614   4.014
 2453TIP3   OH2 7319   3.160   1.602   4.106
 2453TIP3    H1 7320   3.173   1.507   4.115
 2453TIP3    H2 7321   3.154   1.633   4.196
 2454TIP3   OH2 7322   2.126   1.517   4.295
 2454TIP3    H1 7323   2.130   1.429   4.259
 2454TIP3    H2 7324   2.165   1.509   4.382
 2455TIP3   OH2 7325   2.625   1.189   4.147
 2455TIP3    H1 7326   2.693   1.123   4.139
 2455TIP3    H2 7327   2.590   1.199   4.059
 2456TIP3   OH2 7328   2.714   1.404   4.295
 2456TIP3    H1 7329   2.684   1.333   4.239
 2456TIP3    H2 7330   2.643   1.467   4.295
 2457TIP3   OH2 7331   1.960   2.648   2.398
 2457TIP3    H1 7332   2.052   2.634   2.376
 2457TIP3    H2 7333   1.924   2.696   2.324
 2458TIP3   OH2 7334   1.427   1.980   2.609
 2458TIP3    H1 7335   1.516   2.011   2.594
 2458TIP3    H2 7336   1.411   1.916   2.539
 2459TIP3   OH2 7337   1.338   2.625   3.046
 2459TIP3    H1 7338   1.273   2.571   3.000
 2459TIP3    H2 7339   1.384   2.563   3.103
 2460TIP3   OH2 7340   1.484   2.451   3.210
 2460TIP3    H1 7341   1.470   2.389   3.281
 2460TIP3    H2 7342   1.541   2.518   3.248
 2461TIP3   OH2 7343   3.217   2.866   3.023
 2461TIP3    H1 7344   3.230   2.883   3.116
 2461TIP3    H2 7345   3.246   2.946   2.979
 2462TIP3   OH2 7346   3.239   2.886   3.298
 2462TIP3    H1 7347   3.188   2.806   3.300
 2462TIP3    H2 7348   3.302   2.876   3.370
 2463TIP3   OH2 7349   3.287   2.585   3.872
 2463TIP3    H1 7350   3.214   2.596   3.934
 2463TIP3    H2 7351   3.331   2.670   3.871
 2464TIP3   OH2 7352   3.106   2.102   2.482
 2464TIP3    H1 7353   3.163   2.173   2.451
 2464TIP3    H2 7354   3.152   2.065   2.557
 2465TIP3   OH2 7355   3.239   1.961   2.683
 2465TIP3    H1 7356   3.172   1.926   2.742
 2465TIP3    H2 7357   3.304   2.001   2.741
 2466TIP3   OH2 7358   3.288   2.368   3.117
 2466TIP3    H1 7359   3.339   2.302   3.069
 2466TIP3    H2 7360   3.286   2.444   3.060
 2467TIP3   OH2 7361   3.092   2.648   3.309
 2467TIP3    H1 7362   3.027   2.700   3.356
 2467TIP3    H2 7363   3.044   2.610   3.235
 2468TIP3   OH2 7364   3.154   1.879   2.328
 2468TIP3    H1 7365   3.083   1.877   2.264
 2468TIP3    H2 7366   3.136   1.957   2.381
 2469TIP3   OH2 7367   3.000   1.540   2.279
 2469TIP3    H1 7368   2.967   1.578   2.197
 2469TIP3    H2 7369   2.988   1.445   2.268
 2470TIP3   OH2 7370   3.037   1.825   2.824
 2470TIP3    H1 7371   3.044   1.730   2.813
 2470TIP3    H2 7372   3.018   1.837   2.917
 2471TIP3   OH2 7373   1.661   1.866   3.573
 2471TIP3    H1 7374   1.671   1.791   3.515
 2471TIP3    H2 7375   1.749   1.886   3.603
 2472TIP3   OH2 7376   3.321   2.243   3.683
 2472TIP3    H1 7377   3.387   2.177   3.662
 2472TIP3    H2 7378   3.334   2.313   3.619
 2473TIP3   OH2 7379   3.495   2.028   3.671
 2473TIP3    H1 7380   3.422   1.991   3.721
 2473TIP3    H2 7381   3.570   1.973   3.694
 2474TIP3   OH2 7382   2.959   1.271   2.258
 2474TIP3    H1 7383   3.030   1.238   2.312
 2474TIP3    H2 7384   2.884   1.215   2.280
 2475TIP3   OH2 7385   3.033   1.546   2.708
 2475TIP3    H1 7386   3.079   1.463   2.720
 2475TIP3    H2 7387   3.078   1.588   2.634
 2476TIP3   OH2 7388   3.185   1.708   3.228
 2476TIP3    H1 7389   3.266   1.727   3.180
 2476TIP3    H2 7390   3.198   1.749   3.314
 2477TIP3   OH2 7391   3.258   1.859   3.457
 2477TIP3    H1 7392   3.184   1.889   3.510
 2477TIP3    H2 7393   3.289   1.938   3.413
 2478TIP3   OH2 7394   1.857   1.577   4.239
 2478TIP3    H1 7395   1.952   1.576   4.248
 2478TIP3    H2 7396   1.828   1.495   4.277
 2479TIP3   OH2 7397   3.716   1.451   4.003
 2479TIP3    H1 7398   3.781   1.397   3.958
 2479TIP3    H2 7399   3.678   1.506   3.934
 2480TIP3   OH2 7400   3.146   1.296   2.757
 2480TIP3    H1 7401   3.192   1.280   2.840
 2480TIP3    H2 7402   3.083   1.224   2.751
 2481TIP3   OH2 7403   1.637   1.528   3.668
 2481TIP3    H1 7404   1.677   1.551   3.584
 2481TIP3    H2 7405   1.673   1.592   3.730
 2482TIP3   OH2 7406   3.571   1.579   3.813
 2482TIP3    H1 7407   3.494   1.623   3.850
 2482TIP3    H2 7408   3.534   1.513   3.755
 2483TIP3   OH2 7409   3.195   1.211   2.397
 2483TIP3    H1 7410   3.241   1.152   2.337
 2483TIP3    H2 7411   3.249   1.290   2.399
 2484TIP3   OH2 7412   1.613   1.050   3.138
 2484TIP3    H1 7413   1.523   1.048   3.170
 2484TIP3    H2 7414   1.611   1.110   3.064
 2485TIP3   OH2 7415   2.767   2.762   2.656
 2485TIP3    H1 7416   2.829   2.757   2.584
 2485TIP3    H2 7417   2.803   2.828   2.715
 2486TIP3   OH2 7418   1.847   1.145   3.980
 2486TIP3    H1 7419   1.792   1.120   4.054
 2486TIP3    H2 7420   1.785   1.176   3.913
 2487TIP3   OH2 7421   1.898   2.543   4.047
 2487TIP3    H1 7422   1.803   2.544   4.039
 2487TIP3    H2 7423   1.914   2.547   4.141
 2488TIP3   OH2 7424   2.084   2.607   3.590
 2488TIP3    H1 7425   2.029   2.679   3.559
 2488TIP3    H2 7426   2.168   2.620   3.546
 2489TIP3   OH2 7427   2.531   2.849   3.710
 2489TIP3    H1 7428   2.552   2.843   3.803
 2489TIP3    H2 7429   2.614   2.872   3.668
 2490TIP3   OH2 7430   3.473   1.342   3.689
 2490TIP3    H1 7431   3.391   1.349   3.640
 2490TIP3    H2 7432   3.500   1.251   3.678
 2491TIP3   OH2 7433   1.734   2.857   3.631
 2491TIP3    H1 7434   1.640   2.866   3.615
 2491TIP3    H2 7435   1.753   2.922   3.698
 2492TIP3   OH2 7436   1.967   2.834   3.487
 2492TIP3    H1 7437   1.884   2.843   3.533
 2492TIP3    H2 7438   1.948   2.863   3.398
 2493TIP3   OH2 7439   2.398   2.858   3.280
 2493TIP3    H1 7440   2.334   2.873   3.211
 2493TIP3    H2 7441   2.412   2.944   3.319
 2494TIP3   OH2 7442   2.663   2.790   3.344
 2494TIP3    H1 7443   2.573   2.813   3.321
 2494TIP3    H2 7444   2.716   2.856   3.301
 2495TIP3   OH2 7445   2.820   2.969   3.212
 2495TIP3    H1 7446   2.844   3.059   3.191
 2495TIP3    H2 7447   2.873   2.916   3.152
 2496TIP3   OH2 7448   1.656   2.628   3.355
 2496TIP3    H1 7449   1.682   2.602   3.443
 2496TIP3    H2 7450   1.729   2.600   3.299
 2497TIP3   OH2 7451   1.860   2.520   3.210
 2497TIP3    H1 7452   1.873   2.439   3.259
 2497TIP3    H2 7453   1.945   2.564   3.214
 2498TIP3   OH2 7454   2.126   2.605   3.238
 2498TIP3    H1 7455   2.150   2.513   3.225
 2498TIP3    H2 7456   2.179   2.632   3.314
 2499TIP3   OH2 7457   2.680   1.263   3.324
 2499TIP3    H1 7458   2.643   1.195   3.380
 2499TIP3    H2 7459   2.748   1.218   3.274
 2500TIP3   OH2 7460   3.183   1.145   3.203
 2500TIP3    H1 7461   3.228   1.195   3.135
 2500TIP3    H2 7462   3.100   1.190   3.215
 2501TIP3   OH2 7463   3.305   1.239   2.977
 2501TIP3    H1 7464   3.375   1.179   2.949
 2501TIP3    H2 7465   3.343   1.326   2.966
 2502TIP3   OH2 7466   1.925   0.949   3.353
 2502TIP3    H1 7467   1.835   0.918   3.352
 2502TIP3    H2 7468   1.978   0.871   3.333
 2503TIP3   OH2 7469   1.696   0.848   2.964
 2503TIP3    H1 7470   1.752   0.890   2.899
 2503TIP3    H2 7471   1.685   0.915   3.032
 2504TIP3   OH2 7472   2.399   0.994   3.204
 2504TIP3    H1 7473   2.453   1.044   3.143
 2504TIP3    H2 7474   2.389   1.052   3.280
 2505TIP3   OH2 7475   2.889   1.146   3.190
 2505TIP3    H1 7476   2.907   1.112   3.102
 2505TIP3    H2 7477   2.899   1.070   3.248
 2506TIP3   OH2 7478   2.956   1.088   2.756
 2506TIP3    H1 7479   2.878   1.137   2.782
 2506TIP3    H2 7480   2.942   1.001   2.793
 2507TIP3   OH2 7481   1.422   2.429   2.750
 2507TIP3    H1 7482   1.338   2.403   2.713
 2507TIP3    H2 7483   1.435   2.518   2.718
 2508TIP3   OH2 7484   1.856   0.974   2.776
 2508TIP3    H1 7485   1.896   0.935   2.698
 2508TIP3    H2 7486   1.924   1.031   2.812
 2509TIP3   OH2 7487   2.359   1.180   2.813
 2509TIP3    H1 7488   2.411   1.129   2.875
 2509TIP3    H2 7489   2.373   1.271   2.839
 2510TIP3   OH2 7490   2.223   2.587   2.339
 2510TIP3    H1 7491   2.306   2.615   2.301
 2510TIP3    H2 7492   2.193   2.516   2.282
 2511TIP3   OH2 7493   2.931   2.727   2.432
 2511TIP3    H1 7494   2.924   2.632   2.424
 2511TIP3    H2 7495   2.886   2.761   2.355
 2512TIP3   OH2 7496   2.146   1.244   4.217
 2512TIP3    H1 7497   2.112   1.172   4.270
 2512TIP3    H2 7498   2.238   1.251   4.242
 2513TIP3   OH2 7499   2.399   1.244   4.330
 2513TIP3    H1 7500   2.477   1.220   4.280
 2513TIP3    H2 7501   2.390   1.175   4.395
 2514TIP3   OH2 7502   1.517   2.417   2.369
 2514TIP3    H1 7503   1.512   2.450   2.459
 2514TIP3    H2 7504   1.606   2.381   2.362
 2515TIP3   OH2 7505   3.226   1.330   4.120
 2515TIP3    H1 7506   3.243   1.302   4.210
 2515TIP3    H2 7507   3.311   1.324   4.077
 2516TIP3   OH2 7508   3.141   2.892   3.624
 2516TIP3    H1 7509   3.078   2.840   3.574
 2516TIP3    H2 7510   3.104   2.980   3.625
 2517TIP3   OH2 7511   4.420   2.247   2.365
 2517TIP3    H1 7512   4.392   2.335   2.340
 2517TIP3    H2 7513   4.346   2.190   2.340
 2518TIP3   OH2 7514   4.419   2.238   2.783
 2518TIP3    H1 7515   4.468   2.223   2.864
 2518TIP3    H2 7516   4.374   2.154   2.767
 2519TIP3   OH2 7517   3.716   2.113   3.136
 2519TIP3    H1 7518   3.751   2.055   3.205
 2519TIP3    H2 7519   3.794   2.152   3.096
 2520TIP3   OH2 7520   4.683   2.547   2.460
 2520TIP3    H1 7521   4.672   2.483   2.530
 2520TIP3    H2 7522   4.706   2.628   2.506
 2521TIP3   OH2 7523   3.710   2.528   2.822
 2521TIP3    H1 7524   3.693   2.435   2.833
 2521TIP3    H2 7525   3.805   2.534   2.813
 2522TIP3   OH2 7526   3.396   1.737   2.610
 2522TIP3    H1 7527   3.358   1.821   2.634
 2522TIP3    H2 7528   3.324   1.689   2.569
 2523TIP3   OH2 7529   3.472   2.045   2.819
 2523TIP3    H1 7530   3.521   1.967   2.846
 2523TIP3    H2 7531   3.539   2.109   2.798
 2524TIP3   OH2 7532   4.334   2.987   2.467
 2524TIP3    H1 7533   4.367   2.919   2.409
 2524TIP3    H2 7534   4.327   2.945   2.553
 2525TIP3   OH2 7535   4.226   2.462   2.793
 2525TIP3    H1 7536   4.269   2.383   2.762
 2525TIP3    H2 7537   4.297   2.518   2.825
 2526TIP3   OH2 7538   5.253   1.788   2.808
 2526TIP3    H1 7539   5.272   1.870   2.854
 2526TIP3    H2 7540   5.275   1.805   2.717
 2527TIP3   OH2 7541   4.633   1.954   2.827
 2527TIP3    H1 7542   4.667   1.869   2.856
 2527TIP3    H2 7543   4.596   1.937   2.741
 2528TIP3   OH2 7544   3.991   1.622   2.794
 2528TIP3    H1 7545   3.965   1.692   2.734
 2528TIP3    H2 7546   3.944   1.545   2.762
 2529TIP3   OH2 7547   4.685   1.702   2.419
 2529TIP3    H1 7548   4.747   1.698   2.492
 2529TIP3    H2 7549   4.734   1.744   2.348
 2530TIP3   OH2 7550   3.608   1.821   2.913
 2530TIP3    H1 7551   3.692   1.807   2.959
 2530TIP3    H2 7552   3.615   1.768   2.834
 2531TIP3   OH2 7553   4.037   2.024   2.723
 2531TIP3    H1 7554   4.131   2.006   2.732
 2531TIP3    H2 7555   4.000   1.943   2.690
 2532TIP3   OH2 7556   5.314   2.003   2.976
 2532TIP3    H1 7557   5.226   2.042   2.969
 2532TIP3    H2 7558   5.349   2.039   3.057
 2533TIP3   OH2 7559   3.968   1.612   3.239
 2533TIP3    H1 7560   3.917   1.649   3.167
 2533TIP3    H2 7561   3.914   1.628   3.317
 2534TIP3   OH2 7562   4.321   2.466   2.225
 2534TIP3    H1 7563   4.281   2.439   2.143
 2534TIP3    H2 7564   4.269   2.541   2.254
 2535TIP3   OH2 7565   4.066   2.390   3.008
 2535TIP3    H1 7566   4.011   2.460   3.043
 2535TIP3    H2 7567   4.113   2.430   2.936
 2536TIP3   OH2 7568   4.849   1.728   2.637
 2536TIP3    H1 7569   4.803   1.709   2.719
 2536TIP3    H2 7570   4.903   1.804   2.657
 2537TIP3   OH2 7571   3.854   1.722   3.012
 2537TIP3    H1 7572   3.907   1.798   3.037
 2537TIP3    H2 7573   3.902   1.682   2.940
 2538TIP3   OH2 7574   3.906   2.590   3.112
 2538TIP3    H1 7575   3.891   2.679   3.081
 2538TIP3    H2 7576   3.829   2.570   3.165
 2539TIP3   OH2 7577   3.280   2.289   2.364
 2539TIP3    H1 7578   3.245   2.308   2.277
 2539TIP3    H2 7579   3.303   2.375   2.400
 2540TIP3   OH2 7580   4.726   2.794   2.599
 2540TIP3    H1 7581   4.640   2.786   2.640
 2540TIP3    H2 7582   4.723   2.878   2.554
 2541TIP3   OH2 7583   5.049   1.670   2.969
 2541TIP3    H1 7584   4.964   1.701   2.938
 2541TIP3    H2 7585   5.111   1.703   2.904
 2542TIP3   OH2 7586   4.327   1.335   2.962
 2542TIP3    H1 7587   4.304   1.251   2.922
 2542TIP3    H2 7588   4.247   1.364   3.005
 2543TIP3   OH2 7589   4.432   2.826   2.261
 2543TIP3    H1 7590   4.484   2.746   2.249
 2543TIP3    H2 7591   4.488   2.896   2.230
 2544TIP3   OH2 7592   4.571   2.595   2.212
 2544TIP3    H1 7593   4.496   2.535   2.211
 2544TIP3    H2 7594   4.619   2.572   2.291
 2545TIP3   OH2 7595   4.958   2.687   2.947
 2545TIP3    H1 7596   4.942   2.612   2.889
 2545TIP3    H2 7597   4.940   2.764   2.893
 2546TIP3   OH2 7598   4.246   2.087   2.213
 2546TIP3    H1 7599   4.164   2.133   2.197
 2546TIP3    H2 7600   4.293   2.092   2.130
 2547TIP3   OH2 7601   4.217   1.882   1.915
 2547TIP3    H1 7602   4.278   1.935   1.965
 2547TIP3    H2 7603   4.272   1.828   1.859
 2548TIP3   OH2 7604   5.144   2.342   2.807
 2548TIP3    H1 7605   5.060   2.388   2.810
 2548TIP3    H2 7606   5.178   2.359   2.720
 2549TIP3   OH2 7607   4.604   2.172   2.178
 2549TIP3    H1 7608   4.549   2.203   2.250
 2549TIP3    H2 7609   4.688   2.152   2.218
 2550TIP3   OH2 7610   4.834   2.208   3.116
 2550TIP3    H1 7611   4.833   2.291   3.164
 2550TIP3    H2 7612   4.751   2.206   3.069
 2551TIP3   OH2 7613   3.832   2.158   2.585
 2551TIP3    H1 7614   3.797   2.100   2.518
 2551TIP3    H2 7615   3.907   2.111   2.621
 2552TIP3   OH2 7616   3.972   2.579   2.722
 2552TIP3    H1 7617   3.950   2.565   2.630
 2552TIP3    H2 7618   4.059   2.542   2.733
 2553TIP3   OH2 7619   3.941   2.152   2.952
 2553TIP3    H1 7620   3.979   2.118   2.871
 2553TIP3    H2 7621   3.989   2.233   2.968
 2554TIP3   OH2 7622   4.491   2.784   2.734
 2554TIP3    H1 7623   4.476   2.866   2.781
 2554TIP3    H2 7624   4.473   2.715   2.798
 2555TIP3   OH2 7625   4.103   2.692   3.279
 2555TIP3    H1 7626   4.044   2.750   3.326
 2555TIP3    H2 7627   4.047   2.641   3.221
 2556TIP3   OH2 7628   4.439   2.031   2.009
 2556TIP3    H1 7629   4.497   2.090   2.057
 2556TIP3    H2 7630   4.467   2.040   1.918
 2557TIP3   OH2 7631   3.861   2.238   3.411
 2557TIP3    H1 7632   3.866   2.331   3.434
 2557TIP3    H2 7633   3.767   2.220   3.406
 2558TIP3   OH2 7634   4.185   2.704   2.270
 2558TIP3    H1 7635   4.265   2.755   2.275
 2558TIP3    H2 7636   4.123   2.761   2.224
 2559TIP3   OH2 7637   3.893   2.849   3.366
 2559TIP3    H1 7638   3.867   2.859   3.275
 2559TIP3    H2 7639   3.812   2.830   3.413
 2560TIP3   OH2 7640   4.942   1.283   2.075
 2560TIP3    H1 7641   4.852   1.258   2.053
 2560TIP3    H2 7642   4.963   1.353   2.013
 2561TIP3   OH2 7643   3.706   2.005   2.378
 2561TIP3    H1 7644   3.631   2.055   2.346
 2561TIP3    H2 7645   3.668   1.922   2.409
 2562TIP3   OH2 7646   4.766   2.640   1.616
 2562TIP3    H1 7647   4.763   2.734   1.598
 2562TIP3    H2 7648   4.856   2.614   1.595
 2563TIP3   OH2 7649   3.485   2.405   3.315
 2563TIP3    H1 7650   3.416   2.390   3.251
 2563TIP3    H2 7651   3.519   2.318   3.335
 2564TIP3   OH2 7652   3.326   2.610   2.968
 2564TIP3    H1 7653   3.416   2.635   2.988
 2564TIP3    H2 7654   3.273   2.686   2.992
 2565TIP3   OH2 7655   5.193   3.056   3.015
 2565TIP3    H1 7656   5.195   2.962   3.032
 2565TIP3    H2 7657   5.113   3.086   3.059
 2566TIP3   OH2 7658   4.294   2.831   3.137
 2566TIP3    H1 7659   4.288   2.923   3.164
 2566TIP3    H2 7660   4.225   2.787   3.188
 2567TIP3   OH2 7661   4.074   2.937   2.092
 2567TIP3    H1 7662   4.026   2.918   2.012
 2567TIP3    H2 7663   4.038   3.021   2.123
 2568TIP3   OH2 7664   3.507   2.788   2.470
 2568TIP3    H1 7665   3.551   2.781   2.555
 2568TIP3    H2 7666   3.456   2.707   2.463
 2569TIP3   OH2 7667   4.274   2.864   1.719
 2569TIP3    H1 7668   4.325   2.791   1.684
 2569TIP3    H2 7669   4.308   2.877   1.808
 2570TIP3   OH2 7670   4.327   2.908   1.989
 2570TIP3    H1 7671   4.241   2.912   2.031
 2570TIP3    H2 7672   4.386   2.876   2.057
 2571TIP3   OH2 7673   5.081   2.166   3.285
 2571TIP3    H1 7674   4.997   2.176   3.239
 2571TIP3    H2 7675   5.099   2.072   3.281
 2572TIP3   OH2 7676   3.690   2.587   3.281
 2572TIP3    H1 7677   3.735   2.579   3.365
 2572TIP3    H2 7678   3.615   2.527   3.289
 2573TIP3   OH2 7679   4.077   1.401   3.090
 2573TIP3    H1 7680   3.993   1.368   3.058
 2573TIP3    H2 7681   4.055   1.481   3.137
 2574TIP3   OH2 7682   4.617   1.512   3.293
 2574TIP3    H1 7683   4.687   1.491   3.355
 2574TIP3    H2 7684   4.537   1.500   3.343
 2575TIP3   OH2 7685   4.838   1.943   3.205
 2575TIP3    H1 7686   4.794   1.938   3.290
 2575TIP3    H2 7687   4.822   2.032   3.175
 2576TIP3   OH2 7688   4.517   2.018   1.745
 2576TIP3    H1 7689   4.471   2.026   1.662
 2576TIP3    H2 7690   4.598   2.067   1.732
 2577TIP3   OH2 7691   4.110   1.335   2.077
 2577TIP3    H1 7692   4.139   1.380   2.156
 2577TIP3    H2 7693   4.167   1.369   2.008
 2578TIP3   OH2 7694   4.011   1.931   3.103
 2578TIP3    H1 7695   3.964   1.941   3.186
 2578TIP3    H2 7696   3.990   2.011   3.054
 2579TIP3   OH2 7697   3.891   1.810   2.623
 2579TIP3    H1 7698   3.802   1.783   2.646
 2579TIP3    H2 7699   3.904   1.776   2.535
 2580TIP3   OH2 7700   4.383   1.885   2.342
 2580TIP3    H1 7701   4.333   1.957   2.303
 2580TIP3    H2 7702   4.442   1.856   2.273
 2581TIP3   OH2 7703   4.562   2.159   3.424
 2581TIP3    H1 7704   4.532   2.092   3.485
 2581TIP3    H2 7705   4.654   2.173   3.446
 2582TIP3   OH2 7706   4.543   1.899   2.574
 2582TIP3    H1 7707   4.476   1.926   2.511
 2582TIP3    H2 7708   4.585   1.822   2.534
 2583TIP3   OH2 7709   3.846   1.945   3.323
 2583TIP3    H1 7710   3.861   2.010   3.392
 2583TIP3    H2 7711   3.829   1.863   3.370
 2584TIP3   OH2 7712   3.436   1.462   2.905
 2584TIP3    H1 7713   3.505   1.499   2.960
 2584TIP3    H2 7714   3.478   1.448   2.820
 2585TIP3   OH2 7715   3.347   1.445   2.410
 2585TIP3    H1 7716   3.391   1.481   2.332
 2585TIP3    H2 7717   3.286   1.514   2.436
 2586TIP3   OH2 7718   4.577   2.153   3.003
 2586TIP3    H1 7719   4.602   2.086   2.940
 2586TIP3    H2 7720   4.535   2.104   3.075
 2587TIP3   OH2 7721   4.251   1.613   2.677
 2587TIP3    H1 7722   4.172   1.617   2.731
 2587TIP3    H2 7723   4.323   1.605   2.740
 2588TIP3   OH2 7724   3.655   1.677   2.681
 2588TIP3    H1 7725   3.566   1.688   2.648
 2588TIP3    H2 7726   3.680   1.589   2.653
 2589TIP3   OH2 7727   3.924   1.692   2.381
 2589TIP3    H1 7728   4.019   1.694   2.371
 2589TIP3    H2 7729   3.890   1.682   2.293
 2590TIP3   OH2 7730   4.708   1.690   2.874
 2590TIP3    H1 7731   4.694   1.703   2.967
 2590TIP3    H2 7732   4.635   1.634   2.847
 2591TIP3   OH2 7733   3.830   1.645   2.126
 2591TIP3    H1 7734   3.753   1.619   2.076
 2591TIP3    H2 7735   3.867   1.719   2.077
 2592TIP3   OH2 7736   4.913   3.420   3.131
 2592TIP3    H1 7737   4.940   3.463   3.050
 2592TIP3    H2 7738   4.951   3.474   3.200
 2593TIP3   OH2 7739   3.847   2.497   3.519
 2593TIP3    H1 7740   3.926   2.522   3.566
 2593TIP3    H2 7741   3.776   2.509   3.583
 2594TIP3   OH2 7742   4.306   1.965   2.784
 2594TIP3    H1 7743   4.374   1.915   2.740
 2594TIP3    H2 7744   4.303   1.929   2.872
 2595TIP3   OH2 7745   3.852   1.413   2.680
 2595TIP3    H1 7746   3.801   1.343   2.720
 2595TIP3    H2 7747   3.932   1.370   2.651
 2596TIP3   OH2 7748   4.280   1.876   3.052
 2596TIP3    H1 7749   4.192   1.908   3.074
 2596TIP3    H2 7750   4.339   1.929   3.106
 2597TIP3   OH2 7751   4.011   2.227   2.162
 2597TIP3    H1 7752   3.936   2.172   2.138
 2597TIP3    H2 7753   3.986   2.268   2.244
 2598TIP3   OH2 7754   4.908   2.481   2.769
 2598TIP3    H1 7755   4.941   2.532   2.695
 2598TIP3    H2 7756   4.826   2.443   2.737
 2599TIP3   OH2 7757   4.451   1.562   2.045
 2599TIP3    H1 7758   4.376   1.595   1.995
 2599TIP3    H2 7759   4.498   1.641   2.073
 2600TIP3   OH2 7760   4.414   2.563   3.177
 2600TIP3    H1 7761   4.464   2.556   3.258
 2600TIP3    H2 7762   4.374   2.650   3.179
 2601TIP3   OH2 7763   4.555   1.802   2.127
 2601TIP3    H1 7764   4.649   1.813   2.143
 2601TIP3    H2 7765   4.530   1.881   2.078
 2602TIP3   OH2 7766   3.701   2.232   2.817
 2602TIP3    H1 7767   3.739   2.220   2.730
 2602TIP3    H2 7768   3.769   2.203   2.878
 2603TIP3   OH2 7769   4.163   2.390   2.004
 2603TIP3    H1 7770   4.116   2.473   2.001
 2603TIP3    H2 7771   4.107   2.333   2.057
 2604TIP3   OH2 7772   3.589   2.172   3.443
 2604TIP3    H1 7773   3.595   2.150   3.536
 2604TIP3    H2 7774   3.514   2.122   3.412
 2605TIP3   OH2 7775   4.324   2.306   3.466
 2605TIP3    H1 7776   4.257   2.245   3.435
 2605TIP3    H2 7777   4.406   2.268   3.436
 2606TIP3   OH2 7778   4.567   2.841   3.061
 2606TIP3    H1 7779   4.471   2.833   3.066
 2606TIP3    H2 7780   4.592   2.883   3.143
 2607TIP3   OH2 7781   4.960   1.900   1.958
 2607TIP3    H1 7782   4.901   1.856   1.896
 2607TIP3    H2 7783   4.966   1.990   1.925
 2608TIP3   OH2 7784   5.204   2.767   3.039
 2608TIP3    H1 7785   5.109   2.755   3.032
 2608TIP3    H2 7786   5.237   2.739   2.954
 2609TIP3   OH2 7787   4.694   2.713   1.885
 2609TIP3    H1 7788   4.662   2.647   1.946
 2609TIP3    H2 7789   4.707   2.666   1.802
 2610TIP3   OH2 7790   4.674   2.349   2.669
 2610TIP3    H1 7791   4.584   2.327   2.694
 2610TIP3    H2 7792   4.708   2.268   2.632
 2611TIP3   OH2 7793   3.824   2.582   2.475
 2611TIP3    H1 7794   3.820   2.658   2.417
 2611TIP3    H2 7795   3.736   2.577   2.514
 2612TIP3   OH2 7796   3.394   1.868   2.189
 2612TIP3    H1 7797   3.434   1.954   2.207
 2612TIP3    H2 7798   3.312   1.869   2.238
 2613TIP3   OH2 7799   3.919   2.338   2.389
 2613TIP3    H1 7800   3.897   2.427   2.415
 2613TIP3    H2 7801   3.891   2.284   2.464
 2614TIP3   OH2 7802   4.107   2.907   2.932
 2614TIP3    H1 7803   4.142   2.981   2.881
 2614TIP3    H2 7804   4.181   2.874   2.982
 2615TIP3   OH2 7805   3.740   2.807   2.323
 2615TIP3    H1 7806   3.654   2.812   2.364
 2615TIP3    H2 7807   3.774   2.896   2.328
 2616TIP3   OH2 7808   4.462   2.562   2.905
 2616TIP3    H1 7809   4.447   2.558   2.999
 2616TIP3    H2 7810   4.545   2.517   2.892
 2617TIP3   OH2 7811   4.452   2.447   1.772
 2617TIP3    H1 7812   4.501   2.417   1.848
 2617TIP3    H2 7813   4.365   2.407   1.782
 2618TIP3   OH2 7814   4.717   3.075   2.945
 2618TIP3    H1 7815   4.643   3.015   2.955
 2618TIP3    H2 7816   4.692   3.132   2.872
 2619TIP3   OH2 7817   4.772   2.914   1.582
 2619TIP3    H1 7818   4.797   2.980   1.517
 2619TIP3    H2 7819   4.698   2.955   1.628
 2620TIP3   OH2 7820   3.798   1.690   3.448
 2620TIP3    H1 7821   3.703   1.696   3.456
 2620TIP3    H2 7822   3.825   1.643   3.527
 2621TIP3   OH2 7823   4.624   2.353   1.964
 2621TIP3    H1 7824   4.609   2.303   2.045
 2621TIP3    H2 7825   4.719   2.365   1.960
 2622TIP3   OH2 7826   3.535   2.788   3.084
 2622TIP3    H1 7827   3.591   2.732   3.138
 2622TIP3    H2 7828   3.537   2.873   3.128
 2623TIP3   OH2 7829   3.810   2.413   1.783
 2623TIP3    H1 7830   3.818   2.322   1.757
 2623TIP3    H2 7831   3.791   2.410   1.877
 2624TIP3   OH2 7832   3.748   2.430   2.054
 2624TIP3    H1 7833   3.812   2.404   2.119
 2624TIP3    H2 7834   3.745   2.526   2.059
 2625TIP3   OH2 7835   3.482   2.123   2.265
 2625TIP3    H1 7836   3.416   2.168   2.318
 2625TIP3    H2 7837   3.498   2.183   2.192
 2626TIP3   OH2 7838   4.661   1.736   3.136
 2626TIP3    H1 7839   4.729   1.789   3.177
 2626TIP3    H2 7840   4.647   1.663   3.197
 2627TIP3   OH2 7841   4.559   1.474   2.310
 2627TIP3    H1 7842   4.520   1.502   2.228
 2627TIP3    H2 7843   4.602   1.552   2.345
 2628TIP3   OH2 7844   4.019   2.619   1.998
 2628TIP3    H1 7845   3.933   2.642   2.034
 2628TIP3    H2 7846   4.042   2.693   1.941
 2629TIP3   OH2 7847   4.203   1.688   2.412
 2629TIP3    H1 7848   4.263   1.758   2.389
 2629TIP3    H2 7849   4.216   1.675   2.506
 2630TIP3   OH2 7850   4.485   1.992   3.208
 2630TIP3    H1 7851   4.507   2.045   3.285
 2630TIP3    H2 7852   4.534   1.910   3.221
 2631TIP3   OH2 7853   4.371   1.416   2.515
 2631TIP3    H1 7854   4.348   1.492   2.569
 2631TIP3    H2 7855   4.437   1.449   2.454
 2632TIP3   OH2 7856   3.766   2.702   2.071
 2632TIP3    H1 7857   3.745   2.773   2.010
 2632TIP3    H2 7858   3.754   2.741   2.157
 2633TIP3   OH2 7859   3.880   1.377   2.240
 2633TIP3    H1 7860   3.847   1.461   2.208
 2633TIP3    H2 7861   3.946   1.401   2.306
 2634TIP3   OH2 7862   5.104   1.894   3.193
 2634TIP3    H1 7863   5.009   1.899   3.203
 2634TIP3    H2 7864   5.116   1.845   3.111
 2635TIP3   OH2 7865   4.766   2.091   2.579
 2635TIP3    H1 7866   4.688   2.037   2.592
 2635TIP3    H2 7867   4.833   2.050   2.633
 2636TIP3   OH2 7868   3.498   2.303   2.051
 2636TIP3    H1 7869   3.566   2.369   2.059
 2636TIP3    H2 7870   3.532   2.240   1.987
 2637TIP3   OH2 7871   3.416   1.590   2.188
 2637TIP3    H1 7872   3.427   1.684   2.196
 2637TIP3    H2 7873   3.368   1.578   2.106
 2638TIP3   OH2 7874   4.743   3.061   2.516
 2638TIP3    H1 7875   4.701   3.110   2.446
 2638TIP3    H2 7876   4.837   3.075   2.503
 2639TIP3   OH2 7877   3.814   1.312   3.053
 2639TIP3    H1 7878   3.785   1.283   2.967
 2639TIP3    H2 7879   3.808   1.234   3.108
 2640TIP3   OH2 7880   3.332   2.559   2.447
 2640TIP3    H1 7881   3.290   2.598   2.524
 2640TIP3    H2 7882   3.292   2.603   2.372
 2641TIP3   OH2 7883   3.526   3.097   3.512
 2641TIP3    H1 7884   3.609   3.089   3.558
 2641TIP3    H2 7885   3.492   3.007   3.509
 2642TIP3   OH2 7886   3.996   3.016   3.561
 2642TIP3    H1 7887   4.089   2.996   3.566
 2642TIP3    H2 7888   3.963   2.960   3.490
 2643TIP3   OH2 7889   3.964   2.615   1.675
 2643TIP3    H1 7890   3.917   2.545   1.719
 2643TIP3    H2 7891   4.038   2.572   1.633
 2644TIP3   OH2 7892   4.623   2.951   3.305
 2644TIP3    H1 7893   4.636   2.883   3.371
 2644TIP3    H2 7894   4.696   3.012   3.319
 2645TIP3   OH2 7895   4.405   2.655   1.599
 2645TIP3    H1 7896   4.437   2.590   1.661
 2645TIP3    H2 7897   4.464   2.648   1.524
 2646TIP3   OH2 7898   3.638   2.495   3.706
 2646TIP3    H1 7899   3.653   2.401   3.715
 2646TIP3    H2 7900   3.552   2.502   3.665
 2647TIP3   OH2 7901   3.629   2.112   1.906
 2647TIP3    H1 7902   3.682   2.088   1.982
 2647TIP3    H2 7903   3.693   2.125   1.835
 2648TIP3   OH2 7904   4.256   2.582   3.481
 2648TIP3    H1 7905   4.212   2.604   3.399
 2648TIP3    H2 7906   4.290   2.493   3.467
 2649TIP3   OH2 7907   4.192   2.334   1.736
 2649TIP3    H1 7908   4.169   2.347   1.828
 2649TIP3    H2 7909   4.176   2.241   1.721
 2650TIP3   OH2 7910   4.733   2.616   3.094
 2650TIP3    H1 7911   4.811   2.647   3.048
 2650TIP3    H2 7912   4.668   2.685   3.081
 2651TIP3   OH2 7913   3.756   2.235   3.710
 2651TIP3    H1 7914   3.833   2.229   3.653
 2651TIP3    H2 7915   3.791   2.262   3.795
 2652TIP3   OH2 7916   3.806   2.045   2.114
 2652TIP3    H1 7917   3.783   2.019   2.203
 2652TIP3    H2 7918   3.852   1.969   2.078
 2653TIP3   OH2 7919   4.116   2.126   3.364
 2653TIP3    H1 7920   4.031   2.171   3.373
 2653TIP3    H2 7921   4.150   2.157   3.280
 2654TIP3   OH2 7922   3.944   1.845   1.970
 2654TIP3    H1 7923   3.910   1.856   1.881
 2654TIP3    H2 7924   4.038   1.861   1.961
 2655TIP3   OH2 7925   4.614   2.505   3.461
 2655TIP3    H1 7926   4.682   2.464   3.407
 2655TIP3    H2 7927   4.610   2.450   3.539
 2656TIP3   OH2 7928   4.737   2.152   1.638
 2656TIP3    H1 7929   4.723   2.112   1.552
 2656TIP3    H2 7930   4.712   2.244   1.627
 2657TIP3   OH2 7931   4.215   1.898   3.479
 2657TIP3    H1 7932   4.221   1.827   3.416
 2657TIP3    H2 7933   4.182   1.972   3.429
 2658TIP3   OH2 7934   4.228   1.697   3.276
 2658TIP3    H1 7935   4.255   1.736   3.193
 2658TIP3    H2 7936   4.137   1.672   3.262
 2659TIP3   OH2 7937   4.240   2.227   3.145
 2659TIP3    H1 7938   4.327   2.264   3.133
 2659TIP3    H2 7939   4.182   2.288   3.098
 2660TIP3   OH2 7940   4.826   2.183   3.530
 2660TIP3    H1 7941   4.869   2.100   3.554
 2660TIP3    H2 7942   4.899   2.242   3.510
 2661TIP3   OH2 7943   4.861   2.447   3.264
 2661TIP3    H1 7944   4.806   2.506   3.213
 2661TIP3    H2 7945   4.950   2.464   3.233
 2662TIP3   OH2 7946   4.105   1.985   3.722
 2662TIP3    H1 7947   4.034   1.924   3.740
 2662TIP3    H2 7948   4.134   1.962   3.633
 2663TIP3   OH2 7949   4.351   1.465   3.376
 2663TIP3    H1 7950   4.310   1.546   3.344
 2663TIP3    H2 7951   4.285   1.398   3.361
 2664TIP3   OH2 7952   4.473   1.951   3.574
 2664TIP3    H1 7953   4.475   1.925   3.666
 2664TIP3    H2 7954   4.385   1.926   3.544
 2665TIP3   OH2 7955   4.712   1.887   3.436
 2665TIP3    H1 7956   4.635   1.890   3.494
 2665TIP3    H2 7957   4.785   1.865   3.494
 2666TIP3   OH2 7958   4.955   1.857   3.581
 2666TIP3    H1 7959   4.969   1.763   3.593
 2666TIP3    H2 7960   4.947   1.892   3.669
 2667TIP3   OH2 7961   3.935   1.766   3.782
 2667TIP3    H1 7962   3.943   1.678   3.745
 2667TIP3    H2 7963   3.974   1.759   3.869
 2668TIP3   OH2 7964   4.420   1.444   3.641
 2668TIP3    H1 7965   4.490   1.380   3.635
 2668TIP3    H2 7966   4.390   1.455   3.551
 2669TIP3   OH2 7967   4.530   1.687   3.724
 2669TIP3    H1 7968   4.501   1.600   3.700
 2669TIP3    H2 7969   4.451   1.732   3.755
 2670TIP3   OH2 7970   3.759   2.908   1.885
 2670TIP3    H1 7971   3.849   2.890   1.860
 2670TIP3    H2 7972   3.722   2.955   1.810
 2671TIP3   OH2 7973   3.225   2.287   2.074
 2671TIP3    H1 7974   3.319   2.302   2.068
 2671TIP3    H2 7975   3.211   2.201   2.035
 2672TIP3   OH2 7976   3.137   2.881   2.526
 2672TIP3    H1 7977   3.071   2.827   2.482
 2672TIP3    H2 7978   3.181   2.820   2.586
 2673TIP3   OH2 7979   3.279   2.712   2.696
 2673TIP3    H1 7980   3.268   2.648   2.765
 2673TIP3    H2 7981   3.330   2.783   2.736
 2674TIP3   OH2 7982   5.013   3.117   2.509
 2674TIP3    H1 7983   5.029   3.137   2.601
 2674TIP3    H2 7984   5.053   3.190   2.461
 2675TIP3   OH2 7985   5.035   3.142   2.786
 2675TIP3    H1 7986   4.988   3.059   2.788
 2675TIP3    H2 7987   5.105   3.131   2.851
 2676TIP3   OH2 7988   5.095   2.855   3.362
 2676TIP3    H1 7989   5.021   2.861   3.423
 2676TIP3    H2 7990   5.133   2.943   3.362
 2677TIP3   OH2 7991   4.904   2.360   1.968
 2677TIP3    H1 7992   4.962   2.431   1.940
 2677TIP3    H2 7993   4.949   2.322   2.044
 2678TIP3   OH2 7994   5.034   2.217   2.170
 2678TIP3    H1 7995   4.966   2.182   2.227
 2678TIP3    H2 7996   5.098   2.256   2.229
 2679TIP3   OH2 7997   5.083   2.624   2.604
 2679TIP3    H1 7998   5.134   2.557   2.558
 2679TIP3    H2 7999   5.082   2.698   2.544
 2680TIP3   OH2 8000   4.888   2.906   2.799
 2680TIP3    H1 8001   4.821   2.953   2.849
 2680TIP3    H2 8002   4.840   2.867   2.726
 2681TIP3   OH2 8003   4.948   2.137   1.815
 2681TIP3    H1 8004   4.876   2.134   1.752
 2681TIP3    H2 8005   4.931   2.214   1.868
 2682TIP3   OH2 8006   4.800   1.798   1.763
 2682TIP3    H1 8007   4.756   1.834   1.686
 2682TIP3    H2 8008   4.781   1.704   1.760
 2683TIP3   OH2 8009   4.833   2.082   2.310
 2683TIP3    H1 8010   4.840   1.987   2.300
 2683TIP3    H2 8011   4.814   2.094   2.403
 2684TIP3   OH2 8012   3.452   2.138   3.077
 2684TIP3    H1 8013   3.444   2.110   2.985
 2684TIP3    H2 8014   3.546   2.140   3.093
 2685TIP3   OH2 8015   5.117   2.501   3.170
 2685TIP3    H1 8016   5.184   2.434   3.153
 2685TIP3    H2 8017   5.135   2.570   3.106
 2686TIP3   OH2 8018   5.292   2.288   3.160
 2686TIP3    H1 8019   5.219   2.247   3.206
 2686TIP3    H2 8020   5.367   2.232   3.181
 2687TIP3   OH2 8021   4.745   1.531   1.760
 2687TIP3    H1 8022   4.823   1.497   1.805
 2687TIP3    H2 8023   4.681   1.461   1.767
 2688TIP3   OH2 8024   4.834   1.802   2.196
 2688TIP3    H1 8025   4.880   1.718   2.206
 2688TIP3    H2 8026   4.878   1.844   2.122
 2689TIP3   OH2 8027   4.980   1.963   2.714
 2689TIP3    H1 8028   5.061   1.982   2.666
 2689TIP3    H2 8029   4.993   2.004   2.800
 2690TIP3   OH2 8030   5.053   2.115   2.940
 2690TIP3    H1 8031   4.981   2.144   2.996
 2690TIP3    H2 8032   5.085   2.195   2.898
 2691TIP3   OH2 8033   3.671   1.820   3.719
 2691TIP3    H1 8034   3.765   1.820   3.737
 2691TIP3    H2 8035   3.638   1.741   3.762
 2692TIP3   OH2 8036   5.517   1.718   3.485
 2692TIP3    H1 8037   5.579   1.658   3.443
 2692TIP3    H2 8038   5.479   1.768   3.412
 2693TIP3   OH2 8039   4.958   1.550   2.232
 2693TIP3    H1 8040   4.992   1.539   2.321
 2693TIP3    H2 8041   4.939   1.461   2.202
 2694TIP3   OH2 8042   3.645   1.534   3.074
 2694TIP3    H1 8043   3.701   1.457   3.078
 2694TIP3    H2 8044   3.705   1.607   3.058
 2695TIP3   OH2 8045   3.428   1.801   3.132
 2695TIP3    H1 8046   3.481   1.793   3.053
 2695TIP3    H2 8047   3.444   1.891   3.163
 2696TIP3   OH2 8048   5.368   1.836   3.290
 2696TIP3    H1 8049   5.291   1.877   3.329
 2696TIP3    H2 8050   5.334   1.767   3.234
 2697TIP3   OH2 8051   4.992   1.467   1.881
 2697TIP3    H1 8052   5.039   1.408   1.822
 2697TIP3    H2 8053   5.045   1.547   1.883
 2698TIP3   OH2 8054   3.411   1.300   2.632
 2698TIP3    H1 8055   3.325   1.296   2.675
 2698TIP3    H2 8056   3.398   1.359   2.558
 2699TIP3   OH2 8057   4.573   3.022   2.146
 2699TIP3    H1 8058   4.632   3.015   2.071
 2699TIP3    H2 8059   4.612   3.091   2.200
 2700TIP3   OH2 8060   3.638   1.365   3.456
 2700TIP3    H1 8061   3.591   1.369   3.540
 2700TIP3    H2 8062   3.582   1.413   3.395
 2701TIP3   OH2 8063   3.671   2.806   3.532
 2701TIP3    H1 8064   3.576   2.802   3.521
 2701TIP3    H2 8065   3.685   2.804   3.626
 2702TIP3   OH2 8066   3.878   2.865   3.081
 2702TIP3    H1 8067   3.824   2.937   3.050
 2702TIP3    H2 8068   3.962   2.878   3.037
 2703TIP3   OH2 8069   4.286   3.101   3.212
 2703TIP3    H1 8070   4.323   3.091   3.300
 2703TIP3    H2 8071   4.350   3.154   3.165
 2704TIP3   OH2 8072   4.478   3.259   3.092
 2704TIP3    H1 8073   4.546   3.210   3.045
 2704TIP3    H2 8074   4.526   3.321   3.146
 2705TIP3   OH2 8075   5.277   1.590   3.176
 2705TIP3    H1 8076   5.188   1.583   3.140
 2705TIP3    H2 8077   5.311   1.501   3.171
 2706TIP3   OH2 8078   3.531   3.111   3.123
 2706TIP3    H1 8079   3.439   3.125   3.099
 2706TIP3    H2 8080   3.550   3.178   3.188
 2707TIP3   OH2 8081   3.766   3.095   2.977
 2707TIP3    H1 8082   3.682   3.102   3.024
 2707TIP3    H2 8083   3.745   3.122   2.888
 2708TIP3   OH2 8084   4.190   3.114   2.765
 2708TIP3    H1 8085   4.117   3.128   2.704
 2708TIP3    H2 8086   4.201   3.198   2.808
 2709TIP3   OH2 8087   4.454   3.047   2.814
 2709TIP3    H1 8088   4.363   3.069   2.797
 2709TIP3    H2 8089   4.504   3.117   2.772
 2710TIP3   OH2 8090   4.655   3.228   2.720
 2710TIP3    H1 8091   4.652   3.316   2.683
 2710TIP3    H2 8092   4.684   3.172   2.648
 2711TIP3   OH2 8093   3.454   2.891   2.831
 2711TIP3    H1 8094   3.467   2.866   2.923
 2711TIP3    H2 8095   3.529   2.853   2.785
 2712TIP3   OH2 8096   3.658   2.767   2.700
 2712TIP3    H1 8097   3.668   2.685   2.748
 2712TIP3    H2 8098   3.743   2.809   2.706
 2713TIP3   OH2 8099   3.923   2.858   2.726
 2713TIP3    H1 8100   3.943   2.765   2.713
 2713TIP3    H2 8101   3.974   2.883   2.802
 2714TIP3   OH2 8102   4.478   1.527   2.813
 2714TIP3    H1 8103   4.437   1.461   2.869
 2714TIP3    H2 8104   4.544   1.478   2.764
 2715TIP3   OH2 8105   4.979   1.392   2.678
 2715TIP3    H1 8106   5.024   1.446   2.613
 2715TIP3    H2 8107   4.899   1.440   2.699
 2716TIP3   OH2 8108   5.104   1.500   2.461
 2716TIP3    H1 8109   5.173   1.439   2.436
 2716TIP3    H2 8110   5.142   1.587   2.450
 2717TIP3   OH2 8111   3.728   1.203   2.815
 2717TIP3    H1 8112   3.640   1.167   2.821
 2717TIP3    H2 8113   3.786   1.126   2.816
 2718TIP3   OH2 8114   3.525   1.104   2.465
 2718TIP3    H1 8115   3.549   1.158   2.390
 2718TIP3    H2 8116   3.491   1.166   2.530
 2719TIP3   OH2 8117   4.104   1.298   2.631
 2719TIP3    H1 8118   4.183   1.348   2.651
 2719TIP3    H2 8119   4.123   1.209   2.659
 2720TIP3   OH2 8120   4.687   1.400   2.687
 2720TIP3    H1 8121   4.702   1.363   2.600
 2720TIP3    H2 8122   4.690   1.325   2.746
 2721TIP3   OH2 8123   4.639   1.191   2.352
 2721TIP3    H1 8124   4.610   1.279   2.326
 2721TIP3    H2 8125   4.730   1.203   2.379
 2722TIP3   OH2 8126   3.221   2.683   2.229
 2722TIP3    H1 8127   3.136   2.651   2.200
 2722TIP3    H2 8128   3.224   2.774   2.198
 2723TIP3   OH2 8129   3.622   1.250   2.245
 2723TIP3    H1 8130   3.667   1.198   2.179
 2723TIP3    H2 8131   3.688   1.312   2.277
 2724TIP3   OH2 8132   4.142   1.432   2.333
 2724TIP3    H1 8133   4.177   1.384   2.408
 2724TIP3    H2 8134   4.163   1.524   2.351
 2725TIP3   OH2 8135   4.018   2.840   1.821
 2725TIP3    H1 8136   4.101   2.868   1.784
 2725TIP3    H2 8137   3.989   2.768   1.764
 2726TIP3   OH2 8138   4.729   2.982   1.918
 2726TIP3    H1 8139   4.722   2.887   1.911
 2726TIP3    H2 8140   4.683   3.016   1.841
 2727TIP3   OH2 8141   3.948   1.495   3.692
 2727TIP3    H1 8142   3.911   1.429   3.751
 2727TIP3    H2 8143   4.040   1.500   3.715
 2728TIP3   OH2 8144   4.199   1.493   3.809
 2728TIP3    H1 8145   4.277   1.485   3.755
 2728TIP3    H2 8146   4.203   1.418   3.868
 2729TIP3   OH2 8147   3.319   2.681   1.877
 2729TIP3    H1 8148   3.320   2.697   1.971
 2729TIP3    H2 8149   3.401   2.636   1.859
 2730TIP3   OH2 8150   5.022   1.587   3.600
 2730TIP3    H1 8151   5.039   1.561   3.691
 2730TIP3    H2 8152   5.108   1.582   3.558
 2731TIP3   OH2 8153   4.945   3.142   3.106
 2731TIP3    H1 8154   4.867   3.116   3.057
 2731TIP3    H2 8155   4.935   3.236   3.119
 2732TIP3   OH2 8156   6.217   2.511   1.853
 2732TIP3    H1 8157   6.187   2.597   1.826
 2732TIP3    H2 8158   6.143   2.452   1.835
 2733TIP3   OH2 8159   6.214   2.496   2.271
 2733TIP3    H1 8160   6.262   2.479   2.352
 2733TIP3    H2 8161   6.168   2.413   2.253
 2734TIP3   OH2 8162   5.510   2.369   2.624
 2734TIP3    H1 8163   5.544   2.310   2.691
 2734TIP3    H2 8164   5.588   2.415   2.592
 2735TIP3   OH2 8165   6.482   2.801   1.946
 2735TIP3    H1 8166   6.464   2.737   2.016
 2735TIP3    H2 8167   6.501   2.882   1.992
 2736TIP3   OH2 8168   5.506   2.787   2.309
 2736TIP3    H1 8169   5.488   2.694   2.321
 2736TIP3    H2 8170   5.601   2.793   2.303
 2737TIP3   OH2 8171   5.191   1.992   2.098
 2737TIP3    H1 8172   5.153   2.076   2.122
 2737TIP3    H2 8173   5.120   1.945   2.055
 2738TIP3   OH2 8174   5.266   2.300   2.307
 2738TIP3    H1 8175   5.316   2.224   2.335
 2738TIP3    H2 8176   5.333   2.364   2.281
 2739TIP3   OH2 8177   6.131   3.246   1.953
 2739TIP3    H1 8178   6.164   3.178   1.894
 2739TIP3    H2 8179   6.115   3.201   2.035
 2740TIP3   OH2 8180   6.021   2.720   2.279
 2740TIP3    H1 8181   6.063   2.640   2.249
 2740TIP3    H2 8182   6.093   2.775   2.311
 2741TIP3   OH2 8183   7.010   2.046   2.299
 2741TIP3    H1 8184   7.038   2.129   2.339
 2741TIP3    H2 8185   7.003   2.065   2.206
 2742TIP3   OH2 8186   6.432   2.211   2.319
 2742TIP3    H1 8187   6.466   2.126   2.347
 2742TIP3    H2 8188   6.392   2.194   2.233
 2743TIP3   OH2 8189   5.783   1.870   2.275
 2743TIP3    H1 8190   5.761   1.943   2.218
 2743TIP3    H2 8191   5.727   1.798   2.245
 2744TIP3   OH2 8192   6.464   1.960   1.923
 2744TIP3    H1 8193   6.528   1.955   1.994
 2744TIP3    H2 8194   6.511   2.002   1.851
 2745TIP3   OH2 8195   5.406   2.082   2.404
 2745TIP3    H1 8196   5.489   2.066   2.449
 2745TIP3    H2 8197   5.412   2.030   2.323
 2746TIP3   OH2 8198   5.835   2.282   2.207
 2746TIP3    H1 8199   5.928   2.263   2.217
 2746TIP3    H2 8200   5.798   2.200   2.175
 2747TIP3   OH2 8201   7.079   2.278   2.426
 2747TIP3    H1 8202   6.991   2.312   2.444
 2747TIP3    H2 8203   7.126   2.289   2.509
 2748TIP3   OH2 8204   5.763   1.870   2.727
 2748TIP3    H1 8205   5.712   1.905   2.655
 2748TIP3    H2 8206   5.709   1.884   2.805
 2749TIP3   OH2 8207   6.116   2.726   1.710
 2749TIP3    H1 8208   6.075   2.697   1.629
 2749TIP3    H2 8209   6.063   2.800   1.740
 2750TIP3   OH2 8210   5.863   2.647   2.495
 2750TIP3    H1 8211   5.806   2.716   2.530
 2750TIP3    H2 8212   5.909   2.689   2.422
 2751TIP3   OH2 8213   6.635   1.994   2.130
 2751TIP3    H1 8214   6.597   1.969   2.215
 2751TIP3    H2 8215   6.688   2.071   2.150
 2752TIP3   OH2 8216   5.652   1.978   2.498
 2752TIP3    H1 8217   5.706   2.053   2.521
 2752TIP3    H2 8218   5.699   1.936   2.426
 2753TIP3   OH2 8219   5.701   2.846   2.599
 2753TIP3    H1 8220   5.686   2.935   2.568
 2753TIP3    H2 8221   5.624   2.825   2.652
 2754TIP3   OH2 8222   5.079   2.547   1.850
 2754TIP3    H1 8223   5.041   2.566   1.765
 2754TIP3    H2 8224   5.102   2.633   1.886
 2755TIP3   OH2 8225   6.520   3.049   2.082
 2755TIP3    H1 8226   6.435   3.039   2.126
 2755TIP3    H2 8227   6.513   3.133   2.036
 2756TIP3   OH2 8228   6.813   1.929   2.463
 2756TIP3    H1 8229   6.728   1.954   2.428
 2756TIP3    H2 8230   6.876   1.961   2.398
 2757TIP3   OH2 8231   6.105   1.564   2.453
 2757TIP3    H1 8232   6.097   1.472   2.479
 2757TIP3    H2 8233   6.029   1.607   2.493
 2758TIP3   OH2 8234   6.229   3.085   1.746
 2758TIP3    H1 8235   6.280   3.005   1.735
 2758TIP3    H2 8236   6.287   3.155   1.717
 2759TIP3   OH2 8237   6.365   2.852   1.700
 2759TIP3    H1 8238   6.289   2.794   1.699
 2759TIP3    H2 8239   6.414   2.827   1.778
 2760TIP3   OH2 8240   6.743   2.946   2.424
 2760TIP3    H1 8241   6.724   2.869   2.369
 2760TIP3    H2 8242   6.726   3.021   2.367
 2761TIP3   OH2 8243   6.035   2.349   1.716
 2761TIP3    H1 8244   5.953   2.394   1.694
 2761TIP3    H2 8245   6.084   2.348   1.634
 2762TIP3   OH2 8246   5.994   2.160   1.417
 2762TIP3    H1 8247   6.059   2.206   1.470
 2762TIP3    H2 8248   6.044   2.096   1.367
 2763TIP3   OH2 8249   6.934   2.612   2.287
 2763TIP3    H1 8250   6.848   2.654   2.286
 2763TIP3    H2 8251   6.964   2.616   2.196
 2764TIP3   OH2 8252   6.403   2.435   1.670
 2764TIP3    H1 8253   6.349   2.467   1.742
 2764TIP3    H2 8254   6.485   2.409   1.713
 2765TIP3   OH2 8255   6.621   2.470   2.606
 2765TIP3    H1 8256   6.619   2.551   2.657
 2765TIP3    H2 8257   6.536   2.468   2.561
 2766TIP3   OH2 8258   5.629   2.416   2.072
 2766TIP3    H1 8259   5.591   2.357   2.007
 2766TIP3    H2 8260   5.703   2.368   2.108
 2767TIP3   OH2 8261   5.767   2.839   2.209
 2767TIP3    H1 8262   5.743   2.821   2.118
 2767TIP3    H2 8263   5.854   2.800   2.219
 2768TIP3   OH2 8264   5.740   2.408   2.438
 2768TIP3    H1 8265   5.778   2.374   2.357
 2768TIP3    H2 8266   5.788   2.489   2.454
 2769TIP3   OH2 8267   6.291   3.040   2.224
 2769TIP3    H1 8268   6.272   3.121   2.271
 2769TIP3    H2 8269   6.272   2.971   2.287
 2770TIP3   OH2 8270   5.900   2.946   2.764
 2770TIP3    H1 8271   5.841   3.005   2.812
 2770TIP3    H2 8272   5.842   2.894   2.708
 2771TIP3   OH2 8273   6.224   2.296   1.519
 2771TIP3    H1 8274   6.285   2.354   1.564
 2771TIP3    H2 8275   6.254   2.297   1.427
 2772TIP3   OH2 8276   5.656   2.496   2.894
 2772TIP3    H1 8277   5.661   2.588   2.920
 2772TIP3    H2 8278   5.562   2.477   2.892
 2773TIP3   OH2 8279   5.981   2.963   1.758
 2773TIP3    H1 8280   6.061   3.015   1.761
 2773TIP3    H2 8281   5.918   3.018   1.711
 2774TIP3   OH2 8282   5.692   3.105   2.853
 2774TIP3    H1 8283   5.662   3.115   2.762
 2774TIP3    H2 8284   5.613   3.084   2.902
 2775TIP3   OH2 8285   6.728   1.551   1.572
 2775TIP3    H1 8286   6.655   1.557   1.634
 2775TIP3    H2 8287   6.756   1.642   1.560
 2776TIP3   OH2 8288   5.501   2.261   1.870
 2776TIP3    H1 8289   5.425   2.310   1.837
 2776TIP3    H2 8290   5.466   2.174   1.889
 2777TIP3   OH2 8291   6.546   2.894   1.106
 2777TIP3    H1 8292   6.535   2.986   1.083
 2777TIP3    H2 8293   6.640   2.878   1.097
 2778TIP3   OH2 8294   5.282   2.659   2.801
 2778TIP3    H1 8295   5.212   2.644   2.737
 2778TIP3    H2 8296   5.316   2.572   2.821
 2779TIP3   OH2 8297   5.124   2.863   2.451
 2779TIP3    H1 8298   5.215   2.886   2.470
 2779TIP3    H2 8299   5.074   2.940   2.478
 2780TIP3   OH2 8300   6.963   3.308   2.485
 2780TIP3    H1 8301   6.971   3.212   2.488
 2780TIP3    H2 8302   6.885   3.327   2.536
 2781TIP3   OH2 8303   6.089   3.085   2.623
 2781TIP3    H1 8304   6.084   3.176   2.652
 2781TIP3    H2 8305   6.021   3.040   2.672
 2782TIP3   OH2 8306   5.870   3.197   1.578
 2782TIP3    H1 8307   5.820   3.175   1.499
 2782TIP3    H2 8308   5.832   3.279   1.608
 2783TIP3   OH2 8309   5.303   3.044   1.956
 2783TIP3    H1 8310   5.346   3.037   2.042
 2783TIP3    H2 8311   5.252   2.964   1.949
 2784TIP3   OH2 8312   6.069   3.125   1.210
 2784TIP3    H1 8313   6.117   3.050   1.174
 2784TIP3    H2 8314   6.103   3.136   1.299
 2785TIP3   OH2 8315   6.123   3.164   1.480
 2785TIP3    H1 8316   6.036   3.170   1.519
 2785TIP3    H2 8317   6.178   3.128   1.550
 2786TIP3   OH2 8318   6.882   2.426   2.750
 2786TIP3    H1 8319   6.793   2.431   2.714
 2786TIP3    H2 8320   6.899   2.333   2.760
 2787TIP3   OH2 8321   5.482   2.846   2.766
 2787TIP3    H1 8322   5.525   2.845   2.851
 2787TIP3    H2 8323   5.410   2.783   2.774
 2788TIP3   OH2 8324   5.870   1.657   2.579
 2788TIP3    H1 8325   5.785   1.624   2.548
 2788TIP3    H2 8326   5.848   1.737   2.628
 2789TIP3   OH2 8327   6.413   1.772   2.778
 2789TIP3    H1 8328   6.483   1.747   2.839
 2789TIP3    H2 8329   6.332   1.756   2.827
 2790TIP3   OH2 8330   6.637   2.206   2.696
 2790TIP3    H1 8331   6.592   2.199   2.780
 2790TIP3    H2 8332   6.616   2.293   2.664
 2791TIP3   OH2 8333   6.318   2.272   1.267
 2791TIP3    H1 8334   6.268   2.286   1.186
 2791TIP3    H2 8335   6.394   2.328   1.258
 2792TIP3   OH2 8336   6.028   1.692   1.552
 2792TIP3    H1 8337   5.990   1.699   1.640
 2792TIP3    H2 8338   5.986   1.615   1.514
 2793TIP3   OH2 8339   5.806   2.187   2.590
 2793TIP3    H1 8340   5.759   2.196   2.673
 2793TIP3    H2 8341   5.785   2.267   2.542
 2794TIP3   OH2 8342   5.690   2.066   2.108
 2794TIP3    H1 8343   5.601   2.044   2.134
 2794TIP3    H2 8344   5.699   2.030   2.019
 2795TIP3   OH2 8345   6.167   2.145   1.844
 2795TIP3    H1 8346   6.117   2.217   1.805
 2795TIP3    H2 8347   6.222   2.113   1.773
 2796TIP3   OH2 8348   6.356   2.411   2.913
 2796TIP3    H1 8349   6.328   2.344   2.975
 2796TIP3    H2 8350   6.447   2.428   2.934
 2797TIP3   OH2 8351   6.331   2.159   2.069
 2797TIP3    H1 8352   6.263   2.183   2.005
 2797TIP3    H2 8353   6.374   2.082   2.031
 2798TIP3   OH2 8354   5.640   2.200   2.810
 2798TIP3    H1 8355   5.650   2.265   2.879
 2798TIP3    H2 8356   5.622   2.118   2.856
 2799TIP3   OH2 8357   5.691   1.685   1.521
 2799TIP3    H1 8358   5.678   1.685   1.616
 2799TIP3    H2 8359   5.612   1.727   1.487
 2800TIP3   OH2 8360   5.238   1.721   2.386
 2800TIP3    H1 8361   5.303   1.759   2.444
 2800TIP3    H2 8362   5.282   1.712   2.302
 2801TIP3   OH2 8363   5.145   1.702   1.891
 2801TIP3    H1 8364   5.190   1.736   1.814
 2801TIP3    H2 8365   5.084   1.771   1.917
 2802TIP3   OH2 8366   6.369   2.411   2.490
 2802TIP3    H1 8367   6.398   2.345   2.428
 2802TIP3    H2 8368   6.328   2.362   2.561
 2803TIP3   OH2 8369   6.048   1.861   2.164
 2803TIP3    H1 8370   5.969   1.862   2.218
 2803TIP3    H2 8371   6.120   1.853   2.226
 2804TIP3   OH2 8372   5.452   1.942   2.171
 2804TIP3    H1 8373   5.363   1.947   2.136
 2804TIP3    H2 8374   5.480   1.852   2.153
 2805TIP3   OH2 8375   5.704   1.938   1.865
 2805TIP3    H1 8376   5.798   1.952   1.851
 2805TIP3    H2 8377   5.663   1.957   1.781
 2806TIP3   OH2 8378   6.505   1.945   2.372
 2806TIP3    H1 8379   6.486   1.963   2.464
 2806TIP3    H2 8380   6.436   1.886   2.343
 2807TIP3   OH2 8381   5.578   1.963   1.624
 2807TIP3    H1 8382   5.514   1.914   1.573
 2807TIP3    H2 8383   5.629   2.011   1.559
 2808TIP3   OH2 8384   6.687   3.652   2.587
 2808TIP3    H1 8385   6.685   3.665   2.492
 2808TIP3    H2 8386   6.745   3.721   2.619
 2809TIP3   OH2 8387   5.645   2.753   3.007
 2809TIP3    H1 8388   5.724   2.778   3.055
 2809TIP3    H2 8389   5.574   2.767   3.069
 2810TIP3   OH2 8390   6.103   2.225   2.270
 2810TIP3    H1 8391   6.171   2.175   2.225
 2810TIP3    H2 8392   6.099   2.187   2.358
 2811TIP3   OH2 8393   5.596   1.694   2.157
 2811TIP3    H1 8394   5.566   1.618   2.208
 2811TIP3    H2 8395   5.622   1.657   2.072
 2812TIP3   OH2 8396   6.074   2.132   2.536
 2812TIP3    H1 8397   5.987   2.163   2.559
 2812TIP3    H2 8398   6.133   2.185   2.591
 2813TIP3   OH2 8399   5.805   2.489   1.647
 2813TIP3    H1 8400   5.731   2.432   1.625
 2813TIP3    H2 8401   5.781   2.528   1.731
 2814TIP3   OH2 8402   6.691   2.736   2.253
 2814TIP3    H1 8403   6.721   2.788   2.178
 2814TIP3    H2 8404   6.610   2.695   2.223
 2815TIP3   OH2 8405   6.272   1.810   1.532
 2815TIP3    H1 8406   6.179   1.787   1.539
 2815TIP3    H2 8407   6.275   1.903   1.556
 2816TIP3   OH2 8408   6.216   2.821   2.662
 2816TIP3    H1 8409   6.258   2.810   2.748
 2816TIP3    H2 8410   6.171   2.905   2.669
 2817TIP3   OH2 8411   6.330   2.063   1.630
 2817TIP3    H1 8412   6.424   2.070   1.647
 2817TIP3    H2 8413   6.307   2.143   1.583
 2818TIP3   OH2 8414   5.501   2.495   2.306
 2818TIP3    H1 8415   5.539   2.480   2.219
 2818TIP3    H2 8416   5.567   2.462   2.367
 2819TIP3   OH2 8417   5.960   2.648   1.489
 2819TIP3    H1 8418   5.914   2.732   1.487
 2819TIP3    H2 8419   5.905   2.591   1.541
 2820TIP3   OH2 8420   5.386   2.427   2.929
 2820TIP3    H1 8421   5.390   2.407   3.023
 2820TIP3    H2 8422   5.310   2.377   2.898
 2821TIP3   OH2 8423   6.119   2.563   2.951
 2821TIP3    H1 8424   6.051   2.503   2.923
 2821TIP3    H2 8425   6.201   2.522   2.923
 2822TIP3   OH2 8426   6.361   3.104   2.545
 2822TIP3    H1 8427   6.266   3.090   2.552
 2822TIP3    H2 8428   6.386   3.143   2.629
 2823TIP3   OH2 8429   6.717   2.138   1.476
 2823TIP3    H1 8430   6.675   2.088   1.406
 2823TIP3    H2 8431   6.726   2.227   1.440
 2824TIP3   OH2 8432   6.988   3.032   2.505
 2824TIP3    H1 8433   6.895   3.010   2.503
 2824TIP3    H2 8434   7.022   2.997   2.423
 2825TIP3   OH2 8435   6.489   2.967   1.375
 2825TIP3    H1 8436   6.457   2.901   1.437
 2825TIP3    H2 8437   6.499   2.921   1.293
 2826TIP3   OH2 8438   6.461   2.606   2.157
 2826TIP3    H1 8439   6.371   2.584   2.182
 2826TIP3    H2 8440   6.496   2.525   2.119
 2827TIP3   OH2 8441   5.618   2.838   1.963
 2827TIP3    H1 8442   5.613   2.914   1.905
 2827TIP3    H2 8443   5.530   2.830   1.999
 2828TIP3   OH2 8444   5.186   2.126   1.674
 2828TIP3    H1 8445   5.227   2.210   1.694
 2828TIP3    H2 8446   5.104   2.127   1.725
 2829TIP3   OH2 8447   5.718   2.596   1.879
 2829TIP3    H1 8448   5.693   2.685   1.904
 2829TIP3    H2 8449   5.689   2.541   1.951
 2830TIP3   OH2 8450   5.902   3.164   2.419
 2830TIP3    H1 8451   5.938   3.237   2.369
 2830TIP3    H2 8452   5.976   3.130   2.470
 2831TIP3   OH2 8453   5.536   3.063   1.810
 2831TIP3    H1 8454   5.449   3.068   1.850
 2831TIP3    H2 8455   5.570   3.153   1.815
 2832TIP3   OH2 8456   6.258   2.817   2.391
 2832TIP3    H1 8457   6.245   2.815   2.486
 2832TIP3    H2 8458   6.335   2.761   2.376
 2833TIP3   OH2 8459   6.231   2.718   1.283
 2833TIP3    H1 8460   6.284   2.683   1.355
 2833TIP3    H2 8461   6.144   2.680   1.298
 2834TIP3   OH2 8462   6.508   3.325   2.430
 2834TIP3    H1 8463   6.437   3.262   2.444
 2834TIP3    H2 8464   6.477   3.381   2.358
 2835TIP3   OH2 8465   6.555   3.169   1.064
 2835TIP3    H1 8466   6.563   3.224   0.986
 2835TIP3    H2 8467   6.490   3.214   1.118
 2836TIP3   OH2 8468   5.592   1.947   2.934
 2836TIP3    H1 8469   5.497   1.955   2.941
 2836TIP3    H2 8470   5.617   1.899   3.013
 2837TIP3   OH2 8471   6.417   2.605   1.450
 2837TIP3    H1 8472   6.405   2.556   1.531
 2837TIP3    H2 8473   6.511   2.625   1.448
 2838TIP3   OH2 8474   5.331   3.049   2.575
 2838TIP3    H1 8475   5.384   2.991   2.630
 2838TIP3    H2 8476   5.339   3.135   2.617
 2839TIP3   OH2 8477   5.607   2.670   1.269
 2839TIP3    H1 8478   5.615   2.578   1.243
 2839TIP3    H2 8479   5.586   2.666   1.363
 2840TIP3   OH2 8480   5.544   2.686   1.539
 2840TIP3    H1 8481   5.607   2.658   1.605
 2840TIP3    H2 8482   5.542   2.782   1.546
 2841TIP3   OH2 8483   5.278   2.379   1.753
 2841TIP3    H1 8484   5.212   2.424   1.805
 2841TIP3    H2 8485   5.295   2.438   1.680
 2842TIP3   OH2 8486   6.448   2.004   2.631
 2842TIP3    H1 8487   6.523   2.051   2.669
 2842TIP3    H2 8488   6.436   1.928   2.688
 2843TIP3   OH2 8489   6.319   1.753   1.810
 2843TIP3    H1 8490   6.304   1.776   1.719
 2843TIP3    H2 8491   6.360   1.831   1.848
 2844TIP3   OH2 8492   5.818   2.878   1.486
 2844TIP3    H1 8493   5.731   2.899   1.522
 2844TIP3    H2 8494   5.837   2.951   1.427
 2845TIP3   OH2 8495   5.985   1.948   1.907
 2845TIP3    H1 8496   6.046   2.019   1.884
 2845TIP3    H2 8497   6.003   1.930   1.999
 2846TIP3   OH2 8498   6.281   2.246   2.691
 2846TIP3    H1 8499   6.304   2.293   2.771
 2846TIP3    H2 8500   6.330   2.164   2.696
 2847TIP3   OH2 8501   6.143   1.653   2.000
 2847TIP3    H1 8502   6.120   1.730   2.052
 2847TIP3    H2 8503   6.207   1.685   1.937
 2848TIP3   OH2 8504   5.564   2.958   1.558
 2848TIP3    H1 8505   5.541   3.028   1.497
 2848TIP3    H2 8506   5.551   2.996   1.645
 2849TIP3   OH2 8507   5.659   1.667   1.799
 2849TIP3    H1 8508   5.647   1.757   1.829
 2849TIP3    H2 8509   5.753   1.651   1.806
 2850TIP3   OH2 8510   6.900   2.141   2.668
 2850TIP3    H1 8511   6.807   2.160   2.681
 2850TIP3    H2 8512   6.902   2.068   2.607
 2851TIP3   OH2 8513   6.550   2.352   2.067
 2851TIP3    H1 8514   6.472   2.297   2.079
 2851TIP3    H2 8515   6.617   2.312   2.123
 2852TIP3   OH2 8516   5.294   2.558   1.538
 2852TIP3    H1 8517   5.363   2.624   1.546
 2852TIP3    H2 8518   5.328   2.496   1.474
 2853TIP3   OH2 8519   5.212   1.848   1.670
 2853TIP3    H1 8520   5.222   1.943   1.678
 2853TIP3    H2 8521   5.150   1.837   1.597
 2854TIP3   OH2 8522   6.530   3.317   2.004
 2854TIP3    H1 8523   6.486   3.368   1.935
 2854TIP3    H2 8524   6.623   3.329   1.987
 2855TIP3   OH2 8525   5.609   1.570   2.540
 2855TIP3    H1 8526   5.578   1.537   2.455
 2855TIP3    H2 8527   5.599   1.496   2.599
 2856TIP3   OH2 8528   5.130   2.818   1.932
 2856TIP3    H1 8529   5.084   2.854   2.008
 2856TIP3    H2 8530   5.089   2.860   1.857
 2857TIP3   OH2 8531   5.330   3.351   2.963
 2857TIP3    H1 8532   5.404   3.358   3.024
 2857TIP3    H2 8533   5.281   3.275   2.994
 2858TIP3   OH2 8534   5.796   3.274   3.045
 2858TIP3    H1 8535   5.887   3.248   3.053
 2858TIP3    H2 8536   5.761   3.219   2.975
 2859TIP3   OH2 8537   5.764   2.868   1.163
 2859TIP3    H1 8538   5.715   2.799   1.206
 2859TIP3    H2 8539   5.837   2.823   1.120
 2860TIP3   OH2 8540   6.422   3.210   2.790
 2860TIP3    H1 8541   6.430   3.141   2.855
 2860TIP3    H2 8542   6.495   3.270   2.808
 2861TIP3   OH2 8543   6.194   2.913   1.092
 2861TIP3    H1 8544   6.225   2.851   1.158
 2861TIP3    H2 8545   6.257   2.906   1.021
 2862TIP3   OH2 8546   5.435   2.757   3.193
 2862TIP3    H1 8547   5.453   2.663   3.202
 2862TIP3    H2 8548   5.349   2.761   3.153
 2863TIP3   OH2 8549   5.425   2.369   1.391
 2863TIP3    H1 8550   5.476   2.347   1.469
 2863TIP3    H2 8551   5.491   2.382   1.323
 2864TIP3   OH2 8552   6.054   2.841   2.968
 2864TIP3    H1 8553   6.006   2.861   2.888
 2864TIP3    H2 8554   6.085   2.751   2.955
 2865TIP3   OH2 8555   5.973   2.592   1.220
 2865TIP3    H1 8556   5.953   2.605   1.313
 2865TIP3    H2 8557   5.959   2.498   1.206
 2866TIP3   OH2 8558   6.529   2.876   2.585
 2866TIP3    H1 8559   6.603   2.909   2.534
 2866TIP3    H2 8560   6.460   2.941   2.571
 2867TIP3   OH2 8561   5.551   2.498   3.196
 2867TIP3    H1 8562   5.630   2.481   3.144
 2867TIP3    H2 8563   5.584   2.520   3.283
 2868TIP3   OH2 8564   5.598   2.310   1.605
 2868TIP3    H1 8565   5.575   2.280   1.693
 2868TIP3    H2 8566   5.640   2.234   1.564
 2869TIP3   OH2 8567   5.912   2.386   2.853
 2869TIP3    H1 8568   5.827   2.428   2.861
 2869TIP3    H2 8569   5.945   2.413   2.768
 2870TIP3   OH2 8570   5.723   2.117   1.450
 2870TIP3    H1 8571   5.695   2.121   1.358
 2870TIP3    H2 8572   5.818   2.129   1.447
 2871TIP3   OH2 8573   6.411   2.763   2.947
 2871TIP3    H1 8574   6.483   2.725   2.897
 2871TIP3    H2 8575   6.404   2.708   3.026
 2872TIP3   OH2 8576   6.538   2.414   1.191
 2872TIP3    H1 8577   6.525   2.390   1.099
 2872TIP3    H2 8578   6.516   2.507   1.195
 2873TIP3   OH2 8579   6.016   2.156   2.962
 2873TIP3    H1 8580   6.018   2.084   2.899
 2873TIP3    H2 8581   5.980   2.230   2.914
 2874TIP3   OH2 8582   6.024   1.953   2.761
 2874TIP3    H1 8583   6.049   1.992   2.678
 2874TIP3    H2 8584   5.932   1.927   2.749
 2875TIP3   OH2 8585   6.034   2.480   2.629
 2875TIP3    H1 8586   6.122   2.515   2.616
 2875TIP3    H2 8587   5.977   2.542   2.584
 2876TIP3   OH2 8588   6.625   2.441   3.017
 2876TIP3    H1 8589   6.664   2.355   3.034
 2876TIP3    H2 8590   6.700   2.500   3.006
 2877TIP3   OH2 8591   6.659   2.707   2.753
 2877TIP3    H1 8592   6.604   2.767   2.703
 2877TIP3    H2 8593   6.747   2.720   2.717
 2878TIP3   OH2 8594   5.899   2.243   3.205
 2878TIP3    H1 8595   5.829   2.182   3.225
 2878TIP3    H2 8596   5.927   2.218   3.117
 2879TIP3   OH2 8597   6.146   1.718   2.857
 2879TIP3    H1 8598   6.105   1.799   2.826
 2879TIP3    H2 8599   6.079   1.651   2.846
 2880TIP3   OH2 8600   6.271   2.198   3.064
 2880TIP3    H1 8601   6.262   2.186   3.158
 2880TIP3    H2 8602   6.185   2.177   3.028
 2881TIP3   OH2 8603   6.509   2.147   2.925
 2881TIP3    H1 8604   6.431   2.150   2.982
 2881TIP3    H2 8605   6.580   2.123   2.984
 2882TIP3   OH2 8606   6.737   2.107   3.079
 2882TIP3    H1 8607   6.753   2.013   3.089
 2882TIP3    H2 8608   6.737   2.142   3.168
 2883TIP3   OH2 8609   5.733   2.022   3.267
 2883TIP3    H1 8610   5.738   1.933   3.233
 2883TIP3    H2 8611   5.770   2.017   3.355
 2884TIP3   OH2 8612   6.217   1.703   3.122
 2884TIP3    H1 8613   6.286   1.636   3.116
 2884TIP3    H2 8614   6.185   1.712   3.033
 2885TIP3   OH2 8615   6.306   1.919   3.268
 2885TIP3    H1 8616   6.277   1.847   3.212
 2885TIP3    H2 8617   6.233   1.981   3.268
 2886TIP3   OH2 8618   5.555   3.165   1.373
 2886TIP3    H1 8619   5.645   3.146   1.346
 2886TIP3    H2 8620   5.517   3.211   1.299
 2887TIP3   OH2 8621   5.021   2.546   1.559
 2887TIP3    H1 8622   5.115   2.559   1.554
 2887TIP3    H2 8623   5.007   2.459   1.520
 2888TIP3   OH2 8624   4.933   3.137   2.013
 2888TIP3    H1 8625   4.868   3.084   1.968
 2888TIP3    H2 8626   4.977   3.077   2.073
 2889TIP3   OH2 8627   5.075   2.970   2.183
 2889TIP3    H1 8628   5.064   2.904   2.251
 2889TIP3    H2 8629   5.125   3.040   2.225
 2890TIP3   OH2 8630   6.798   3.367   1.987
 2890TIP3    H1 8631   6.824   3.399   2.073
 2890TIP3    H2 8632   6.855   3.415   1.926
 2891TIP3   OH2 8633   6.825   3.406   2.262
 2891TIP3    H1 8634   6.769   3.329   2.254
 2891TIP3    H2 8635   6.890   3.382   2.328
 2892TIP3   OH2 8636   6.880   3.097   2.844
 2892TIP3    H1 8637   6.805   3.101   2.903
 2892TIP3    H2 8638   6.912   3.187   2.841
 2893TIP3   OH2 8639   6.693   2.636   1.464
 2893TIP3    H1 8640   6.754   2.702   1.431
 2893TIP3    H2 8641   6.732   2.604   1.545
 2894TIP3   OH2 8642   6.808   2.481   1.660
 2894TIP3    H1 8643   6.743   2.435   1.714
 2894TIP3    H2 8644   6.870   2.517   1.724
 2895TIP3   OH2 8645   6.863   2.883   2.091
 2895TIP3    H1 8646   6.912   2.815   2.046
 2895TIP3    H2 8647   6.865   2.958   2.031
 2896TIP3   OH2 8648   6.681   3.170   2.274
 2896TIP3    H1 8649   6.613   3.210   2.328
 2896TIP3    H2 8650   6.633   3.127   2.203
 2897TIP3   OH2 8651   6.741   2.383   1.360
 2897TIP3    H1 8652   6.668   2.394   1.300
 2897TIP3    H2 8653   6.739   2.462   1.414
 2898TIP3   OH2 8654   6.625   2.333   1.804
 2898TIP3    H1 8655   6.627   2.237   1.796
 2898TIP3    H2 8656   6.604   2.348   1.896
 2899TIP3   OH2 8657   5.247   2.400   2.561
 2899TIP3    H1 8658   5.239   2.369   2.471
 2899TIP3    H2 8659   5.341   2.399   2.579
 2900TIP3   OH2 8660   6.914   2.754   2.650
 2900TIP3    H1 8661   6.980   2.685   2.639
 2900TIP3    H2 8662   6.929   2.814   2.577
 2901TIP3   OH2 8663   7.102   2.551   2.653
 2901TIP3    H1 8664   7.026   2.506   2.689
 2901TIP3    H2 8665   7.176   2.495   2.677
 2902TIP3   OH2 8666   6.610   2.056   1.710
 2902TIP3    H1 8667   6.651   1.970   1.718
 2902TIP3    H2 8668   6.651   2.095   1.632
 2903TIP3   OH2 8669   6.763   2.230   2.201
 2903TIP3    H1 8670   6.845   2.249   2.154
 2903TIP3    H2 8671   6.774   2.272   2.286
 2904TIP3   OH2 8672   6.824   2.390   2.422
 2904TIP3    H1 8673   6.755   2.419   2.481
 2904TIP3    H2 8674   6.859   2.470   2.383
 2905TIP3   OH2 8675   5.469   2.080   3.207
 2905TIP3    H1 8676   5.563   2.079   3.225
 2905TIP3    H2 8677   5.435   2.000   3.247
 2906TIP3   OH2 8678   7.300   1.981   2.965
 2906TIP3    H1 8679   7.370   1.926   2.931
 2906TIP3    H2 8680   7.261   2.021   2.888
 2907TIP3   OH2 8681   6.721   1.804   1.742
 2907TIP3    H1 8682   6.768   1.802   1.825
 2907TIP3    H2 8683   6.654   1.736   1.751
 2908TIP3   OH2 8684   5.442   1.793   2.559
 2908TIP3    H1 8685   5.497   1.715   2.565
 2908TIP3    H2 8686   5.503   1.865   2.544
 2909TIP3   OH2 8687   5.224   2.055   2.619
 2909TIP3    H1 8688   5.277   2.051   2.540
 2909TIP3    H2 8689   5.243   2.140   2.657
 2910TIP3   OH2 8690   7.166   2.095   2.757
 2910TIP3    H1 8691   7.073   2.119   2.761
 2910TIP3    H2 8692   7.176   2.052   2.673
 2911TIP3   OH2 8693   6.685   1.818   1.362
 2911TIP3    H1 8694   6.649   1.731   1.346
 2911TIP3    H2 8695   6.778   1.810   1.340
 2912TIP3   OH2 8696   5.224   1.566   2.114
 2912TIP3    H1 8697   5.141   1.566   2.163
 2912TIP3    H2 8698   5.206   1.621   2.038
 2913TIP3   OH2 8699   6.379   3.279   1.639
 2913TIP3    H1 8700   6.431   3.270   1.559
 2913TIP3    H2 8701   6.417   3.355   1.684
 2914TIP3   OH2 8702   5.433   1.622   2.940
 2914TIP3    H1 8703   5.386   1.620   3.023
 2914TIP3    H2 8704   5.377   1.673   2.882
 2915TIP3   OH2 8705   5.474   3.050   3.017
 2915TIP3    H1 8706   5.380   3.055   3.002
 2915TIP3    H2 8707   5.484   3.055   3.112
 2916TIP3   OH2 8708   5.674   3.121   2.567
 2916TIP3    H1 8709   5.619   3.193   2.537
 2916TIP3    H2 8710   5.758   3.133   2.523
 2917TIP3   OH2 8711   6.081   3.351   2.701
 2917TIP3    H1 8712   6.117   3.345   2.789
 2917TIP3    H2 8713   6.143   3.406   2.653
 2918TIP3   OH2 8714   6.267   3.510   2.574
 2918TIP3    H1 8715   6.332   3.456   2.528
 2918TIP3    H2 8716   6.319   3.566   2.631
 2919TIP3   OH2 8717   7.016   1.824   2.687
 2919TIP3    H1 8718   6.928   1.804   2.657
 2919TIP3    H2 8719   7.065   1.742   2.675
 2920TIP3   OH2 8720   5.333   3.357   2.609
 2920TIP3    H1 8721   5.243   3.376   2.583
 2920TIP3    H2 8722   5.350   3.416   2.682
 2921TIP3   OH2 8723   5.565   3.352   2.462
 2921TIP3    H1 8724   5.483   3.356   2.510
 2921TIP3    H2 8725   5.542   3.379   2.373
 2922TIP3   OH2 8726   5.984   3.371   2.251
 2922TIP3    H1 8727   5.910   3.381   2.191
 2922TIP3    H2 8728   5.993   3.457   2.293
 2923TIP3   OH2 8729   6.248   3.307   2.299
 2923TIP3    H1 8730   6.155   3.325   2.282
 2923TIP3    H2 8731   6.294   3.376   2.252
 2924TIP3   OH2 8732   6.453   3.488   2.206
 2924TIP3    H1 8733   6.445   3.573   2.163
 2924TIP3    H2 8734   6.477   3.428   2.135
 2925TIP3   OH2 8735   5.249   3.147   2.323
 2925TIP3    H1 8736   5.267   3.123   2.414
 2925TIP3    H2 8737   5.323   3.110   2.274
 2926TIP3   OH2 8738   5.452   3.026   2.188
 2926TIP3    H1 8739   5.462   2.943   2.235
 2926TIP3    H2 8740   5.538   3.067   2.194
 2927TIP3   OH2 8741   5.719   3.116   2.212
 2927TIP3    H1 8742   5.738   3.023   2.198
 2927TIP3    H2 8743   5.769   3.140   2.290
 2928TIP3   OH2 8744   6.278   1.770   2.300
 2928TIP3    H1 8745   6.238   1.698   2.350
 2928TIP3    H2 8746   6.346   1.727   2.247
 2929TIP3   OH2 8747   6.775   1.672   2.188
 2929TIP3    H1 8748   6.811   1.733   2.123
 2929TIP3    H2 8749   6.682   1.696   2.194
 2930TIP3   OH2 8750   6.879   1.795   1.966
 2930TIP3    H1 8751   6.940   1.726   1.939
 2930TIP3    H2 8752   6.930   1.876   1.960
 2931TIP3   OH2 8753   5.520   1.466   2.299
 2931TIP3    H1 8754   5.431   1.434   2.306
 2931TIP3    H2 8755   5.574   1.388   2.292
 2932TIP3   OH2 8756   5.329   1.365   1.947
 2932TIP3    H1 8757   5.360   1.414   1.870
 2932TIP3    H2 8758   5.299   1.432   2.008
 2933TIP3   OH2 8759   5.994   1.507   2.193
 2933TIP3    H1 8760   6.040   1.558   2.127
 2933TIP3    H2 8761   6.031   1.535   2.276
 2934TIP3   OH2 8762   6.491   1.651   2.169
 2934TIP3    H1 8763   6.506   1.615   2.082
 2934TIP3    H2 8764   6.493   1.576   2.227
 2935TIP3   OH2 8765   6.538   1.593   1.760
 2935TIP3    H1 8766   6.456   1.639   1.776
 2935TIP3    H2 8767   6.527   1.508   1.802
 2936TIP3   OH2 8768   5.018   2.940   1.713
 2936TIP3    H1 8769   4.932   2.908   1.684
 2936TIP3    H2 8770   5.020   3.031   1.683
 2937TIP3   OH2 8771   5.442   1.503   1.721
 2937TIP3    H1 8772   5.484   1.442   1.660
 2937TIP3    H2 8773   5.512   1.559   1.752
 2938TIP3   OH2 8774   5.935   1.696   1.812
 2938TIP3    H1 8775   5.992   1.646   1.871
 2938TIP3    H2 8776   5.947   1.787   1.838
 2939TIP3   OH2 8777   5.813   3.095   1.307
 2939TIP3    H1 8778   5.896   3.125   1.270
 2939TIP3    H2 8779   5.786   3.023   1.250
 2940TIP3   OH2 8780   6.522   3.236   1.405
 2940TIP3    H1 8781   6.515   3.141   1.397
 2940TIP3    H2 8782   6.474   3.270   1.328
 2941TIP3   OH2 8783   5.743   1.749   3.181
 2941TIP3    H1 8784   5.707   1.683   3.240
 2941TIP3    H2 8785   5.835   1.756   3.207
 2942TIP3   OH2 8786   5.992   1.754   3.304
 2942TIP3    H1 8787   6.071   1.731   3.256
 2942TIP3    H2 8788   5.983   1.686   3.371
 2943TIP3   OH2 8789   5.114   2.938   1.364
 2943TIP3    H1 8790   5.114   2.952   1.458
 2943TIP3    H2 8791   5.196   2.893   1.346
 2944TIP3   OH2 8792   6.806   1.839   3.101
 2944TIP3    H1 8793   6.822   1.813   3.191
 2944TIP3    H2 8794   6.892   1.836   3.059
 2945TIP3   OH2 8795   6.727   3.380   2.592
 2945TIP3    H1 8796   6.650   3.349   2.545
 2945TIP3    H2 8797   6.712   3.474   2.604
 2946TIP3   OH2 8798   7.300   2.701   2.081
 2946TIP3    H1 8799   7.361   2.628   2.070
 2946TIP3    H2 8800   7.335   2.752   2.154
 2947TIP3   OH2 8801   7.286   3.079   1.865
 2947TIP3    H1 8802   7.265   2.987   1.855
 2947TIP3    H2 8803   7.346   3.083   1.939
 2948TIP3   OH2 8804   7.010   2.280   1.637
 2948TIP3    H1 8805   6.935   2.337   1.621
 2948TIP3    H2 8806   7.001   2.209   1.573
 2949TIP3   OH2 8807   7.046   2.561   1.785
 2949TIP3    H1 8808   7.087   2.479   1.812
 2949TIP3    H2 8809   7.087   2.582   1.701
 2950TIP3   OH2 8810   7.159   2.319   1.861
 2950TIP3    H1 8811   7.245   2.282   1.844
 2950TIP3    H2 8812   7.104   2.288   1.788
 2951TIP3   OH2 8813   6.878   2.813   1.354
 2951TIP3    H1 8814   6.841   2.836   1.268
 2951TIP3    H2 8815   6.900   2.898   1.393
 2952TIP3   OH2 8816   7.385   2.815   2.317
 2952TIP3    H1 8817   7.384   2.904   2.354
 2952TIP3    H2 8818   7.313   2.770   2.360
 2953TIP3   OH2 8819   7.447   3.341   2.365
 2953TIP3    H1 8820   7.433   3.318   2.274
 2953TIP3    H2 8821   7.360   3.336   2.405
 2954TIP3   OH2 8822   7.072   2.917   2.273
 2954TIP3    H1 8823   6.999   2.902   2.214
 2954TIP3    H2 8824   7.100   2.830   2.301
 2955TIP3   OH2 8825   6.914   3.116   1.944
 2955TIP3    H1 8826   7.002   3.146   1.964
 2955TIP3    H2 8827   6.857   3.189   1.967
 2956TIP3   OH2 8828   7.085   3.303   1.467
 2956TIP3    H1 8829   7.142   3.288   1.543
 2956TIP3    H2 8830   7.040   3.220   1.453
 2957TIP3   OH2 8831   7.233   3.138   2.249
 2957TIP3    H1 8832   7.300   3.116   2.313
 2957TIP3    H2 8833   7.174   3.063   2.248
 2958TIP3   OH2 8834   7.055   1.988   1.885
 2958TIP3    H1 8835   7.149   2.010   1.884
 2958TIP3    H2 8836   7.040   1.945   1.801
 2959TIP3   OH2 8837   6.975   2.061   1.455
 2959TIP3    H1 8838   6.977   2.091   1.365
 2959TIP3    H2 8839   6.884   2.072   1.483
 2960TIP3   OH2 8840   7.398   3.055   2.461
 2960TIP3    H1 8841   7.471   3.118   2.467
 2960TIP3    H2 8842   7.341   3.078   2.534
 2961TIP3   OH2 8843   7.162   2.689   2.421
 2961TIP3    H1 8844   7.169   2.643   2.505
 2961TIP3    H2 8845   7.090   2.645   2.376
 2962TIP3   OH2 8846   6.928   2.408   1.158
 2962TIP3    H1 8847   6.972   2.491   1.171
 2962TIP3    H2 8848   6.859   2.407   1.225
 2963TIP3   OH2 8849   7.283   3.395   1.295
 2963TIP3    H1 8850   7.210   3.357   1.345
 2963TIP3    H2 8851   7.329   3.449   1.359
 2964TIP3   OH2 8852   7.126   3.307   2.057
 2964TIP3    H1 8853   7.157   3.250   2.128
 2964TIP3    H2 8854   7.206   3.345   2.020
 2965TIP3   OH2 8855   7.041   2.651   1.194
 2965TIP3    H1 8856   6.996   2.695   1.266
 2965TIP3    H2 8857   7.085   2.722   1.147
 2966TIP3   OH2 8858   7.100   2.873   1.034
 2966TIP3    H1 8859   7.151   2.943   1.075
 2966TIP3    H2 8860   7.134   2.867   0.945
 2967TIP3   OH2 8861   6.972   2.137   1.201
 2967TIP3    H1 8862   6.958   2.230   1.186
 2967TIP3    H2 8863   7.019   2.107   1.123
 2968TIP3   OH2 8864   6.915   3.080   1.426
 2968TIP3    H1 8865   6.865   3.117   1.498
 2968TIP3    H2 8866   6.875   3.117   1.347
 2969TIP3   OH2 8867   7.077   3.567   2.487
 2969TIP3    H1 8868   7.154   3.526   2.525
 2969TIP3    H2 8869   7.013   3.496   2.480
 2970TIP3   OH2 8870   7.207   3.084   2.661
 2970TIP3    H1 8871   7.235   3.000   2.697
 2970TIP3    H2 8872   7.122   3.065   2.621
 2971TIP3   OH2 8873   7.414   2.604   2.662
 2971TIP3    H1 8874   7.490   2.628   2.609
 2971TIP3    H2 8875   7.368   2.686   2.677
 2972TIP3   OH2 8876   6.822   2.853   1.083
 2972TIP3    H1 8877   6.914   2.859   1.061
 2972TIP3    H2 8878   6.799   2.762   1.065
 2973TIP3   OH2 8879   6.723   3.391   1.501
 2973TIP3    H1 8880   6.658   3.339   1.454
 2973TIP3    H2 8881   6.764   3.329   1.561
 2974TIP3   OH2 8882   6.849   3.216   1.673
 2974TIP3    H1 8883   6.839   3.149   1.740
 2974TIP3    H2 8884   6.907   3.281   1.713
 2975TIP3   OH2 8885   7.032   2.673   2.033
 2975TIP3    H1 8886   7.025   2.635   1.946
 2975TIP3    H2 8887   7.126   2.686   2.047
 2976TIP3   OH2 8888   7.269   2.348   2.729
 2976TIP3    H1 8889   7.364   2.346   2.742
 2976TIP3    H2 8890   7.240   2.260   2.752
 2977TIP3   OH2 8891   7.012   2.293   2.103
 2977TIP3    H1 8892   7.058   2.301   2.020
 2977TIP3    H2 8893   7.067   2.340   2.166
 2978TIP3   OH2 8894   6.986   1.858   1.652
 2978TIP3    H1 8895   6.892   1.841   1.663
 2978TIP3    H2 8896   6.990   1.920   1.579
 2979TIP3   OH2 8897   7.178   1.962   2.511
 2979TIP3    H1 8898   7.120   1.903   2.558
 2979TIP3    H2 8899   7.134   1.978   2.428
 2980TIP3   OH2 8900   7.232   3.335   2.535
 2980TIP3    H1 8901   7.141   3.322   2.507
 2980TIP3    H2 8902   7.245   3.272   2.606
 2981TIP3   OH2 8903   7.470   3.371   2.071
 2981TIP3    H1 8904   7.415   3.414   2.006
 2981TIP3    H2 8905   7.541   3.331   2.020
 2982TIP3   OH2 8906   7.126   3.640   2.105
 2982TIP3    H1 8907   7.043   3.684   2.089
 2982TIP3    H2 8908   7.102   3.559   2.151
 2983TIP3   OH2 8909   7.280   3.500   1.922
 2983TIP3    H1 8910   7.217   3.554   1.971
 2983TIP3    H2 8911   7.295   3.549   1.841
 2984TIP3   OH2 8912   7.025   3.391   1.811
 2984TIP3    H1 8913   7.050   3.369   1.900
 2984TIP3    H2 8914   7.101   3.368   1.758
 2985TIP3   OH2 8915   7.253   3.292   1.690
 2985TIP3    H1 8916   7.265   3.213   1.743
 2985TIP3    H2 8917   7.335   3.340   1.699
 2986TIP3   OH2 8918   6.805   3.189   1.199
 2986TIP3    H1 8919   6.721   3.158   1.164
 2986TIP3    H2 8920   6.811   3.280   1.170
 2987TIP3   OH2 8921   6.883   3.219   0.892
 2987TIP3    H1 8922   6.848   3.286   0.950
 2987TIP3    H2 8923   6.910   3.149   0.950
 2988TIP3   OH2 8924   0.443   3.507   3.016
 2988TIP3    H1 8925   0.455   3.593   3.056
 2988TIP3    H2 8926   0.361   3.514   2.968
 2989TIP3   OH2 8927   0.472   3.525   3.435
 2989TIP3    H1 8928   0.513   3.512   3.520
 2989TIP3    H2 8929   0.432   3.441   3.415
 2990TIP3   OH2 8930   7.543   3.442   3.801
 2990TIP3    H1 8931   7.592   3.406   3.875
 2990TIP3    H2 8932   7.610   3.478   3.743
 2991TIP3   OH2 8933   0.720   3.847   3.121
 2991TIP3    H1 8934   0.712   3.783   3.192
 2991TIP3    H2 8935   0.748   3.927   3.164
 2992TIP3   OH2 8936   7.656   3.774   3.678
 2992TIP3    H1 8937   7.655   3.687   3.639
 2992TIP3    H2 8938   7.733   3.817   3.641
 2993TIP3   OH2 8939   0.393   4.281   3.135
 2993TIP3    H1 8940   0.423   4.209   3.079
 2993TIP3    H2 8941   0.403   4.248   3.224
 2994TIP3   OH2 8942   0.336   3.766   3.467
 2994TIP3    H1 8943   0.375   3.684   3.438
 2994TIP3    H2 8944   0.408   3.812   3.510
 2995TIP3   OH2 8945   1.313   3.083   3.463
 2995TIP3    H1 8946   1.330   3.167   3.508
 2995TIP3    H2 8947   1.344   3.097   3.374
 2996TIP3   OH2 8948   0.686   3.264   3.493
 2996TIP3    H1 8949   0.726   3.182   3.522
 2996TIP3    H2 8950   0.644   3.242   3.410
 2997TIP3   OH2 8951   0.049   2.929   3.435
 2997TIP3    H1 8952   0.016   2.987   3.366
 2997TIP3    H2 8953   0.016   2.842   3.410
 2998TIP3   OH2 8954   0.728   3.013   3.080
 2998TIP3    H1 8955   0.791   3.005   3.151
 2998TIP3    H2 8956   0.780   3.044   3.005
 2999TIP3   OH2 8957   7.438   3.242   3.609
 2999TIP3    H1 8958   7.534   3.239   3.598
 2999TIP3    H2 8959   7.405   3.190   3.536
 3000TIP3   OH2 8960   0.120   3.301   3.319
 3000TIP3    H1 8961   0.208   3.268   3.338
 3000TIP3    H2 8962   0.068   3.222   3.303
 3001TIP3   OH2 8963   1.360   3.302   3.632
 3001TIP3    H1 8964   1.271   3.338   3.628
 3001TIP3    H2 8965   1.398   3.339   3.711
 3002TIP3   OH2 8966   0.043   2.834   3.917
 3002TIP3    H1 8967  -0.035   2.799   3.874
 3002TIP3    H2 8968   0.025   2.823   4.011
 3003TIP3   OH2 8969   0.338   3.763   2.957
 3003TIP3    H1 8970   0.328   3.759   2.862
 3003TIP3    H2 8971   0.292   3.842   2.983
 3004TIP3   OH2 8972   0.124   3.664   3.605
 3004TIP3    H1 8973   0.142   3.699   3.692
 3004TIP3    H2 8974   0.187   3.710   3.548
 3005TIP3   OH2 8975   0.892   3.040   3.296
 3005TIP3    H1 8976   0.857   3.020   3.383
 3005TIP3    H2 8977   0.953   3.112   3.311
 3006TIP3   OH2 8978   7.699   3.115   3.586
 3006TIP3    H1 8979   7.717   3.106   3.680
 3006TIP3    H2 8980   7.764   3.060   3.543
 3007TIP3   OH2 8981   7.742   3.879   3.911
 3007TIP3    H1 8982   7.673   3.946   3.917
 3007TIP3    H2 8983   7.715   3.823   3.838
 3008TIP3   OH2 8984   0.769   4.095   3.260
 3008TIP3    H1 8985   0.681   4.086   3.298
 3008TIP3    H2 8986   0.768   4.181   3.218
 3009TIP3   OH2 8987   1.107   3.016   3.641
 3009TIP3    H1 8988   1.019   3.022   3.606
 3009TIP3    H2 8989   1.164   3.029   3.566
 3010TIP3   OH2 8990   0.358   2.586   3.555
 3010TIP3    H1 8991   0.397   2.515   3.604
 3010TIP3    H2 8992   0.305   2.634   3.619
 3011TIP3   OH2 8993   0.472   4.116   2.926
 3011TIP3    H1 8994   0.523   4.036   2.911
 3011TIP3    H2 8995   0.529   4.186   2.897
 3012TIP3   OH2 8996   0.628   3.901   2.864
 3012TIP3    H1 8997   0.642   3.825   2.808
 3012TIP3    H2 8998   0.663   3.876   2.949
 3013TIP3   OH2 8999   0.991   3.994   3.611
 3013TIP3    H1 9000   0.981   3.918   3.553
 3013TIP3    H2 9001   0.982   4.069   3.553
 3014TIP3   OH2 9002   0.260   3.453   2.796
 3014TIP3    H1 9003   0.231   3.389   2.860
 3014TIP3    H2 9004   0.338   3.414   2.756
 3015TIP3   OH2 9005   0.290   3.184   2.570
 3015TIP3    H1 9006   0.353   3.238   2.619
 3015TIP3    H2 9007   0.344   3.118   2.526
 3016TIP3   OH2 9008   1.177   3.636   3.467
 3016TIP3    H1 9009   1.098   3.690   3.466
 3016TIP3    H2 9010   1.222   3.657   3.385
 3017TIP3   OH2 9011   0.655   3.479   2.843
 3017TIP3    H1 9012   0.596   3.496   2.916
 3017TIP3    H2 9013   0.737   3.450   2.883
 3018TIP3   OH2 9014   0.879   3.510   3.782
 3018TIP3    H1 9015   0.881   3.592   3.831
 3018TIP3    H2 9016   0.794   3.511   3.737
 3019TIP3   OH2 9017   7.699   3.456   3.278
 3019TIP3    H1 9018   7.663   3.412   3.201
 3019TIP3    H2 9019   7.783   3.413   3.294
 3020TIP3   OH2 9020   0.116   3.891   3.362
 3020TIP3    H1 9021   0.142   3.870   3.273
 3020TIP3    H2 9022   0.193   3.872   3.416
 3021TIP3   OH2 9023   0.154   3.390   3.582
 3021TIP3    H1 9024   0.162   3.376   3.488
 3021TIP3    H2 9025   0.176   3.483   3.594
 3022TIP3   OH2 9026   0.529   4.077   3.387
 3022TIP3    H1 9027   0.518   4.160   3.434
 3022TIP3    H2 9028   0.521   4.010   3.455
 3023TIP3   OH2 9029   0.209   4.071   3.944
 3023TIP3    H1 9030   0.151   4.063   4.020
 3023TIP3    H2 9031   0.150   4.078   3.869
 3024TIP3   OH2 9032   0.487   3.347   2.675
 3024TIP3    H1 9033   0.550   3.397   2.727
 3024TIP3    H2 9034   0.512   3.364   2.584
 3025TIP3   OH2 9035   7.805   3.586   3.934
 3025TIP3    H1 9036   7.845   3.656   3.985
 3025TIP3    H2 9037   7.719   3.572   3.975
 3026TIP3   OH2 9038   0.213   4.016   2.936
 3026TIP3    H1 9039   0.301   4.050   2.945
 3026TIP3    H2 9040   0.165   4.084   2.889
 3027TIP3   OH2 9041   0.999   2.568   2.731
 3027TIP3    H1 9042   0.919   2.590   2.779
 3027TIP3    H2 9043   1.011   2.643   2.672
 3028TIP3   OH2 9044   7.582   3.374   3.038
 3028TIP3    H1 9045   7.504   3.416   3.074
 3028TIP3    H2 9046   7.563   3.280   3.042
 3029TIP3   OH2 9047   0.817   3.943   2.281
 3029TIP3    H1 9048   0.816   4.037   2.260
 3029TIP3    H2 9049   0.906   3.915   2.262
 3030TIP3   OH2 9050   1.233   4.340   3.672
 3030TIP3    H1 9051   1.239   4.245   3.688
 3030TIP3    H2 9052   1.155   4.367   3.720
 3031TIP3   OH2 9053   0.118   4.203   2.752
 3031TIP3    H1 9054   0.092   4.186   2.661
 3031TIP3    H2 9055   0.088   4.292   2.770
 3032TIP3   OH2 9056   0.337   4.166   2.376
 3032TIP3    H1 9057   0.388   4.092   2.342
 3032TIP3    H2 9058   0.375   4.182   2.463
 3033TIP3   OH2 9059   0.378   4.213   2.649
 3033TIP3    H1 9060   0.297   4.205   2.700
 3033TIP3    H2 9061   0.448   4.196   2.712
 3034TIP3   OH2 9062   1.123   3.460   3.949
 3034TIP3    H1 9063   1.042   3.469   3.899
 3034TIP3    H2 9064   1.145   3.367   3.941
 3035TIP3   OH2 9065   0.179   2.691   3.728
 3035TIP3    H1 9066   0.096   2.645   3.713
 3035TIP3    H2 9067   0.156   2.763   3.787
 3036TIP3   OH2 9068   0.666   2.815   3.944
 3036TIP3    H1 9069   0.733   2.788   4.007
 3036TIP3    H2 9070   0.583   2.793   3.986
 3037TIP3   OH2 9071   0.881   3.244   3.863
 3037TIP3    H1 9072   0.847   3.239   3.952
 3037TIP3    H2 9073   0.866   3.335   3.837
 3038TIP3   OH2 9074   0.555   3.382   2.417
 3038TIP3    H1 9075   0.516   3.357   2.334
 3038TIP3    H2 9076   0.643   3.411   2.395
 3039TIP3   OH2 9077   0.247   2.767   2.712
 3039TIP3    H1 9078   0.234   2.759   2.807
 3039TIP3    H2 9079   0.235   2.678   2.679
 3040TIP3   OH2 9080   0.114   3.244   3.801
 3040TIP3    H1 9081   0.134   3.303   3.873
 3040TIP3    H2 9082   0.118   3.299   3.723
 3041TIP3   OH2 9083   7.737   3.098   3.251
 3041TIP3    H1 9084   7.647   3.070   3.269
 3041TIP3    H2 9085   7.759   3.059   3.166
 3042TIP3   OH2 9086   0.432   3.218   3.001
 3042TIP3    H1 9087   0.451   3.311   3.001
 3042TIP3    H2 9088   0.490   3.181   2.935
 3043TIP3   OH2 9089   0.622   3.445   4.079
 3043TIP3    H1 9090   0.600   3.379   4.144
 3043TIP3    H2 9091   0.712   3.470   4.100
 3044TIP3   OH2 9092   0.595   3.200   3.239
 3044TIP3    H1 9093   0.521   3.221   3.181
 3044TIP3    H2 9094   0.640   3.128   3.196
 3045TIP3   OH2 9095   7.671   3.309   3.992
 3045TIP3    H1 9096   7.736   3.306   4.063
 3045TIP3    H2 9097   7.673   3.221   3.954
 3046TIP3   OH2 9098   7.710   2.650   2.696
 3046TIP3    H1 9099   7.724   2.675   2.787
 3046TIP3    H2 9100   7.666   2.725   2.657
 3047TIP3   OH2 9101   0.613   3.460   3.667
 3047TIP3    H1 9102   0.647   3.396   3.605
 3047TIP3    H2 9103   0.578   3.407   3.739
 3048TIP3   OH2 9104   0.308   2.961   3.329
 3048TIP3    H1 9105   0.232   2.947   3.386
 3048TIP3    H2 9106   0.378   2.909   3.369
 3049TIP3   OH2 9107   7.556   2.883   3.231
 3049TIP3    H1 9108   7.490   2.868   3.299
 3049TIP3    H2 9109   7.625   2.819   3.250
 3050TIP3   OH2 9110  -0.016   2.970   3.013
 3050TIP3    H1 9111   0.077   2.991   3.013
 3050TIP3    H2 9112  -0.053   3.026   2.945
 3051TIP3   OH2 9113   0.774   3.000   3.547
 3051TIP3    H1 9114   0.747   3.017   3.637
 3051TIP3    H2 9115   0.723   2.923   3.521
 3052TIP3   OH2 9116   7.609   3.037   2.738
 3052TIP3    H1 9117   7.597   2.954   2.691
 3052TIP3    H2 9118   7.689   3.074   2.701
 3053TIP3   OH2 9119   0.946   4.690   3.772
 3053TIP3    H1 9120   0.943   4.709   3.678
 3053TIP3    H2 9121   1.024   4.736   3.803
 3054TIP3   OH2 9122   0.371   3.253   3.429
 3054TIP3    H1 9123   0.426   3.186   3.388
 3054TIP3    H2 9124   0.362   3.223   3.520
 3055TIP3   OH2 9125   7.747   2.698   3.309
 3055TIP3    H1 9126   7.690   2.630   3.346
 3055TIP3    H2 9127   7.832   2.654   3.299
 3056TIP3   OH2 9128   0.354   3.158   3.695
 3056TIP3    H1 9129   0.271   3.193   3.727
 3056TIP3    H2 9130   0.421   3.202   3.749
 3057TIP3   OH2 9131   0.946   3.789   3.430
 3057TIP3    H1 9132   0.986   3.836   3.356
 3057TIP3    H2 9133   0.870   3.746   3.391
 3058TIP3   OH2 9134   0.511   2.854   2.722
 3058TIP3    H1 9135   0.416   2.844   2.717
 3058TIP3    H2 9136   0.525   2.947   2.736
 3059TIP3   OH2 9137   0.593   3.111   2.793
 3059TIP3    H1 9138   0.687   3.104   2.806
 3059TIP3    H2 9139   0.582   3.184   2.733
 3060TIP3   OH2 9140   7.457   3.493   3.417
 3060TIP3    H1 9141   7.547   3.488   3.385
 3060TIP3    H2 9142   7.464   3.473   3.510
 3061TIP3   OH2 9143   0.087   3.610   2.638
 3061TIP3    H1 9144   0.099   3.704   2.650
 3061TIP3    H2 9145   0.145   3.570   2.704
 3062TIP3   OH2 9146   0.391   3.586   4.128
 3062TIP3    H1 9147   0.321   3.526   4.100
 3062TIP3    H2 9148   0.472   3.545   4.098
 3063TIP3   OH2 9149   1.001   3.201   2.620
 3063TIP3    H1 9150   0.941   3.156   2.561
 3063TIP3    H2 9151   1.009   3.289   2.584
 3064TIP3   OH2 9152   1.244   4.054   3.703
 3064TIP3    H1 9153   1.149   4.045   3.694
 3064TIP3    H2 9154   1.280   4.028   3.618
 3065TIP3   OH2 9155   0.725   4.019   2.537
 3065TIP3    H1 9156   0.712   3.946   2.597
 3065TIP3    H2 9157   0.753   3.978   2.455
 3066TIP3   OH2 9158   0.712   3.649   3.332
 3066TIP3    H1 9159   0.626   3.617   3.360
 3066TIP3    H2 9160   0.757   3.571   3.299
 3067TIP3   OH2 9161   7.652   3.971   3.160
 3067TIP3    H1 9162   7.627   3.981   3.068
 3067TIP3    H2 9163   7.597   3.900   3.192
 3068TIP3   OH2 9164   0.019   3.535   2.984
 3068TIP3    H1 9165   0.049   3.617   3.022
 3068TIP3    H2 9166  -0.053   3.507   3.041
 3069TIP3   OH2 9167   0.238   4.169   3.571
 3069TIP3    H1 9168   0.249   4.233   3.500
 3069TIP3    H2 9169   0.207   4.221   3.645
 3070TIP3   OH2 9170   7.592   4.049   2.908
 3070TIP3    H1 9171   7.513   4.089   2.872
 3070TIP3    H2 9172   7.650   4.122   2.927
 3071TIP3   OH2 9173   0.578   3.856   3.566
 3071TIP3    H1 9174   0.626   3.880   3.645
 3071TIP3    H2 9175   0.639   3.803   3.516
 3072TIP3   OH2 9176   0.511   3.735   2.441
 3072TIP3    H1 9177   0.559   3.720   2.523
 3072TIP3    H2 9178   0.433   3.680   2.449
 3073TIP3   OH2 9179   0.762   4.380   3.601
 3073TIP3    H1 9180   0.682   4.331   3.585
 3073TIP3    H2 9181   0.761   4.450   3.535
 3074TIP3   OH2 9182   0.823   4.217   2.247
 3074TIP3    H1 9183   0.860   4.284   2.189
 3074TIP3    H2 9184   0.747   4.259   2.287
 3075TIP3   OH2 9185   7.669   2.904   4.129
 3075TIP3    H1 9186   7.608   2.850   4.179
 3075TIP3    H2 9187   7.735   2.930   4.193
 3076TIP3   OH2 9188   0.672   3.692   2.668
 3076TIP3    H1 9189   0.659   3.617   2.727
 3076TIP3    H2 9190   0.766   3.690   2.647
 3077TIP3   OH2 9191   0.693   3.049   3.804
 3077TIP3    H1 9192   0.771   3.093   3.839
 3077TIP3    H2 9193   0.684   2.970   3.857
 3078TIP3   OH2 9194   0.581   2.796   2.985
 3078TIP3    H1 9195   0.560   2.816   2.894
 3078TIP3    H2 9196   0.625   2.875   3.018
 3079TIP3   OH2 9197   0.100   3.880   2.627
 3079TIP3    H1 9198   0.008   3.902   2.645
 3079TIP3    H2 9199   0.149   3.953   2.664
 3080TIP3   OH2 9200   0.253   3.012   3.065
 3080TIP3    H1 9201   0.313   3.083   3.041
 3080TIP3    H2 9202   0.272   2.995   3.157
 3081TIP3   OH2 9203   0.540   3.282   3.860
 3081TIP3    H1 9204   0.562   3.327   3.942
 3081TIP3    H2 9205   0.592   3.201   3.863
 3082TIP3   OH2 9206   0.415   2.682   3.170
 3082TIP3    H1 9207   0.441   2.723   3.253
 3082TIP3    H2 9208   0.474   2.719   3.105
 3083TIP3   OH2 9209   7.640   3.934   2.668
 3083TIP3    H1 9210   7.551   3.928   2.635
 3083TIP3    H2 9211   7.631   3.962   2.759
 3084TIP3   OH2 9212   7.746   2.698   2.964
 3084TIP3    H1 9213   7.728   2.784   3.002
 3084TIP3    H2 9214   7.840   2.685   2.977
 3085TIP3   OH2 9215   1.146   3.195   3.856
 3085TIP3    H1 9216   1.051   3.200   3.870
 3085TIP3    H2 9217   1.155   3.150   3.772
 3086TIP3   OH2 9218   0.813   3.397   3.244
 3086TIP3    H1 9219   0.739   3.337   3.260
 3086TIP3    H2 9220   0.885   3.359   3.295
 3087TIP3   OH2 9221   7.305   2.847   2.753
 3087TIP3    H1 9222   7.370   2.856   2.822
 3087TIP3    H2 9223   7.232   2.800   2.794
 3088TIP3   OH2 9224   0.790   4.364   3.183
 3088TIP3    H1 9225   0.748   4.412   3.111
 3088TIP3    H2 9226   0.883   4.382   3.173
 3089TIP3   OH2 9227   7.731   2.585   3.741
 3089TIP3    H1 9228   7.691   2.539   3.667
 3089TIP3    H2 9229   7.691   2.544   3.818
 3090TIP3   OH2 9230   0.044   3.904   2.354
 3090TIP3    H1 9231   0.058   3.876   2.445
 3090TIP3    H2 9232   0.117   3.865   2.306
 3091TIP3   OH2 9233   0.723   4.189   3.900
 3091TIP3    H1 9234   0.663   4.161   3.969
 3091TIP3    H2 9235   0.770   4.264   3.937
 3092TIP3   OH2 9236   0.457   3.946   2.266
 3092TIP3    H1 9237   0.497   3.883   2.327
 3092TIP3    H2 9238   0.516   3.946   2.191
 3093TIP3   OH2 9239   7.530   3.477   2.598
 3093TIP3    H1 9240   7.510   3.410   2.663
 3093TIP3    H2 9241   7.503   3.438   2.515
 3094TIP3   OH2 9242   0.349   3.861   4.092
 3094TIP3    H1 9243   0.259   3.828   4.093
 3094TIP3    H2 9244   0.403   3.784   4.111
 3095TIP3   OH2 9245   0.229   3.618   2.394
 3095TIP3    H1 9246   0.177   3.620   2.474
 3095TIP3    H2 9247   0.229   3.526   2.367
 3096TIP3   OH2 9248   0.767   3.943   3.766
 3096TIP3    H1 9249   0.846   3.964   3.716
 3096TIP3    H2 9250   0.746   4.024   3.812
 3097TIP3   OH2 9251   7.757   3.391   2.762
 3097TIP3    H1 9252   7.780   3.431   2.845
 3097TIP3    H2 9253   7.791   3.301   2.768
 3098TIP3   OH2 9254   0.209   3.416   3.991
 3098TIP3    H1 9255   0.129   3.469   3.995
 3098TIP3    H2 9256   0.261   3.456   3.921
 3099TIP3   OH2 9257   0.022   3.151   2.618
 3099TIP3    H1 9258  -0.011   3.159   2.529
 3099TIP3    H2 9259   0.117   3.155   2.610
 3100TIP3   OH2 9260   0.666   3.822   4.139
 3100TIP3    H1 9261   0.745   3.793   4.092
 3100TIP3    H2 9262   0.663   3.766   4.216
 3101TIP3   OH2 9263   0.788   3.465   2.295
 3101TIP3    H1 9264   0.774   3.417   2.214
 3101TIP3    H2 9265   0.765   3.556   2.274
 3102TIP3   OH2 9266   0.325   3.190   4.107
 3102TIP3    H1 9267   0.311   3.112   4.054
 3102TIP3    H2 9268   0.272   3.258   4.064
 3103TIP3   OH2 9269   0.283   2.981   3.921
 3103TIP3    H1 9270   0.308   3.015   3.835
 3103TIP3    H2 9271   0.195   2.945   3.907
 3104TIP3   OH2 9272   0.343   3.548   3.798
 3104TIP3    H1 9273   0.430   3.563   3.761
 3104TIP3    H2 9274   0.307   3.636   3.811
 3105TIP3   OH2 9275   0.881   3.482   4.187
 3105TIP3    H1 9276   0.914   3.392   4.197
 3105TIP3    H2 9277   0.960   3.534   4.169
 3106TIP3   OH2 9278   0.909   3.754   3.918
 3106TIP3    H1 9279   0.853   3.816   3.872
 3106TIP3    H2 9280   0.997   3.773   3.885
 3107TIP3   OH2 9281   0.252   3.354   4.329
 3107TIP3    H1 9282   0.195   3.303   4.387
 3107TIP3    H2 9283   0.270   3.295   4.256
 3108TIP3   OH2 9284   0.407   2.758   4.031
 3108TIP3    H1 9285   0.364   2.836   3.994
 3108TIP3    H2 9286   0.346   2.686   4.011
 3109TIP3   OH2 9287   0.556   3.236   4.242
 3109TIP3    H1 9288   0.537   3.227   4.336
 3109TIP3    H2 9289   0.474   3.212   4.198
 3110TIP3   OH2 9290   0.789   3.193   4.108
 3110TIP3    H1 9291   0.711   3.195   4.163
 3110TIP3    H2 9292   0.859   3.164   4.166
 3111TIP3   OH2 9293   1.015   3.151   4.262
 3111TIP3    H1 9294   1.022   3.056   4.270
 3111TIP3    H2 9295   1.006   3.182   4.352
 3112TIP3   OH2 9296   7.742   3.025   4.395
 3112TIP3    H1 9297   7.791   2.943   4.403
 3112TIP3    H2 9298   7.798   3.090   4.437
 3113TIP3   OH2 9299   0.509   2.749   4.278
 3113TIP3    H1 9300   0.573   2.679   4.272
 3113TIP3    H2 9301   0.470   2.755   4.191
 3114TIP3   OH2 9302   0.568   2.960   4.446
 3114TIP3    H1 9303   0.546   2.894   4.380
 3114TIP3    H2 9304   0.497   3.024   4.439
 3115TIP3   OH2 9305   7.668   4.285   2.565
 3115TIP3    H1 9306   7.750   4.244   2.538
 3115TIP3    H2 9307   7.612   4.279   2.487
 3116TIP3   OH2 9308   1.049   4.448   3.168
 3116TIP3    H1 9309   1.082   4.465   3.256
 3116TIP3    H2 9310   1.121   4.471   3.110
 3117TIP3   OH2 9311   1.084   4.452   3.452
 3117TIP3    H1 9312   1.036   4.369   3.441
 3117TIP3    H2 9313   1.153   4.431   3.516
 3118TIP3   OH2 9314   1.110   4.146   4.032
 3118TIP3    H1 9315   1.039   4.154   4.096
 3118TIP3    H2 9316   1.156   4.230   4.036
 3119TIP3   OH2 9317   0.946   3.667   2.635
 3119TIP3    H1 9318   1.007   3.732   2.602
 3119TIP3    H2 9319   0.991   3.626   2.708
 3120TIP3   OH2 9320   1.074   3.524   2.835
 3120TIP3    H1 9321   1.011   3.483   2.894
 3120TIP3    H2 9322   1.142   3.558   2.893
 3121TIP3   OH2 9323   1.119   3.917   3.258
 3121TIP3    H1 9324   1.178   3.849   3.225
 3121TIP3    H2 9325   1.131   3.990   3.196
 3122TIP3   OH2 9326   0.938   4.214   3.452
 3122TIP3    H1 9327   0.869   4.257   3.503
 3122TIP3    H2 9328   0.891   4.171   3.381
 3123TIP3   OH2 9329   0.991   3.440   2.481
 3123TIP3    H1 9330   0.921   3.440   2.415
 3123TIP3    H2 9331   0.973   3.518   2.534
 3124TIP3   OH2 9332   0.829   3.099   2.434
 3124TIP3    H1 9333   0.803   3.125   2.346
 3124TIP3    H2 9334   0.823   3.004   2.435
 3125TIP3   OH2 9335   0.875   3.378   2.975
 3125TIP3    H1 9336   0.890   3.284   2.963
 3125TIP3    H2 9337   0.862   3.389   3.069
 3126TIP3   OH2 9338   1.168   3.805   3.831
 3126TIP3    H1 9339   1.228   3.732   3.815
 3126TIP3    H2 9340   1.199   3.875   3.774
 3127TIP3   OH2 9341   1.327   3.585   3.817
 3127TIP3    H1 9342   1.259   3.539   3.866
 3127TIP3    H2 9343   1.407   3.536   3.835
 3128TIP3   OH2 9344   0.808   2.829   2.420
 3128TIP3    H1 9345   0.884   2.795   2.468
 3128TIP3    H2 9346   0.742   2.761   2.427
 3129TIP3   OH2 9347   0.873   3.098   2.852
 3129TIP3    H1 9348   0.919   3.016   2.867
 3129TIP3    H2 9349   0.920   3.139   2.779
 3130TIP3   OH2 9350   1.028   3.271   3.372
 3130TIP3    H1 9351   1.111   3.290   3.326
 3130TIP3    H2 9352   1.041   3.306   3.460
 3131TIP3   OH2 9353   1.098   3.412   3.604
 3131TIP3    H1 9354   1.028   3.444   3.661
 3131TIP3    H2 9355   1.131   3.491   3.561
 3132TIP3   OH2 9356   1.556   3.011   4.151
 3132TIP3    H1 9357   1.619   2.955   4.106
 3132TIP3    H2 9358   1.517   3.065   4.083
 3133TIP3   OH2 9359   0.985   2.852   2.911
 3133TIP3    H1 9360   1.031   2.838   2.994
 3133TIP3    H2 9361   0.925   2.777   2.904
 3134TIP3   OH2 9362   7.378   2.808   3.756
 3134TIP3    H1 9363   7.446   2.795   3.690
 3134TIP3    H2 9364   7.381   2.901   3.775
 3135TIP3   OH2 9365   1.411   3.138   3.960
 3135TIP3    H1 9366   1.336   3.180   4.002
 3135TIP3    H2 9367   1.372   3.072   3.902
 3136TIP3   OH2 9368   1.048   2.768   2.547
 3136TIP3    H1 9369   1.097   2.706   2.493
 3136TIP3    H2 9370   1.104   2.846   2.551
 3137TIP3   OH2 9371   0.608   4.321   2.811
 3137TIP3    H1 9372   0.665   4.314   2.735
 3137TIP3    H2 9373   0.651   4.385   2.868
 3138TIP3   OH2 9374   7.753   4.181   3.839
 3138TIP3    H1 9375   7.720   4.231   3.914
 3138TIP3    H2 9376   7.816   4.240   3.797
 3139TIP3   OH2 9377   0.421   4.277   3.924
 3139TIP3    H1 9378   0.369   4.345   3.966
 3139TIP3    H2 9379   0.466   4.322   3.852
 3140TIP3   OH2 9380   0.538   4.508   3.749
 3140TIP3    H1 9381   0.618   4.463   3.719
 3140TIP3    H2 9382   0.570   4.576   3.808
 3141TIP3   OH2 9383   1.290   2.914   3.834
 3141TIP3    H1 9384   1.221   2.960   3.786
 3141TIP3    H2 9385   1.264   2.822   3.831
 3142TIP3   OH2 9386   0.265   4.412   3.434
 3142TIP3    H1 9387   0.179   4.425   3.393
 3142TIP3    H2 9388   0.282   4.494   3.480
 3143TIP3   OH2 9389   0.526   4.342   3.462
 3143TIP3    H1 9390   0.433   4.362   3.459
 3143TIP3    H2 9391   0.568   4.419   3.424
 3144TIP3   OH2 9392   0.721   4.545   3.381
 3144TIP3    H1 9393   0.707   4.629   3.338
 3144TIP3    H2 9394   0.746   4.485   3.311
 3145TIP3   OH2 9395   0.021   4.163   3.259
 3145TIP3    H1 9396  -0.036   4.098   3.218
 3145TIP3    H2 9397   0.034   4.132   3.349
 3146TIP3   OH2 9398   0.502   2.780   3.414
 3146TIP3    H1 9399   0.469   2.717   3.478
 3146TIP3    H2 9400   0.593   2.754   3.400
 3147TIP3   OH2 9401   1.045   2.714   3.375
 3147TIP3    H1 9402   1.082   2.765   3.302
 3147TIP3    H2 9403   0.953   2.741   3.379
 3148TIP3   OH2 9404   1.145   2.803   3.133
 3148TIP3    H1 9405   1.215   2.743   3.106
 3148TIP3    H2 9406   1.181   2.890   3.119
 3149TIP3   OH2 9407   7.611   2.523   3.486
 3149TIP3    H1 9408   7.524   2.510   3.449
 3149TIP3    H2 9409   7.655   2.438   3.473
 3150TIP3   OH2 9410   7.296   2.408   3.110
 3150TIP3    H1 9411   7.294   2.452   3.025
 3150TIP3    H2 9412   7.247   2.466   3.168
 3151TIP3   OH2 9413   0.204   2.580   3.327
 3151TIP3    H1 9414   0.268   2.615   3.266
 3151TIP3    H2 9415   0.247   2.581   3.412
 3152TIP3   OH2 9416   0.758   2.690   3.354
 3152TIP3    H1 9417   0.789   2.649   3.274
 3152TIP3    H2 9418   0.757   2.619   3.418
 3153TIP3   OH2 9419   0.801   2.641   2.912
 3153TIP3    H1 9420   0.721   2.688   2.934
 3153TIP3    H2 9421   0.792   2.556   2.956
 3154TIP3   OH2 9422   7.579   2.488   2.905
 3154TIP3    H1 9423   7.574   2.506   2.811
 3154TIP3    H2 9424   7.636   2.556   2.940
 3155TIP3   OH2 9425   0.219   2.748   2.984
 3155TIP3    H1 9426   0.277   2.702   3.044
 3155TIP3    H2 9427   0.227   2.840   3.009
 3156TIP3   OH2 9428   0.084   4.151   2.478
 3156TIP3    H1 9429   0.171   4.173   2.443
 3156TIP3    H2 9430   0.058   4.072   2.431
 3157TIP3   OH2 9431   0.762   4.286   2.582
 3157TIP3    H1 9432   0.755   4.192   2.570
 3157TIP3    H2 9433   0.725   4.323   2.501
 3158TIP3   OH2 9434   0.064   2.783   4.306
 3158TIP3    H1 9435   0.044   2.704   4.355
 3158TIP3    H2 9436   0.155   2.802   4.326
 3159TIP3   OH2 9437   0.303   2.755   4.448
 3159TIP3    H1 9438   0.377   2.754   4.388
 3159TIP3    H2 9439   0.315   2.679   4.504
 3160TIP3   OH2 9440   1.061   2.877   4.265
 3160TIP3    H1 9441   1.079   2.850   4.355
 3160TIP3    H2 9442   1.146   2.872   4.221
 3161TIP3   OH2 9443   0.987   4.415   3.773
 3161TIP3    H1 9444   0.910   4.385   3.725
 3161TIP3    H2 9445   0.973   4.510   3.783
 3162TIP3   OH2 9446   2.261   3.807   2.512
 3162TIP3    H1 9447   2.231   3.895   2.488
 3162TIP3    H2 9448   2.189   3.749   2.489
 3163TIP3   OH2 9449   2.247   3.798   2.931
 3163TIP3    H1 9450   2.298   3.783   3.010
 3163TIP3    H2 9451   2.207   3.713   2.912
 3164TIP3   OH2 9452   1.554   3.662   3.298
 3164TIP3    H1 9453   1.590   3.611   3.370
 3164TIP3    H2 9454   1.630   3.708   3.262
 3165TIP3   OH2 9455   2.520   4.113   2.613
 3165TIP3    H1 9456   2.513   4.045   2.680
 3165TIP3    H2 9457   2.538   4.193   2.661
 3166TIP3   OH2 9458   1.535   4.085   2.980
 3166TIP3    H1 9459   1.524   3.990   2.983
 3166TIP3    H2 9460   1.629   4.098   2.974
 3167TIP3   OH2 9461   1.233   3.297   2.759
 3167TIP3    H1 9462   1.194   3.382   2.782
 3167TIP3    H2 9463   1.161   3.248   2.720
 3168TIP3   OH2 9464   1.308   3.601   2.972
 3168TIP3    H1 9465   1.356   3.523   3.000
 3168TIP3    H2 9466   1.376   3.663   2.946
 3169TIP3   OH2 9467   2.165   4.561   2.623
 3169TIP3    H1 9468   2.197   4.480   2.584
 3169TIP3    H2 9469   2.146   4.538   2.714
 3170TIP3   OH2 9470   2.063   4.022   2.945
 3170TIP3    H1 9471   2.105   3.941   2.916
 3170TIP3    H2 9472   2.135   4.078   2.974
 3171TIP3   OH2 9473   3.091   3.346   2.956
 3171TIP3    H1 9474   3.109   3.425   3.008
 3171TIP3    H2 9475   3.105   3.373   2.866
 3172TIP3   OH2 9476   2.467   3.518   2.977
 3172TIP3    H1 9477   2.505   3.435   3.006
 3172TIP3    H2 9478   2.433   3.499   2.889
 3173TIP3   OH2 9479   1.824   3.172   2.941
 3173TIP3    H1 9480   1.805   3.245   2.883
 3173TIP3    H2 9481   1.770   3.100   2.908
 3174TIP3   OH2 9482   2.523   3.269   2.571
 3174TIP3    H1 9483   2.586   3.260   2.642
 3174TIP3    H2 9484   2.574   3.304   2.498
 3175TIP3   OH2 9485   1.450   3.383   3.064
 3175TIP3    H1 9486   1.533   3.368   3.109
 3175TIP3    H2 9487   1.457   3.331   2.984
 3176TIP3   OH2 9488   1.876   3.583   2.875
 3176TIP3    H1 9489   1.970   3.566   2.886
 3176TIP3    H2 9490   1.840   3.501   2.842
 3177TIP3   OH2 9491   3.152   3.566   3.115
 3177TIP3    H1 9492   3.061   3.593   3.117
 3177TIP3    H2 9493   3.187   3.591   3.201
 3178TIP3   OH2 9494   1.810   3.171   3.390
 3178TIP3    H1 9495   1.759   3.208   3.318
 3178TIP3    H2 9496   1.756   3.184   3.467
 3179TIP3   OH2 9497   2.160   4.027   2.373
 3179TIP3    H1 9498   2.119   3.998   2.291
 3179TIP3    H2 9499   2.106   4.101   2.402
 3180TIP3   OH2 9500   1.909   3.946   3.162
 3180TIP3    H1 9501   1.854   4.016   3.197
 3180TIP3    H2 9502   1.957   3.987   3.090
 3181TIP3   OH2 9503   2.688   3.285   2.787
 3181TIP3    H1 9504   2.643   3.267   2.869
 3181TIP3    H2 9505   2.744   3.360   2.806
 3182TIP3   OH2 9506   1.694   3.281   3.162
 3182TIP3    H1 9507   1.748   3.356   3.187
 3182TIP3    H2 9508   1.743   3.239   3.091
 3183TIP3   OH2 9509   1.745   4.148   3.262
 3183TIP3    H1 9510   1.735   4.240   3.236
 3183TIP3    H2 9511   1.667   4.129   3.314
 3184TIP3   OH2 9512   1.123   3.847   2.515
 3184TIP3    H1 9513   1.094   3.865   2.425
 3184TIP3    H2 9514   1.150   3.933   2.549
 3185TIP3   OH2 9515   2.552   4.362   2.750
 3185TIP3    H1 9516   2.470   4.357   2.800
 3185TIP3    H2 9517   2.550   4.448   2.709
 3186TIP3   OH2 9518   2.879   3.224   3.106
 3186TIP3    H1 9519   2.800   3.273   3.081
 3186TIP3    H2 9520   2.948   3.262   3.051
 3187TIP3   OH2 9521   2.151   2.867   3.113
 3187TIP3    H1 9522   2.145   2.775   3.140
 3187TIP3    H2 9523   2.077   2.910   3.155
 3188TIP3   OH2 9524   2.268   4.389   2.411
 3188TIP3    H1 9525   2.322   4.311   2.402
 3188TIP3    H2 9526   2.325   4.461   2.385
 3189TIP3   OH2 9527   2.412   4.162   2.363
 3189TIP3    H1 9528   2.342   4.097   2.358
 3189TIP3    H2 9529   2.460   4.140   2.442
 3190TIP3   OH2 9530   2.786   4.260   3.093
 3190TIP3    H1 9531   2.775   4.181   3.040
 3190TIP3    H2 9532   2.773   4.332   3.032
 3191TIP3   OH2 9533   2.086   3.647   2.364
 3191TIP3    H1 9534   2.005   3.693   2.343
 3191TIP3    H2 9535   2.135   3.645   2.282
 3192TIP3   OH2 9536   2.056   3.451   2.059
 3192TIP3    H1 9537   2.122   3.499   2.110
 3192TIP3    H2 9538   2.106   3.384   2.012
 3193TIP3   OH2 9539   2.986   3.904   2.957
 3193TIP3    H1 9540   2.902   3.949   2.962
 3193TIP3    H2 9541   3.016   3.916   2.867
 3194TIP3   OH2 9542   2.447   3.736   2.325
 3194TIP3    H1 9543   2.392   3.764   2.399
 3194TIP3    H2 9544   2.529   3.709   2.365
 3195TIP3   OH2 9545   2.666   3.749   3.252
 3195TIP3    H1 9546   2.680   3.832   3.298
 3195TIP3    H2 9547   2.580   3.758   3.212
 3196TIP3   OH2 9548   1.674   3.718   2.736
 3196TIP3    H1 9549   1.639   3.657   2.670
 3196TIP3    H2 9550   1.748   3.672   2.775
 3197TIP3   OH2 9551   1.802   4.133   2.879
 3197TIP3    H1 9552   1.785   4.118   2.786
 3197TIP3    H2 9553   1.891   4.098   2.893
 3198TIP3   OH2 9554   1.777   3.713   3.103
 3198TIP3    H1 9555   1.817   3.677   3.025
 3198TIP3    H2 9556   1.828   3.791   3.123
 3199TIP3   OH2 9557   2.330   4.355   2.908
 3199TIP3    H1 9558   2.302   4.421   2.971
 3199TIP3    H2 9559   2.315   4.271   2.952
 3200TIP3   OH2 9560   1.947   4.226   3.441
 3200TIP3    H1 9561   1.894   4.297   3.478
 3200TIP3    H2 9562   1.889   4.185   3.376
 3201TIP3   OH2 9563   2.276   3.597   2.160
 3201TIP3    H1 9564   2.336   3.654   2.209
 3201TIP3    H2 9565   2.304   3.605   2.069
 3202TIP3   OH2 9566   1.716   3.819   3.524
 3202TIP3    H1 9567   1.720   3.904   3.568
 3202TIP3    H2 9568   1.626   3.789   3.536
 3203TIP3   OH2 9569   2.022   4.267   2.415
 3203TIP3    H1 9570   2.104   4.315   2.425
 3203TIP3    H2 9571   1.964   4.327   2.369
 3204TIP3   OH2 9572   1.746   4.416   3.516
 3204TIP3    H1 9573   1.729   4.423   3.422
 3204TIP3    H2 9574   1.660   4.399   3.555
 3205TIP3   OH2 9575   2.789   2.824   2.214
 3205TIP3    H1 9576   2.712   2.844   2.267
 3205TIP3    H2 9577   2.801   2.901   2.159
 3206TIP3   OH2 9578   1.550   3.560   2.532
 3206TIP3    H1 9579   1.471   3.603   2.500
 3206TIP3    H2 9580   1.522   3.470   2.551
 3207TIP3   OH2 9581   2.608   4.197   1.768
 3207TIP3    H1 9582   2.606   4.291   1.749
 3207TIP3    H2 9583   2.697   4.170   1.747
 3208TIP3   OH2 9584   1.327   3.955   3.463
 3208TIP3    H1 9585   1.263   3.926   3.398
 3208TIP3    H2 9586   1.367   3.873   3.495
 3209TIP3   OH2 9587   1.213   4.136   3.096
 3209TIP3    H1 9588   1.302   4.116   3.066
 3209TIP3    H2 9589   1.223   4.207   3.159
 3210TIP3   OH2 9590   3.023   4.593   3.165
 3210TIP3    H1 9591   3.029   4.498   3.182
 3210TIP3    H2 9592   2.943   4.620   3.211
 3211TIP3   OH2 9593   1.912   4.490   2.241
 3211TIP3    H1 9594   1.865   4.471   2.159
 3211TIP3    H2 9595   1.877   4.574   2.269
 3212TIP3   OH2 9596   1.347   4.348   2.624
 3212TIP3    H1 9597   1.393   4.341   2.708
 3212TIP3    H2 9598   1.302   4.264   2.615
 3213TIP3   OH2 9599   2.115   4.419   1.872
 3213TIP3    H1 9600   2.165   4.346   1.837
 3213TIP3    H2 9601   2.149   4.432   1.961
 3214TIP3   OH2 9602   2.167   4.464   2.143
 3214TIP3    H1 9603   2.080   4.467   2.183
 3214TIP3    H2 9604   2.224   4.427   2.210
 3215TIP3   OH2 9605   2.929   3.714   3.401
 3215TIP3    H1 9606   2.835   3.723   3.385
 3215TIP3    H2 9607   2.946   3.620   3.394
 3216TIP3   OH2 9608   1.526   4.144   3.433
 3216TIP3    H1 9609   1.580   4.131   3.510
 3216TIP3    H2 9610   1.456   4.079   3.441
 3217TIP3   OH2 9611   1.915   2.956   3.244
 3217TIP3    H1 9612   1.830   2.926   3.212
 3217TIP3    H2 9613   1.895   3.037   3.291
 3218TIP3   OH2 9614   2.440   3.080   3.440
 3218TIP3    H1 9615   2.501   3.077   3.514
 3218TIP3    H2 9616   2.354   3.063   3.479
 3219TIP3   OH2 9617   2.684   3.489   3.340
 3219TIP3    H1 9618   2.648   3.486   3.428
 3219TIP3    H2 9619   2.669   3.579   3.311
 3220TIP3   OH2 9620   2.356   3.597   1.900
 3220TIP3    H1 9621   2.313   3.592   1.814
 3220TIP3    H2 9622   2.439   3.641   1.882
 3221TIP3   OH2 9623   2.065   3.000   2.211
 3221TIP3    H1 9624   2.031   3.005   2.301
 3221TIP3    H2 9625   2.028   2.918   2.177
 3222TIP3   OH2 9626   1.845   3.491   3.257
 3222TIP3    H1 9627   1.805   3.502   3.343
 3222TIP3    H2 9628   1.824   3.572   3.210
 3223TIP3   OH2 9629   1.733   3.368   2.772
 3223TIP3    H1 9630   1.644   3.343   2.797
 3223TIP3    H2 9631   1.744   3.332   2.684
 3224TIP3   OH2 9632   2.214   3.443   2.499
 3224TIP3    H1 9633   2.167   3.515   2.458
 3224TIP3    H2 9634   2.273   3.411   2.430
 3225TIP3   OH2 9635   2.409   3.719   3.568
 3225TIP3    H1 9636   2.388   3.646   3.627
 3225TIP3    H2 9637   2.501   3.738   3.585
 3226TIP3   OH2 9638   2.379   3.457   2.725
 3226TIP3    H1 9639   2.312   3.478   2.661
 3226TIP3    H2 9640   2.426   3.383   2.687
 3227TIP3   OH2 9641   1.691   3.501   3.491
 3227TIP3    H1 9642   1.726   3.551   3.565
 3227TIP3    H2 9643   1.671   3.415   3.527
 3228TIP3   OH2 9644   1.729   2.982   2.184
 3228TIP3    H1 9645   1.720   2.984   2.280
 3228TIP3    H2 9646   1.653   3.030   2.153
 3229TIP3   OH2 9647   1.273   3.026   3.051
 3229TIP3    H1 9648   1.344   3.062   3.104
 3229TIP3    H2 9649   1.314   3.002   2.968
 3230TIP3   OH2 9650   1.195   3.005   2.567
 3230TIP3    H1 9651   1.241   3.041   2.492
 3230TIP3    H2 9652   1.130   3.072   2.590
 3231TIP3   OH2 9653   2.398   3.714   3.150
 3231TIP3    H1 9654   2.430   3.649   3.087
 3231TIP3    H2 9655   2.368   3.663   3.225
 3232TIP3   OH2 9656   2.089   3.161   2.822
 3232TIP3    H1 9657   2.013   3.162   2.880
 3232TIP3    H2 9658   2.164   3.152   2.881
 3233TIP3   OH2 9659   1.495   3.243   2.832
 3233TIP3    H1 9660   1.406   3.246   2.797
 3233TIP3    H2 9661   1.524   3.153   2.816
 3234TIP3   OH2 9662   1.748   3.243   2.528
 3234TIP3    H1 9663   1.842   3.255   2.517
 3234TIP3    H2 9664   1.711   3.263   2.442
 3235TIP3   OH2 9665   2.539   3.252   3.020
 3235TIP3    H1 9666   2.526   3.265   3.114
 3235TIP3    H2 9667   2.471   3.190   2.994
 3236TIP3   OH2 9668   1.629   3.274   2.283
 3236TIP3    H1 9669   1.567   3.225   2.230
 3236TIP3    H2 9670   1.686   3.318   2.219
 3237TIP3   OH2 9671   2.741   4.949   3.259
 3237TIP3    H1 9672   2.741   4.955   3.163
 3237TIP3    H2 9673   2.823   4.990   3.286
 3238TIP3   OH2 9674   1.686   4.069   3.664
 3238TIP3    H1 9675   1.768   4.088   3.710
 3238TIP3    H2 9676   1.620   4.063   3.734
 3239TIP3   OH2 9677   2.144   3.522   2.934
 3239TIP3    H1 9678   2.214   3.476   2.889
 3239TIP3    H2 9679   2.143   3.485   3.022
 3240TIP3   OH2 9680   1.640   2.997   2.816
 3240TIP3    H1 9681   1.610   2.922   2.868
 3240TIP3    H2 9682   1.669   2.959   2.734
 3241TIP3   OH2 9683   2.117   3.433   3.205
 3241TIP3    H1 9684   2.031   3.468   3.228
 3241TIP3    H2 9685   2.178   3.484   3.257
 3242TIP3   OH2 9686   1.850   3.788   2.305
 3242TIP3    H1 9687   1.777   3.730   2.284
 3242TIP3    H2 9688   1.827   3.826   2.390
 3243TIP3   OH2 9689   2.748   4.043   2.921
 3243TIP3    H1 9690   2.781   4.091   2.845
 3243TIP3    H2 9691   2.667   4.002   2.890
 3244TIP3   OH2 9692   2.318   3.102   2.207
 3244TIP3    H1 9693   2.224   3.082   2.206
 3244TIP3    H2 9694   2.321   3.197   2.222
 3245TIP3   OH2 9695   2.281   4.147   3.321
 3245TIP3    H1 9696   2.327   4.115   3.399
 3245TIP3    H2 9697   2.209   4.199   3.356
 3246TIP3   OH2 9698   2.378   3.365   2.283
 3246TIP3    H1 9699   2.473   3.368   2.295
 3246TIP3    H2 9700   2.358   3.443   2.232
 3247TIP3   OH2 9701   1.542   3.798   2.966
 3247TIP3    H1 9702   1.581   3.782   2.881
 3247TIP3    H2 9703   1.607   3.767   3.029
 3248TIP3   OH2 9704   2.006   3.947   2.147
 3248TIP3    H1 9705   1.958   4.030   2.146
 3248TIP3    H2 9706   1.952   3.889   2.200
 3249TIP3   OH2 9707   1.448   3.753   3.611
 3249TIP3    H1 9708   1.503   3.758   3.689
 3249TIP3    H2 9709   1.389   3.679   3.628
 3250TIP3   OH2 9710   2.168   3.850   3.607
 3250TIP3    H1 9711   2.100   3.791   3.576
 3250TIP3    H2 9712   2.250   3.811   3.577
 3251TIP3   OH2 9713   2.799   3.453   2.104
 3251TIP3    H1 9714   2.743   3.407   2.042
 3251TIP3    H2 9715   2.804   3.543   2.071
 3252TIP3   OH2 9716   3.039   4.313   3.186
 3252TIP3    H1 9717   2.945   4.302   3.181
 3252TIP3    H2 9718   3.071   4.288   3.100
 3253TIP3   OH2 9719   2.532   4.269   2.036
 3253TIP3    H1 9720   2.505   4.202   2.098
 3253TIP3    H2 9721   2.548   4.222   1.954
 3254TIP3   OH2 9722   2.514   3.908   2.817
 3254TIP3    H1 9723   2.424   3.886   2.839
 3254TIP3    H2 9724   2.551   3.827   2.782
 3255TIP3   OH2 9725   1.667   4.139   2.623
 3255TIP3    H1 9726   1.666   4.217   2.567
 3255TIP3    H2 9727   1.575   4.126   2.647
 3256TIP3   OH2 9728   1.224   3.427   2.333
 3256TIP3    H1 9729   1.270   3.508   2.356
 3256TIP3    H2 9730   1.146   3.428   2.388
 3257TIP3   OH2 9731   1.760   3.894   2.536
 3257TIP3    H1 9732   1.742   3.983   2.564
 3257TIP3    H2 9733   1.735   3.840   2.611
 3258TIP3   OH2 9734   1.949   4.470   3.078
 3258TIP3    H1 9735   1.966   4.535   3.009
 3258TIP3    H2 9736   2.033   4.461   3.123
 3259TIP3   OH2 9737   1.577   4.367   2.471
 3259TIP3    H1 9738   1.492   4.371   2.516
 3259TIP3    H2 9739   1.608   4.458   2.471
 3260TIP3   OH2 9740   2.307   4.115   3.049
 3260TIP3    H1 9741   2.295   4.124   3.143
 3260TIP3    H2 9742   2.382   4.057   3.040
 3261TIP3   OH2 9743   2.291   4.005   1.929
 3261TIP3    H1 9744   2.346   3.980   2.003
 3261TIP3    H2 9745   2.206   3.965   1.948
 3262TIP3   OH2 9746   2.553   4.626   3.088
 3262TIP3    H1 9747   2.466   4.594   3.111
 3262TIP3    H2 9748   2.537   4.700   3.029
 3263TIP3   OH2 9749   2.614   4.472   1.732
 3263TIP3    H1 9750   2.642   4.539   1.670
 3263TIP3    H2 9751   2.539   4.512   1.778
 3264TIP3   OH2 9752   1.639   3.241   3.597
 3264TIP3    H1 9753   1.545   3.252   3.607
 3264TIP3    H2 9754   1.667   3.200   3.679
 3265TIP3   OH2 9755   2.469   3.925   2.120
 3265TIP3    H1 9756   2.453   3.869   2.196
 3265TIP3    H2 9757   2.564   3.931   2.115
 3266TIP3   OH2 9758   1.365   4.341   3.250
 3266TIP3    H1 9759   1.418   4.276   3.297
 3266TIP3    H2 9760   1.387   4.424   3.292
 3267TIP3   OH2 9761   1.643   3.971   1.935
 3267TIP3    H1 9762   1.655   3.880   1.908
 3267TIP3    H2 9763   1.629   3.967   2.029
 3268TIP3   OH2 9764   1.589   3.987   2.207
 3268TIP3    H1 9765   1.659   3.959   2.266
 3268TIP3    H2 9766   1.590   4.083   2.214
 3269TIP3   OH2 9767   1.323   3.675   2.418
 3269TIP3    H1 9768   1.258   3.722   2.471
 3269TIP3    H2 9769   1.344   3.735   2.346
 3270TIP3   OH2 9770   2.485   3.306   3.283
 3270TIP3    H1 9771   2.565   3.349   3.313
 3270TIP3    H2 9772   2.476   3.230   3.341
 3271TIP3   OH2 9773   2.376   3.052   2.477
 3271TIP3    H1 9774   2.356   3.072   2.386
 3271TIP3    H2 9775   2.418   3.131   2.511
 3272TIP3   OH2 9776   1.857   4.173   2.145
 3272TIP3    H1 9777   1.773   4.198   2.183
 3272TIP3    H2 9778   1.882   4.248   2.090
 3273TIP3   OH2 9779   2.027   3.253   2.568
 3273TIP3    H1 9780   2.090   3.320   2.544
 3273TIP3    H2 9781   2.047   3.233   2.660
 3274TIP3   OH2 9782   2.327   3.546   3.354
 3274TIP3    H1 9783   2.357   3.593   3.432
 3274TIP3    H2 9784   2.379   3.466   3.353
 3275TIP3   OH2 9785   2.192   2.949   2.659
 3275TIP3    H1 9786   2.171   3.026   2.712
 3275TIP3    H2 9787   2.262   2.979   2.601
 3276TIP3   OH2 9788   1.607   4.261   2.221
 3276TIP3    H1 9789   1.586   4.332   2.160
 3276TIP3    H2 9790   1.595   4.299   2.308
 3277TIP3   OH2 9791   1.708   2.972   2.463
 3277TIP3    H1 9792   1.697   3.061   2.495
 3277TIP3    H2 9793   1.802   2.955   2.470
 3278TIP3   OH2 9794   2.952   3.441   3.330
 3278TIP3    H1 9795   2.856   3.446   3.333
 3278TIP3    H2 9796   2.971   3.353   3.298
 3279TIP3   OH2 9797   2.604   3.650   2.726
 3279TIP3    H1 9798   2.528   3.595   2.741
 3279TIP3    H2 9799   2.673   3.610   2.779
 3280TIP3   OH2 9800   1.342   3.858   2.204
 3280TIP3    H1 9801   1.414   3.921   2.213
 3280TIP3    H2 9802   1.375   3.795   2.140
 3281TIP3   OH2 9803   1.261   3.152   2.349
 3281TIP3    H1 9804   1.264   3.248   2.345
 3281TIP3    H2 9805   1.231   3.125   2.262
 3282TIP3   OH2 9806   2.585   4.632   2.673
 3282TIP3    H1 9807   2.539   4.683   2.606
 3282TIP3    H2 9808   2.677   4.654   2.660
 3283TIP3   OH2 9809   1.651   2.872   3.204
 3283TIP3    H1 9810   1.622   2.840   3.118
 3283TIP3    H2 9811   1.642   2.797   3.262
 3284TIP3   OH2 9812   1.179   4.118   2.599
 3284TIP3    H1 9813   1.134   4.154   2.675
 3284TIP3    H2 9814   1.138   4.162   2.524
 3285TIP3   OH2 9815   1.372   4.661   3.660
 3285TIP3    H1 9816   1.453   4.671   3.711
 3285TIP3    H2 9817   1.363   4.566   3.649
 3286TIP3   OH2 9818   1.832   4.582   3.722
 3286TIP3    H1 9819   1.913   4.626   3.698
 3286TIP3    H2 9820   1.813   4.523   3.649
 3287TIP3   OH2 9821   1.804   4.170   1.827
 3287TIP3    H1 9822   1.756   4.100   1.872
 3287TIP3    H2 9823   1.879   4.126   1.787
 3288TIP3   OH2 9824   2.445   4.553   3.517
 3288TIP3    H1 9825   2.465   4.461   3.535
 3288TIP3    H2 9826   2.530   4.595   3.511
 3289TIP3   OH2 9827   2.245   4.210   1.752
 3289TIP3    H1 9828   2.275   4.145   1.815
 3289TIP3    H2 9829   2.306   4.202   1.678
 3290TIP3   OH2 9830   1.485   4.070   3.859
 3290TIP3    H1 9831   1.507   3.993   3.912
 3290TIP3    H2 9832   1.400   4.049   3.821
 3291TIP3   OH2 9833   1.468   3.668   2.054
 3291TIP3    H1 9834   1.519   3.642   2.131
 3291TIP3    H2 9835   1.533   3.680   1.985
 3292TIP3   OH2 9836   2.094   4.118   3.642
 3292TIP3    H1 9837   2.050   4.148   3.563
 3292TIP3    H2 9838   2.123   4.029   3.621
 3293TIP3   OH2 9839   2.015   3.890   1.878
 3293TIP3    H1 9840   2.002   3.901   1.972
 3293TIP3    H2 9841   2.007   3.796   1.864
 3294TIP3   OH2 9842   2.572   4.154   3.237
 3294TIP3    H1 9843   2.637   4.209   3.194
 3294TIP3    H2 9844   2.493   4.208   3.241
 3295TIP3   OH2 9845   1.618   3.758   3.823
 3295TIP3    H1 9846   1.691   3.697   3.814
 3295TIP3    H2 9847   1.632   3.799   3.909
 3296TIP3   OH2 9848   1.643   3.606   2.264
 3296TIP3    H1 9849   1.625   3.576   2.353
 3296TIP3    H2 9850   1.691   3.534   2.223
 3297TIP3   OH2 9851   1.957   3.676   3.513
 3297TIP3    H1 9852   1.875   3.725   3.519
 3297TIP3    H2 9853   1.993   3.700   3.428
 3298TIP3   OH2 9854   1.783   3.421   2.110
 3298TIP3    H1 9855   1.754   3.423   2.019
 3298TIP3    H2 9856   1.879   3.426   2.105
 3299TIP3   OH2 9857   2.479   4.073   3.615
 3299TIP3    H1 9858   2.573   4.063   3.632
 3299TIP3    H2 9859   2.439   3.996   3.653
 3300TIP3   OH2 9860   2.580   3.717   1.787
 3300TIP3    H1 9861   2.566   3.674   1.702
 3300TIP3    H2 9862   2.552   3.808   1.772
 3301TIP3   OH2 9863   2.067   3.459   3.645
 3301TIP3    H1 9864   2.070   3.385   3.584
 3301TIP3    H2 9865   2.032   3.531   3.593
 3302TIP3   OH2 9866   2.068   3.257   3.436
 3302TIP3    H1 9867   2.098   3.297   3.354
 3302TIP3    H2 9868   1.977   3.233   3.419
 3303TIP3   OH2 9869   2.079   3.770   3.290
 3303TIP3    H1 9870   2.168   3.792   3.264
 3303TIP3    H2 9871   2.025   3.837   3.249
 3304TIP3   OH2 9872   2.669   3.752   3.651
 3304TIP3    H1 9873   2.745   3.694   3.661
 3304TIP3    H2 9874   2.704   3.840   3.660
 3305TIP3   OH2 9875   2.728   3.983   3.377
 3305TIP3    H1 9876   2.666   4.044   3.336
 3305TIP3    H2 9877   2.814   4.012   3.347
 3306TIP3   OH2 9878   1.812   3.558   3.782
 3306TIP3    H1 9879   1.801   3.483   3.840
 3306TIP3    H2 9880   1.903   3.554   3.754
 3307TIP3   OH2 9881   2.182   3.017   3.524
 3307TIP3    H1 9882   2.140   3.099   3.496
 3307TIP3    H2 9883   2.115   2.950   3.512
 3308TIP3   OH2 9884   2.336   3.503   3.716
 3308TIP3    H1 9885   2.357   3.503   3.810
 3308TIP3    H2 9886   2.242   3.487   3.713
 3309TIP3   OH2 9887   2.571   3.441   3.580
 3309TIP3    H1 9888   2.496   3.453   3.638
 3309TIP3    H2 9889   2.643   3.415   3.638
 3310TIP3   OH2 9890   2.804   3.355   3.719
 3310TIP3    H1 9891   2.840   3.291   3.656
 3310TIP3    H2 9892   2.806   3.309   3.803
 3311TIP3   OH2 9893   1.767   3.325   3.933
 3311TIP3    H1 9894   1.776   3.236   3.898
 3311TIP3    H2 9895   1.803   3.319   4.021
 3312TIP3   OH2 9896   2.304   3.005   3.769
 3312TIP3    H1 9897   2.375   2.943   3.752
 3312TIP3    H2 9898   2.253   3.006   3.688
 3313TIP3   OH2 9899   2.314   3.210   3.949
 3313TIP3    H1 9900   2.319   3.137   3.886
 3313TIP3    H2 9901   2.272   3.281   3.900
 3314TIP3   OH2 9902   1.601   4.470   2.037
 3314TIP3    H1 9903   1.691   4.448   2.011
 3314TIP3    H2 9904   1.565   4.516   1.961
 3315TIP3   OH2 9905   1.070   3.845   2.228
 3315TIP3    H1 9906   1.164   3.860   2.220
 3315TIP3    H2 9907   1.056   3.759   2.188
 3316TIP3   OH2 9908   0.974   4.435   2.678
 3316TIP3    H1 9909   0.909   4.381   2.633
 3316TIP3    H2 9910   1.018   4.374   2.738
 3317TIP3   OH2 9911   1.116   4.270   2.851
 3317TIP3    H1 9912   1.109   4.201   2.918
 3317TIP3    H2 9913   1.167   4.339   2.893
 3318TIP3   OH2 9914   2.846   4.728   2.656
 3318TIP3    H1 9915   2.879   4.719   2.745
 3318TIP3    H2 9916   2.924   4.726   2.601
 3319TIP3   OH2 9917   2.900   4.694   2.933
 3319TIP3    H1 9918   2.839   4.621   2.925
 3319TIP3    H2 9919   2.959   4.669   3.004
 3320TIP3   OH2 9920   2.907   4.408   3.510
 3320TIP3    H1 9921   2.847   4.404   3.584
 3320TIP3    H2 9922   2.959   4.487   3.525
 3321TIP3   OH2 9923   2.748   3.919   2.118
 3321TIP3    H1 9924   2.808   3.988   2.090
 3321TIP3    H2 9925   2.790   3.880   2.195
 3322TIP3   OH2 9926   2.872   3.776   2.321
 3322TIP3    H1 9927   2.805   3.737   2.377
 3322TIP3    H2 9928   2.938   3.811   2.381
 3323TIP3   OH2 9929   2.918   4.177   2.748
 3323TIP3    H1 9930   2.972   4.106   2.713
 3323TIP3    H2 9931   2.922   4.246   2.681
 3324TIP3   OH2 9932   2.728   4.477   2.933
 3324TIP3    H1 9933   2.661   4.519   2.987
 3324TIP3    H2 9934   2.678   4.433   2.864
 3325TIP3   OH2 9935   2.787   3.693   1.966
 3325TIP3    H1 9936   2.715   3.693   1.902
 3325TIP3    H2 9937   2.771   3.770   2.020
 3326TIP3   OH2 9938   2.648   3.346   1.903
 3326TIP3    H1 9939   2.601   3.383   1.828
 3326TIP3    H2 9940   2.635   3.252   1.896
 3327TIP3   OH2 9941   2.671   3.636   2.458
 3327TIP3    H1 9942   2.678   3.542   2.447
 3327TIP3    H2 9943   2.653   3.649   2.551
 3328TIP3   OH2 9944   1.295   3.709   3.226
 3328TIP3    H1 9945   1.289   3.671   3.139
 3328TIP3    H2 9946   1.388   3.700   3.249
 3329TIP3   OH2 9947   2.979   4.064   3.308
 3329TIP3    H1 9948   3.045   3.994   3.302
 3329TIP3    H2 9949   3.016   4.136   3.258
 3330TIP3   OH2 9950   3.147   3.848   3.313
 3330TIP3    H1 9951   3.068   3.810   3.350
 3330TIP3    H2 9952   3.217   3.785   3.332
 3331TIP3   OH2 9953   2.601   3.077   1.879
 3331TIP3    H1 9954   2.667   3.048   1.943
 3331TIP3    H2 9955   2.520   3.034   1.908
 3332TIP3   OH2 9956   2.667   3.358   2.342
 3332TIP3    H1 9957   2.712   3.275   2.355
 3332TIP3    H2 9958   2.712   3.398   2.267
 3333TIP3   OH2 9959   2.818   3.522   2.856
 3333TIP3    H1 9960   2.900   3.539   2.810
 3333TIP3    H2 9961   2.831   3.561   2.943
 3334TIP3   OH2 9962   2.889   3.671   3.080
 3334TIP3    H1 9963   2.821   3.696   3.142
 3334TIP3    H2 9964   2.923   3.754   3.047
 3335TIP3   OH2 9965   1.505   3.377   3.860
 3335TIP3    H1 9966   1.597   3.385   3.883
 3335TIP3    H2 9967   1.476   3.297   3.904
 3336TIP3   OH2 9968   3.397   3.297   3.648
 3336TIP3    H1 9969   3.442   3.229   3.597
 3336TIP3    H2 9970   3.330   3.329   3.589
 3337TIP3   OH2 9971   2.782   3.109   2.392
 3337TIP3    H1 9972   2.827   3.095   2.475
 3337TIP3    H2 9973   2.719   3.037   2.387
 3338TIP3   OH2 9974   1.484   3.095   3.222
 3338TIP3    H1 9975   1.540   3.017   3.226
 3338TIP3    H2 9976   1.545   3.167   3.206
 3339TIP3   OH2 9977   1.271   3.360   3.280
 3339TIP3    H1 9978   1.324   3.357   3.201
 3339TIP3    H2 9979   1.309   3.431   3.331
 3340TIP3   OH2 9980   3.212   3.393   3.471
 3340TIP3    H1 9981   3.131   3.429   3.507
 3340TIP3    H2 9982   3.184   3.319   3.417
 3341TIP3   OH2 9983   2.831   3.027   2.032
 3341TIP3    H1 9984   2.877   2.965   1.975
 3341TIP3    H2 9985   2.889   3.103   2.036
 3342TIP3   OH2 9986   1.264   2.866   2.792
 3342TIP3    H1 9987   1.177   2.851   2.828
 3342TIP3    H2 9988   1.248   2.921   2.715
 3343TIP3   OH2 9989   2.415   4.588   2.302
 3343TIP3    H1 9990   2.469   4.572   2.224
 3343TIP3    H2 9991   2.468   4.647   2.355
 3344TIP3   OH2 9992   1.458   2.892   3.608
 3344TIP3    H1 9993   1.414   2.904   3.692
 3344TIP3    H2 9994   1.414   2.952   3.548
 3345TIP3   OH2 9995   1.507   4.385   3.668
 3345TIP3    H1 9996   1.415   4.359   3.662
 3345TIP3    H2 9997   1.540   4.342   3.747
 3346TIP3   OH2 9998   1.728   4.426   3.235
 3346TIP3    H1 9999   1.679   4.499   3.199
 3346TIP3    H210000   1.814   4.432   3.193
 3347TIP3   OH210001   2.129   4.663   3.403
 3347TIP3    H110002   2.207   4.645   3.456
 3347TIP3    H210003   2.152   4.631   3.315
 3348TIP3   OH210004   2.312   4.868   3.193
 3348TIP3    H110005   2.307   4.773   3.183
 3348TIP3    H210006   2.371   4.881   3.267
 3349TIP3   OH210007   3.140   3.153   3.332
 3349TIP3    H110008   3.069   3.152   3.397
 3349TIP3    H210009   3.166   3.062   3.322
 3350TIP3   OH210010   1.378   4.672   3.269
 3350TIP3    H110011   1.286   4.693   3.250
 3350TIP3    H210012   1.403   4.732   3.338
 3351TIP3   OH210013   1.612   4.652   3.125
 3351TIP3    H110014   1.528   4.657   3.169
 3351TIP3    H210015   1.593   4.671   3.033
 3352TIP3   OH210016   2.021   4.660   2.892
 3352TIP3    H110017   1.995   4.752   2.892
 3352TIP3    H210018   2.099   4.657   2.948
 3353TIP3   OH210019   2.551   4.820   2.879
 3353TIP3    H110020   2.510   4.893   2.833
 3353TIP3    H210021   2.551   4.749   2.815
 3354TIP3   OH210022   1.290   4.445   3.001
 3354TIP3    H110023   1.314   4.418   3.089
 3354TIP3    H210024   1.360   4.413   2.945
 3355TIP3   OH210025   1.490   4.329   2.858
 3355TIP3    H110026   1.501   4.244   2.901
 3355TIP3    H210027   1.577   4.369   2.862
 3356TIP3   OH210028   1.753   4.408   2.887
 3356TIP3    H110029   1.777   4.316   2.874
 3356TIP3    H210030   1.812   4.438   2.957
 3357TIP3   OH210031   2.314   3.069   2.957
 3357TIP3    H110032   2.278   2.998   3.009
 3357TIP3    H210033   2.384   3.028   2.906
 3358TIP3   OH210034   2.830   2.961   2.838
 3358TIP3    H110035   2.870   3.014   2.770
 3358TIP3    H210036   2.755   3.013   2.868
 3359TIP3   OH210037   2.944   3.060   2.611
 3359TIP3    H110038   3.014   3.001   2.585
 3359TIP3    H210039   2.980   3.148   2.598
 3360TIP3   OH210040   1.563   2.772   2.961
 3360TIP3    H110041   1.474   2.739   2.970
 3360TIP3    H210042   1.617   2.693   2.952
 3361TIP3   OH210043   1.409   2.677   2.628
 3361TIP3    H110044   1.422   2.724   2.546
 3361TIP3    H210045   1.366   2.740   2.685
 3362TIP3   OH210046   2.041   2.806   2.854
 3362TIP3    H110047   2.088   2.854   2.786
 3362TIP3    H210048   2.080   2.836   2.936
 3363TIP3   OH210049   2.526   2.953   2.829
 3363TIP3    H110050   2.566   2.924   2.747
 3363TIP3    H210051   2.534   2.877   2.888
 3364TIP3   OH210052   2.595   2.899   2.396
 3364TIP3    H110053   2.516   2.947   2.421
 3364TIP3    H210054   2.584   2.813   2.436
 3365TIP3   OH210055   1.064   4.245   2.385
 3365TIP3    H110056   0.981   4.210   2.353
 3365TIP3    H210057   1.067   4.334   2.351
 3366TIP3   OH210058   1.495   2.808   2.381
 3366TIP3    H110059   1.537   2.749   2.319
 3366TIP3    H210060   1.566   2.862   2.415
 3367TIP3   OH210061   1.983   2.999   2.476
 3367TIP3    H110062   2.043   2.950   2.531
 3367TIP3    H210063   1.996   3.090   2.502
 3368TIP3   OH210064   1.858   4.397   1.970
 3368TIP3    H110065   1.942   4.423   1.934
 3368TIP3    H210066   1.829   4.324   1.914
 3369TIP3   OH210067   2.565   4.538   2.071
 3369TIP3    H110068   2.559   4.443   2.065
 3369TIP3    H210069   2.521   4.570   1.993
 3370TIP3   OH210070   1.778   3.052   3.839
 3370TIP3    H110071   1.744   2.985   3.898
 3370TIP3    H210072   1.871   3.061   3.864
 3371TIP3   OH210073   2.025   3.059   3.962
 3371TIP3    H110074   2.115   3.041   3.937
 3371TIP3    H210075   2.008   2.998   4.034
 3372TIP3   OH210076   1.167   4.241   2.029
 3372TIP3    H110077   1.172   4.251   2.124
 3372TIP3    H210078   1.248   4.195   2.005
 3373TIP3   OH210079   2.774   4.672   3.259
 3373TIP3    H110080   2.699   4.640   3.208
 3373TIP3    H210081   2.757   4.765   3.271
 3374TIP3   OH210082   4.058   4.065   1.999
 3374TIP3    H110083   4.028   4.152   1.974
 3374TIP3    H210084   3.986   4.006   1.976
 3375TIP3   OH210085   4.051   4.056   2.419
 3375TIP3    H110086   4.099   4.039   2.500
 3375TIP3    H210087   4.008   3.973   2.399
 3376TIP3   OH210088   3.347   3.930   2.777
 3376TIP3    H110089   3.378   3.865   2.840
 3376TIP3    H210090   3.421   3.988   2.764
 3377TIP3   OH210091   4.320   4.363   2.098
 3377TIP3    H110092   4.309   4.296   2.165
 3377TIP3    H210093   4.343   4.443   2.146
 3378TIP3   OH210094   3.333   4.345   2.466
 3378TIP3    H110095   3.321   4.251   2.470
 3378TIP3    H210096   3.428   4.358   2.465
 3379TIP3   OH210097   3.031   3.554   2.243
 3379TIP3    H110098   2.991   3.637   2.269
 3379TIP3    H210099   2.959   3.503   2.206
 3380TIP3   OH210100   3.105   3.856   2.456
 3380TIP3    H110101   3.154   3.779   2.486
 3380TIP3    H210102   3.173   3.918   2.429
 3381TIP3   OH210103   3.973   4.802   2.107
 3381TIP3    H110104   4.003   4.735   2.046
 3381TIP3    H210105   3.971   4.758   2.192
 3382TIP3   OH210106   3.861   4.281   2.431
 3382TIP3    H110107   3.903   4.200   2.401
 3382TIP3    H210108   3.934   4.336   2.462
 3383TIP3   OH210109   4.888   3.602   2.449
 3383TIP3    H110110   4.910   3.681   2.498
 3383TIP3    H210111   4.899   3.626   2.357
 3384TIP3   OH210112   4.268   3.768   2.466
 3384TIP3    H110113   4.304   3.684   2.494
 3384TIP3    H210114   4.233   3.752   2.378
 3385TIP3   OH210115   3.625   3.429   2.425
 3385TIP3    H110116   3.603   3.502   2.367
 3385TIP3    H210117   3.569   3.357   2.396
 3386TIP3   OH210118   4.320   3.526   2.058
 3386TIP3    H110119   4.384   3.518   2.128
 3386TIP3    H210120   4.370   3.561   1.984
 3387TIP3   OH210121   3.249   3.641   2.553
 3387TIP3    H110122   3.331   3.624   2.598
 3387TIP3    H210123   3.253   3.588   2.474
 3388TIP3   OH210124   3.677   3.840   2.354
 3388TIP3    H110125   3.770   3.820   2.366
 3388TIP3    H210126   3.639   3.757   2.323
 3389TIP3   OH210127   4.951   3.819   2.613
 3389TIP3    H110128   4.862   3.854   2.608
 3389TIP3    H210129   4.985   3.849   2.697
 3390TIP3   OH210130   3.604   3.427   2.877
 3390TIP3    H110131   3.553   3.463   2.804
 3390TIP3    H210132   3.549   3.441   2.954
 3391TIP3   OH210133   3.957   4.283   1.860
 3391TIP3    H110134   3.917   4.254   1.778
 3391TIP3    H210135   3.903   4.357   1.889
 3392TIP3   OH210136   3.705   4.203   2.646
 3392TIP3    H110137   3.648   4.272   2.680
 3392TIP3    H210138   3.753   4.245   2.574
 3393TIP3   OH210139   4.487   3.544   2.273
 3393TIP3    H110140   4.442   3.522   2.355
 3393TIP3    H210141   4.540   3.620   2.294
 3394TIP3   OH210142   3.495   3.537   2.647
 3394TIP3    H110143   3.549   3.612   2.671
 3394TIP3    H210144   3.543   3.496   2.575
 3395TIP3   OH210145   3.540   4.401   2.745
 3395TIP3    H110146   3.525   4.492   2.718
 3395TIP3    H210147   3.465   4.381   2.801
 3396TIP3   OH210148   2.923   4.106   2.000
 3396TIP3    H110149   2.886   4.124   1.914
 3396TIP3    H210150   2.948   4.192   2.034
 3397TIP3   OH210151   4.361   4.611   2.236
 3397TIP3    H110152   4.275   4.602   2.277
 3397TIP3    H210153   4.358   4.696   2.192
 3398TIP3   OH210154   4.685   3.491   2.615
 3398TIP3    H110155   4.600   3.516   2.579
 3398TIP3    H210156   4.749   3.519   2.549
 3399TIP3   OH210157   3.947   3.122   2.604
 3399TIP3    H110158   3.938   3.030   2.628
 3399TIP3    H210159   3.872   3.165   2.644
 3400TIP3   OH210160   4.067   4.645   1.896
 3400TIP3    H110161   4.118   4.565   1.886
 3400TIP3    H210162   4.125   4.715   1.867
 3401TIP3   OH210163   4.206   4.415   1.851
 3401TIP3    H110164   4.133   4.353   1.848
 3401TIP3    H210165   4.255   4.390   1.929
 3402TIP3   OH210166   4.601   4.503   2.582
 3402TIP3    H110167   4.582   4.427   2.527
 3402TIP3    H210168   4.585   4.578   2.525
 3403TIP3   OH210169   3.884   3.903   1.852
 3403TIP3    H110170   3.801   3.948   1.832
 3403TIP3    H210171   3.930   3.902   1.768
 3404TIP3   OH210172   3.851   3.707   1.547
 3404TIP3    H110173   3.916   3.755   1.597
 3404TIP3    H210174   3.900   3.640   1.500
 3405TIP3   OH210175   4.781   4.158   2.443
 3405TIP3    H110176   4.697   4.202   2.445
 3405TIP3    H210177   4.813   4.173   2.354
 3406TIP3   OH210178   4.243   3.991   1.812
 3406TIP3    H110179   4.188   4.020   1.885
 3406TIP3    H210180   4.325   3.965   1.853
 3407TIP3   OH210181   4.462   4.014   2.741
 3407TIP3    H110182   4.462   4.095   2.793
 3407TIP3    H210183   4.377   4.015   2.697
 3408TIP3   OH210184   3.471   3.975   2.223
 3408TIP3    H110185   3.434   3.915   2.158
 3408TIP3    H210186   3.545   3.928   2.260
 3409TIP3   OH210187   3.603   4.400   2.362
 3409TIP3    H110188   3.581   4.378   2.272
 3409TIP3    H210189   3.690   4.361   2.375
 3410TIP3   OH210190   3.583   3.966   2.584
 3410TIP3    H110191   3.621   3.932   2.503
 3410TIP3    H210192   3.631   4.046   2.602
 3411TIP3   OH210193   4.125   4.602   2.370
 3411TIP3    H110194   4.112   4.681   2.422
 3411TIP3    H210195   4.110   4.530   2.431
 3412TIP3   OH210196   3.745   4.497   2.911
 3412TIP3    H110197   3.685   4.553   2.960
 3412TIP3    H210198   3.688   4.444   2.855
 3413TIP3   OH210199   4.073   3.852   1.646
 3413TIP3    H110200   4.132   3.909   1.694
 3413TIP3    H210201   4.101   3.860   1.555
 3414TIP3   OH210202   3.496   4.056   3.029
 3414TIP3    H110203   3.504   4.144   3.067
 3414TIP3    H210204   3.403   4.035   3.039
 3415TIP3   OH210205   3.820   4.522   1.904
 3415TIP3    H110206   3.901   4.572   1.911
 3415TIP3    H210207   3.760   4.580   1.858
 3416TIP3   OH210208   3.527   4.642   2.992
 3416TIP3    H110209   3.497   4.661   2.903
 3416TIP3    H210210   3.449   4.650   3.046
 3417TIP3   OH210211   4.585   3.080   1.702
 3417TIP3    H110212   4.507   3.099   1.754
 3417TIP3    H210213   4.596   3.157   1.646
 3418TIP3   OH210214   3.344   3.818   2.020
 3418TIP3    H110215   3.267   3.863   1.987
 3418TIP3    H210216   3.313   3.731   2.043
 3419TIP3   OH210217   4.403   4.451   1.254
 3419TIP3    H110218   4.400   4.546   1.238
 3419TIP3    H210219   4.492   4.426   1.230
 3420TIP3   OH210220   3.120   4.213   2.947
 3420TIP3    H110221   3.050   4.192   2.885
 3420TIP3    H210222   3.155   4.128   2.973
 3421TIP3   OH210223   3.002   4.396   2.580
 3421TIP3    H110224   3.091   4.375   2.554
 3421TIP3    H210225   3.011   4.460   2.651
 3422TIP3   OH210226   4.831   4.873   2.644
 3422TIP3    H110227   4.838   4.778   2.653
 3422TIP3    H210228   4.751   4.896   2.691
 3423TIP3   OH210229   3.927   4.649   2.772
 3423TIP3    H110230   3.923   4.738   2.807
 3423TIP3    H210231   3.862   4.601   2.824
 3424TIP3   OH210232   3.708   4.751   1.729
 3424TIP3    H110233   3.660   4.730   1.649
 3424TIP3    H210234   3.671   4.835   1.758
 3425TIP3   OH210235   3.144   4.606   2.111
 3425TIP3    H110236   3.188   4.597   2.195
 3425TIP3    H210237   3.095   4.524   2.100
 3426TIP3   OH210238   3.908   4.675   1.365
 3426TIP3    H110239   3.960   4.603   1.329
 3426TIP3    H210240   3.944   4.688   1.453
 3427TIP3   OH210241   3.963   4.721   1.632
 3427TIP3    H110242   3.876   4.726   1.672
 3427TIP3    H210243   4.019   4.685   1.700
 3428TIP3   OH210244   4.729   3.971   2.893
 3428TIP3    H110245   4.635   3.990   2.891
 3428TIP3    H210246   4.735   3.877   2.877
 3429TIP3   OH210247   3.320   4.398   2.913
 3429TIP3    H110248   3.373   4.391   2.992
 3429TIP3    H210249   3.250   4.334   2.925
 3430TIP3   OH210250   3.713   3.214   2.732
 3430TIP3    H110251   3.629   3.181   2.699
 3430TIP3    H210252   3.690   3.294   2.780
 3431TIP3   OH210253   4.252   3.326   2.931
 3431TIP3    H110254   4.322   3.308   2.994
 3431TIP3    H210255   4.172   3.313   2.981
 3432TIP3   OH210256   4.475   3.757   2.844
 3432TIP3    H110257   4.425   3.756   2.925
 3432TIP3    H210258   4.460   3.845   2.808
 3433TIP3   OH210259   4.154   3.847   1.385
 3433TIP3    H110260   4.110   3.843   1.300
 3433TIP3    H210261   4.236   3.894   1.368
 3434TIP3   OH210262   3.862   3.254   1.698
 3434TIP3    H110263   3.827   3.261   1.787
 3434TIP3    H210264   3.824   3.174   1.663
 3435TIP3   OH210265   3.648   3.747   2.740
 3435TIP3    H110266   3.599   3.755   2.822
 3435TIP3    H210267   3.625   3.826   2.691
 3436TIP3   OH210268   3.530   3.624   2.257
 3436TIP3    H110269   3.441   3.601   2.284
 3436TIP3    H210270   3.539   3.588   2.169
 3437TIP3   OH210271   4.012   3.700   1.988
 3437TIP3    H110272   3.963   3.772   1.947
 3437TIP3    H210273   4.069   3.668   1.918
 3438TIP3   OH210274   4.206   3.987   3.078
 3438TIP3    H110275   4.179   3.916   3.136
 3438TIP3    H210276   4.301   3.989   3.085
 3439TIP3   OH210277   4.179   3.715   2.212
 3439TIP3    H110278   4.110   3.737   2.150
 3439TIP3    H210279   4.224   3.641   2.172
 3440TIP3   OH210280   3.477   3.756   2.956
 3440TIP3    H110281   3.490   3.819   3.027
 3440TIP3    H210282   3.459   3.674   3.001
 3441TIP3   OH210283   3.527   3.238   1.671
 3441TIP3    H110284   3.517   3.239   1.767
 3441TIP3    H210285   3.448   3.282   1.639
 3442TIP3   OH210286   3.072   3.283   2.531
 3442TIP3    H110287   3.143   3.317   2.586
 3442TIP3    H210288   3.116   3.258   2.449
 3443TIP3   OH210289   2.990   3.257   2.046
 3443TIP3    H110290   3.036   3.293   1.969
 3443TIP3    H210291   2.928   3.326   2.071
 3444TIP3   OH210292   4.200   3.966   2.638
 3444TIP3    H110293   4.229   3.899   2.577
 3444TIP3    H210294   4.167   3.918   2.714
 3445TIP3   OH210295   3.888   3.417   2.310
 3445TIP3    H110296   3.810   3.418   2.366
 3445TIP3    H210297   3.961   3.409   2.372
 3446TIP3   OH210298   3.292   3.502   2.320
 3446TIP3    H110299   3.203   3.506   2.285
 3446TIP3    H210300   3.319   3.411   2.306
 3447TIP3   OH210301   3.545   3.498   2.014
 3447TIP3    H110302   3.639   3.510   2.002
 3447TIP3    H210303   3.507   3.517   1.929
 3448TIP3   OH210304   4.344   3.503   2.508
 3448TIP3    H110305   4.331   3.516   2.602
 3448TIP3    H210306   4.272   3.444   2.482
 3449TIP3   OH210307   3.424   3.526   1.770
 3449TIP3    H110308   3.360   3.477   1.719
 3449TIP3    H210309   3.478   3.570   1.704
 3450TIP3   OH210310   4.539   5.209   2.744
 3450TIP3    H110311   4.538   5.224   2.649
 3450TIP3    H210312   4.618   5.255   2.774
 3451TIP3   OH210313   3.481   4.318   3.146
 3451TIP3    H110314   3.561   4.338   3.195
 3451TIP3    H210315   3.413   4.316   3.213
 3452TIP3   OH210316   3.943   3.781   2.421
 3452TIP3    H110317   4.013   3.731   2.378
 3452TIP3    H210318   3.940   3.746   2.510
 3453TIP3   OH210319   3.437   3.253   2.307
 3453TIP3    H110320   3.408   3.178   2.358
 3453TIP3    H210321   3.465   3.216   2.223
 3454TIP3   OH210322   3.918   3.696   2.692
 3454TIP3    H110323   3.830   3.726   2.713
 3454TIP3    H210324   3.976   3.749   2.747
 3455TIP3   OH210325   3.648   4.043   1.794
 3455TIP3    H110326   3.574   3.986   1.773
 3455TIP3    H210327   3.624   4.082   1.879
 3456TIP3   OH210328   4.544   4.296   2.407
 3456TIP3    H110329   4.576   4.345   2.331
 3456TIP3    H210330   4.463   4.255   2.376
 3457TIP3   OH210331   4.114   3.359   1.693
 3457TIP3    H110332   4.021   3.337   1.693
 3457TIP3    H210333   4.117   3.453   1.709
 3458TIP3   OH210334   4.057   4.380   2.809
 3458TIP3    H110335   4.110   4.369   2.888
 3458TIP3    H210336   4.009   4.461   2.824
 3459TIP3   OH210337   4.174   3.621   1.770
 3459TIP3    H110338   4.269   3.625   1.781
 3459TIP3    H210339   4.152   3.699   1.720
 3460TIP3   OH210340   3.343   4.060   2.456
 3460TIP3    H110341   3.383   4.040   2.371
 3460TIP3    H210342   3.404   4.022   2.520
 3461TIP3   OH210343   3.802   4.204   1.637
 3461TIP3    H110344   3.754   4.287   1.636
 3461TIP3    H210345   3.747   4.146   1.690
 3462TIP3   OH210346   3.226   3.987   3.080
 3462TIP3    H110347   3.231   3.963   3.173
 3462TIP3    H210348   3.152   3.936   3.046
 3463TIP3   OH210349   3.953   4.111   3.107
 3463TIP3    H110350   3.886   4.048   3.079
 3463TIP3    H210351   4.035   4.072   3.079
 3464TIP3   OH210352   4.200   4.669   2.695
 3464TIP3    H110353   4.106   4.652   2.702
 3464TIP3    H210354   4.225   4.702   2.782
 3465TIP3   OH210355   4.596   3.709   1.591
 3465TIP3    H110356   4.541   3.663   1.528
 3465TIP3    H210357   4.600   3.799   1.557
 3466TIP3   OH210358   4.846   4.597   2.668
 3466TIP3    H110359   4.753   4.576   2.672
 3466TIP3    H210360   4.876   4.557   2.587
 3467TIP3   OH210361   4.331   4.523   1.524
 3467TIP3    H110362   4.300   4.456   1.585
 3467TIP3    H210363   4.344   4.476   1.441
 3468TIP3   OH210364   4.311   4.163   2.304
 3468TIP3    H110365   4.221   4.142   2.330
 3468TIP3    H210366   4.345   4.082   2.268
 3469TIP3   OH210367   3.460   4.396   2.111
 3469TIP3    H110368   3.456   4.473   2.054
 3469TIP3    H210369   3.369   4.380   2.136
 3470TIP3   OH210370   3.023   3.682   1.823
 3470TIP3    H110371   3.067   3.764   1.845
 3470TIP3    H210372   2.943   3.683   1.876
 3471TIP3   OH210373   3.558   4.152   2.025
 3471TIP3    H110374   3.537   4.241   2.053
 3471TIP3    H210375   3.532   4.097   2.099
 3472TIP3   OH210376   3.742   4.723   2.569
 3472TIP3    H110377   3.782   4.794   2.520
 3472TIP3    H210378   3.812   4.689   2.624
 3473TIP3   OH210379   3.375   4.624   1.960
 3473TIP3    H110380   3.289   4.628   2.002
 3473TIP3    H210381   3.408   4.714   1.965
 3474TIP3   OH210382   4.101   4.379   2.539
 3474TIP3    H110383   4.085   4.377   2.633
 3474TIP3    H210384   4.181   4.327   2.526
 3475TIP3   OH210385   4.087   4.257   1.414
 3475TIP3    H110386   4.141   4.231   1.489
 3475TIP3    H210387   4.002   4.217   1.431
 3476TIP3   OH210388   4.356   4.879   2.582
 3476TIP3    H110389   4.287   4.816   2.601
 3476TIP3    H210390   4.320   4.934   2.512
 3477TIP3   OH210391   4.408   4.725   1.226
 3477TIP3    H110392   4.435   4.793   1.164
 3477TIP3    H210393   4.333   4.763   1.272
 3478TIP3   OH210394   3.427   3.507   3.078
 3478TIP3    H110395   3.332   3.517   3.082
 3478TIP3    H210396   3.452   3.472   3.164
 3479TIP3   OH210397   4.265   4.177   1.604
 3479TIP3    H110398   4.249   4.123   1.682
 3479TIP3    H210399   4.361   4.183   1.599
 3480TIP3   OH210400   3.162   4.590   2.739
 3480TIP3    H110401   3.217   4.523   2.779
 3480TIP3    H210402   3.170   4.666   2.797
 3481TIP3   OH210403   3.441   4.228   1.421
 3481TIP3    H110404   3.452   4.137   1.394
 3481TIP3    H210405   3.425   4.224   1.515
 3482TIP3   OH210406   3.385   4.245   1.693
 3482TIP3    H110407   3.451   4.215   1.755
 3482TIP3    H210408   3.385   4.340   1.700
 3483TIP3   OH210409   3.120   3.933   1.903
 3483TIP3    H110410   3.054   3.979   1.956
 3483TIP3    H210411   3.138   3.993   1.830
 3484TIP3   OH210412   4.300   3.548   2.770
 3484TIP3    H110413   4.364   3.604   2.813
 3484TIP3    H210414   4.283   3.478   2.833
 3485TIP3   OH210415   4.172   3.309   1.965
 3485TIP3    H110416   4.151   3.328   1.873
 3485TIP3    H210417   4.214   3.389   1.997
 3486TIP3   OH210418   3.656   4.432   1.634
 3486TIP3    H110419   3.571   4.455   1.672
 3486TIP3    H210420   3.678   4.506   1.577
 3487TIP3   OH210421   3.826   3.508   2.055
 3487TIP3    H110422   3.888   3.576   2.032
 3487TIP3    H210423   3.845   3.488   2.147
 3488TIP3   OH210424   4.125   3.813   2.855
 3488TIP3    H110425   4.146   3.868   2.931
 3488TIP3    H210426   4.172   3.731   2.871
 3489TIP3   OH210427   3.987   3.208   2.147
 3489TIP3    H110428   3.964   3.285   2.199
 3489TIP3    H210429   4.055   3.239   2.087
 3490TIP3   OH210430   3.405   4.518   1.709
 3490TIP3    H110431   3.382   4.588   1.648
 3490TIP3    H210432   3.392   4.556   1.796
 3491TIP3   OH210433   3.501   3.226   1.949
 3491TIP3    H110434   3.489   3.315   1.980
 3491TIP3    H210435   3.595   3.210   1.956
 3492TIP3   OH210436   4.736   3.694   2.826
 3492TIP3    H110437   4.643   3.706   2.843
 3492TIP3    H210438   4.740   3.631   2.754
 3493TIP3   OH210439   4.401   3.905   2.214
 3493TIP3    H110440   4.324   3.851   2.226
 3493TIP3    H210441   4.468   3.865   2.269
 3494TIP3   OH210442   3.137   4.116   1.688
 3494TIP3    H110443   3.208   4.179   1.698
 3494TIP3    H210444   3.170   4.052   1.625
 3495TIP3   OH210445   3.052   3.405   1.822
 3495TIP3    H110446   3.062   3.499   1.829
 3495TIP3    H210447   2.982   3.393   1.758
 3496TIP3   OH210448   4.381   4.881   2.158
 3496TIP3    H110449   4.339   4.931   2.088
 3496TIP3    H210450   4.475   4.890   2.142
 3497TIP3   OH210451   3.453   3.128   2.686
 3497TIP3    H110452   3.422   3.096   2.601
 3497TIP3    H210453   3.443   3.053   2.745
 3498TIP3   OH210454   2.975   4.379   2.080
 3498TIP3    H110455   2.923   4.409   2.154
 3498TIP3    H210456   2.934   4.421   2.004
 3499TIP3   OH210457   3.188   4.922   3.159
 3499TIP3    H110458   3.268   4.935   3.209
 3499TIP3    H210459   3.186   4.828   3.140
 3500TIP3   OH210460   3.600   4.427   1.314
 3500TIP3    H110461   3.551   4.357   1.357
 3500TIP3    H210462   3.675   4.383   1.274
 3501TIP3   OH210463   4.265   4.766   2.944
 3501TIP3    H110464   4.275   4.695   3.008
 3501TIP3    H210465   4.339   4.824   2.960
 3502TIP3   OH210466   4.038   4.467   1.247
 3502TIP3    H110467   4.068   4.400   1.309
 3502TIP3    H210468   4.096   4.457   1.171
 3503TIP3   OH210469   3.275   4.318   3.337
 3503TIP3    H110470   3.300   4.226   3.350
 3503TIP3    H210471   3.187   4.314   3.300
 3504TIP3   OH210472   3.265   3.925   1.541
 3504TIP3    H110473   3.316   3.900   1.618
 3504TIP3    H210474   3.331   3.937   1.472
 3505TIP3   OH210475   3.891   4.384   3.119
 3505TIP3    H110476   3.846   4.408   3.037
 3505TIP3    H210477   3.918   4.293   3.106
 3506TIP3   OH210478   3.817   4.147   1.368
 3506TIP3    H110479   3.800   4.159   1.462
 3506TIP3    H210480   3.805   4.053   1.353
 3507TIP3   OH210481   4.368   4.438   2.720
 3507TIP3    H110482   4.449   4.471   2.680
 3507TIP3    H210483   4.304   4.508   2.708
 3508TIP3   OH210484   3.394   4.066   3.345
 3508TIP3    H110485   3.442   3.987   3.321
 3508TIP3    H210486   3.422   4.086   3.434
 3509TIP3   OH210487   3.441   3.863   1.752
 3509TIP3    H110488   3.419   3.833   1.841
 3509TIP3    H210489   3.486   3.789   1.712
 3510TIP3   OH210490   3.751   3.936   2.998
 3510TIP3    H110491   3.667   3.981   3.006
 3510TIP3    H210492   3.786   3.965   2.914
 3511TIP3   OH210493   3.577   3.675   1.597
 3511TIP3    H110494   3.547   3.679   1.506
 3511TIP3    H210495   3.672   3.682   1.592
 3512TIP3   OH210496   4.269   4.317   3.067
 3512TIP3    H110497   4.347   4.293   3.018
 3512TIP3    H210498   4.240   4.235   3.107
 3513TIP3   OH210499   4.377   3.972   1.273
 3513TIP3    H110500   4.362   3.930   1.188
 3513TIP3    H210501   4.349   4.063   1.259
 3514TIP3   OH210502   3.860   3.707   3.106
 3514TIP3    H110503   3.862   3.635   3.042
 3514TIP3    H210504   3.821   3.780   3.058
 3515TIP3   OH210505   3.866   3.506   2.906
 3515TIP3    H110506   3.891   3.547   2.824
 3515TIP3    H210507   3.774   3.482   2.895
 3516TIP3   OH210508   3.877   4.033   2.777
 3516TIP3    H110509   3.966   4.065   2.760
 3516TIP3    H210510   3.820   4.097   2.733
 3517TIP3   OH210511   4.483   3.971   3.124
 3517TIP3    H110512   4.519   3.891   3.162
 3517TIP3    H210513   4.544   4.040   3.153
 3518TIP3   OH210514   4.476   4.250   2.885
 3518TIP3    H110515   4.432   4.315   2.831
 3518TIP3    H210516   4.569   4.271   2.877
 3519TIP3   OH210517   3.746   3.813   3.340
 3519TIP3    H110518   3.665   3.770   3.368
 3519TIP3    H210519   3.766   3.773   3.256
 3520TIP3   OH210520   3.985   3.276   3.014
 3520TIP3    H110521   3.946   3.355   2.978
 3520TIP3    H210522   3.918   3.208   3.003
 3521TIP3   OH210523   4.106   3.770   3.215
 3521TIP3    H110524   4.107   3.742   3.307
 3521TIP3    H210525   4.019   3.745   3.184
 3522TIP3   OH210526   4.324   3.697   3.060
 3522TIP3    H110527   4.250   3.710   3.120
 3522TIP3    H210528   4.399   3.685   3.118
 3523TIP3   OH210529   4.535   3.683   3.233
 3523TIP3    H110530   4.583   3.601   3.243
 3523TIP3    H210531   4.485   3.692   3.314
 3524TIP3   OH210532   3.570   3.583   3.396
 3524TIP3    H110533   3.577   3.491   3.372
 3524TIP3    H210534   3.612   3.588   3.482
 3525TIP3   OH210535   4.068   3.276   3.278
 3525TIP3    H110536   4.135   3.208   3.270
 3525TIP3    H210537   4.030   3.283   3.191
 3526TIP3   OH210538   4.143   3.497   3.436
 3526TIP3    H110539   4.120   3.429   3.372
 3526TIP3    H210540   4.065   3.552   3.441
 3527TIP3   OH210541   3.396   4.728   1.525
 3527TIP3    H110542   3.485   4.705   1.499
 3527TIP3    H210543   3.359   4.772   1.449
 3528TIP3   OH210544   2.864   4.105   1.710
 3528TIP3    H110545   2.958   4.118   1.705
 3528TIP3    H210546   2.849   4.018   1.672
 3529TIP3   OH210547   2.769   4.696   2.166
 3529TIP3    H110548   2.705   4.640   2.122
 3529TIP3    H210549   2.813   4.637   2.227
 3530TIP3   OH210550   2.911   4.534   2.340
 3530TIP3    H110551   2.902   4.463   2.403
 3530TIP3    H210552   2.963   4.600   2.385
 3531TIP3   OH210553   4.653   4.929   2.142
 3531TIP3    H110554   4.672   4.958   2.231
 3531TIP3    H210555   4.710   4.982   2.087
 3532TIP3   OH210556   4.674   4.961   2.422
 3532TIP3    H110557   4.623   4.880   2.416
 3532TIP3    H210558   4.741   4.943   2.488
 3533TIP3   OH210559   4.718   4.661   2.988
 3533TIP3    H110560   4.649   4.664   3.054
 3533TIP3    H210561   4.762   4.745   2.996
 3534TIP3   OH210562   4.544   4.174   1.604
 3534TIP3    H110563   4.604   4.244   1.577
 3534TIP3    H210564   4.586   4.135   1.681
 3535TIP3   OH210565   4.666   4.031   1.808
 3535TIP3    H110566   4.599   3.992   1.863
 3535TIP3    H210567   4.731   4.066   1.869
 3536TIP3   OH210568   4.719   4.435   2.239
 3536TIP3    H110569   4.771   4.366   2.199
 3536TIP3    H210570   4.718   4.506   2.174
 3537TIP3   OH210571   4.530   4.724   2.429
 3537TIP3    H110572   4.462   4.766   2.482
 3537TIP3    H210573   4.481   4.681   2.358
 3538TIP3   OH210574   4.584   3.949   1.452
 3538TIP3    H110575   4.513   3.948   1.388
 3538TIP3    H210576   4.567   4.026   1.506
 3539TIP3   OH210577   4.447   3.599   1.390
 3539TIP3    H110578   4.397   3.638   1.318
 3539TIP3    H210579   4.434   3.505   1.379
 3540TIP3   OH210580   4.467   3.892   1.946
 3540TIP3    H110581   4.472   3.797   1.934
 3540TIP3    H210582   4.449   3.904   2.039
 3541TIP3   OH210583   3.086   3.965   2.708
 3541TIP3    H110584   3.079   3.926   2.620
 3541TIP3    H210585   3.180   3.959   2.728
 3542TIP3   OH210586   4.740   4.306   2.812
 3542TIP3    H110587   4.813   4.246   2.796
 3542TIP3    H210588   4.743   4.368   2.739
 3543TIP3   OH210589   4.939   4.112   2.796
 3543TIP3    H110590   4.862   4.066   2.830
 3543TIP3    H210591   5.013   4.055   2.819
 3544TIP3   OH210592   4.400   3.329   1.363
 3544TIP3    H110593   4.463   3.303   1.430
 3544TIP3    H210594   4.317   3.290   1.392
 3545TIP3   OH210595   4.464   3.615   1.829
 3545TIP3    H110596   4.509   3.532   1.842
 3545TIP3    H210597   4.509   3.655   1.754
 3546TIP3   OH210598   4.615   3.779   2.349
 3546TIP3    H110599   4.697   3.797   2.303
 3546TIP3    H210600   4.628   3.818   2.436
 3547TIP3   OH210601   4.690   3.929   2.576
 3547TIP3    H110602   4.619   3.956   2.634
 3547TIP3    H210603   4.721   4.010   2.536
 3548TIP3   OH210604   3.303   3.624   3.346
 3548TIP3    H110605   3.395   3.630   3.369
 3548TIP3    H210606   3.270   3.550   3.398
 3549TIP3   OH210607   4.578   3.365   1.879
 3549TIP3    H110608   4.623   3.351   1.962
 3549TIP3    H210609   4.515   3.293   1.873
 3550TIP3   OH210610   3.286   3.350   2.693
 3550TIP3    H110611   3.339   3.272   2.706
 3550TIP3    H210612   3.349   3.422   2.685
 3551TIP3   OH210613   3.066   3.603   2.767
 3551TIP3    H110614   3.120   3.607   2.688
 3551TIP3    H210615   3.100   3.673   2.823
 3552TIP3   OH210616   5.000   3.656   2.892
 3552TIP3    H110617   4.907   3.679   2.890
 3552TIP3    H210618   5.003   3.565   2.861
 3553TIP3   OH210619   4.628   3.283   1.520
 3553TIP3    H110620   4.674   3.221   1.463
 3553TIP3    H210621   4.686   3.360   1.523
 3554TIP3   OH210622   3.054   3.116   2.270
 3554TIP3    H110623   2.968   3.108   2.312
 3554TIP3    H210624   3.039   3.173   2.195
 3555TIP3   OH210625   4.213   4.842   1.786
 3555TIP3    H110626   4.270   4.828   1.710
 3555TIP3    H210627   4.257   4.909   1.838
 3556TIP3   OH210628   3.262   3.166   3.081
 3556TIP3    H110629   3.220   3.169   3.167
 3556TIP3    H210630   3.208   3.222   3.026
 3557TIP3   OH210631   3.293   4.653   3.155
 3557TIP3    H110632   3.204   4.617   3.158
 3557TIP3    H210633   3.331   4.631   3.240
 3558TIP3   OH210634   3.507   4.675   2.706
 3558TIP3    H110635   3.458   4.752   2.677
 3558TIP3    H210636   3.594   4.687   2.668
 3559TIP3   OH210637   3.924   4.913   2.858
 3559TIP3    H110638   3.960   4.905   2.946
 3559TIP3    H210639   3.987   4.968   2.811
 3560TIP3   OH210640   4.111   5.069   2.724
 3560TIP3    H110641   4.175   5.009   2.684
 3560TIP3    H210642   4.164   5.126   2.780
 3561TIP3   OH210643   4.929   3.400   2.803
 3561TIP3    H110644   4.835   3.392   2.788
 3561TIP3    H210645   4.960   3.309   2.809
 3562TIP3   OH210646   3.169   4.952   2.750
 3562TIP3    H110647   3.077   4.976   2.737
 3562TIP3    H210648   3.196   5.005   2.825
 3563TIP3   OH210649   3.403   4.913   2.610
 3563TIP3    H110650   3.320   4.924   2.656
 3563TIP3    H210651   3.383   4.936   2.519
 3564TIP3   OH210652   3.827   4.930   2.402
 3564TIP3    H110653   3.753   4.942   2.342
 3564TIP3    H210654   3.836   5.015   2.445
 3565TIP3   OH210655   4.093   4.869   2.449
 3565TIP3    H110656   4.000   4.886   2.432
 3565TIP3    H210657   4.139   4.940   2.405
 3566TIP3   OH210658   4.298   5.050   2.359
 3566TIP3    H110659   4.291   5.135   2.316
 3566TIP3    H210660   4.326   4.990   2.290
 3567TIP3   OH210661   3.089   4.702   2.493
 3567TIP3    H110662   3.116   4.673   2.580
 3567TIP3    H210663   3.158   4.671   2.435
 3568TIP3   OH210664   3.289   4.589   2.345
 3568TIP3    H110665   3.299   4.504   2.388
 3568TIP3    H210666   3.376   4.628   2.348
 3569TIP3   OH210667   3.558   4.676   2.363
 3569TIP3    H110668   3.577   4.583   2.349
 3569TIP3    H210669   3.611   4.699   2.439
 3570TIP3   OH210670   4.117   3.326   2.446
 3570TIP3    H110671   4.080   3.256   2.498
 3570TIP3    H210672   4.187   3.284   2.395
 3571TIP3   OH210673   4.624   3.227   2.333
 3571TIP3    H110674   4.662   3.279   2.262
 3571TIP3    H210675   4.534   3.257   2.339
 3572TIP3   OH210676   4.738   3.315   2.099
 3572TIP3    H110677   4.808   3.256   2.072
 3572TIP3    H210678   4.774   3.402   2.087
 3573TIP3   OH210679   3.363   3.025   2.445
 3573TIP3    H110680   3.273   2.993   2.456
 3573TIP3    H210681   3.416   2.945   2.440
 3574TIP3   OH210682   3.175   2.923   2.099
 3574TIP3    H110683   3.201   2.976   2.023
 3574TIP3    H210684   3.139   2.987   2.161
 3575TIP3   OH210685   3.836   3.064   2.341
 3575TIP3    H110686   3.884   3.113   2.275
 3575TIP3    H210687   3.873   3.094   2.424
 3576TIP3   OH210688   4.334   3.213   2.316
 3576TIP3    H110689   4.346   3.177   2.228
 3576TIP3    H210690   4.338   3.136   2.373
 3577TIP3   OH210691   4.391   3.155   1.884
 3577TIP3    H110692   4.312   3.203   1.907
 3577TIP3    H210693   4.380   3.069   1.923
 3578TIP3   OH210694   2.859   4.501   1.862
 3578TIP3    H110695   2.775   4.465   1.834
 3578TIP3    H210696   2.858   4.592   1.832
 3579TIP3   OH210697   3.286   3.060   1.865
 3579TIP3    H110698   3.332   2.999   1.807
 3579TIP3    H210699   3.356   3.116   1.900
 3580TIP3   OH210700   3.777   3.255   1.961
 3580TIP3    H110701   3.835   3.204   2.017
 3580TIP3    H210702   3.790   3.346   1.988
 3581TIP3   OH210703   3.651   4.653   1.459
 3581TIP3    H110704   3.737   4.678   1.424
 3581TIP3    H210705   3.623   4.581   1.402
 3582TIP3   OH210706   4.367   4.791   1.559
 3582TIP3    H110707   4.360   4.696   1.553
 3582TIP3    H210708   4.320   4.824   1.483
 3583TIP3   OH210709   3.586   3.305   3.334
 3583TIP3    H110710   3.547   3.238   3.390
 3583TIP3    H210711   3.677   3.310   3.362
 3584TIP3   OH210712   3.834   3.308   3.462
 3584TIP3    H110713   3.915   3.290   3.413
 3584TIP3    H210714   3.827   3.235   3.524
 3585TIP3   OH210715   2.960   4.497   1.516
 3585TIP3    H110716   2.961   4.501   1.612
 3585TIP3    H210717   3.041   4.451   1.493
 3586TIP3   OH210718   4.656   3.414   3.243
 3586TIP3    H110719   4.673   3.387   3.333
 3586TIP3    H210720   4.742   3.420   3.202
 3587TIP3   OH210721   4.581   4.936   2.740
 3587TIP3    H110722   4.505   4.903   2.692
 3587TIP3    H210723   4.562   5.029   2.754
 3588TIP3   OH210724   5.853   4.317   1.495
 3588TIP3    H110725   5.822   4.405   1.470
 3588TIP3    H210726   5.781   4.259   1.471
 3589TIP3   OH210727   5.855   4.314   1.909
 3589TIP3    H110728   5.905   4.292   1.988
 3589TIP3    H210729   5.809   4.233   1.886
 3590TIP3   OH210730   5.146   4.183   2.265
 3590TIP3    H110731   5.176   4.115   2.325
 3590TIP3    H210732   5.214   4.249   2.268
 3591TIP3   OH210733   6.115   4.619   1.576
 3591TIP3    H110734   6.101   4.552   1.643
 3591TIP3    H210735   6.137   4.698   1.625
 3592TIP3   OH210736   5.142   4.608   1.953
 3592TIP3    H110737   5.126   4.514   1.962
 3592TIP3    H210738   5.237   4.615   1.940
 3593TIP3   OH210739   4.827   3.811   1.730
 3593TIP3    H110740   4.786   3.893   1.756
 3593TIP3    H210741   4.756   3.759   1.692
 3594TIP3   OH210742   4.898   4.109   1.945
 3594TIP3    H110743   4.947   4.033   1.975
 3594TIP3    H210744   4.964   4.168   1.909
 3595TIP3   OH210745   5.757   5.060   1.582
 3595TIP3    H110746   5.789   4.990   1.525
 3595TIP3    H210747   5.743   5.017   1.666
 3596TIP3   OH210748   5.655   4.539   1.914
 3596TIP3    H110749   5.695   4.459   1.881
 3596TIP3    H210750   5.729   4.592   1.944
 3597TIP3   OH210751   6.684   3.859   1.929
 3597TIP3    H110752   6.692   3.949   1.960
 3597TIP3    H210753   6.716   3.861   1.839
 3598TIP3   OH210754   6.070   4.023   1.953
 3598TIP3    H110755   6.104   3.938   1.980
 3598TIP3    H210756   6.031   4.009   1.867
 3599TIP3   OH210757   5.422   3.685   1.911
 3599TIP3    H110758   5.399   3.758   1.854
 3599TIP3    H210759   5.366   3.613   1.882
 3600TIP3   OH210760   6.114   3.782   1.550
 3600TIP3    H110761   6.180   3.773   1.620
 3600TIP3    H210762   6.163   3.816   1.476
 3601TIP3   OH210763   5.044   3.896   2.041
 3601TIP3    H110764   5.127   3.879   2.086
 3601TIP3    H210765   5.049   3.843   1.962
 3602TIP3   OH210766   5.474   4.097   1.838
 3602TIP3    H110767   5.567   4.077   1.849
 3602TIP3    H210768   5.436   4.015   1.808
 3603TIP3   OH210769   6.735   4.087   2.092
 3603TIP3    H110770   6.646   4.121   2.087
 3603TIP3    H210771   6.766   4.113   2.179
 3604TIP3   OH210772   5.400   3.682   2.366
 3604TIP3    H110773   5.346   3.718   2.296
 3604TIP3    H210774   5.347   3.694   2.445
 3605TIP3   OH210775   5.729   4.529   1.369
 3605TIP3    H110776   5.701   4.516   1.279
 3605TIP3    H210777   5.678   4.605   1.399
 3606TIP3   OH210778   5.502   4.462   2.133
 3606TIP3    H110779   5.443   4.529   2.167
 3606TIP3    H210780   5.545   4.504   2.058
 3607TIP3   OH210781   6.283   3.800   1.765
 3607TIP3    H110782   6.240   3.779   1.848
 3607TIP3    H210783   6.337   3.876   1.785
 3608TIP3   OH210784   5.291   3.792   2.135
 3608TIP3    H110785   5.345   3.867   2.160
 3608TIP3    H210786   5.339   3.751   2.063
 3609TIP3   OH210787   5.338   4.660   2.238
 3609TIP3    H110788   5.319   4.748   2.206
 3609TIP3    H210789   5.260   4.636   2.290
 3610TIP3   OH210790   4.719   4.362   1.486
 3610TIP3    H110791   4.677   4.384   1.403
 3610TIP3    H210792   4.743   4.447   1.524
 3611TIP3   OH210793   6.160   4.859   1.723
 3611TIP3    H110794   6.074   4.855   1.765
 3611TIP3    H210795   6.162   4.943   1.678
 3612TIP3   OH210796   6.481   3.750   2.095
 3612TIP3    H110797   6.394   3.769   2.060
 3612TIP3    H210798   6.541   3.777   2.026
 3613TIP3   OH210799   5.743   3.379   2.092
 3613TIP3    H110800   5.733   3.287   2.115
 3613TIP3    H210801   5.668   3.422   2.132
 3614TIP3   OH210802   5.853   4.875   1.395
 3614TIP3    H110803   5.910   4.800   1.377
 3614TIP3    H210804   5.908   4.952   1.377
 3615TIP3   OH210805   6.033   4.682   1.316
 3615TIP3    H110806   6.011   4.600   1.272
 3615TIP3    H210807   6.064   4.655   1.402
 3616TIP3   OH210808   6.386   4.760   2.069
 3616TIP3    H110809   6.371   4.683   2.013
 3616TIP3    H210810   6.375   4.835   2.011
 3617TIP3   OH210811   5.675   4.159   1.349
 3617TIP3    H110812   5.595   4.208   1.328
 3617TIP3    H210813   5.723   4.154   1.267
 3618TIP3   OH210814   5.646   3.954   1.047
 3618TIP3    H110815   5.711   4.001   1.099
 3618TIP3    H210816   5.697   3.888   0.998
 3619TIP3   OH210817   6.570   4.416   1.934
 3619TIP3    H110818   6.486   4.462   1.934
 3619TIP3    H210819   6.604   4.428   1.846
 3620TIP3   OH210820   6.037   4.227   1.317
 3620TIP3    H110821   5.984   4.258   1.390
 3620TIP3    H210822   6.122   4.205   1.357
 3621TIP3   OH210823   6.265   4.279   2.240
 3621TIP3    H110824   6.262   4.361   2.288
 3621TIP3    H210825   6.182   4.275   2.193
 3622TIP3   OH210826   5.264   4.231   1.712
 3622TIP3    H110827   5.226   4.172   1.647
 3622TIP3    H210828   5.339   4.184   1.747
 3623TIP3   OH210829   5.402   4.657   1.847
 3623TIP3    H110830   5.374   4.638   1.757
 3623TIP3    H210831   5.488   4.616   1.855
 3624TIP3   OH210832   5.387   4.218   2.073
 3624TIP3    H110833   5.423   4.187   1.990
 3624TIP3    H210834   5.432   4.301   2.089
 3625TIP3   OH210835   5.928   4.865   1.865
 3625TIP3    H110836   5.907   4.940   1.921
 3625TIP3    H210837   5.911   4.788   1.919
 3626TIP3   OH210838   5.530   4.762   2.408
 3626TIP3    H110839   5.470   4.822   2.453
 3626TIP3    H210840   5.474   4.709   2.352
 3627TIP3   OH210841   5.860   4.102   1.151
 3627TIP3    H110842   5.925   4.156   1.198
 3627TIP3    H210843   5.886   4.109   1.059
 3628TIP3   OH210844   5.288   4.318   2.507
 3628TIP3    H110845   5.297   4.403   2.550
 3628TIP3    H210846   5.197   4.292   2.522
 3629TIP3   OH210847   5.600   4.772   1.420
 3629TIP3    H110848   5.685   4.815   1.417
 3629TIP3    H210849   5.546   4.821   1.357
 3630TIP3   OH210850   5.328   4.934   2.491
 3630TIP3    H110851   5.300   4.936   2.400
 3630TIP3    H210852   5.249   4.912   2.540
 3631TIP3   OH210853   6.378   3.337   1.191
 3631TIP3    H110854   6.301   3.357   1.243
 3631TIP3    H210855   6.390   3.414   1.136
 3632TIP3   OH210856   5.138   4.075   1.508
 3632TIP3    H110857   5.062   4.122   1.474
 3632TIP3    H210858   5.106   3.987   1.528
 3633TIP3   OH210859   6.155   4.716   0.628
 3633TIP3    H110860   6.162   4.809   0.649
 3633TIP3    H210861   6.246   4.685   0.628
 3634TIP3   OH210862   4.919   4.472   2.436
 3634TIP3    H110863   4.848   4.453   2.374
 3634TIP3    H210864   4.952   4.386   2.461
 3635TIP3   OH210865   4.764   4.666   2.077
 3635TIP3    H110866   4.858   4.682   2.091
 3635TIP3    H210867   4.722   4.743   2.117
 3636TIP3   OH210868   6.612   5.117   2.141
 3636TIP3    H110869   6.617   5.022   2.152
 3636TIP3    H210870   6.534   5.142   2.190
 3637TIP3   OH210871   5.716   4.897   2.259
 3637TIP3    H110872   5.716   4.987   2.293
 3637TIP3    H210873   5.648   4.852   2.308
 3638TIP3   OH210874   5.489   5.001   1.229
 3638TIP3    H110875   5.449   4.986   1.143
 3638TIP3    H210876   5.455   5.087   1.256
 3639TIP3   OH210877   4.934   4.859   1.597
 3639TIP3    H110878   4.979   4.852   1.681
 3639TIP3    H210879   4.885   4.777   1.589
 3640TIP3   OH210880   5.677   4.934   0.891
 3640TIP3    H110881   5.725   4.850   0.889
 3640TIP3    H210882   5.712   4.979   0.968
 3641TIP3   OH210883   5.750   4.983   1.153
 3641TIP3    H110884   5.659   4.986   1.185
 3641TIP3    H210885   5.794   4.923   1.212
 3642TIP3   OH210886   6.508   4.231   2.405
 3642TIP3    H110887   6.427   4.241   2.355
 3642TIP3    H210888   6.529   4.138   2.398
 3643TIP3   OH210889   5.119   4.658   2.407
 3643TIP3    H110890   5.169   4.644   2.487
 3643TIP3    H210891   5.047   4.595   2.413
 3644TIP3   OH210892   5.509   3.472   2.218
 3644TIP3    H110893   5.425   3.438   2.185
 3644TIP3    H210894   5.485   3.551   2.267
 3645TIP3   OH210895   6.046   3.588   2.415
 3645TIP3    H110896   6.114   3.562   2.477
 3645TIP3    H210897   5.964   3.572   2.460
 3646TIP3   OH210898   6.280   4.015   2.338
 3646TIP3    H110899   6.234   4.011   2.421
 3646TIP3    H210900   6.256   4.100   2.301
 3647TIP3   OH210901   5.927   4.094   0.892
 3647TIP3    H110902   5.880   4.084   0.809
 3647TIP3    H210903   5.992   4.162   0.875
 3648TIP3   OH210904   5.658   3.510   1.185
 3648TIP3    H110905   5.621   3.517   1.273
 3648TIP3    H210906   5.620   3.430   1.149
 3649TIP3   OH210907   5.444   4.001   2.232
 3649TIP3    H110908   5.394   4.008   2.313
 3649TIP3    H210909   5.421   4.080   2.183
 3650TIP3   OH210910   5.327   3.880   1.745
 3650TIP3    H110911   5.238   3.858   1.771
 3650TIP3    H210912   5.336   3.845   1.656
 3651TIP3   OH210913   5.810   3.956   1.477
 3651TIP3    H110914   5.760   4.027   1.437
 3651TIP3    H210915   5.866   3.924   1.407
 3652TIP3   OH210916   5.986   4.227   2.552
 3652TIP3    H110917   5.959   4.157   2.612
 3652TIP3    H210918   6.079   4.240   2.571
 3653TIP3   OH210919   5.977   3.974   1.701
 3653TIP3    H110920   5.908   3.997   1.639
 3653TIP3    H210921   6.020   3.899   1.661
 3654TIP3   OH210922   5.271   4.007   2.448
 3654TIP3    H110923   5.276   4.071   2.519
 3654TIP3    H210924   5.256   3.924   2.492
 3655TIP3   OH210925   5.324   3.495   1.159
 3655TIP3    H110926   5.313   3.496   1.254
 3655TIP3    H210927   5.246   3.538   1.125
 3656TIP3   OH210928   4.867   3.537   2.020
 3656TIP3    H110929   4.940   3.571   2.073
 3656TIP3    H210930   4.908   3.513   1.937
 3657TIP3   OH210931   4.787   3.514   1.533
 3657TIP3    H110932   4.832   3.549   1.455
 3657TIP3    H210933   4.725   3.582   1.557
 3658TIP3   OH210934   6.012   4.224   2.126
 3658TIP3    H110935   6.038   4.157   2.062
 3658TIP3    H210936   5.970   4.175   2.196
 3659TIP3   OH210937   5.687   3.675   1.800
 3659TIP3    H110938   5.607   3.675   1.853
 3659TIP3    H210939   5.758   3.667   1.863
 3660TIP3   OH210940   5.088   3.758   1.807
 3660TIP3    H110941   4.999   3.763   1.772
 3660TIP3    H210942   5.114   3.668   1.792
 3661TIP3   OH210943   5.343   3.755   1.501
 3661TIP3    H110944   5.436   3.767   1.487
 3661TIP3    H210945   5.303   3.774   1.416
 3662TIP3   OH210946   6.145   3.760   2.007
 3662TIP3    H110947   6.125   3.778   2.099
 3662TIP3    H210948   6.075   3.701   1.978
 3663TIP3   OH210949   5.219   3.782   1.259
 3663TIP3    H110950   5.155   3.732   1.208
 3663TIP3    H210951   5.273   3.827   1.193
 3664TIP3   OH210952   6.333   5.464   2.218
 3664TIP3    H110953   6.328   5.488   2.125
 3664TIP3    H210954   6.407   5.515   2.252
 3665TIP3   OH210955   5.277   4.576   2.634
 3665TIP3    H110956   5.356   4.595   2.685
 3665TIP3    H210957   5.208   4.568   2.700
 3666TIP3   OH210958   5.742   4.041   1.906
 3666TIP3    H110959   5.806   3.986   1.860
 3666TIP3    H210960   5.735   4.003   1.993
 3667TIP3   OH210961   5.235   3.509   1.794
 3667TIP3    H110962   5.205   3.434   1.845
 3667TIP3    H210963   5.259   3.472   1.709
 3668TIP3   OH210964   5.710   3.948   2.171
 3668TIP3    H110965   5.622   3.977   2.195
 3668TIP3    H210966   5.768   4.000   2.227
 3669TIP3   OH210967   5.446   4.304   1.280
 3669TIP3    H110968   5.374   4.244   1.261
 3669TIP3    H210969   5.424   4.342   1.365
 3670TIP3   OH210970   6.335   4.553   1.894
 3670TIP3    H110971   6.370   4.603   1.819
 3670TIP3    H210972   6.255   4.513   1.860
 3671TIP3   OH210973   5.911   3.611   1.186
 3671TIP3    H110974   5.817   3.591   1.182
 3671TIP3    H210975   5.915   3.706   1.198
 3672TIP3   OH210976   5.856   4.635   2.293
 3672TIP3    H110977   5.889   4.614   2.380
 3672TIP3    H210978   5.798   4.710   2.307
 3673TIP3   OH210979   5.973   3.872   1.262
 3673TIP3    H110980   6.068   3.876   1.268
 3673TIP3    H210981   5.948   3.949   1.211
 3674TIP3   OH210982   5.147   4.322   1.949
 3674TIP3    H110983   5.183   4.300   1.864
 3674TIP3    H210984   5.204   4.278   2.012
 3675TIP3   OH210985   5.602   4.457   1.115
 3675TIP3    H110986   5.559   4.542   1.124
 3675TIP3    H210987   5.551   4.399   1.171
 3676TIP3   OH210988   5.023   4.241   2.562
 3676TIP3    H110989   5.023   4.222   2.656
 3676TIP3    H210990   4.949   4.191   2.528
 3677TIP3   OH210991   5.751   4.380   2.593
 3677TIP3    H110992   5.679   4.321   2.567
 3677TIP3    H210993   5.830   4.336   2.562
 3678TIP3   OH210994   5.990   4.914   2.189
 3678TIP3    H110995   5.902   4.877   2.176
 3678TIP3    H210996   5.982   4.971   2.265
 3679TIP3   OH210997   6.406   3.954   1.105
 3679TIP3    H110998   6.344   3.900   1.055
 3679TIP3    H210999   6.389   4.044   1.075
 3680TIP3   OH211000   6.632   4.835   2.162
 3680TIP3    H111001   6.538   4.821   2.151
 3680TIP3    H211002   6.670   4.807   2.079
 3681TIP3   OH211003   6.165   4.771   1.050
 3681TIP3    H111004   6.118   4.741   1.128
 3681TIP3    H211005   6.149   4.703   0.985
 3682TIP3   OH211006   6.105   4.418   1.793
 3682TIP3    H111007   6.015   4.395   1.815
 3682TIP3    H211008   6.143   4.338   1.757
 3683TIP3   OH211009   5.258   4.648   1.605
 3683TIP3    H111010   5.255   4.725   1.548
 3683TIP3    H211011   5.167   4.630   1.627
 3684TIP3   OH211012   4.822   3.940   1.311
 3684TIP3    H111013   4.864   4.023   1.333
 3684TIP3    H211014   4.741   3.940   1.363
 3685TIP3   OH211015   5.355   4.406   1.513
 3685TIP3    H111016   5.336   4.495   1.541
 3685TIP3    H211017   5.326   4.352   1.587
 3686TIP3   OH211018   5.534   4.979   2.054
 3686TIP3    H111019   5.573   5.050   2.003
 3686TIP3    H211020   5.608   4.941   2.102
 3687TIP3   OH211021   5.169   4.869   1.456
 3687TIP3    H111022   5.080   4.873   1.493
 3687TIP3    H211023   5.202   4.958   1.464
 3688TIP3   OH211024   5.897   4.636   2.021
 3688TIP3    H111025   5.887   4.628   2.116
 3688TIP3    H211026   5.961   4.569   1.997
 3689TIP3   OH211027   5.873   4.445   0.944
 3689TIP3    H111028   5.919   4.449   1.028
 3689TIP3    H211029   5.780   4.447   0.967
 3690TIP3   OH211030   6.156   5.131   2.064
 3690TIP3    H111031   6.080   5.074   2.069
 3690TIP3    H211032   6.135   5.194   1.995
 3691TIP3   OH211033   6.223   4.979   0.616
 3691TIP3    H111034   6.260   5.056   0.573
 3691TIP3    H211035   6.234   4.997   0.710
 3692TIP3   OH211036   5.232   3.756   2.577
 3692TIP3    H111037   5.137   3.764   2.588
 3692TIP3    H211038   5.261   3.710   2.655
 3693TIP3   OH211039   6.040   4.449   1.160
 3693TIP3    H111040   6.032   4.372   1.216
 3693TIP3    H211041   6.133   4.457   1.142
 3694TIP3   OH211042   4.968   4.855   2.217
 3694TIP3    H111043   5.017   4.789   2.265
 3694TIP3    H211044   4.977   4.935   2.269
 3695TIP3   OH211045   5.226   4.477   0.911
 3695TIP3    H111046   5.245   4.386   0.885
 3695TIP3    H211047   5.213   4.473   1.005
 3696TIP3   OH211048   5.185   4.493   1.182
 3696TIP3    H111049   5.255   4.461   1.239
 3696TIP3    H211050   5.188   4.588   1.193
 3697TIP3   OH211051   4.916   4.192   1.389
 3697TIP3    H111052   4.850   4.237   1.442
 3697TIP3    H211053   4.934   4.252   1.317
 3698TIP3   OH211054   6.087   3.819   2.269
 3698TIP3    H111055   6.164   3.862   2.308
 3698TIP3    H211056   6.072   3.742   2.323
 3699TIP3   OH211057   5.967   3.565   1.455
 3699TIP3    H111058   5.946   3.583   1.363
 3699TIP3    H211059   6.009   3.646   1.486
 3700TIP3   OH211060   5.464   4.687   1.153
 3700TIP3    H111061   5.378   4.715   1.185
 3700TIP3    H211062   5.481   4.744   1.078
 3701TIP3   OH211063   5.624   3.763   1.543
 3701TIP3    H111064   5.686   3.831   1.519
 3701TIP3    H211065   5.643   3.745   1.635
 3702TIP3   OH211066   5.919   4.061   2.325
 3702TIP3    H111067   5.936   4.106   2.408
 3702TIP3    H211068   5.965   3.978   2.332
 3703TIP3   OH211069   5.782   3.466   1.636
 3703TIP3    H111070   5.758   3.543   1.686
 3703TIP3    H211071   5.849   3.497   1.575
 3704TIP3   OH211072   5.203   4.763   1.208
 3704TIP3    H111073   5.176   4.833   1.149
 3704TIP3    H211074   5.190   4.799   1.296
 3705TIP3   OH211075   5.296   3.483   1.437
 3705TIP3    H111076   5.284   3.573   1.467
 3705TIP3    H211077   5.390   3.468   1.443
 3706TIP3   OH211078   6.543   3.955   2.309
 3706TIP3    H111079   6.449   3.966   2.325
 3706TIP3    H211080   6.548   3.904   2.228
 3707TIP3   OH211081   6.198   4.162   1.708
 3707TIP3    H111082   6.120   4.106   1.717
 3707TIP3    H211083   6.264   4.119   1.762
 3708TIP3   OH211084   4.932   4.377   1.176
 3708TIP3    H111085   5.005   4.437   1.189
 3708TIP3    H211086   4.965   4.311   1.116
 3709TIP3   OH211087   4.847   3.662   1.309
 3709TIP3    H111088   4.859   3.757   1.317
 3709TIP3    H211089   4.777   3.652   1.244
 3710TIP3   OH211090   6.184   5.125   1.653
 3710TIP3    H111091   6.133   5.178   1.590
 3710TIP3    H211092   6.275   5.150   1.637
 3711TIP3   OH211093   5.251   3.383   2.174
 3711TIP3    H111094   5.219   3.351   2.089
 3711TIP3    H211095   5.239   3.309   2.234
 3712TIP3   OH211096   4.769   4.631   1.570
 3712TIP3    H111097   4.720   4.666   1.645
 3712TIP3    H211098   4.728   4.672   1.493
 3713TIP3   OH211099   4.962   5.167   2.638
 3713TIP3    H111100   5.046   5.164   2.684
 3713TIP3    H211101   4.935   5.075   2.633
 3714TIP3   OH211102   5.451   5.109   2.668
 3714TIP3    H111103   5.537   5.067   2.676
 3714TIP3    H211104   5.404   5.056   2.603
 3715TIP3   OH211105   5.426   4.664   0.856
 3715TIP3    H111106   5.366   4.592   0.875
 3715TIP3    H211107   5.495   4.625   0.803
 3716TIP3   OH211108   6.081   5.073   2.507
 3716TIP3    H111109   6.047   4.990   2.541
 3716TIP3    H211110   6.120   5.051   2.422
 3717TIP3   OH211111   5.846   4.725   0.904
 3717TIP3    H111112   5.875   4.634   0.893
 3717TIP3    H211113   5.905   4.775   0.848
 3718TIP3   OH211114   5.075   4.575   2.827
 3718TIP3    H111115   5.087   4.482   2.848
 3718TIP3    H211116   4.987   4.579   2.790
 3719TIP3   OH211117   5.062   4.181   1.041
 3719TIP3    H111118   5.114   4.158   1.118
 3719TIP3    H211119   5.126   4.189   0.970
 3720TIP3   OH211120   5.698   4.662   2.603
 3720TIP3    H111121   5.642   4.678   2.526
 3720TIP3    H211122   5.722   4.570   2.595
 3721TIP3   OH211123   5.591   4.389   0.849
 3721TIP3    H111124   5.581   4.410   0.942
 3721TIP3    H211125   5.593   4.293   0.846
 3722TIP3   OH211126   6.173   4.697   2.234
 3722TIP3    H111127   6.246   4.724   2.178
 3722TIP3    H211128   6.102   4.757   2.211
 3723TIP3   OH211129   5.202   4.314   2.832
 3723TIP3    H111130   5.230   4.222   2.831
 3723TIP3    H211131   5.231   4.347   2.917
 3724TIP3   OH211132   5.242   4.120   1.244
 3724TIP3    H111133   5.219   4.088   1.331
 3724TIP3    H211134   5.285   4.046   1.202
 3725TIP3   OH211135   5.547   4.205   2.491
 3725TIP3    H111136   5.459   4.243   2.494
 3725TIP3    H211137   5.581   4.230   2.405
 3726TIP3   OH211138   5.372   3.929   1.085
 3726TIP3    H111139   5.344   3.929   0.994
 3726TIP3    H211140   5.467   3.932   1.082
 3727TIP3   OH211141   6.051   4.571   2.584
 3727TIP3    H111142   6.116   4.528   2.528
 3727TIP3    H211143   6.045   4.515   2.661
 3728TIP3   OH211144   6.120   4.261   0.800
 3728TIP3    H111145   6.126   4.195   0.731
 3728TIP3    H211146   6.128   4.344   0.754
 3729TIP3   OH211147   5.660   3.972   2.590
 3729TIP3    H111148   5.654   3.900   2.528
 3729TIP3    H211149   5.617   4.046   2.546
 3730TIP3   OH211150   5.660   3.765   2.394
 3730TIP3    H111151   5.683   3.803   2.310
 3730TIP3    H211152   5.568   3.739   2.386
 3731TIP3   OH211153   5.672   4.294   2.267
 3731TIP3    H111154   5.760   4.319   2.239
 3731TIP3    H211155   5.614   4.356   2.222
 3732TIP3   OH211156   6.256   4.253   2.646
 3732TIP3    H111157   6.287   4.163   2.655
 3732TIP3    H211158   6.332   4.302   2.616
 3733TIP3   OH211159   6.295   4.516   2.394
 3733TIP3    H111160   6.241   4.579   2.345
 3733TIP3    H211161   6.384   4.531   2.361
 3734TIP3   OH211162   5.557   4.064   2.844
 3734TIP3    H111163   5.475   4.025   2.874
 3734TIP3    H211164   5.567   4.032   2.755
 3735TIP3   OH211165   5.782   3.532   2.493
 3735TIP3    H111166   5.740   3.612   2.463
 3735TIP3    H211167   5.715   3.464   2.484
 3736TIP3   OH211168   5.910   4.009   2.699
 3736TIP3    H111169   5.895   3.996   2.793
 3736TIP3    H211170   5.825   3.990   2.659
 3737TIP3   OH211171   6.155   3.969   2.571
 3737TIP3    H111172   6.074   3.967   2.623
 3737TIP3    H211173   6.222   3.936   2.631
 3738TIP3   OH211174   6.394   3.926   2.718
 3738TIP3    H111175   6.403   3.831   2.728
 3738TIP3    H211176   6.385   3.959   2.807
 3739TIP3   OH211177   5.375   3.842   2.904
 3739TIP3    H111178   5.370   3.753   2.869
 3739TIP3    H211179   5.410   3.831   2.993
 3740TIP3   OH211180   5.859   3.517   2.758
 3740TIP3    H111181   5.925   3.448   2.750
 3740TIP3    H211182   5.823   3.526   2.669
 3741TIP3   OH211183   5.950   3.733   2.904
 3741TIP3    H111184   5.920   3.660   2.849
 3741TIP3    H211185   5.878   3.795   2.904
 3742TIP3   OH211186   5.165   4.972   1.038
 3742TIP3    H111187   5.256   4.960   1.010
 3742TIP3    H211188   5.126   5.026   0.970
 3743TIP3   OH211189   4.658   4.364   1.187
 3743TIP3    H111190   4.753   4.376   1.188
 3743TIP3    H211191   4.645   4.275   1.156
 3744TIP3   OH211192   4.568   4.952   1.651
 3744TIP3    H111193   4.504   4.897   1.606
 3744TIP3    H211194   4.613   4.892   1.710
 3745TIP3   OH211195   4.709   4.786   1.821
 3745TIP3    H111196   4.699   4.717   1.886
 3745TIP3    H211197   4.760   4.854   1.865
 3746TIP3   OH211198   6.437   5.220   1.633
 3746TIP3    H111199   6.469   5.240   1.721
 3746TIP3    H211200   6.514   5.229   1.577
 3747TIP3   OH211201   6.465   5.223   1.917
 3747TIP3    H111202   6.423   5.139   1.902
 3747TIP3    H211203   6.536   5.204   1.978
 3748TIP3   OH211204   6.499   4.919   2.504
 3748TIP3    H111205   6.422   4.943   2.557
 3748TIP3    H211206   6.549   5.000   2.496
 3749TIP3   OH211207   6.316   4.428   1.138
 3749TIP3    H111208   6.384   4.490   1.112
 3749TIP3    H211209   6.358   4.374   1.206
 3750TIP3   OH211210   6.465   4.277   1.307
 3750TIP3    H111211   6.405   4.236   1.368
 3750TIP3    H211212   6.534   4.315   1.362
 3751TIP3   OH211213   6.513   4.692   1.728
 3751TIP3    H111214   6.561   4.621   1.686
 3751TIP3    H211215   6.519   4.765   1.667
 3752TIP3   OH211216   6.332   4.977   1.912
 3752TIP3    H111217   6.263   5.022   1.961
 3752TIP3    H211218   6.286   4.937   1.839
 3753TIP3   OH211219   6.329   4.189   0.997
 3753TIP3    H111220   6.260   4.194   0.930
 3753TIP3    H211221   6.323   4.272   1.044
 3754TIP3   OH211222   6.236   3.835   0.936
 3754TIP3    H111223   6.254   3.898   0.867
 3754TIP3    H211224   6.214   3.754   0.891
 3755TIP3   OH211225   6.268   4.141   1.444
 3755TIP3    H111226   6.271   4.046   1.431
 3755TIP3    H211227   6.249   4.152   1.537
 3756TIP3   OH211228   4.885   4.219   2.195
 3756TIP3    H111229   4.875   4.183   2.107
 3756TIP3    H211230   4.979   4.214   2.214
 3757TIP3   OH211231   6.549   4.572   2.295
 3757TIP3    H111232   6.615   4.505   2.280
 3757TIP3    H211233   6.565   4.637   2.226
 3758TIP3   OH211234   6.722   4.360   2.294
 3758TIP3    H111235   6.645   4.318   2.333
 3758TIP3    H211236   6.793   4.297   2.309
 3759TIP3   OH211237   6.194   3.576   0.847
 3759TIP3    H111238   6.256   3.556   0.918
 3759TIP3    H211239   6.111   3.540   0.877
 3760TIP3   OH211240   6.263   3.869   1.331
 3760TIP3    H111241   6.305   3.783   1.340
 3760TIP3    H211242   6.311   3.910   1.259
 3761TIP3   OH211243   6.413   4.034   1.840
 3761TIP3    H111244   6.494   4.055   1.793
 3761TIP3    H211245   6.425   4.076   1.926
 3762TIP3   OH211246   6.478   4.190   2.065
 3762TIP3    H111247   6.404   4.220   2.118
 3762TIP3    H211248   6.509   4.269   2.021
 3763TIP3   OH211249   5.111   3.902   2.845
 3763TIP3    H111250   5.203   3.905   2.870
 3763TIP3    H211251   5.079   3.819   2.880
 3764TIP3   OH211252   6.992   3.801   2.609
 3764TIP3    H111253   7.019   3.717   2.570
 3764TIP3    H211254   6.937   3.841   2.542
 3765TIP3   OH211255   6.375   3.617   1.369
 3765TIP3    H111256   6.419   3.602   1.453
 3765TIP3    H211257   6.311   3.547   1.362
 3766TIP3   OH211258   5.082   3.605   2.181
 3766TIP3    H111259   5.137   3.527   2.193
 3766TIP3    H211260   5.145   3.676   2.171
 3767TIP3   OH211261   4.863   3.861   2.258
 3767TIP3    H111262   4.915   3.860   2.177
 3767TIP3    H211263   4.890   3.941   2.303
 3768TIP3   OH211264   6.799   3.895   2.439
 3768TIP3    H111265   6.729   3.943   2.484
 3768TIP3    H211266   6.754   3.843   2.372
 3769TIP3   OH211267   6.424   3.538   1.008
 3769TIP3    H111268   6.473   3.478   0.953
 3769TIP3    H211269   6.479   3.616   1.014
 3770TIP3   OH211270   4.850   3.375   1.759
 3770TIP3    H111271   4.764   3.365   1.799
 3770TIP3    H211272   4.835   3.431   1.683
 3771TIP3   OH211273   5.994   5.092   1.331
 3771TIP3    H111274   6.043   5.081   1.250
 3771TIP3    H211275   6.035   5.168   1.374
 3772TIP3   OH211276   5.069   3.422   2.563
 3772TIP3    H111277   5.027   3.421   2.649
 3772TIP3    H211278   5.013   3.479   2.510
 3773TIP3   OH211279   5.109   4.888   2.656
 3773TIP3    H111280   5.015   4.874   2.641
 3773TIP3    H211281   5.125   4.854   2.744
 3774TIP3   OH211282   5.309   4.937   2.208
 3774TIP3    H111283   5.255   5.008   2.175
 3774TIP3    H211284   5.392   4.946   2.160
 3775TIP3   OH211285   5.746   5.154   2.361
 3775TIP3    H111286   5.784   5.151   2.449
 3775TIP3    H211287   5.803   5.212   2.311
 3776TIP3   OH211288   5.912   5.305   2.202
 3776TIP3    H111289   5.933   5.250   2.127
 3776TIP3    H211290   5.982   5.371   2.204
 3777TIP3   OH211291   6.703   3.657   2.299
 3777TIP3    H111292   6.615   3.653   2.262
 3777TIP3    H211293   6.736   3.568   2.290
 3778TIP3   OH211294   4.973   5.191   2.248
 3778TIP3    H111295   4.881   5.206   2.226
 3778TIP3    H211296   4.992   5.254   2.317
 3779TIP3   OH211297   5.203   5.168   2.100
 3779TIP3    H111298   5.120   5.175   2.147
 3779TIP3    H211299   5.181   5.192   2.010
 3780TIP3   OH211300   5.624   5.185   1.889
 3780TIP3    H111301   5.552   5.192   1.826
 3780TIP3    H211302   5.632   5.272   1.927
 3781TIP3   OH211303   5.886   5.135   1.962
 3781TIP3    H111304   5.796   5.144   1.931
 3781TIP3    H211305   5.938   5.186   1.900
 3782TIP3   OH211306   6.090   5.294   1.850
 3782TIP3    H111307   6.078   5.381   1.812
 3782TIP3    H211308   6.122   5.240   1.778
 3783TIP3   OH211309   4.885   4.961   1.971
 3783TIP3    H111310   4.909   4.933   2.059
 3783TIP3    H211311   4.955   4.927   1.915
 3784TIP3   OH211312   5.084   4.844   1.828
 3784TIP3    H111313   5.096   4.760   1.874
 3784TIP3    H211314   5.171   4.884   1.829
 3785TIP3   OH211315   5.352   4.932   1.848
 3785TIP3    H111316   5.371   4.840   1.831
 3785TIP3    H211317   5.402   4.953   1.926
 3786TIP3   OH211318   5.918   3.586   1.940
 3786TIP3    H111319   5.877   3.514   1.988
 3786TIP3    H211320   5.985   3.544   1.886
 3787TIP3   OH211321   6.416   3.493   1.828
 3787TIP3    H111322   6.453   3.542   1.754
 3787TIP3    H211323   6.323   3.513   1.826
 3788TIP3   OH211324   6.532   3.568   1.591
 3788TIP3    H111325   6.601   3.509   1.562
 3788TIP3    H211326   6.567   3.656   1.576
 3789TIP3   OH211327   5.159   3.281   1.933
 3789TIP3    H111328   5.069   3.249   1.943
 3789TIP3    H211329   5.212   3.202   1.926
 3790TIP3   OH211330   4.972   3.182   1.588
 3790TIP3    H111331   4.998   3.234   1.511
 3790TIP3    H211332   4.936   3.246   1.649
 3791TIP3   OH211333   5.632   3.320   1.829
 3791TIP3    H111334   5.679   3.370   1.762
 3791TIP3    H211335   5.669   3.351   1.912
 3792TIP3   OH211336   6.132   3.473   1.804
 3792TIP3    H111337   6.134   3.439   1.714
 3792TIP3    H211338   6.134   3.394   1.859
 3793TIP3   OH211339   6.187   3.412   1.375
 3793TIP3    H111340   6.106   3.459   1.396
 3793TIP3    H211341   6.174   3.325   1.413
 3794TIP3   OH211342   4.658   4.746   1.347
 3794TIP3    H111343   4.572   4.713   1.322
 3794TIP3    H211344   4.655   4.839   1.323
 3795TIP3   OH211345   5.082   3.318   1.352
 3795TIP3    H111346   5.127   3.257   1.294
 3795TIP3    H211347   5.151   3.374   1.387
 3796TIP3   OH211348   5.572   3.511   1.448
 3796TIP3    H111349   5.630   3.460   1.504
 3796TIP3    H211350   5.587   3.602   1.475
 3797TIP3   OH211351   5.419   4.915   0.963
 3797TIP3    H111352   5.504   4.945   0.930
 3797TIP3    H211353   5.406   4.831   0.921
 3798TIP3   OH211354   6.125   5.034   1.100
 3798TIP3    H111355   6.129   4.940   1.086
 3798TIP3    H211356   6.099   5.070   1.015
 3799TIP3   OH211357   5.374   3.576   2.808
 3799TIP3    H111358   5.335   3.511   2.866
 3799TIP3    H211359   5.466   3.579   2.835
 3800TIP3   OH211360   5.628   3.567   2.932
 3800TIP3    H111361   5.707   3.539   2.886
 3800TIP3    H211362   5.610   3.497   2.994
 3801TIP3   OH211363   4.758   4.742   1.026
 3801TIP3    H111364   4.755   4.747   1.122
 3801TIP3    H211365   4.840   4.697   1.007
 3802TIP3   OH211366   6.448   3.653   2.732
 3802TIP3    H111367   6.464   3.625   2.822
 3802TIP3    H211368   6.533   3.645   2.688
 3803TIP3   OH211369   6.358   5.194   2.245
 3803TIP3    H111370   6.294   5.161   2.182
 3803TIP3    H211371   6.353   5.290   2.237
 3804TIP3   OH211372   6.929   4.469   1.753
 3804TIP3    H111373   6.973   4.415   1.819
 3804TIP3    H211374   6.999   4.492   1.691
 3805TIP3   OH211375   6.629   4.064   1.223
 3805TIP3    H111376   6.590   4.148   1.245
 3805TIP3    H211377   6.557   4.012   1.187
 3806TIP3   OH211378   6.693   4.363   1.435
 3806TIP3    H111379   6.745   4.287   1.460
 3806TIP3    H211380   6.757   4.432   1.416
 3807TIP3   OH211381   7.441   4.761   1.439
 3807TIP3    H111382   7.421   4.745   1.347
 3807TIP3    H211383   7.518   4.818   1.438
 3808TIP3   OH211384   7.188   3.935   1.404
 3808TIP3    H111385   7.179   4.008   1.343
 3808TIP3    H211386   7.138   3.864   1.364
 3809TIP3   OH211387   6.830   4.141   1.527
 3809TIP3    H111388   6.910   4.117   1.574
 3809TIP3    H211389   6.838   4.097   1.442
 3810TIP3   OH211390   7.259   4.332   1.346
 3810TIP3    H111391   7.324   4.362   1.283
 3810TIP3    H211392   7.225   4.251   1.308
 3811TIP3   OH211393   7.184   3.942   1.865
 3811TIP3    H111394   7.140   3.974   1.786
 3811TIP3    H211395   7.124   3.966   1.936
 3812TIP3   OH211396   7.277   4.689   1.644
 3812TIP3    H111397   7.226   4.765   1.675
 3812TIP3    H211398   7.337   4.726   1.579
 3813TIP3   OH211399   7.064   4.025   1.631
 3813TIP3    H111400   7.108   4.109   1.646
 3813TIP3    H211401   7.109   3.988   1.555
 3814TIP3   OH211402   7.127   4.904   1.731
 3814TIP3    H111403   7.110   4.982   1.678
 3814TIP3    H211404   7.047   4.894   1.784
 3815TIP3   OH211405   6.544   4.580   1.084
 3815TIP3    H111406   6.513   4.631   1.009
 3815TIP3    H211407   6.564   4.645   1.151
 3816TIP3   OH211408   7.074   4.478   1.195
 3816TIP3    H111409   7.022   4.412   1.149
 3816TIP3    H211410   7.133   4.427   1.251
 3817TIP3   OH211411   7.133   4.482   1.544
 3817TIP3    H111412   7.184   4.442   1.474
 3817TIP3    H211413   7.183   4.560   1.568
 3818TIP3   OH211414   7.317   5.030   1.886
 3818TIP3    H111415   7.256   5.092   1.926
 3818TIP3    H211416   7.263   4.978   1.828
 3819TIP3   OH211417   7.067   4.568   2.030
 3819TIP3    H111418   7.077   4.661   2.050
 3819TIP3    H211419   6.972   4.554   2.032
 3820TIP3   OH211420   7.111   5.191   1.975
 3820TIP3    H111421   7.090   5.192   1.882
 3820TIP3    H211422   7.028   5.172   2.019
 3821TIP3   OH211423   6.933   4.330   1.003
 3821TIP3    H111424   6.892   4.409   0.968
 3821TIP3    H211425   6.863   4.264   1.001
 3822TIP3   OH211426   6.712   4.729   1.925
 3822TIP3    H111427   6.644   4.714   1.858
 3822TIP3    H211428   6.747   4.642   1.942
 3823TIP3   OH211429   6.591   4.917   1.571
 3823TIP3    H111430   6.673   4.898   1.525
 3823TIP3    H211431   6.615   4.984   1.634
 3824TIP3   OH211432   7.504   5.173   1.737
 3824TIP3    H111433   7.518   5.261   1.771
 3824TIP3    H211434   7.454   5.128   1.805
 3825TIP3   OH211435   6.694   5.064   1.268
 3825TIP3    H111436   6.783   5.037   1.289
 3825TIP3    H211437   6.657   4.991   1.218
 3826TIP3   OH211438   6.907   4.920   1.899
 3826TIP3    H111439   6.960   4.906   1.977
 3826TIP3    H211440   6.838   4.853   1.904
 3827TIP3   OH211441   7.258   3.705   1.742
 3827TIP3    H111442   7.177   3.684   1.694
 3827TIP3    H211443   7.242   3.793   1.777
 3828TIP3   OH211444   7.181   4.257   1.694
 3828TIP3    H111445   7.140   4.274   1.779
 3828TIP3    H211446   7.168   4.339   1.645
 3829TIP3   OH211447   7.123   4.127   1.220
 3829TIP3    H111448   7.032   4.105   1.238
 3829TIP3    H211449   7.139   4.091   1.132
 3830TIP3   OH211450   7.055   4.293   1.935
 3830TIP3    H111451   7.067   4.363   1.999
 3830TIP3    H211452   7.052   4.213   1.988
 3831TIP3   OH211453   7.096   3.739   0.652
 3831TIP3    H111454   7.078   3.768   0.742
 3831TIP3    H211455   7.044   3.797   0.598
 3832TIP3   OH211456   6.657   3.793   1.512
 3832TIP3    H111457   6.722   3.832   1.571
 3832TIP3    H211458   6.701   3.788   1.428
 3833TIP3   OH211459   6.592   3.761   1.027
 3833TIP3    H111460   6.644   3.792   0.953
 3833TIP3    H211461   6.537   3.836   1.050
 3834TIP3   OH211462   7.462   3.971   1.306
 3834TIP3    H111463   7.379   3.957   1.351
 3834TIP3    H211464   7.527   3.925   1.360
 3835TIP3   OH211465   6.885   4.010   1.292
 3835TIP3    H111466   6.797   4.018   1.256
 3835TIP3    H211467   6.911   3.920   1.272
 3836TIP3   OH211468   7.140   4.003   0.965
 3836TIP3    H111469   7.195   4.077   0.939
 3836TIP3    H211470   7.067   4.005   0.903
 3837TIP3   OH211471   6.945   3.992   0.776
 3837TIP3    H111472   6.862   3.954   0.805
 3837TIP3    H211473   6.945   3.980   0.681
 3838TIP3   OH211474   7.060   4.832   2.127
 3838TIP3    H111475   7.143   4.851   2.170
 3838TIP3    H211476   6.994   4.842   2.196
 3839TIP3   OH211477   7.014   3.761   1.263
 3839TIP3    H111478   6.988   3.683   1.312
 3839TIP3    H211479   7.033   3.729   1.175
 3840TIP3   OH211480   7.429   4.159   1.580
 3840TIP3    H111481   7.339   4.190   1.570
 3840TIP3    H211482   7.482   4.238   1.575
 3841TIP3   OH211483   7.346   4.578   0.880
 3841TIP3    H111484   7.263   4.544   0.912
 3841TIP3    H211485   7.335   4.673   0.880
 3842TIP3   OH211486   7.686   4.975   1.673
 3842TIP3    H111487   7.638   4.894   1.688
 3842TIP3    H211488   7.621   5.044   1.689
 3843TIP3   OH211489   6.883   4.564   1.435
 3843TIP3    H111490   6.898   4.654   1.407
 3843TIP3    H211491   6.970   4.534   1.465
 3844TIP3   OH211492   6.802   4.497   2.063
 3844TIP3    H111493   6.803   4.465   2.153
 3844TIP3    H211494   6.730   4.451   2.022
 3845TIP3   OH211495   7.588   4.521   2.006
 3845TIP3    H111496   7.502   4.509   1.965
 3845TIP3    H211497   7.579   4.483   2.093
 3846TIP3   OH211498   6.560   4.094   0.773
 3846TIP3    H111499   6.590   4.170   0.824
 3846TIP3    H211500   6.472   4.077   0.806
 3847TIP3   OH211501   7.284   4.690   1.192
 3847TIP3    H111502   7.269   4.785   1.183
 3847TIP3    H211503   7.198   4.655   1.217
 3848TIP3   OH211504   7.324   5.200   1.534
 3848TIP3    H111505   7.357   5.274   1.484
 3848TIP3    H211506   7.393   5.179   1.596
 3849TIP3   OH211507   6.862   5.209   0.874
 3849TIP3    H111508   6.822   5.139   0.926
 3849TIP3    H211509   6.838   5.189   0.784
 3850TIP3   OH211510   6.996   4.006   2.052
 3850TIP3    H111511   6.911   4.051   2.052
 3850TIP3    H211512   6.977   3.918   2.084
 3851TIP3   OH211513   6.758   5.107   1.732
 3851TIP3    H111514   6.814   5.044   1.777
 3851TIP3    H211515   6.780   5.192   1.770
 3852TIP3   OH211516   6.919   4.743   0.734
 3852TIP3    H111517   6.966   4.661   0.718
 3852TIP3    H211518   6.988   4.808   0.749
 3853TIP3   OH211519   6.781   4.551   0.927
 3853TIP3    H111520   6.723   4.592   0.991
 3853TIP3    H211521   6.790   4.617   0.858
 3854TIP3   OH211522   7.087   3.732   0.948
 3854TIP3    H111523   7.106   3.824   0.964
 3854TIP3    H211524   7.172   3.691   0.935
 3855TIP3   OH211525   6.656   4.709   0.660
 3855TIP3    H111526   6.751   4.703   0.657
 3855TIP3    H211527   6.632   4.750   0.577
 3856TIP3   OH211528   6.701   3.869   0.800
 3856TIP3    H111529   6.649   3.947   0.783
 3856TIP3    H211530   6.683   3.812   0.725
 3857TIP3   OH211531   7.004   3.631   1.664
 3857TIP3    H111532   6.985   3.605   1.574
 3857TIP3    H211533   6.999   3.549   1.714
 3858TIP3   OH211534   6.522   4.875   1.125
 3858TIP3    H111535   6.441   4.872   1.177
 3858TIP3    H211536   6.499   4.833   1.042
 3859TIP3   OH211537   6.761   5.434   2.126
 3859TIP3    H111538   6.842   5.441   2.176
 3859TIP3    H211539   6.753   5.341   2.105
 3860TIP3   OH211540   7.222   5.350   2.170
 3860TIP3    H111541   7.312   5.318   2.180
 3860TIP3    H211542   7.187   5.300   2.096
 3861TIP3   OH211543   6.861   4.827   2.322
 3861TIP3    H111544   6.884   4.734   2.330
 3861TIP3    H211545   6.776   4.826   2.278
 3862TIP3   OH211546   7.442   4.922   2.098
 3862TIP3    H111547   7.413   4.959   2.015
 3862TIP3    H211548   7.405   4.834   2.099
 3863TIP3   OH211549   6.988   4.576   2.326
 3863TIP3    H111550   7.062   4.568   2.266
 3863TIP3    H211551   7.029   4.597   2.411
 3864TIP3   OH211552   7.169   4.259   0.869
 3864TIP3    H111553   7.092   4.284   0.921
 3864TIP3    H211554   7.148   4.287   0.780
 3865TIP3   OH211555   7.317   4.483   1.963
 3865TIP3    H111556   7.228   4.518   1.969
 3865TIP3    H211557   7.333   4.474   1.869
 3866TIP3   OH211558   7.284   4.243   2.122
 3866TIP3    H111559   7.324   4.160   2.096
 3866TIP3    H211560   7.306   4.303   2.050
 3867TIP3   OH211561   7.450   3.959   1.912
 3867TIP3    H111562   7.494   3.888   1.865
 3867TIP3    H211563   7.357   3.942   1.898
 3868TIP3   OH211564   7.417   4.462   1.706
 3868TIP3    H111565   7.511   4.473   1.690
 3868TIP3    H211566   7.378   4.545   1.680
 3869TIP3   OH211567   7.251   4.379   2.350
 3869TIP3    H111568   7.177   4.358   2.408
 3869TIP3    H211569   7.234   4.329   2.270
 3870TIP3   OH211570   7.781   4.305   2.148
 3870TIP3    H111571   7.866   4.265   2.130
 3870TIP3    H211572   7.718   4.240   2.119
 3871TIP3   OH211573   7.142   4.089   2.393
 3871TIP3    H111574   7.186   4.016   2.350
 3871TIP3    H211575   7.164   4.080   2.486
 3872TIP3   OH211576   6.402   4.610   0.638
 3872TIP3    H111577   6.496   4.625   0.628
 3872TIP3    H211578   6.395   4.536   0.698
 3873TIP3   OH211579   6.329   5.195   1.165
 3873TIP3    H111580   6.262   5.139   1.126
 3873TIP3    H211581   6.366   5.144   1.237
 3874TIP3   OH211582   6.433   5.043   1.360
 3874TIP3    H111583   6.435   5.001   1.446
 3874TIP3    H211584   6.525   5.061   1.340
 3875TIP3   OH211585   6.668   4.466   1.686
 3875TIP3    H111586   6.663   4.435   1.596
 3875TIP3    H211587   6.762   4.477   1.703
 3876TIP3   OH211588   6.880   4.141   2.333
 3876TIP3    H111589   6.976   4.139   2.341
 3876TIP3    H211590   6.851   4.059   2.374
 3877TIP3   OH211591   6.853   3.857   1.700
 3877TIP3    H111592   6.902   3.775   1.694
 3877TIP3    H211593   6.918   3.925   1.681
 3878TIP3   OH211594   6.654   4.133   1.746
 3878TIP3    H111595   6.703   4.121   1.665
 3878TIP3    H211596   6.673   4.223   1.773
 3879TIP3   OH211597   6.646   3.610   1.246
 3879TIP3    H111598   6.560   3.608   1.288
 3879TIP3    H211599   6.635   3.670   1.172
 3880TIP3   OH211600   6.876   3.748   2.094
 3880TIP3    H111601   6.819   3.721   2.167
 3880TIP3    H211602   6.815   3.777   2.026
 3881TIP3   OH211603   6.886   5.156   2.137
 3881TIP3    H111604   6.794   5.131   2.134
 3881TIP3    H211605   6.910   5.144   2.229
 3882TIP3   OH211606   7.102   5.184   1.697
 3882TIP3    H111607   7.053   5.258   1.662
 3882TIP3    H211608   7.185   5.184   1.648
 3883TIP3   OH211609   7.534   5.443   1.812
 3883TIP3    H111610   7.586   5.486   1.880
 3883TIP3    H211611   7.551   5.494   1.733
 3884TIP3   OH211612   6.763   5.438   1.752
 3884TIP3    H111613   6.674   5.459   1.723
 3884TIP3    H211614   6.786   5.509   1.812
 3885TIP3   OH211615   6.987   5.409   1.601
 3885TIP3    H111616   6.909   5.419   1.654
 3885TIP3    H211617   6.958   5.431   1.512
 3886TIP3   OH211618   7.410   5.424   1.404
 3886TIP3    H111619   7.327   5.459   1.371
 3886TIP3    H211620   7.451   5.498   1.450
 3887TIP3   OH211621   6.677   5.226   1.493
 3887TIP3    H111622   6.722   5.190   1.569
 3887TIP3    H211623   6.701   5.168   1.421
 3888TIP3   OH211624   7.111   5.189   1.357
 3888TIP3    H111625   7.057   5.110   1.360
 3888TIP3    H211626   7.182   5.172   1.418
 3889TIP3   OH211627   6.944   3.537   1.412
 3889TIP3    H111628   6.853   3.508   1.419
 3889TIP3    H211629   6.996   3.457   1.415
 3890TIP3   OH211630   6.778   3.432   1.066
 3890TIP3    H111631   6.797   3.492   0.994
 3890TIP3    H211632   6.737   3.486   1.133
 3891TIP3   OH211633   6.518   4.964   0.652
 3891TIP3    H111634   6.455   4.893   0.643
 3891TIP3    H211635   6.467   5.043   0.635
 3892TIP3   OH211636   6.869   3.581   0.848
 3892TIP3    H111637   6.916   3.520   0.791
 3892TIP3    H211638   6.937   3.638   0.883
 3893TIP3   OH211639   7.207   3.786   2.386
 3893TIP3    H111640   7.142   3.716   2.392
 3893TIP3    H211641   7.233   3.787   2.294
 3894TIP3   OH211642   7.488   3.743   2.450
 3894TIP3    H111643   7.496   3.815   2.388
 3894TIP3    H211644   7.530   3.669   2.407
 3895TIP3   OH211645   0.124   5.351   2.701
 3895TIP3    H111646   0.103   5.438   2.666
 3895TIP3    H211647   0.059   5.293   2.662
 3896TIP3   OH211648   0.134   5.398   3.016
 3896TIP3    H111649   0.080   5.460   3.065
 3896TIP3    H211650   0.082   5.377   2.939
 3897TIP3   OH211651   0.386   5.666   2.746
 3897TIP3    H111652   0.381   5.601   2.815
 3897TIP3    H211653   0.411   5.747   2.791
 3898TIP3   OH211654   0.929   4.898   3.104
 3898TIP3    H111655   0.953   4.979   3.147
 3898TIP3    H211656   0.955   4.911   3.013
 3899TIP3   OH211657   0.285   5.063   3.139
 3899TIP3    H111658   0.341   4.991   3.167
 3899TIP3    H211659   0.267   5.045   3.047
 3900TIP3   OH211660   0.382   4.823   2.732
 3900TIP3    H111661   0.445   4.817   2.803
 3900TIP3    H211662   0.431   4.859   2.659
 3901TIP3   OH211663   1.004   5.115   3.268
 3901TIP3    H111664   0.916   5.150   3.261
 3901TIP3    H211665   1.035   5.142   3.354
 3902TIP3   OH211666   0.043   5.582   2.575
 3902TIP3    H111667  -0.010   5.553   2.501
 3902TIP3    H211668  -0.012   5.645   2.622
 3903TIP3   OH211669   0.546   4.844   2.946
 3903TIP3    H111670   0.507   4.826   3.032
 3903TIP3    H211671   0.600   4.922   2.960
 3904TIP3   OH211672   0.440   5.912   2.873
 3904TIP3    H111673   0.370   5.894   2.935
 3904TIP3    H211674   0.420   5.999   2.838
 3905TIP3   OH211675   0.721   4.800   3.270
 3905TIP3    H111676   0.635   4.825   3.237
 3905TIP3    H211677   0.782   4.826   3.200
 3906TIP3   OH211678   7.794   4.424   3.363
 3906TIP3    H111679   7.795   4.329   3.369
 3906TIP3    H211680   7.730   4.443   3.294
 3907TIP3   OH211681   0.105   5.917   2.535
 3907TIP3    H111682   0.163   5.841   2.530
 3907TIP3    H211683   0.162   5.991   2.516
 3908TIP3   OH211684   0.280   5.706   2.495
 3908TIP3    H111685   0.210   5.642   2.506
 3908TIP3    H211686   0.335   5.696   2.573
 3909TIP3   OH211687   0.653   5.800   3.251
 3909TIP3    H111688   0.631   5.727   3.193
 3909TIP3    H211689   0.629   5.878   3.202
 3910TIP3   OH211690   7.738   5.252   2.498
 3910TIP3    H111691   7.724   5.339   2.460
 3910TIP3    H211692   7.800   5.210   2.438
 3911TIP3   OH211693   7.737   5.006   2.227
 3911TIP3    H111694   7.802   5.049   2.282
 3911TIP3    H211695   7.733   4.916   2.259
 3912TIP3   OH211696   0.844   5.473   3.104
 3912TIP3    H111697   0.757   5.513   3.108
 3912TIP3    H211698   0.869   5.478   3.012
 3913TIP3   OH211699   0.302   5.302   2.490
 3913TIP3    H111700   0.251   5.317   2.570
 3913TIP3    H211701   0.387   5.270   2.521
 3914TIP3   OH211702   0.565   5.344   3.397
 3914TIP3    H111703   0.529   5.399   3.467
 3914TIP3    H211704   0.497   5.343   3.330
 3915TIP3   OH211705   0.271   5.864   3.075
 3915TIP3    H111706   0.267   5.908   3.160
 3915TIP3    H211707   0.245   5.773   3.094
 3916TIP3   OH211708   0.146   5.149   2.329
 3916TIP3    H111709   0.204   5.209   2.378
 3916TIP3    H211710   0.168   5.164   2.237
 3917TIP3   OH211711   0.633   4.385   2.355
 3917TIP3    H111712   0.555   4.406   2.406
 3917TIP3    H211713   0.646   4.461   2.298
 3918TIP3   OH211714   0.447   5.738   1.919
 3918TIP3    H111715   0.449   5.834   1.916
 3918TIP3    H211716   0.538   5.711   1.906
 3919TIP3   OH211717   0.885   6.177   3.316
 3919TIP3    H111718   0.890   6.082   3.325
 3919TIP3    H211719   0.802   6.200   3.357
 3920TIP3   OH211720   7.784   6.047   2.300
 3920TIP3    H111721   7.725   6.044   2.375
 3920TIP3    H211722   7.865   6.009   2.333
 3921TIP3   OH211723   0.781   5.284   3.580
 3921TIP3    H111724   0.702   5.303   3.528
 3921TIP3    H211725   0.790   5.189   3.576
 3922TIP3   OH211726   0.332   4.627   3.605
 3922TIP3    H111727   0.405   4.587   3.650
 3922TIP3    H211728   0.279   4.666   3.674
 3923TIP3   OH211729   0.529   5.073   3.452
 3923TIP3    H111730   0.512   5.063   3.546
 3923TIP3    H211731   0.518   5.167   3.436
 3924TIP3   OH211732   0.194   5.157   2.061
 3924TIP3    H111733   0.157   5.149   1.973
 3924TIP3    H211734   0.277   5.203   2.048
 3925TIP3   OH211735   7.831   4.494   2.334
 3925TIP3    H111736   7.767   4.493   2.406
 3925TIP3    H211737   7.806   4.420   2.279
 3926TIP3   OH211738   0.114   5.050   2.634
 3926TIP3    H111739   0.024   5.062   2.604
 3926TIP3    H211740   0.151   4.986   2.573
 3927TIP3   OH211741   0.299   5.250   3.747
 3927TIP3    H111742   0.269   5.164   3.775
 3927TIP3    H211743   0.384   5.261   3.789
 3928TIP3   OH211744   0.230   5.012   2.876
 3928TIP3    H111745   0.184   5.049   2.801
 3928TIP3    H211746   0.274   4.935   2.841
 3929TIP3   OH211747   0.329   5.306   3.264
 3929TIP3    H111748   0.319   5.223   3.216
 3929TIP3    H211749   0.298   5.286   3.352
 3930TIP3   OH211750   7.793   4.686   2.915
 3930TIP3    H111751   7.720   4.669   2.974
 3930TIP3    H211752   7.869   4.696   2.973
 3931TIP3   OH211753   0.422   4.824   3.195
 3931TIP3    H111754   0.395   4.829   3.286
 3931TIP3    H211755   0.352   4.775   3.152
 3932TIP3   OH211756   0.582   6.511   3.395
 3932TIP3    H111757   0.578   6.516   3.299
 3932TIP3    H211758   0.660   6.561   3.419
 3933TIP3   OH211759  -0.019   4.976   3.036
 3933TIP3    H111760   0.056   4.978   2.976
 3933TIP3    H211761  -0.005   5.051   3.094
 3934TIP3   OH211762   0.603   5.602   3.069
 3934TIP3    H111763   0.636   5.654   2.996
 3934TIP3    H211764   0.525   5.560   3.036
 3935TIP3   OH211765   0.068   4.757   2.290
 3935TIP3    H111766   0.078   4.663   2.301
 3935TIP3    H211767   0.131   4.796   2.351
 3936TIP3   OH211768   0.247   4.909   2.429
 3936TIP3    H111769   0.340   4.908   2.450
 3936TIP3    H211770   0.232   4.994   2.389
 3937TIP3   OH211771   0.296   5.952   3.346
 3937TIP3    H111772   0.208   5.989   3.346
 3937TIP3    H211773   0.335   5.984   3.427
 3938TIP3   OH211774   0.641   5.015   2.262
 3938TIP3    H111775   0.589   4.965   2.200
 3938TIP3    H211776   0.643   5.104   2.225
 3939TIP3   OH211777   0.898   5.902   3.331
 3939TIP3    H111778   0.806   5.882   3.349
 3939TIP3    H211779   0.917   5.857   3.248
 3940TIP3   OH211780   0.390   5.823   2.199
 3940TIP3    H111781   0.357   5.766   2.268
 3940TIP3    H211782   0.389   5.769   2.120
 3941TIP3   OH211783   0.392   5.468   2.950
 3941TIP3    H111784   0.301   5.450   2.973
 3941TIP3    H211785   0.426   5.384   2.918
 3942TIP3   OH211786   0.248   5.613   3.196
 3942TIP3    H111787   0.259   5.609   3.291
 3942TIP3    H211788   0.294   5.537   3.163
 3943TIP3   OH211789   0.123   5.585   2.066
 3943TIP3    H111790   0.164   5.543   2.142
 3943TIP3    H211791   0.030   5.567   2.076
 3944TIP3   OH211792   0.407   6.197   3.226
 3944TIP3    H111793   0.328   6.154   3.258
 3944TIP3    H211794   0.376   6.262   3.163
 3945TIP3   OH211795   0.462   6.005   1.893
 3945TIP3    H111796   0.483   6.023   1.801
 3945TIP3    H211797   0.391   6.067   1.914
 3946TIP3   OH211798   0.291   5.465   2.262
 3946TIP3    H111799   0.286   5.420   2.346
 3946TIP3    H211800   0.385   5.480   2.249
 3947TIP3   OH211801   0.341   4.868   3.457
 3947TIP3    H111802   0.418   4.924   3.467
 3947TIP3    H211803   0.357   4.795   3.517
 3948TIP3   OH211804   0.234   4.620   2.621
 3948TIP3    H111805   0.156   4.673   2.602
 3948TIP3    H211806   0.294   4.680   2.665
 3949TIP3   OH211807   7.806   4.769   2.652
 3949TIP3    H111808   7.764   4.852   2.633
 3949TIP3    H211809   7.805   4.762   2.747
 3950TIP3   OH211810   0.232   5.148   3.485
 3950TIP3    H111811   0.242   5.197   3.567
 3950TIP3    H211812   0.272   5.063   3.502
 3951TIP3   OH211813   0.043   4.469   2.754
 3951TIP3    H111814   0.026   4.534   2.822
 3951TIP3    H211815   0.117   4.504   2.705
 3952TIP3   OH211816   0.790   5.007   3.473
 3952TIP3    H111817   0.696   5.026   3.467
 3952TIP3    H211818   0.804   4.934   3.412
 3953TIP3   OH211819   0.455   5.204   2.875
 3953TIP3    H111820   0.375   5.154   2.890
 3953TIP3    H211821   0.520   5.161   2.931
 3954TIP3   OH211822   0.419   6.185   2.816
 3954TIP3    H111823   0.378   6.227   2.740
 3954TIP3    H211824   0.513   6.198   2.802
 3955TIP3   OH211825   0.345   6.055   3.602
 3955TIP3    H111826   0.337   6.037   3.696
 3955TIP3    H211827   0.407   6.127   3.596
 3956TIP3   OH211828   0.135   5.791   1.873
 3956TIP3    H111829   0.103   5.734   1.943
 3956TIP3    H211830   0.229   5.775   1.870
 3957TIP3   OH211831   7.639   5.548   2.052
 3957TIP3    H111832   7.572   5.586   2.108
 3957TIP3    H211833   7.650   5.459   2.085
 3958TIP3   OH211834   0.444   5.718   3.412
 3958TIP3    H111835   0.521   5.748   3.364
 3958TIP3    H211836   0.376   5.782   3.389
 3959TIP3   OH211837   0.366   5.581   3.770
 3959TIP3    H111838   0.431   5.543   3.710
 3959TIP3    H211839   0.365   5.522   3.845
 3960TIP3   OH211840   0.416   5.268   1.940
 3960TIP3    H111841   0.403   5.219   1.859
 3960TIP3    H211842   0.385   5.356   1.921
 3961TIP3   OH211843   0.557   5.286   3.861
 3961TIP3    H111844   0.606   5.219   3.908
 3961TIP3    H211845   0.624   5.337   3.816
 3962TIP3   OH211846   0.588   5.567   3.591
 3962TIP3    H111847   0.523   5.613   3.538
 3962TIP3    H211848   0.671   5.581   3.545
 3963TIP3   OH211849   7.834   4.632   3.636
 3963TIP3    H111850   7.802   4.708   3.587
 3963TIP3    H211851   7.764   4.567   3.627
 3964TIP3   OH211852   7.729   5.086   3.975
 3964TIP3    H111853   7.811   5.129   4.001
 3964TIP3    H211854   7.753   5.032   3.900
 3965TIP3   OH211855   0.477   4.992   3.698
 3965TIP3    H111856   0.394   4.976   3.744
 3965TIP3    H211857   0.544   4.972   3.764
 3966TIP3   OH211858   0.678   4.947   3.880
 3966TIP3    H111859   0.673   4.852   3.895
 3966TIP3    H211860   0.660   4.985   3.966
 3967TIP3   OH211861   0.150   4.882   4.031
 3967TIP3    H111862   0.176   4.827   4.106
 3967TIP3    H211863   0.055   4.870   4.025
 3968TIP3   OH211864   0.690   6.232   2.808
 3968TIP3    H111865   0.714   6.244   2.900
 3968TIP3    H211866   0.732   6.305   2.762
 3969TIP3   OH211867   0.737   6.239   3.082
 3969TIP3    H111868   0.684   6.160   3.085
 3969TIP3    H211869   0.804   6.226   3.150
 3970TIP3   OH211870   0.769   5.965   3.635
 3970TIP3    H111871   0.701   5.971   3.701
 3970TIP3    H211872   0.816   6.048   3.641
 3971TIP3   OH211873   0.576   5.477   2.264
 3971TIP3    H111874   0.636   5.547   2.238
 3971TIP3    H211875   0.617   5.439   2.342
 3972TIP3   OH211876   0.705   5.339   2.469
 3972TIP3    H111877   0.640   5.292   2.522
 3972TIP3    H211878   0.767   5.373   2.534
 3973TIP3   OH211879   0.771   5.740   2.898
 3973TIP3    H111880   0.819   5.674   2.847
 3973TIP3    H211881   0.765   5.816   2.839
 3974TIP3   OH211882   0.578   6.017   3.095
 3974TIP3    H111883   0.505   6.063   3.137
 3974TIP3    H211884   0.538   5.976   3.017
 3975TIP3   OH211885   0.626   5.250   2.116
 3975TIP3    H111886   0.556   5.246   2.050
 3975TIP3    H211887   0.606   5.329   2.167
 3976TIP3   OH211888   0.518   4.895   2.053
 3976TIP3    H111889   0.515   4.939   1.968
 3976TIP3    H211890   0.548   4.806   2.033
 3977TIP3   OH211891   0.525   5.187   2.609
 3977TIP3    H111892   0.527   5.092   2.597
 3977TIP3    H211893   0.504   5.198   2.702
 3978TIP3   OH211894   0.826   5.621   3.459
 3978TIP3    H111895   0.886   5.549   3.439
 3978TIP3    H211896   0.812   5.665   3.376
 3979TIP3   OH211897   0.986   5.400   3.441
 3979TIP3    H111898   0.913   5.363   3.491
 3979TIP3    H211899   1.061   5.346   3.464
 3980TIP3   OH211900   0.521   4.917   2.500
 3980TIP3    H111901   0.564   4.832   2.511
 3980TIP3    H211902   0.564   4.956   2.424
 3981TIP3   OH211903   0.664   5.084   3.014
 3981TIP3    H111904   0.744   5.101   2.964
 3981TIP3    H211905   0.681   5.123   3.100
 3982TIP3   OH211906   0.759   5.238   3.228
 3982TIP3    H111907   0.694   5.269   3.291
 3982TIP3    H211908   0.791   5.319   3.187
 3983TIP3   OH211909   1.196   4.831   3.782
 3983TIP3    H111910   1.257   4.770   3.742
 3983TIP3    H211911   1.160   4.880   3.709
 3984TIP3   OH211912   0.627   4.665   2.542
 3984TIP3    H111913   0.671   4.648   2.626
 3984TIP3    H211914   0.565   4.593   2.532
 3985TIP3   OH211915   1.053   4.953   3.585
 3985TIP3    H111916   0.979   4.994   3.630
 3985TIP3    H211917   1.014   4.883   3.533
 3986TIP3   OH211918   0.685   4.590   2.179
 3986TIP3    H111919   0.726   4.527   2.120
 3986TIP3    H211920   0.746   4.664   2.180
 3987TIP3   OH211921   0.260   6.116   2.441
 3987TIP3    H111922   0.322   6.117   2.368
 3987TIP3    H211923   0.286   6.190   2.496
 3988TIP3   OH211924   0.958   4.699   3.482
 3988TIP3    H111925   0.870   4.679   3.450
 3988TIP3    H211926   1.005   4.616   3.477
 3989TIP3   OH211927   0.363   6.374   3.012
 3989TIP3    H111928   0.330   6.447   2.960
 3989TIP3    H211929   0.371   6.302   2.949
 3990TIP3   OH211930   0.211   4.687   3.078
 3990TIP3    H111931   0.186   4.666   3.168
 3990TIP3    H211932   0.264   4.613   3.049
 3991TIP3   OH211933   0.677   4.525   2.994
 3991TIP3    H111934   0.717   4.576   2.924
 3991TIP3    H211935   0.587   4.557   2.999
 3992TIP3   OH211936   0.785   4.618   2.763
 3992TIP3    H111937   0.855   4.558   2.736
 3992TIP3    H211938   0.822   4.705   2.749
 3993TIP3   OH211939   7.691   4.288   2.981
 3993TIP3    H111940   7.785   4.305   2.975
 3993TIP3    H211941   7.663   4.336   3.059
 3994TIP3   OH211942   0.397   4.506   2.978
 3994TIP3    H111943   0.413   4.468   2.891
 3994TIP3    H211944   0.402   4.431   3.037
 3995TIP3   OH211945   0.439   4.458   2.534
 3995TIP3    H111946   0.360   4.510   2.550
 3995TIP3    H211947   0.422   4.375   2.577
 3996TIP3   OH211948   7.664   4.568   2.544
 3996TIP3    H111949   7.701   4.495   2.594
 3996TIP3    H211950   7.710   4.645   2.576
 3997TIP3   OH211951   0.417   6.096   2.210
 3997TIP3    H111952   0.413   6.000   2.207
 3997TIP3    H211953   0.377   6.124   2.128
 3998TIP3   OH211954   0.699   4.674   3.903
 3998TIP3    H111955   0.713   4.647   3.994
 3998TIP3    H211956   0.787   4.674   3.865
 3999TIP3   OH211957   0.629   6.240   3.392
 3999TIP3    H111958   0.556   6.208   3.339
 3999TIP3    H211959   0.610   6.332   3.408
 4000TIP3   OH211960   1.901   5.625   2.152
 4000TIP3    H111961   1.863   5.710   2.128
 4000TIP3    H211962   1.832   5.562   2.128
 4001TIP3   OH211963   1.890   5.602   2.573
 4001TIP3    H111964   1.942   5.584   2.652
 4001TIP3    H211965   1.848   5.518   2.552
 4002TIP3   OH211966   2.181   5.906   2.249
 4002TIP3    H111967   2.142   5.846   2.313
 4002TIP3    H211968   2.183   5.991   2.293
 4003TIP3   OH211969   1.205   5.904   2.619
 4003TIP3    H111970   1.176   5.821   2.582
 4003TIP3    H211971   1.296   5.912   2.589
 4004TIP3   OH211972   0.869   5.120   2.397
 4004TIP3    H111973   0.822   5.200   2.419
 4004TIP3    H211974   0.803   5.063   2.358
 4005TIP3   OH211975   0.946   5.401   2.597
 4005TIP3    H111976   0.993   5.325   2.632
 4005TIP3    H211977   0.987   5.417   2.512
 4006TIP3   OH211978   1.812   6.354   2.253
 4006TIP3    H111979   1.842   6.285   2.194
 4006TIP3    H211980   1.804   6.311   2.338
 4007TIP3   OH211981   1.706   5.818   2.585
 4007TIP3    H111982   1.748   5.737   2.555
 4007TIP3    H211983   1.779   5.876   2.607
 4008TIP3   OH211984   2.698   5.187   2.549
 4008TIP3    H111985   2.742   5.238   2.618
 4008TIP3    H211986   2.766   5.172   2.484
 4009TIP3   OH211987   2.116   5.328   2.614
 4009TIP3    H111988   2.157   5.245   2.638
 4009TIP3    H211989   2.074   5.311   2.529
 4010TIP3   OH211990   1.456   4.989   2.582
 4010TIP3    H111991   1.438   5.059   2.519
 4010TIP3    H211992   1.406   4.914   2.548
 4011TIP3   OH211993   2.157   5.083   2.200
 4011TIP3    H111994   2.221   5.074   2.271
 4011TIP3    H211995   2.207   5.117   2.126
 4012TIP3   OH211996   1.094   5.195   2.705
 4012TIP3    H111997   1.175   5.172   2.749
 4012TIP3    H211998   1.093   5.142   2.625
 4013TIP3   OH211999   1.484   5.398   2.552
 4013TIP3    H112000   1.579   5.386   2.550
 4013TIP3    H212001   1.450   5.320   2.509
 4014TIP3   OH212002   2.769   5.369   2.747
 4014TIP3    H112003   2.687   5.418   2.742
 4014TIP3    H212004   2.774   5.341   2.838
 4015TIP3   OH212005   1.446   4.979   3.029
 4015TIP3    H112006   1.392   5.015   2.959
 4015TIP3    H212007   1.392   4.987   3.108
 4016TIP3   OH212008   1.766   5.832   2.034
 4016TIP3    H112009   1.741   5.814   1.944
 4016TIP3    H212010   1.721   5.914   2.056
 4017TIP3   OH212011   1.573   5.820   2.825
 4017TIP3    H112012   1.603   5.906   2.855
 4017TIP3    H212013   1.610   5.810   2.737
 4018TIP3   OH212014   2.323   5.105   2.414
 4018TIP3    H112015   2.296   5.072   2.500
 4018TIP3    H212016   2.378   5.181   2.435
 4019TIP3   OH212017   1.334   5.096   2.803
 4019TIP3    H112018   1.392   5.168   2.827
 4019TIP3    H212019   1.379   5.052   2.731
 4020TIP3   OH212020   1.335   5.931   2.922
 4020TIP3    H112021   1.338   6.012   2.871
 4020TIP3    H212022   1.260   5.943   2.981
 4021TIP3   OH212023   0.762   5.662   2.161
 4021TIP3    H112024   0.727   5.675   2.072
 4021TIP3    H212025   0.783   5.750   2.192
 4022TIP3   OH212026   2.206   6.151   2.385
 4022TIP3    H112027   2.121   6.148   2.428
 4022TIP3    H212028   2.208   6.235   2.339
 4023TIP3   OH212029   2.506   5.077   2.748
 4023TIP3    H112030   2.415   5.080   2.719
 4023TIP3    H212031   2.557   5.095   2.669
 4024TIP3   OH212032   1.767   4.695   2.720
 4024TIP3    H112033   1.804   4.619   2.765
 4024TIP3    H212034   1.694   4.722   2.776
 4025TIP3   OH212035   1.908   6.191   2.049
 4025TIP3    H112036   1.958   6.110   2.037
 4025TIP3    H212037   1.966   6.260   2.018
 4026TIP3   OH212038   2.067   5.976   1.998
 4026TIP3    H112039   2.063   5.901   1.938
 4026TIP3    H212040   2.109   5.941   2.076
 4027TIP3   OH212041   2.436   6.039   2.721
 4027TIP3    H112042   2.427   5.969   2.656
 4027TIP3    H212043   2.419   6.120   2.672
 4028TIP3   OH212044   1.727   5.462   2.003
 4028TIP3    H112045   1.647   5.511   1.984
 4028TIP3    H212046   1.773   5.458   1.919
 4029TIP3   OH212047   1.696   5.263   1.695
 4029TIP3    H112048   1.761   5.312   1.745
 4029TIP3    H212049   1.746   5.197   1.648
 4030TIP3   OH212050   2.082   5.554   1.961
 4030TIP3    H112051   2.028   5.580   2.035
 4030TIP3    H212052   2.163   5.522   2.001
 4031TIP3   OH212053   2.301   5.584   2.905
 4031TIP3    H112054   2.302   5.666   2.955
 4031TIP3    H212055   2.216   5.585   2.861
 4032TIP3   OH212056   1.309   5.539   2.372
 4032TIP3    H112057   1.271   5.475   2.312
 4032TIP3    H212058   1.370   5.489   2.426
 4033TIP3   OH212059   1.454   5.943   2.506
 4033TIP3    H112060   1.428   5.932   2.414
 4033TIP3    H212061   1.539   5.900   2.512
 4034TIP3   OH212062   1.432   5.575   2.786
 4034TIP3    H112063   1.406   5.529   2.707
 4034TIP3    H212064   1.528   5.573   2.784
 4035TIP3   OH212065   1.976   6.152   2.525
 4035TIP3    H112066   1.956   6.234   2.571
 4035TIP3    H212067   1.955   6.083   2.588
 4036TIP3   OH212068   1.566   6.055   3.057
 4036TIP3    H112069   1.527   6.124   3.111
 4036TIP3    H212070   1.491   6.006   3.024
 4037TIP3   OH212071   1.914   5.411   1.796
 4037TIP3    H112072   1.974   5.468   1.845
 4037TIP3    H212073   1.940   5.420   1.705
 4038TIP3   OH212074   1.335   5.683   3.076
 4038TIP3    H112075   1.342   5.747   3.148
 4038TIP3    H212076   1.264   5.625   3.103
 4039TIP3   OH212077   1.652   6.086   2.063
 4039TIP3    H112078   1.739   6.126   2.064
 4039TIP3    H212079   1.601   6.142   2.006
 4040TIP3   OH212080   1.372   6.230   3.151
 4040TIP3    H112081   1.341   6.230   3.061
 4040TIP3    H212082   1.295   6.207   3.204
 4041TIP3   OH212083   2.426   4.637   1.852
 4041TIP3    H112084   2.348   4.656   1.904
 4041TIP3    H212085   2.437   4.714   1.797
 4042TIP3   OH212086   1.179   5.372   2.180
 4042TIP3    H112087   1.106   5.420   2.141
 4042TIP3    H212088   1.149   5.281   2.184
 4043TIP3   OH212089   2.246   6.011   1.405
 4043TIP3    H112090   2.244   6.104   1.383
 4043TIP3    H212091   2.335   5.983   1.385
 4044TIP3   OH212092   0.959   5.766   3.102
 4044TIP3    H112093   0.889   5.755   3.038
 4044TIP3    H212094   0.990   5.677   3.119
 4045TIP3   OH212095   0.806   5.982   2.755
 4045TIP3    H112096   0.890   6.015   2.787
 4045TIP3    H212097   0.744   6.052   2.775
 4046TIP3   OH212098   2.671   6.413   2.802
 4046TIP3    H112099   2.674   6.318   2.817
 4046TIP3    H212100   2.590   6.441   2.846
 4047TIP3   OH212101   1.768   6.197   2.926
 4047TIP3    H112102   1.765   6.288   2.956
 4047TIP3    H212103   1.698   6.153   2.975
 4048TIP3   OH212104   1.552   6.288   1.882
 4048TIP3    H112105   1.510   6.271   1.798
 4048TIP3    H212106   1.518   6.373   1.909
 4049TIP3   OH212107   0.989   6.155   2.264
 4049TIP3    H112108   1.033   6.146   2.349
 4049TIP3    H212109   0.936   6.076   2.256
 4050TIP3   OH212110   1.756   6.228   1.516
 4050TIP3    H112111   1.808   6.155   1.482
 4050TIP3    H212112   1.790   6.241   1.605
 4051TIP3   OH212113   1.808   6.277   1.782
 4051TIP3    H112114   1.722   6.274   1.824
 4051TIP3    H212115   1.868   6.246   1.849
 4052TIP3   OH212116   2.556   5.534   3.077
 4052TIP3    H112117   2.469   5.529   3.037
 4052TIP3    H212118   2.578   5.443   3.096
 4053TIP3   OH212119   1.126   5.984   3.085
 4053TIP3    H112120   1.160   5.996   3.174
 4053TIP3    H212121   1.065   5.910   3.092
 4054TIP3   OH212122   1.545   4.766   2.881
 4054TIP3    H112123   1.461   4.733   2.851
 4054TIP3    H212124   1.524   4.844   2.932
 4055TIP3   OH212125   2.075   4.901   3.054
 4055TIP3    H112126   2.156   4.881   3.102
 4055TIP3    H212127   2.006   4.863   3.108
 4056TIP3   OH212128   2.330   5.330   3.007
 4056TIP3    H112129   2.283   5.317   3.089
 4056TIP3    H212130   2.297   5.413   2.972
 4057TIP3   OH212131   1.993   5.421   1.537
 4057TIP3    H112132   1.949   5.410   1.453
 4057TIP3    H212133   2.077   5.460   1.515
 4058TIP3   OH212134   1.700   4.816   1.851
 4058TIP3    H112135   1.666   4.821   1.940
 4058TIP3    H212136   1.665   4.734   1.816
 4059TIP3   OH212137   1.485   5.309   2.902
 4059TIP3    H112138   1.442   5.301   2.987
 4059TIP3    H212139   1.459   5.395   2.870
 4060TIP3   OH212140   1.363   5.188   2.414
 4060TIP3    H112141   1.275   5.156   2.436
 4060TIP3    H212142   1.379   5.155   2.325
 4061TIP3   OH212143   1.854   5.259   2.138
 4061TIP3    H112144   1.805   5.329   2.096
 4061TIP3    H212145   1.910   5.224   2.069
 4062TIP3   OH212146   2.034   5.526   3.215
 4062TIP3    H112147   2.009   5.456   3.274
 4062TIP3    H212148   2.127   5.542   3.234
 4063TIP3   OH212149   2.029   5.278   2.356
 4063TIP3    H112150   1.956   5.298   2.297
 4063TIP3    H212151   2.070   5.200   2.319
 4064TIP3   OH212152   1.338   5.293   3.131
 4064TIP3    H112153   1.302   5.351   3.199
 4064TIP3    H212154   1.323   5.204   3.165
 4065TIP3   OH212155   1.368   4.795   1.823
 4065TIP3    H112156   1.357   4.797   1.918
 4065TIP3    H212157   1.289   4.839   1.789
 4066TIP3   OH212158   0.915   4.841   2.684
 4066TIP3    H112159   0.988   4.873   2.737
 4066TIP3    H212160   0.956   4.811   2.603
 4067TIP3   OH212161   0.837   4.823   2.200
 4067TIP3    H112162   0.882   4.859   2.124
 4067TIP3    H212163   0.772   4.889   2.223
 4068TIP3   OH212164   2.049   5.522   2.790
 4068TIP3    H112165   2.080   5.459   2.725
 4068TIP3    H212166   2.015   5.468   2.861
 4069TIP3   OH212167   1.721   5.023   2.476
 4069TIP3    H112168   1.646   4.998   2.530
 4069TIP3    H212169   1.795   4.977   2.516
 4070TIP3   OH212170   1.129   5.055   2.472
 4070TIP3    H112171   1.040   5.060   2.435
 4070TIP3    H212172   1.158   4.966   2.455
 4071TIP3   OH212173   1.385   5.061   2.169
 4071TIP3    H112174   1.480   5.069   2.158
 4071TIP3    H212175   1.349   5.077   2.082
 4072TIP3   OH212176   2.213   5.071   2.679
 4072TIP3    H112177   2.182   5.090   2.768
 4072TIP3    H212178   2.160   4.996   2.651
 4073TIP3   OH212179   1.266   5.087   1.923
 4073TIP3    H112180   1.202   5.036   1.873
 4073TIP3    H212181   1.321   5.127   1.856
 4074TIP3   OH212182   2.379   6.757   2.890
 4074TIP3    H112183   2.369   6.780   2.797
 4074TIP3    H212184   2.455   6.806   2.920
 4075TIP3   OH212185   1.334   5.860   3.294
 4075TIP3    H112186   1.411   5.882   3.346
 4075TIP3    H212187   1.262   5.857   3.357
 4076TIP3   OH212188   1.767   5.344   2.571
 4076TIP3    H112189   1.803   5.276   2.514
 4076TIP3    H212190   1.767   5.304   2.658
 4077TIP3   OH212191   1.277   4.808   2.459
 4077TIP3    H112192   1.248   4.733   2.510
 4077TIP3    H212193   1.314   4.770   2.380
 4078TIP3   OH212194   1.750   5.248   2.832
 4078TIP3    H112195   1.663   5.272   2.864
 4078TIP3    H212196   1.810   5.289   2.894
 4079TIP3   OH212197   1.494   5.609   1.946
 4079TIP3    H112198   1.425   5.544   1.931
 4079TIP3    H212199   1.473   5.647   2.031
 4080TIP3   OH212200   2.385   5.854   2.517
 4080TIP3    H112201   2.342   5.897   2.443
 4080TIP3    H212202   2.326   5.781   2.538
 4081TIP3   OH212203   1.953   4.917   1.842
 4081TIP3    H112204   1.860   4.895   1.842
 4081TIP3    H212205   1.955   5.012   1.858
 4082TIP3   OH212206   1.881   5.929   2.965
 4082TIP3    H112207   1.940   5.914   3.039
 4082TIP3    H212208   1.859   6.022   2.970
 4083TIP3   OH212209   2.014   5.179   1.920
 4083TIP3    H112210   2.109   5.182   1.927
 4083TIP3    H212211   1.992   5.256   1.867
 4084TIP3   OH212212   1.648   5.763   1.784
 4084TIP3    H112213   1.600   5.846   1.783
 4084TIP3    H212214   1.594   5.705   1.838
 4085TIP3   OH212215   1.120   5.546   3.214
 4085TIP3    H112216   1.148   5.556   3.305
 4085TIP3    H212217   1.043   5.489   3.220
 4086TIP3   OH212218   1.805   5.680   3.251
 4086TIP3    H112219   1.738   5.615   3.230
 4086TIP3    H212220   1.888   5.639   3.228
 4087TIP3   OH212221   2.043   6.212   2.850
 4087TIP3    H112222   1.947   6.205   2.855
 4087TIP3    H212223   2.068   6.255   2.931
 4088TIP3   OH212224   2.436   5.268   1.740
 4088TIP3    H112225   2.379   5.223   1.679
 4088TIP3    H212226   2.443   5.357   1.705
 4089TIP3   OH212227   2.678   6.127   2.823
 4089TIP3    H112228   2.584   6.113   2.817
 4089TIP3    H212229   2.712   6.099   2.738
 4090TIP3   OH212230   2.170   6.082   1.666
 4090TIP3    H112231   2.141   6.008   1.720
 4090TIP3    H212232   2.189   6.043   1.581
 4091TIP3   OH212233   2.145   5.701   2.468
 4091TIP3    H112234   2.055   5.677   2.489
 4091TIP3    H212235   2.181   5.624   2.424
 4092TIP3   OH212236   1.303   5.953   2.267
 4092TIP3    H112237   1.306   6.031   2.211
 4092TIP3    H212238   1.211   5.927   2.266
 4093TIP3   OH212239   0.870   5.245   1.985
 4093TIP3    H112240   0.909   5.331   2.003
 4093TIP3    H212241   0.787   5.246   2.032
 4094TIP3   OH212242   1.406   5.712   2.179
 4094TIP3    H112243   1.385   5.800   2.208
 4094TIP3    H212244   1.375   5.655   2.250
 4095TIP3   OH212245   1.585   6.270   2.717
 4095TIP3    H112246   1.617   6.344   2.666
 4095TIP3    H212247   1.660   6.244   2.771
 4096TIP3   OH212248   1.218   6.174   2.113
 4096TIP3    H112249   1.132   6.177   2.155
 4096TIP3    H212250   1.250   6.264   2.119
 4097TIP3   OH212251   1.937   5.930   2.693
 4097TIP3    H112252   1.924   5.926   2.788
 4097TIP3    H212253   2.018   5.881   2.678
 4098TIP3   OH212254   1.934   5.818   1.570
 4098TIP3    H112255   1.978   5.801   1.653
 4098TIP3    H212256   1.848   5.777   1.579
 4099TIP3   OH212257   2.197   6.429   2.729
 4099TIP3    H112258   2.124   6.369   2.745
 4099TIP3    H212259   2.168   6.484   2.657
 4100TIP3   OH212260   2.249   6.284   1.367
 4100TIP3    H112261   2.268   6.343   1.295
 4100TIP3    H212262   2.177   6.326   1.414
 4101TIP3   OH212263   1.279   5.042   3.241
 4101TIP3    H112264   1.183   5.050   3.246
 4101TIP3    H212265   1.303   4.985   3.314
 4102TIP3   OH212266   2.104   5.772   1.791
 4102TIP3    H112267   2.086   5.696   1.846
 4102TIP3    H212268   2.197   5.764   1.770
 4103TIP3   OH212269   1.006   6.157   2.881
 4103TIP3    H112270   1.049   6.103   2.947
 4103TIP3    H212271   1.015   6.247   2.914
 4104TIP3   OH212272   1.283   5.789   1.569
 4104TIP3    H112273   1.294   5.698   1.542
 4104TIP3    H212274   1.266   5.784   1.663
 4105TIP3   OH212275   1.234   5.804   1.844
 4105TIP3    H112276   1.308   5.774   1.897
 4105TIP3    H212277   1.237   5.900   1.851
 4106TIP3   OH212278   0.963   5.498   2.058
 4106TIP3    H112279   0.896   5.543   2.109
 4106TIP3    H212280   0.982   5.558   1.986
 4107TIP3   OH212281   2.122   5.140   2.936
 4107TIP3    H112282   2.204   5.167   2.977
 4107TIP3    H212283   2.099   5.057   2.978
 4108TIP3   OH212284   2.011   4.865   2.109
 4108TIP3    H112285   1.992   4.883   2.018
 4108TIP3    H212286   2.054   4.944   2.141
 4109TIP3   OH212287   1.500   5.989   1.784
 4109TIP3    H112288   1.417   6.016   1.823
 4109TIP3    H212289   1.521   6.059   1.722
 4110TIP3   OH212290   1.665   5.070   2.210
 4110TIP3    H112291   1.729   5.135   2.183
 4110TIP3    H212292   1.683   5.055   2.303
 4111TIP3   OH212293   1.954   5.363   2.991
 4111TIP3    H112294   1.982   5.401   3.074
 4111TIP3    H212295   2.005   5.282   2.983
 4112TIP3   OH212296   1.836   4.763   2.296
 4112TIP3    H112297   1.855   4.820   2.371
 4112TIP3    H212298   1.896   4.792   2.228
 4113TIP3   OH212299   1.250   6.076   1.860
 4113TIP3    H112300   1.227   6.146   1.799
 4113TIP3    H212301   1.237   6.114   1.947
 4114TIP3   OH212302   1.342   4.786   2.101
 4114TIP3    H112303   1.330   4.875   2.133
 4114TIP3    H212304   1.436   4.771   2.108
 4115TIP3   OH212305   2.585   5.252   2.956
 4115TIP3    H112306   2.495   5.273   2.982
 4115TIP3    H212307   2.576   5.182   2.891
 4116TIP3   OH212308   2.250   5.457   2.361
 4116TIP3    H112309   2.173   5.401   2.369
 4116TIP3    H212310   2.318   5.414   2.413
 4117TIP3   OH212311   0.982   5.684   1.846
 4117TIP3    H112312   1.050   5.751   1.857
 4117TIP3    H212313   1.021   5.619   1.788
 4118TIP3   OH212314   0.910   4.968   1.982
 4118TIP3    H112315   0.917   5.063   1.994
 4118TIP3    H212316   0.868   4.957   1.897
 4119TIP3   OH212317   2.228   6.416   2.305
 4119TIP3    H112318   2.184   6.466   2.236
 4119TIP3    H212319   2.321   6.433   2.291
 4120TIP3   OH212320   1.282   4.683   2.846
 4120TIP3    H112321   1.255   4.648   2.761
 4120TIP3    H212322   1.276   4.608   2.905
 4121TIP3   OH212323   0.815   5.935   2.234
 4121TIP3    H112324   0.759   5.968   2.303
 4121TIP3    H212325   0.779   5.971   2.153
 4122TIP3   OH212326   1.001   6.452   3.315
 4122TIP3    H112327   1.083   6.451   3.365
 4122TIP3    H212328   0.971   6.361   3.317
 4123TIP3   OH212329   1.474   6.399   3.344
 4123TIP3    H112330   1.566   6.376   3.356
 4123TIP3    H212331   1.444   6.343   3.272
 4124TIP3   OH212332   1.450   5.986   1.469
 4124TIP3    H112333   1.398   5.916   1.509
 4124TIP3    H212334   1.523   5.941   1.427
 4125TIP3   OH212335   2.100   6.328   3.090
 4125TIP3    H112336   2.105   6.258   3.156
 4125TIP3    H212337   2.176   6.383   3.107
 4126TIP3   OH212338   1.887   6.023   1.391
 4126TIP3    H112339   1.920   5.958   1.453
 4126TIP3    H212340   1.945   6.016   1.315
 4127TIP3   OH212341   1.125   5.870   3.486
 4127TIP3    H112342   1.121   5.783   3.527
 4127TIP3    H212343   1.039   5.880   3.444
 4128TIP3   OH212344   1.136   5.500   1.719
 4128TIP3    H112345   1.191   5.473   1.793
 4128TIP3    H212346   1.197   5.505   1.645
 4129TIP3   OH212347   1.735   5.956   3.263
 4129TIP3    H112348   1.691   5.970   3.179
 4129TIP3    H212349   1.773   5.868   3.255
 4130TIP3   OH212350   1.667   5.704   1.517
 4130TIP3    H112351   1.648   5.716   1.610
 4130TIP3    H212352   1.653   5.611   1.501
 4131TIP3   OH212353   2.209   5.985   2.873
 4131TIP3    H112354   2.288   6.010   2.824
 4131TIP3    H212355   2.150   6.059   2.862
 4132TIP3   OH212356   1.269   5.580   3.473
 4132TIP3    H112357   1.348   5.527   3.470
 4132TIP3    H212358   1.274   5.626   3.557
 4133TIP3   OH212359   1.303   5.415   1.920
 4133TIP3    H112360   1.276   5.379   2.004
 4133TIP3    H212361   1.343   5.340   1.874
 4134TIP3   OH212362   1.604   5.507   3.150
 4134TIP3    H112363   1.514   5.541   3.149
 4134TIP3    H212364   1.637   5.524   3.062
 4135TIP3   OH212365   1.423   5.230   1.748
 4135TIP3    H112366   1.392   5.234   1.658
 4135TIP3    H212367   1.518   5.236   1.741
 4136TIP3   OH212368   2.093   5.874   3.246
 4136TIP3    H112369   2.170   5.843   3.200
 4136TIP3    H212370   2.089   5.821   3.326
 4137TIP3   OH212371   2.221   5.530   1.423
 4137TIP3    H112372   2.207   5.486   1.339
 4137TIP3    H212373   2.193   5.620   1.407
 4138TIP3   OH212374   1.694   5.269   3.267
 4138TIP3    H112375   1.697   5.195   3.207
 4138TIP3    H212376   1.660   5.342   3.214
 4139TIP3   OH212377   1.702   5.069   3.068
 4139TIP3    H112378   1.733   5.089   2.980
 4139TIP3    H212379   1.613   5.037   3.055
 4140TIP3   OH212380   1.717   5.583   2.914
 4140TIP3    H112381   1.806   5.545   2.911
 4140TIP3    H212382   1.731   5.677   2.901
 4141TIP3   OH212383   2.301   5.552   3.317
 4141TIP3    H112384   2.324   5.459   3.323
 4141TIP3    H212385   2.385   5.596   3.306
 4142TIP3   OH212386   2.341   5.824   3.051
 4142TIP3    H112387   2.288   5.884   2.998
 4142TIP3    H212388   2.430   5.837   3.019
 4143TIP3   OH212389   1.570   5.365   3.500
 4143TIP3    H112390   1.508   5.297   3.527
 4143TIP3    H212391   1.605   5.334   3.417
 4144TIP3   OH212392   1.825   4.832   3.171
 4144TIP3    H112393   1.783   4.911   3.139
 4144TIP3    H212394   1.762   4.762   3.155
 4145TIP3   OH212395   1.952   5.313   3.364
 4145TIP3    H112396   1.948   5.300   3.459
 4145TIP3    H212397   1.866   5.287   3.332
 4146TIP3   OH212398   2.203   5.276   3.237
 4146TIP3    H112399   2.123   5.265   3.289
 4146TIP3    H212400   2.272   5.234   3.289
 4147TIP3   OH212401   2.438   5.225   3.382
 4147TIP3    H112402   2.451   5.131   3.387
 4147TIP3    H212403   2.432   5.254   3.473
 4148TIP3   OH212404   1.421   5.139   3.570
 4148TIP3    H112405   1.423   5.051   3.531
 4148TIP3    H212406   1.459   5.127   3.657
 4149TIP3   OH212407   1.901   4.817   3.437
 4149TIP3    H112408   1.979   4.761   3.435
 4149TIP3    H212409   1.873   4.822   3.345
 4150TIP3   OH212410   1.984   5.035   3.583
 4150TIP3    H112411   1.961   4.963   3.524
 4150TIP3    H212412   1.910   5.095   3.577
 4151TIP3   OH212413   1.236   6.278   1.672
 4151TIP3    H112414   1.327   6.262   1.647
 4151TIP3    H212415   1.198   6.323   1.597
 4152TIP3   OH212416   0.712   5.655   1.881
 4152TIP3    H112417   0.805   5.675   1.871
 4152TIP3    H212418   0.701   5.569   1.840
 4153TIP3   OH212419   0.610   6.262   2.309
 4153TIP3    H112420   0.546   6.208   2.263
 4153TIP3    H212421   0.651   6.202   2.371
 4154TIP3   OH212422   0.748   6.097   2.485
 4154TIP3    H112423   0.735   6.026   2.548
 4154TIP3    H212424   0.803   6.160   2.530
 4155TIP3   OH212425   2.494   6.477   2.290
 4155TIP3    H112426   2.517   6.501   2.380
 4155TIP3    H212427   2.546   6.536   2.236
 4156TIP3   OH212428   2.518   6.496   2.570
 4156TIP3    H112429   2.472   6.412   2.569
 4156TIP3    H212430   2.587   6.485   2.635
 4157TIP3   OH212431   2.554   6.217   3.141
 4157TIP3    H112432   2.485   6.224   3.207
 4157TIP3    H212433   2.601   6.300   3.147
 4158TIP3   OH212434   2.380   5.735   1.760
 4158TIP3    H112435   2.439   5.802   1.726
 4158TIP3    H212436   2.427   5.696   1.834
 4159TIP3   OH212437   2.509   5.594   1.968
 4159TIP3    H112438   2.437   5.547   2.009
 4159TIP3    H212439   2.556   5.635   2.040
 4160TIP3   OH212440   2.661   5.917   2.341
 4160TIP3    H112441   2.671   5.995   2.288
 4160TIP3    H212442   2.568   5.915   2.364
 4161TIP3   OH212443   2.368   6.265   2.584
 4161TIP3    H112444   2.305   6.314   2.635
 4161TIP3    H212445   2.317   6.229   2.511
 4162TIP3   OH212446   2.425   5.510   1.605
 4162TIP3    H112447   2.356   5.507   1.539
 4162TIP3    H212448   2.405   5.587   1.657
 4163TIP3   OH212449   2.278   5.164   1.544
 4163TIP3    H112450   2.236   5.197   1.465
 4163TIP3    H212451   2.267   5.069   1.539
 4164TIP3   OH212452   2.307   5.447   2.089
 4164TIP3    H112453   2.311   5.352   2.073
 4164TIP3    H212454   2.291   5.455   2.183
 4165TIP3   OH212455   0.940   5.518   2.845
 4165TIP3    H112456   0.920   5.481   2.759
 4165TIP3    H212457   1.034   5.503   2.856
 4166TIP3   OH212458   2.602   5.866   2.958
 4166TIP3    H112459   2.664   5.794   2.943
 4166TIP3    H212460   2.630   5.934   2.896
 4167TIP3   OH212461   2.764   5.641   2.935
 4167TIP3    H112462   2.691   5.602   2.984
 4167TIP3    H212463   2.840   5.590   2.962
 4168TIP3   OH212464   2.236   4.895   1.524
 4168TIP3    H112465   2.304   4.863   1.583
 4168TIP3    H212466   2.157   4.847   1.549
 4169TIP3   OH212467   2.306   5.175   1.976
 4169TIP3    H112468   2.348   5.091   1.992
 4169TIP3    H212469   2.350   5.211   1.900
 4170TIP3   OH212470   2.464   5.329   2.502
 4170TIP3    H112471   2.546   5.279   2.501
 4170TIP3    H212472   2.474   5.389   2.577
 4171TIP3   OH212473   2.516   5.506   2.715
 4171TIP3    H112474   2.449   5.498   2.783
 4171TIP3    H212475   2.523   5.601   2.701
 4172TIP3   OH212476   1.158   5.197   3.510
 4172TIP3    H112477   1.252   5.193   3.529
 4172TIP3    H212478   1.122   5.117   3.547
 4173TIP3   OH212479   2.993   5.084   3.265
 4173TIP3    H112480   3.060   5.028   3.227
 4173TIP3    H212481   2.958   5.133   3.191
 4174TIP3   OH212482   2.414   4.925   2.033
 4174TIP3    H112483   2.460   4.909   2.115
 4174TIP3    H212484   2.353   4.851   2.025
 4175TIP3   OH212485   1.123   4.909   2.859
 4175TIP3    H112486   1.172   4.828   2.867
 4175TIP3    H212487   1.189   4.976   2.844
 4176TIP3   OH212488   0.907   5.166   2.917
 4176TIP3    H112489   0.960   5.162   2.837
 4176TIP3    H212490   0.961   5.215   2.979
 4177TIP3   OH212491   2.847   5.205   3.061
 4177TIP3    H112492   2.761   5.239   3.085
 4177TIP3    H212493   2.829   5.122   3.017
 4178TIP3   OH212494   2.470   4.840   1.671
 4178TIP3    H112495   2.513   4.778   1.613
 4178TIP3    H212496   2.529   4.916   1.673
 4179TIP3   OH212497   0.897   4.680   2.425
 4179TIP3    H112498   0.809   4.667   2.461
 4179TIP3    H212499   0.883   4.736   2.349
 4180TIP3   OH212500   2.050   6.388   1.932
 4180TIP3    H112501   2.107   6.379   1.856
 4180TIP3    H212502   2.094   6.451   1.989
 4181TIP3   OH212503   1.118   4.759   3.254
 4181TIP3    H112504   1.066   4.744   3.333
 4181TIP3    H212505   1.056   4.793   3.190
 4182TIP3   OH212506   1.161   6.169   3.323
 4182TIP3    H112507   1.066   6.170   3.313
 4182TIP3    H212508   1.176   6.161   3.417
 4183TIP3   OH212509   1.356   6.206   2.862
 4183TIP3    H112510   1.300   6.276   2.828
 4183TIP3    H212511   1.441   6.222   2.821
 4184TIP3   OH212512   1.764   6.463   3.005
 4184TIP3    H112513   1.803   6.458   3.093
 4184TIP3    H212514   1.827   6.513   2.954
 4185TIP3   OH212515   1.953   6.609   2.869
 4185TIP3    H112516   2.012   6.560   2.812
 4185TIP3    H212517   2.011   6.656   2.929
 4186TIP3   OH212518   2.778   4.941   2.975
 4186TIP3    H112519   2.690   4.913   2.949
 4186TIP3    H212520   2.830   4.861   2.970
 4187TIP3   OH212521   1.016   6.449   2.903
 4187TIP3    H112522   0.926   6.472   2.881
 4187TIP3    H212523   1.041   6.511   2.972
 4188TIP3   OH212524   1.246   6.435   2.753
 4188TIP3    H112525   1.163   6.444   2.800
 4188TIP3    H212526   1.227   6.468   2.665
 4189TIP3   OH212527   1.665   6.475   2.547
 4189TIP3    H112528   1.594   6.492   2.486
 4189TIP3    H212529   1.677   6.558   2.593
 4190TIP3   OH212530   1.927   6.412   2.608
 4190TIP3    H112531   1.837   6.433   2.584
 4190TIP3    H212532   1.980   6.476   2.561
 4191TIP3   OH212533   2.127   6.576   2.505
 4191TIP3    H112534   2.122   6.664   2.468
 4191TIP3    H212535   2.160   6.521   2.434
 4192TIP3   OH212536   0.931   6.260   2.628
 4192TIP3    H112537   0.946   6.233   2.719
 4192TIP3    H212538   1.005   6.223   2.580
 4193TIP3   OH212539   1.137   6.143   2.499
 4193TIP3    H112540   1.152   6.062   2.548
 4193TIP3    H212541   1.223   6.184   2.495
 4194TIP3   OH212542   1.405   6.228   2.505
 4194TIP3    H112543   1.428   6.137   2.486
 4194TIP3    H212544   1.454   6.249   2.584
 4195TIP3   OH212545   1.931   4.861   2.557
 4195TIP3    H112546   1.897   4.799   2.621
 4195TIP3    H212547   2.018   4.828   2.534
 4196TIP3   OH212548   2.466   4.800   2.492
 4196TIP3    H112549   2.500   4.844   2.414
 4196TIP3    H212550   2.371   4.809   2.485
 4197TIP3   OH212551   2.575   4.876   2.252
 4197TIP3    H112552   2.644   4.815   2.225
 4197TIP3    H212553   2.614   4.963   2.240
 4198TIP3   OH212554   1.201   4.582   2.601
 4198TIP3    H112555   1.112   4.547   2.609
 4198TIP3    H212556   1.256   4.504   2.595
 4199TIP3   OH212557   1.009   4.481   2.249
 4199TIP3    H112558   1.042   4.531   2.175
 4199TIP3    H212559   0.978   4.547   2.311
 4200TIP3   OH212560   1.657   4.630   2.473
 4200TIP3    H112561   1.714   4.674   2.410
 4200TIP3    H212562   1.694   4.654   2.559
 4201TIP3   OH212563   2.185   4.776   2.465
 4201TIP3    H112564   2.196   4.736   2.379
 4201TIP3    H212565   2.182   4.701   2.525
 4202TIP3   OH212566   2.232   4.711   2.035
 4202TIP3    H112567   2.151   4.756   2.057
 4202TIP3    H212568   2.223   4.624   2.075
 4203TIP3   OH212569   0.709   6.048   2.010
 4203TIP3    H112570   0.623   6.018   1.979
 4203TIP3    H212571   0.710   6.142   1.990
 4204TIP3   OH212572   1.129   4.616   2.019
 4204TIP3    H112573   1.174   4.555   1.960
 4204TIP3    H212574   1.198   4.673   2.053
 4205TIP3   OH212575   1.618   4.816   2.117
 4205TIP3    H112576   1.676   4.764   2.171
 4205TIP3    H212577   1.634   4.906   2.145
 4206TIP3   OH212578   1.497   6.214   1.609
 4206TIP3    H112579   1.581   6.241   1.574
 4206TIP3    H212580   1.469   6.142   1.553
 4207TIP3   OH212581   2.203   6.351   1.704
 4207TIP3    H112582   2.196   6.256   1.695
 4207TIP3    H212583   2.159   6.385   1.626
 4208TIP3   OH212584   1.422   4.868   3.478
 4208TIP3    H112585   1.386   4.801   3.537
 4208TIP3    H212586   1.514   4.874   3.502
 4209TIP3   OH212587   1.672   4.875   3.598
 4209TIP3    H112588   1.751   4.853   3.549
 4209TIP3    H212589   1.665   4.806   3.665
 4210TIP3   OH212590   0.827   6.085   1.681
 4210TIP3    H112591   0.830   6.078   1.777
 4210TIP3    H212592   0.900   6.031   1.651
 4211TIP3   OH212593   2.499   4.957   3.397
 4211TIP3    H112594   2.513   4.920   3.484
 4211TIP3    H212595   2.582   4.947   3.352
 4212TIP3   OH212596   2.420   6.485   2.892
 4212TIP3    H112597   2.343   6.456   2.843
 4212TIP3    H212598   2.409   6.580   2.900
 4213TIP3   OH212599   3.691   5.876   1.645
 4213TIP3    H112600   3.659   5.963   1.621
 4213TIP3    H212601   3.620   5.817   1.620
 4214TIP3   OH212602   3.691   5.870   2.061
 4214TIP3    H112603   3.743   5.851   2.139
 4214TIP3    H212604   3.648   5.787   2.040
 4215TIP3   OH212605   2.948   5.751   2.404
 4215TIP3    H112606   2.978   5.694   2.474
 4215TIP3    H212607   3.028   5.780   2.360
 4216TIP3   OH212608   3.956   6.176   1.730
 4216TIP3    H112609   3.943   6.110   1.797
 4216TIP3    H212610   3.978   6.256   1.779
 4217TIP3   OH212611   2.976   6.161   2.107
 4217TIP3    H112612   2.961   6.066   2.107
 4217TIP3    H212613   3.071   6.170   2.094
 4218TIP3   OH212614   2.665   5.371   1.885
 4218TIP3    H112615   2.620   5.453   1.906
 4218TIP3    H212616   2.598   5.317   1.843
 4219TIP3   OH212617   2.748   5.697   2.143
 4219TIP3    H112618   2.786   5.610   2.133
 4219TIP3    H212619   2.799   5.752   2.084
 4220TIP3   OH212620   3.612   6.612   1.745
 4220TIP3    H112621   3.641   6.543   1.685
 4220TIP3    H212622   3.606   6.569   1.830
 4221TIP3   OH212623   3.493   6.089   2.074
 4221TIP3    H112624   3.537   6.011   2.041
 4221TIP3    H212625   3.564   6.147   2.102
 4222TIP3   OH212626   4.526   5.413   2.078
 4222TIP3    H112627   4.545   5.497   2.119
 4222TIP3    H212628   4.550   5.425   1.986
 4223TIP3   OH212629   3.907   5.582   2.103
 4223TIP3    H112630   3.945   5.498   2.129
 4223TIP3    H212631   3.869   5.565   2.017
 4224TIP3   OH212632   3.256   5.244   2.068
 4224TIP3    H112633   3.237   5.316   2.008
 4224TIP3    H212634   3.204   5.171   2.035
 4225TIP3   OH212635   3.954   5.340   1.700
 4225TIP3    H112636   4.019   5.332   1.769
 4225TIP3    H212637   4.002   5.374   1.625
 4226TIP3   OH212638   2.874   5.457   2.191
 4226TIP3    H112639   2.955   5.433   2.234
 4226TIP3    H212640   2.873   5.405   2.110
 4227TIP3   OH212641   3.300   5.654   2.012
 4227TIP3    H112642   3.395   5.640   2.016
 4227TIP3    H212643   3.266   5.573   1.974
 4228TIP3   OH212644   4.586   5.632   2.246
 4228TIP3    H112645   4.497   5.666   2.238
 4228TIP3    H212646   4.614   5.660   2.333
 4229TIP3   OH212647   3.243   5.243   2.510
 4229TIP3    H112648   3.188   5.277   2.440
 4229TIP3    H212649   3.190   5.254   2.589
 4230TIP3   OH212650   3.568   6.088   1.519
 4230TIP3    H112651   3.539   6.068   1.430
 4230TIP3    H212652   3.523   6.169   1.542
 4231TIP3   OH212653   3.341   6.006   2.291
 4231TIP3    H112654   3.287   6.078   2.325
 4231TIP3    H212655   3.389   6.045   2.218
 4232TIP3   OH212656   4.122   5.361   1.913
 4232TIP3    H112657   4.083   5.339   1.998
 4232TIP3    H212658   4.179   5.436   1.932
 4233TIP3   OH212659   3.117   5.351   2.285
 4233TIP3    H112660   3.173   5.425   2.309
 4233TIP3    H212661   3.164   5.307   2.214
 4234TIP3   OH212662   3.180   6.211   2.391
 4234TIP3    H112663   3.167   6.300   2.358
 4234TIP3    H212664   3.102   6.194   2.443
 4235TIP3   OH212665   2.556   5.917   1.639
 4235TIP3    H112666   2.523   5.932   1.550
 4235TIP3    H212667   2.580   6.004   1.670
 4236TIP3   OH212668   3.997   6.420   1.875
 4236TIP3    H112669   3.910   6.413   1.914
 4236TIP3    H212670   3.996   6.504   1.829
 4237TIP3   OH212671   4.322   5.313   2.249
 4237TIP3    H112672   4.235   5.332   2.212
 4237TIP3    H212673   4.383   5.337   2.180
 4238TIP3   OH212674   3.583   4.934   2.239
 4238TIP3    H112675   3.577   4.842   2.266
 4238TIP3    H212676   3.506   4.975   2.279
 4239TIP3   OH212677   3.707   6.447   1.540
 4239TIP3    H112678   3.757   6.367   1.525
 4239TIP3    H212679   3.767   6.518   1.516
 4240TIP3   OH212680   3.863   6.233   1.473
 4240TIP3    H112681   3.844   6.149   1.430
 4240TIP3    H212682   3.898   6.208   1.559
 4241TIP3   OH212683   4.234   6.313   2.221
 4241TIP3    H112684   4.216   6.238   2.164
 4241TIP3    H212685   4.218   6.389   2.165
 4242TIP3   OH212686   3.511   5.717   1.500
 4242TIP3    H112687   3.432   5.766   1.477
 4242TIP3    H212688   3.561   5.712   1.418
 4243TIP3   OH212689   3.489   5.516   1.194
 4243TIP3    H112690   3.554   5.563   1.245
 4243TIP3    H212691   3.538   5.450   1.145
 4244TIP3   OH212692   4.417   5.976   2.082
 4244TIP3    H112693   4.332   6.020   2.082
 4244TIP3    H212694   4.452   5.990   1.993
 4245TIP3   OH212695   3.879   5.806   1.460
 4245TIP3    H112696   3.825   5.834   1.535
 4245TIP3    H212697   3.961   5.778   1.500
 4246TIP3   OH212698   4.108   5.837   2.391
 4246TIP3    H112699   4.105   5.919   2.440
 4246TIP3    H212700   4.025   5.835   2.343
 4247TIP3   OH212701   3.099   5.789   1.863
 4247TIP3    H112702   3.065   5.730   1.796
 4247TIP3    H212703   3.173   5.741   1.901
 4248TIP3   OH212704   3.236   6.206   2.003
 4248TIP3    H112705   3.216   6.192   1.910
 4248TIP3    H212706   3.324   6.169   2.014
 4249TIP3   OH212707   3.190   5.785   2.231
 4249TIP3    H112708   3.231   5.746   2.154
 4249TIP3    H212709   3.245   5.859   2.254
 4250TIP3   OH212710   3.761   6.416   2.008
 4250TIP3    H112711   3.748   6.495   2.060
 4250TIP3    H212712   3.745   6.344   2.069
 4251TIP3   OH212713   3.380   6.320   2.552
 4251TIP3    H112714   3.321   6.379   2.599
 4251TIP3    H212715   3.322   6.266   2.497
 4252TIP3   OH212716   3.703   5.665   1.306
 4252TIP3    H112717   3.763   5.717   1.360
 4252TIP3    H212718   3.726   5.686   1.216
 4253TIP3   OH212719   3.138   5.892   2.666
 4253TIP3    H112720   3.139   5.982   2.700
 4253TIP3    H212721   3.047   5.865   2.671
 4254TIP3   OH212722   3.451   6.340   1.552
 4254TIP3    H112723   3.537   6.382   1.555
 4254TIP3    H212724   3.397   6.398   1.498
 4255TIP3   OH212725   3.171   6.481   2.638
 4255TIP3    H112726   3.145   6.487   2.546
 4255TIP3    H212727   3.089   6.463   2.685
 4256TIP3   OH212728   4.219   4.886   1.347
 4256TIP3    H112729   4.141   4.905   1.398
 4256TIP3    H212730   4.233   4.964   1.293
 4257TIP3   OH212731   2.979   5.631   1.662
 4257TIP3    H112732   2.903   5.676   1.624
 4257TIP3    H212733   2.951   5.540   1.671
 4258TIP3   OH212734   3.983   6.260   0.934
 4258TIP3    H112735   4.002   6.353   0.924
 4258TIP3    H212736   4.069   6.219   0.944
 4259TIP3   OH212737   2.772   6.015   2.591
 4259TIP3    H112738   2.736   5.980   2.509
 4259TIP3    H212739   2.807   5.938   2.636
 4260TIP3   OH212740   2.647   6.197   2.233
 4260TIP3    H112741   2.737   6.227   2.225
 4260TIP3    H212742   2.601   6.270   2.274
 4261TIP3   OH212743   4.467   6.681   2.284
 4261TIP3    H112744   4.474   6.586   2.295
 4261TIP3    H212745   4.387   6.705   2.330
 4262TIP3   OH212746   3.569   6.460   2.410
 4262TIP3    H112747   3.563   6.550   2.440
 4262TIP3    H212748   3.502   6.413   2.461
 4263TIP3   OH212749   3.343   6.556   1.379
 4263TIP3    H112750   3.298   6.536   1.297
 4263TIP3    H212751   3.309   6.642   1.404
 4264TIP3   OH212752   2.783   6.412   1.747
 4264TIP3    H112753   2.828   6.404   1.831
 4264TIP3    H212754   2.735   6.330   1.738
 4265TIP3   OH212755   3.540   6.485   1.032
 4265TIP3    H112756   3.584   6.407   0.999
 4265TIP3    H212757   3.576   6.498   1.120
 4266TIP3   OH212758   3.600   6.537   1.292
 4266TIP3    H112759   3.512   6.538   1.330
 4266TIP3    H212760   3.656   6.503   1.362
 4267TIP3   OH212761   4.355   5.792   2.552
 4267TIP3    H112762   4.272   5.801   2.506
 4267TIP3    H212763   4.373   5.698   2.550
 4268TIP3   OH212764   2.960   6.217   2.558
 4268TIP3    H112765   3.010   6.211   2.639
 4268TIP3    H212766   2.891   6.151   2.568
 4269TIP3   OH212767   3.344   5.026   2.363
 4269TIP3    H112768   3.259   4.993   2.334
 4269TIP3    H212769   3.323   5.106   2.411
 4270TIP3   OH212770   3.891   5.147   2.566
 4270TIP3    H112771   3.961   5.121   2.625
 4270TIP3    H212772   3.810   5.128   2.615
 4271TIP3   OH212773   4.113   5.574   2.485
 4271TIP3    H112774   4.071   5.569   2.571
 4271TIP3    H212775   4.095   5.663   2.454
 4272TIP3   OH212776   3.783   5.724   1.061
 4272TIP3    H112777   3.743   5.694   0.980
 4272TIP3    H212778   3.867   5.762   1.034
 4273TIP3   OH212779   3.498   5.069   1.336
 4273TIP3    H112780   3.462   5.075   1.425
 4273TIP3    H212781   3.459   4.989   1.301
 4274TIP3   OH212782   3.278   5.558   2.368
 4274TIP3    H112783   3.247   5.572   2.458
 4274TIP3    H212784   3.252   5.638   2.322
 4275TIP3   OH212785   3.163   5.440   1.898
 4275TIP3    H112786   3.074   5.413   1.923
 4275TIP3    H212787   3.175   5.406   1.810
 4276TIP3   OH212788   3.648   5.513   1.626
 4276TIP3    H112789   3.599   5.584   1.585
 4276TIP3    H212790   3.706   5.482   1.556
 4277TIP3   OH212791   3.839   5.789   2.697
 4277TIP3    H112792   3.807   5.721   2.757
 4277TIP3    H212793   3.932   5.799   2.720
 4278TIP3   OH212794   3.814   5.531   1.850
 4278TIP3    H112795   3.747   5.553   1.786
 4278TIP3    H212796   3.860   5.456   1.812
 4279TIP3   OH212797   3.094   5.572   2.592
 4279TIP3    H112798   3.166   5.617   2.637
 4279TIP3    H212799   3.084   5.490   2.640
 4280TIP3   OH212800   3.159   5.050   1.314
 4280TIP3    H112801   3.150   5.051   1.409
 4280TIP3    H212802   3.080   5.095   1.282
 4281TIP3   OH212803   2.710   5.099   2.178
 4281TIP3    H112804   2.787   5.129   2.228
 4281TIP3    H212805   2.745   5.068   2.095
 4282TIP3   OH212806   2.628   5.072   1.685
 4282TIP3    H112807   2.674   5.106   1.608
 4282TIP3    H212808   2.563   5.139   1.706
 4283TIP3   OH212809   3.850   5.780   2.277
 4283TIP3    H112810   3.877   5.714   2.213
 4283TIP3    H212811   3.811   5.730   2.349
 4284TIP3   OH212812   3.526   5.236   1.952
 4284TIP3    H112813   3.449   5.234   2.009
 4284TIP3    H212814   3.600   5.222   2.010
 4285TIP3   OH212815   2.925   5.312   1.961
 4285TIP3    H112816   2.838   5.315   1.923
 4285TIP3    H212817   2.955   5.223   1.945
 4286TIP3   OH212818   3.181   5.316   1.654
 4286TIP3    H112819   3.275   5.325   1.642
 4286TIP3    H212820   3.144   5.333   1.567
 4287TIP3   OH212821   3.989   5.320   2.159
 4287TIP3    H112822   3.966   5.337   2.250
 4287TIP3    H212823   3.924   5.255   2.129
 4288TIP3   OH212824   3.059   5.342   1.409
 4288TIP3    H112825   2.996   5.292   1.357
 4288TIP3    H212826   3.114   5.386   1.344
 4289TIP3   OH212827   4.179   7.017   2.379
 4289TIP3    H112828   4.173   7.038   2.286
 4289TIP3    H212829   4.256   7.066   2.409
 4290TIP3   OH212830   3.115   6.141   2.791
 4290TIP3    H112831   3.197   6.158   2.837
 4290TIP3    H212832   3.048   6.149   2.859
 4291TIP3   OH212833   3.576   5.600   2.055
 4291TIP3    H112834   3.639   5.549   2.005
 4291TIP3    H212835   3.575   5.558   2.141
 4292TIP3   OH212836   3.074   5.066   1.947
 4292TIP3    H112837   3.044   4.990   1.998
 4292TIP3    H212838   3.106   5.028   1.865
 4293TIP3   OH212839   3.550   5.502   2.319
 4293TIP3    H112840   3.462   5.530   2.344
 4293TIP3    H212841   3.608   5.551   2.378
 4294TIP3   OH212842   3.280   5.861   1.431
 4294TIP3    H112843   3.207   5.803   1.410
 4294TIP3    H212844   3.257   5.898   1.516
 4295TIP3   OH212845   4.178   6.110   2.043
 4295TIP3    H112846   4.212   6.159   1.968
 4295TIP3    H212847   4.098   6.069   2.011
 4296TIP3   OH212848   3.750   5.172   1.337
 4296TIP3    H112849   3.656   5.154   1.335
 4296TIP3    H212850   3.755   5.267   1.350
 4297TIP3   OH212851   3.693   6.192   2.448
 4297TIP3    H112852   3.744   6.182   2.528
 4297TIP3    H212853   3.655   6.280   2.455
 4298TIP3   OH212854   3.814   5.432   1.411
 4298TIP3    H112855   3.909   5.434   1.416
 4298TIP3    H212856   3.791   5.508   1.358
 4299TIP3   OH212857   2.968   5.875   2.089
 4299TIP3    H112858   3.001   5.858   2.001
 4299TIP3    H212859   3.038   5.846   2.148
 4300TIP3   OH212860   3.441   6.018   1.276
 4300TIP3    H112861   3.394   6.101   1.277
 4300TIP3    H212862   3.386   5.959   1.327
 4301TIP3   OH212863   2.876   5.823   2.759
 4301TIP3    H112864   2.932   5.850   2.831
 4301TIP3    H212865   2.834   5.743   2.791
 4302TIP3   OH212866   3.610   5.945   2.724
 4302TIP3    H112867   3.559   5.914   2.650
 4302TIP3    H212868   3.696   5.903   2.713
 4303TIP3   OH212869   3.841   6.477   2.333
 4303TIP3    H112870   3.746   6.464   2.338
 4303TIP3    H212871   3.865   6.516   2.418
 4304TIP3   OH212872   4.240   5.519   1.254
 4304TIP3    H112873   4.171   5.472   1.208
 4304TIP3    H212874   4.232   5.609   1.224
 4305TIP3   OH212875   4.480   6.402   2.308
 4305TIP3    H112876   4.386   6.385   2.307
 4305TIP3    H212877   4.511   6.367   2.224
 4306TIP3   OH212878   3.955   6.335   1.200
 4306TIP3    H112879   3.930   6.278   1.273
 4306TIP3    H212880   3.949   6.280   1.123
 4307TIP3   OH212881   3.947   5.976   1.942
 4307TIP3    H112882   3.856   5.954   1.965
 4307TIP3    H212883   3.983   5.895   1.905
 4308TIP3   OH212884   3.103   6.210   1.751
 4308TIP3    H112885   3.107   6.288   1.696
 4308TIP3    H212886   3.009   6.192   1.759
 4309TIP3   OH212887   2.661   5.497   1.459
 4309TIP3    H112888   2.704   5.580   1.479
 4309TIP3    H212889   2.581   5.499   1.512
 4310TIP3   OH212890   3.193   5.963   1.665
 4310TIP3    H112891   3.179   6.053   1.692
 4310TIP3    H212892   3.164   5.910   1.739
 4311TIP3   OH212893   3.381   6.532   2.206
 4311TIP3    H112894   3.417   6.605   2.154
 4311TIP3    H212895   3.455   6.500   2.257
 4312TIP3   OH212896   3.016   6.437   1.602
 4312TIP3    H112897   2.929   6.440   1.643
 4312TIP3    H212898   3.047   6.528   1.606
 4313TIP3   OH212899   3.734   6.193   2.175
 4313TIP3    H112900   3.722   6.188   2.270
 4313TIP3    H212901   3.808   6.136   2.157
 4314TIP3   OH212902   3.728   6.060   1.063
 4314TIP3    H112903   3.776   6.043   1.144
 4314TIP3    H212904   3.643   6.018   1.076
 4315TIP3   OH212905   3.995   6.691   2.218
 4315TIP3    H112906   3.924   6.628   2.235
 4315TIP3    H212907   3.963   6.746   2.147
 4316TIP3   OH212908   4.055   6.520   0.894
 4316TIP3    H112909   4.109   6.571   0.834
 4316TIP3    H212910   3.994   6.583   0.931
 4317TIP3   OH212911   3.076   5.317   2.724
 4317TIP3    H112912   2.981   5.310   2.731
 4317TIP3    H212913   3.109   5.265   2.798
 4318TIP3   OH212914   3.892   6.016   1.282
 4318TIP3    H112915   3.878   5.940   1.339
 4318TIP3    H212916   3.987   6.021   1.271
 4319TIP3   OH212917   2.812   6.421   2.366
 4319TIP3    H112918   2.865   6.366   2.424
 4319TIP3    H212919   2.826   6.510   2.398
 4320TIP3   OH212920   3.089   6.038   1.063
 4320TIP3    H112921   3.095   5.946   1.038
 4320TIP3    H212922   3.063   6.037   1.155
 4321TIP3   OH212923   3.022   6.056   1.332
 4321TIP3    H112924   3.096   6.027   1.385
 4321TIP3    H212925   3.024   6.152   1.340
 4322TIP3   OH212926   2.757   5.748   1.541
 4322TIP3    H112927   2.691   5.794   1.592
 4322TIP3    H212928   2.777   5.808   1.469
 4323TIP3   OH212929   3.920   5.380   2.420
 4323TIP3    H112930   3.998   5.424   2.455
 4323TIP3    H212931   3.910   5.302   2.475
 4324TIP3   OH212932   3.807   5.123   1.605
 4324TIP3    H112933   3.787   5.142   1.513
 4324TIP3    H212934   3.850   5.203   1.636
 4325TIP3   OH212935   3.296   6.246   1.282
 4325TIP3    H112936   3.212   6.272   1.319
 4325TIP3    H212937   3.312   6.308   1.211
 4326TIP3   OH212938   3.461   5.323   1.696
 4326TIP3    H112939   3.525   5.390   1.670
 4326TIP3    H212940   3.482   5.304   1.787
 4327TIP3   OH212941   3.756   5.615   2.477
 4327TIP3    H112942   3.783   5.657   2.559
 4327TIP3    H212943   3.806   5.534   2.474
 4328TIP3   OH212944   3.623   5.023   1.785
 4328TIP3    H112945   3.602   5.100   1.837
 4328TIP3    H212946   3.691   5.052   1.725
 4329TIP3   OH212947   3.043   6.329   1.352
 4329TIP3    H112948   3.018   6.399   1.292
 4329TIP3    H212949   3.032   6.367   1.440
 4330TIP3   OH212950   3.137   5.042   1.591
 4330TIP3    H112951   3.126   5.132   1.621
 4330TIP3    H212952   3.231   5.026   1.596
 4331TIP3   OH212953   4.376   5.514   2.460
 4331TIP3    H112954   4.282   5.526   2.474
 4331TIP3    H212955   4.381   5.451   2.388
 4332TIP3   OH212956   4.038   5.719   1.854
 4332TIP3    H112957   3.962   5.663   1.865
 4332TIP3    H212958   4.106   5.678   1.907
 4333TIP3   OH212959   2.772   5.934   1.329
 4333TIP3    H112960   2.845   5.996   1.336
 4333TIP3    H212961   2.803   5.868   1.267
 4334TIP3   OH212962   2.690   5.220   1.463
 4334TIP3    H112963   2.699   5.315   1.466
 4334TIP3    H212964   2.635   5.203   1.386
 4335TIP3   OH212965   4.018   6.687   1.793
 4335TIP3    H112966   3.976   6.739   1.725
 4335TIP3    H212967   4.112   6.699   1.778
 4336TIP3   OH212968   3.077   4.942   2.336
 4336TIP3    H112969   3.050   4.907   2.251
 4336TIP3    H212970   3.072   4.867   2.396
 4337TIP3   OH212971   2.609   6.189   1.716
 4337TIP3    H112972   2.561   6.225   1.790
 4337TIP3    H212973   2.570   6.232   1.639
 4338TIP3   OH212974   2.792   6.715   2.802
 4338TIP3    H112975   2.877   6.721   2.845
 4338TIP3    H212976   2.775   6.621   2.796
 4339TIP3   OH212977   3.274   6.651   2.830
 4339TIP3    H112978   3.366   6.626   2.841
 4339TIP3    H212979   3.243   6.594   2.759
 4340TIP3   OH212980   3.253   6.243   0.979
 4340TIP3    H112981   3.206   6.168   1.015
 4340TIP3    H212982   3.321   6.206   0.924
 4341TIP3   OH212983   3.897   6.583   2.579
 4341TIP3    H112984   3.905   6.513   2.644
 4341TIP3    H212985   3.972   6.640   2.595
 4342TIP3   OH212986   3.665   6.278   0.910
 4342TIP3    H112987   3.703   6.209   0.965
 4342TIP3    H212988   3.741   6.322   0.870
 4343TIP3   OH212989   2.910   6.135   2.981
 4343TIP3    H112990   2.932   6.043   2.997
 4343TIP3    H212991   2.823   6.132   2.941
 4344TIP3   OH212992   2.889   5.733   1.191
 4344TIP3    H112993   2.941   5.707   1.268
 4344TIP3    H212994   2.953   5.746   1.122
 4345TIP3   OH212995   3.532   6.215   2.758
 4345TIP3    H112996   3.489   6.235   2.674
 4345TIP3    H212997   3.571   6.129   2.745
 4346TIP3   OH212998   3.460   5.955   1.010
 4346TIP3    H112999   3.442   5.971   1.102
 4346TIP3    H213000   3.434   5.865   0.995
 4347TIP3   OH213001   4.009   6.251   2.372
 4347TIP3    H113002   4.087   6.280   2.325
 4347TIP3    H213003   3.944   6.318   2.354
 4348TIP3   OH213004   3.045   5.878   2.968
 4348TIP3    H113005   3.128   5.845   2.933
 4348TIP3    H213006   3.064   5.896   3.060
 4349TIP3   OH213007   3.078   5.676   1.392
 4349TIP3    H113008   3.062   5.641   1.479
 4349TIP3    H213009   3.124   5.605   1.346
 4350TIP3   OH213010   3.340   5.717   2.613
 4350TIP3    H113011   3.278   5.786   2.636
 4350TIP3    H213012   3.405   5.760   2.558
 4351TIP3   OH213013   3.213   5.488   1.235
 4351TIP3    H113014   3.184   5.488   1.144
 4351TIP3    H213015   3.308   5.492   1.230
 4352TIP3   OH213016   3.891   6.133   2.734
 4352TIP3    H113017   3.960   6.093   2.681
 4352TIP3    H213018   3.888   6.078   2.813
 4353TIP3   OH213019   4.029   5.828   0.954
 4353TIP3    H113020   3.999   5.757   0.897
 4353TIP3    H213021   3.989   5.907   0.917
 4354TIP3   OH213022   3.485   5.527   2.753
 4354TIP3    H113023   3.496   5.450   2.697
 4354TIP3    H213024   3.439   5.590   2.698
 4355TIP3   OH213025   3.501   5.325   2.553
 4355TIP3    H113026   3.532   5.356   2.468
 4355TIP3    H213027   3.412   5.296   2.537
 4356TIP3   OH213028   3.512   5.867   2.463
 4356TIP3    H113029   3.599   5.872   2.422
 4356TIP3    H213030   3.456   5.919   2.405
 4357TIP3   OH213031   4.101   5.809   2.803
 4357TIP3    H113032   4.134   5.719   2.816
 4357TIP3    H213033   4.180   5.860   2.785
 4358TIP3   OH213034   4.133   6.077   2.541
 4358TIP3    H113035   4.080   6.138   2.490
 4358TIP3    H213036   4.223   6.092   2.509
 4359TIP3   OH213037   3.377   5.615   2.996
 4359TIP3    H113038   3.312   5.548   3.017
 4359TIP3    H213039   3.409   5.590   2.910
 4360TIP3   OH213040   3.626   5.087   2.645
 4360TIP3    H113041   3.583   5.168   2.618
 4360TIP3    H213042   3.559   5.020   2.636
 4361TIP3   OH213043   3.742   5.583   2.845
 4361TIP3    H113044   3.749   5.548   2.934
 4361TIP3    H213045   3.654   5.560   2.816
 4362TIP3   OH213046   3.994   5.526   2.722
 4362TIP3    H113047   3.914   5.521   2.774
 4362TIP3    H213048   4.063   5.494   2.779
 4363TIP3   OH213049   4.233   5.487   2.868
 4363TIP3    H113050   4.245   5.392   2.875
 4363TIP3    H213051   4.228   5.517   2.958
 4364TIP3   OH213052   3.220   5.391   3.062
 4364TIP3    H113053   3.225   5.304   3.023
 4364TIP3    H213054   3.261   5.382   3.147
 4365TIP3   OH213055   3.704   5.084   2.911
 4365TIP3    H113056   3.769   5.014   2.914
 4365TIP3    H213057   3.672   5.084   2.821
 4366TIP3   OH213058   3.806   5.330   2.991
 4366TIP3    H113059   3.783   5.240   2.967
 4366TIP3    H213060   3.727   5.365   3.031
 4367TIP3   OH213061   3.021   6.541   1.177
 4367TIP3    H113062   3.111   6.525   1.150
 4367TIP3    H213063   2.980   6.583   1.102
 4368TIP3   OH213064   2.500   5.915   1.354
 4368TIP3    H113065   2.594   5.931   1.346
 4368TIP3    H213066   2.487   5.830   1.313
 4369TIP3   OH213067   2.413   6.503   1.795
 4369TIP3    H113068   2.347   6.450   1.751
 4369TIP3    H213069   2.456   6.442   1.855
 4370TIP3   OH213070   2.549   6.339   1.971
 4370TIP3    H113071   2.539   6.269   2.035
 4370TIP3    H213072   2.601   6.406   2.017
 4371TIP3   OH213073   4.289   6.739   1.781
 4371TIP3    H113074   4.307   6.768   1.870
 4371TIP3    H213075   4.344   6.795   1.726
 4372TIP3   OH213076   4.310   6.767   2.059
 4372TIP3    H113077   4.261   6.685   2.055
 4372TIP3    H213078   4.378   6.751   2.125
 4373TIP3   OH213079   4.352   6.474   2.631
 4373TIP3    H113080   4.282   6.481   2.696
 4373TIP3    H213081   4.399   6.558   2.637
 4374TIP3   OH213082   4.167   6.006   1.280
 4374TIP3    H113083   4.229   6.073   1.251
 4374TIP3    H213084   4.212   5.962   1.352
 4375TIP3   OH213085   4.301   5.843   1.454
 4375TIP3    H113086   4.236   5.800   1.508
 4375TIP3    H213087   4.366   5.876   1.516
 4376TIP3   OH213088   4.356   6.248   1.877
 4376TIP3    H113089   4.409   6.180   1.835
 4376TIP3    H213090   4.355   6.320   1.814
 4377TIP3   OH213091   4.166   6.531   2.067
 4377TIP3    H113092   4.099   6.576   2.119
 4377TIP3    H213093   4.117   6.489   1.996
 4378TIP3   OH213094   4.203   5.767   1.149
 4378TIP3    H113095   4.140   5.781   1.078
 4378TIP3    H213096   4.193   5.844   1.206
 4379TIP3   OH213097   4.044   5.406   1.108
 4379TIP3    H113098   4.063   5.444   1.022
 4379TIP3    H213099   4.029   5.313   1.090
 4380TIP3   OH213100   4.104   5.702   1.586
 4380TIP3    H113101   4.107   5.607   1.574
 4380TIP3    H213102   4.086   5.713   1.680
 4381TIP3   OH213103   4.389   6.126   2.443
 4381TIP3    H113104   4.457   6.060   2.429
 4381TIP3    H213105   4.399   6.187   2.370
 4382TIP3   OH213106   4.569   5.917   2.436
 4382TIP3    H113107   4.494   5.875   2.478
 4382TIP3    H213108   4.643   5.860   2.457
 4383TIP3   OH213109   4.019   5.139   1.027
 4383TIP3    H113110   4.085   5.115   1.092
 4383TIP3    H213111   3.939   5.097   1.057
 4384TIP3   OH213112   4.103   5.427   1.480
 4384TIP3    H113113   4.144   5.342   1.492
 4384TIP3    H213114   4.152   5.468   1.408
 4385TIP3   OH213115   4.255   5.595   1.986
 4385TIP3    H113116   4.336   5.613   1.939
 4385TIP3    H213117   4.269   5.634   2.072
 4386TIP3   OH213118   4.328   5.746   2.212
 4386TIP3    H113119   4.255   5.775   2.268
 4386TIP3    H213120   4.359   5.827   2.171
 4387TIP3   OH213121   2.956   5.465   3.028
 4387TIP3    H113122   3.051   5.451   3.034
 4387TIP3    H213123   2.919   5.379   3.049
 4388TIP3   OH213124   4.793   5.346   2.757
 4388TIP3    H113125   4.853   5.285   2.715
 4388TIP3    H213126   4.753   5.394   2.685
 4389TIP3   OH213127   4.212   5.176   1.522
 4389TIP3    H113128   4.257   5.160   1.605
 4389TIP3    H213129   4.150   5.104   1.514
 4390TIP3   OH213130   2.915   5.166   2.365
 4390TIP3    H113131   2.968   5.086   2.366
 4390TIP3    H213132   2.978   5.235   2.340
 4391TIP3   OH213133   2.725   5.569   2.408
 4391TIP3    H113134   2.750   5.506   2.341
 4391TIP3    H213135   2.726   5.520   2.490
 4392TIP3   OH213136   4.641   5.461   2.561
 4392TIP3    H113137   4.560   5.501   2.593
 4392TIP3    H213138   4.612   5.389   2.506
 4393TIP3   OH213139   4.259   5.093   1.176
 4393TIP3    H113140   4.302   5.032   1.116
 4393TIP3    H213141   4.309   5.175   1.166
 4394TIP3   OH213142   2.692   4.947   1.920
 4394TIP3    H113143   2.604   4.929   1.954
 4394TIP3    H213144   2.677   4.997   1.840
 4395TIP3   OH213145   3.847   6.653   1.438
 4395TIP3    H113146   3.903   6.641   1.362
 4395TIP3    H213147   3.889   6.723   1.487
 4396TIP3   OH213148   2.902   5.040   2.742
 4396TIP3    H113149   2.859   5.007   2.821
 4396TIP3    H213150   2.843   5.015   2.671
 4397TIP3   OH213151   2.947   6.443   2.801
 4397TIP3    H113152   2.854   6.423   2.795
 4397TIP3    H213153   2.966   6.438   2.894
 4398TIP3   OH213154   3.154   6.485   2.355
 4398TIP3    H113155   3.099   6.553   2.317
 4398TIP3    H213156   3.239   6.497   2.313
 4399TIP3   OH213157   3.558   6.724   2.494
 4399TIP3    H113158   3.598   6.718   2.581
 4399TIP3    H213159   3.620   6.776   2.443
 4400TIP3   OH213160   3.746   6.869   2.356
 4400TIP3    H113161   3.802   6.814   2.301
 4400TIP3    H213162   3.807   6.916   2.412
 4401TIP3   OH213163   4.552   5.210   2.454
 4401TIP3    H113164   4.462   5.196   2.425
 4401TIP3    H213165   4.593   5.124   2.449
 4402TIP3   OH213166   2.818   6.705   2.390
 4402TIP3    H113167   2.727   6.728   2.369
 4402TIP3    H213168   2.843   6.766   2.459
 4403TIP3   OH213169   3.043   6.702   2.234
 4403TIP3    H113170   2.960   6.711   2.280
 4403TIP3    H213171   3.025   6.732   2.145
 4404TIP3   OH213172   3.465   6.734   2.033
 4404TIP3    H113173   3.394   6.747   1.970
 4404TIP3    H213174   3.473   6.818   2.078
 4405TIP3   OH213175   3.727   6.678   2.097
 4405TIP3    H113176   3.636   6.695   2.073
 4405TIP3    H213177   3.778   6.744   2.048
 4406TIP3   OH213178   3.927   6.848   1.997
 4406TIP3    H113179   3.924   6.936   1.961
 4406TIP3    H213180   3.957   6.793   1.924
 4407TIP3   OH213181   2.725   6.510   2.117
 4407TIP3    H113182   2.749   6.488   2.207
 4407TIP3    H213183   2.799   6.478   2.065
 4408TIP3   OH213184   2.930   6.399   1.980
 4408TIP3    H113185   2.943   6.316   2.025
 4408TIP3    H213186   3.017   6.440   1.981
 4409TIP3   OH213187   3.198   6.485   1.999
 4409TIP3    H113188   3.217   6.392   1.986
 4409TIP3    H213189   3.249   6.510   2.075
 4410TIP3   OH213190   3.752   5.135   2.083
 4410TIP3    H113191   3.715   5.063   2.134
 4410TIP3    H213192   3.823   5.096   2.033
 4411TIP3   OH213193   4.262   5.049   1.976
 4411TIP3    H113194   4.298   5.098   1.903
 4411TIP3    H213195   4.169   5.070   1.976
 4412TIP3   OH213196   4.374   5.129   1.740
 4412TIP3    H113197   4.444   5.070   1.711
 4412TIP3    H213198   4.410   5.217   1.726
 4413TIP3   OH213199   2.997   4.840   2.091
 4413TIP3    H113200   2.908   4.806   2.098
 4413TIP3    H213201   3.052   4.762   2.083
 4414TIP3   OH213202   2.806   4.745   1.741
 4414TIP3    H113203   2.836   4.794   1.664
 4414TIP3    H213204   2.777   4.812   1.803
 4415TIP3   OH213205   3.469   4.882   1.979
 4415TIP3    H113206   3.520   4.928   1.912
 4415TIP3    H213207   3.511   4.906   2.062
 4416TIP3   OH213208   3.975   5.027   1.956
 4416TIP3    H113209   3.986   4.992   1.868
 4416TIP3    H213210   3.977   4.951   2.014
 4417TIP3   OH213211   4.025   4.968   1.525
 4417TIP3    H113212   3.945   5.015   1.548
 4417TIP3    H213213   4.015   4.881   1.565
 4418TIP3   OH213214   2.494   6.314   1.500
 4418TIP3    H113215   2.410   6.280   1.467
 4418TIP3    H213216   2.497   6.405   1.470
 4419TIP3   OH213217   2.923   4.876   1.504
 4419TIP3    H113218   2.968   4.813   1.447
 4419TIP3    H213219   2.993   4.931   1.539
 4420TIP3   OH213220   3.412   5.071   1.600
 4420TIP3    H113221   3.471   5.018   1.654
 4420TIP3    H213222   3.428   5.161   1.628
 4421TIP3   OH213223   3.279   6.480   1.109
 4421TIP3    H113224   3.366   6.505   1.080
 4421TIP3    H213225   3.255   6.406   1.053
 4422TIP3   OH213226   3.994   6.602   1.208
 4422TIP3    H113227   3.986   6.506   1.208
 4422TIP3    H213228   3.945   6.630   1.131
 4423TIP3   OH213229   3.231   5.122   2.971
 4423TIP3    H113230   3.197   5.055   3.031
 4423TIP3    H213231   3.324   5.129   2.994
 4424TIP3   OH213232   3.477   5.130   3.096
 4424TIP3    H113233   3.561   5.116   3.051
 4424TIP3    H213234   3.477   5.065   3.166
 4425TIP3   OH213235   2.599   6.310   1.156
 4425TIP3    H113236   2.603   6.316   1.251
 4425TIP3    H213237   2.680   6.266   1.131
 4426TIP3   OH213238   4.294   5.215   2.878
 4426TIP3    H113239   4.306   5.184   2.968
 4426TIP3    H213240   4.381   5.208   2.838
 4427TIP3   OH213241   4.217   6.744   2.380
 4427TIP3    H113242   4.141   6.714   2.330
 4427TIP3    H213243   4.204   6.839   2.389
 4428TIP3   OH213244   5.473   6.082   1.178
 4428TIP3    H113245   5.421   6.154   1.215
 4428TIP3    H213246   5.415   6.042   1.113
 4429TIP3   OH213247   5.474   6.123   1.553
 4429TIP3    H113248   5.522   6.104   1.634
 4429TIP3    H213249   5.430   6.041   1.531
 4430TIP3   OH213250   4.791   5.997   1.891
 4430TIP3    H113251   4.821   5.941   1.962
 4430TIP3    H213252   4.870   6.021   1.843
 4431TIP3   OH213253   5.769   6.400   1.271
 4431TIP3    H113254   5.753   6.346   1.347
 4431TIP3    H213255   5.818   6.475   1.304
 4432TIP3   OH213256   4.777   6.427   1.600
 4432TIP3    H113257   4.757   6.333   1.603
 4432TIP3    H213258   4.872   6.432   1.603
 4433TIP3   OH213259   4.472   5.635   1.367
 4433TIP3    H113260   4.426   5.714   1.393
 4433TIP3    H213261   4.403   5.576   1.336
 4434TIP3   OH213262   4.532   5.919   1.587
 4434TIP3    H113263   4.584   5.843   1.614
 4434TIP3    H213264   4.593   5.973   1.537
 4435TIP3   OH213265   5.391   6.809   1.308
 4435TIP3    H113266   5.438   6.730   1.282
 4435TIP3    H213267   5.350   6.840   1.227
 4436TIP3   OH213268   5.300   6.350   1.552
 4436TIP3    H113269   5.337   6.265   1.528
 4436TIP3    H213270   5.376   6.404   1.573
 4437TIP3   OH213271   6.287   5.674   1.609
 4437TIP3    H113272   6.318   5.754   1.650
 4437TIP3    H213273   6.331   5.673   1.523
 4438TIP3   OH213274   5.716   5.834   1.627
 4438TIP3    H113275   5.756   5.748   1.644
 4438TIP3    H213276   5.664   5.821   1.548
 4439TIP3   OH213277   5.049   5.495   1.555
 4439TIP3    H113278   5.032   5.569   1.497
 4439TIP3    H213279   4.998   5.423   1.518
 4440TIP3   OH213280   5.790   5.680   1.273
 4440TIP3    H113281   5.856   5.640   1.329
 4440TIP3    H213282   5.792   5.628   1.193
 4441TIP3   OH213283   4.682   5.707   1.677
 4441TIP3    H113284   4.764   5.688   1.722
 4441TIP3    H213285   4.686   5.655   1.597
 4442TIP3   OH213286   5.106   5.913   1.496
 4442TIP3    H113287   5.199   5.895   1.506
 4442TIP3    H213288   5.070   5.831   1.462
 4443TIP3   OH213289   6.376   5.891   1.753
 4443TIP3    H113290   6.289   5.931   1.749
 4443TIP3    H213291   6.420   5.935   1.826
 4444TIP3   OH213292   5.037   5.498   2.003
 4444TIP3    H113293   4.985   5.531   1.929
 4444TIP3    H213294   4.981   5.513   2.079
 4445TIP3   OH213295   5.290   6.290   1.184
 4445TIP3    H113296   5.313   6.284   1.092
 4445TIP3    H213297   5.282   6.383   1.201
 4446TIP3   OH213298   5.142   6.276   1.770
 4446TIP3    H113299   5.082   6.343   1.803
 4446TIP3    H213300   5.186   6.317   1.696
 4447TIP3   OH213301   5.981   5.586   1.438
 4447TIP3    H113302   5.921   5.562   1.508
 4447TIP3    H213303   6.012   5.673   1.461
 4448TIP3   OH213304   4.924   5.606   1.774
 4448TIP3    H113305   4.981   5.679   1.797
 4448TIP3    H213306   4.969   5.562   1.702
 4449TIP3   OH213307   4.973   6.468   1.876
 4449TIP3    H113308   4.955   6.557   1.844
 4449TIP3    H213309   4.897   6.445   1.929
 4450TIP3   OH213310   4.362   6.177   1.191
 4450TIP3    H113311   4.321   6.186   1.105
 4450TIP3    H213312   4.391   6.266   1.213
 4451TIP3   OH213313   5.775   6.664   1.411
 4451TIP3    H113314   5.690   6.636   1.377
 4451TIP3    H213315   5.807   6.728   1.347
 4452TIP3   OH213316   6.089   5.551   1.753
 4452TIP3    H113317   6.004   5.569   1.713
 4452TIP3    H213318   6.152   5.587   1.690
 4453TIP3   OH213319   5.382   5.191   1.736
 4453TIP3    H113320   5.371   5.099   1.759
 4453TIP3    H213321   5.306   5.235   1.774
 4454TIP3   OH213322   5.478   6.724   1.003
 4454TIP3    H113323   5.500   6.658   0.937
 4454TIP3    H213324   5.558   6.774   1.015
 4455TIP3   OH213325   5.655   6.535   0.890
 4455TIP3    H113326   5.750   6.544   0.878
 4455TIP3    H213327   5.647   6.477   0.966
 4456TIP3   OH213328   6.010   6.574   1.717
 4456TIP3    H113329   6.004   6.492   1.669
 4456TIP3    H213330   6.009   6.642   1.649
 4457TIP3   OH213331   5.334   5.942   0.986
 4457TIP3    H113332   5.251   5.988   0.996
 4457TIP3    H213333   5.346   5.935   0.891
 4458TIP3   OH213334   5.198   5.688   0.900
 4458TIP3    H113335   5.282   5.729   0.920
 4458TIP3    H213336   5.218   5.624   0.832
 4459TIP3   OH213337   6.212   6.214   1.578
 4459TIP3    H113338   6.128   6.257   1.594
 4459TIP3    H213339   6.241   6.248   1.494
 4460TIP3   OH213340   5.646   6.153   0.973
 4460TIP3    H113341   5.611   6.107   1.049
 4460TIP3    H213342   5.717   6.097   0.941
 4461TIP3   OH213343   5.897   6.089   1.881
 4461TIP3    H113344   5.902   6.172   1.930
 4461TIP3    H213345   5.814   6.094   1.834
 4462TIP3   OH213346   4.892   6.034   1.367
 4462TIP3    H113347   4.849   5.968   1.313
 4462TIP3    H213348   4.969   5.989   1.402
 4463TIP3   OH213349   5.048   6.465   1.521
 4463TIP3    H113350   5.012   6.452   1.434
 4463TIP3    H213351   5.135   6.424   1.518
 4464TIP3   OH213352   5.012   6.038   1.724
 4464TIP3    H113353   5.047   6.003   1.643
 4464TIP3    H213354   5.061   6.119   1.738
 4465TIP3   OH213355   5.516   6.739   1.566
 4465TIP3    H113356   5.561   6.741   1.651
 4465TIP3    H213357   5.515   6.647   1.541
 4466TIP3   OH213358   5.171   6.571   2.040
 4466TIP3    H113359   5.112   6.628   2.089
 4466TIP3    H213360   5.114   6.518   1.985
 4467TIP3   OH213361   5.585   5.866   0.826
 4467TIP3    H113362   5.620   5.953   0.805
 4467TIP3    H213363   5.578   5.822   0.741
 4468TIP3   OH213364   4.930   6.125   2.174
 4468TIP3    H113365   4.934   6.217   2.199
 4468TIP3    H213366   4.836   6.105   2.170
 4469TIP3   OH213367   5.292   6.560   1.126
 4469TIP3    H113368   5.352   6.612   1.072
 4469TIP3    H213369   5.230   6.523   1.063
 4470TIP3   OH213370   4.964   6.733   2.125
 4470TIP3    H113371   4.934   6.737   2.035
 4470TIP3    H213372   4.884   6.716   2.176
 4471TIP3   OH213373   6.065   5.160   0.869
 4471TIP3    H113374   5.975   5.178   0.840
 4471TIP3    H213375   6.099   5.245   0.898
 4472TIP3   OH213376   4.750   5.860   1.198
 4472TIP3    H113377   4.678   5.910   1.159
 4472TIP3    H213378   4.713   5.774   1.215
 4473TIP3   OH213379   4.556   6.286   2.073
 4473TIP3    H113380   4.486   6.269   2.009
 4473TIP3    H213381   4.590   6.200   2.095
 4474TIP3   OH213382   4.400   6.482   1.723
 4474TIP3    H113383   4.493   6.500   1.738
 4474TIP3    H213384   4.355   6.559   1.758
 4475TIP3   OH213385   6.242   6.913   1.767
 4475TIP3    H113386   6.244   6.821   1.790
 4475TIP3    H213387   6.167   6.949   1.815
 4476TIP3   OH213388   5.352   6.720   1.901
 4476TIP3    H113389   5.351   6.808   1.938
 4476TIP3    H213390   5.289   6.671   1.953
 4477TIP3   OH213391   5.178   6.905   0.830
 4477TIP3    H113392   5.101   6.849   0.829
 4477TIP3    H213393   5.158   6.973   0.895
 4478TIP3   OH213394   4.566   6.677   1.251
 4478TIP3    H113395   4.616   6.670   1.332
 4478TIP3    H213396   4.526   6.591   1.239
 4479TIP3   OH213397   5.371   6.756   0.716
 4479TIP3    H113398   5.300   6.801   0.762
 4479TIP3    H213399   5.366   6.666   0.746
 4480TIP3   OH213400   6.143   6.047   2.053
 4480TIP3    H113401   6.063   6.055   2.002
 4480TIP3    H213402   6.164   5.953   2.050
 4481TIP3   OH213403   4.756   6.472   2.046
 4481TIP3    H113404   4.806   6.460   2.127
 4481TIP3    H213405   4.685   6.409   2.052
 4482TIP3   OH213406   5.145   5.285   1.855
 4482TIP3    H113407   5.062   5.251   1.822
 4482TIP3    H213408   5.121   5.364   1.904
 4483TIP3   OH213409   5.679   5.403   2.058
 4483TIP3    H113410   5.742   5.372   2.123
 4483TIP3    H213411   5.594   5.387   2.098
 4484TIP3   OH213412   5.905   5.824   1.970
 4484TIP3    H113413   5.866   5.823   2.057
 4484TIP3    H213414   5.889   5.913   1.938
 4485TIP3   OH213415   5.315   5.386   0.910
 4485TIP3    H113416   5.286   5.352   0.994
 4485TIP3    H213417   5.235   5.413   0.866
 4486TIP3   OH213418   5.083   5.813   1.869
 4486TIP3    H113419   5.033   5.820   1.951
 4486TIP3    H213420   5.063   5.894   1.822
 4487TIP3   OH213421   4.965   5.701   1.394
 4487TIP3    H113422   4.875   5.675   1.416
 4487TIP3    H213423   4.979   5.665   1.307
 4488TIP3   OH213424   5.401   5.781   1.191
 4488TIP3    H113425   5.368   5.840   1.123
 4488TIP3    H213426   5.467   5.728   1.148
 4489TIP3   OH213427   5.628   6.039   2.187
 4489TIP3    H113428   5.603   5.971   2.249
 4489TIP3    H213429   5.720   6.057   2.206
 4490TIP3   OH213430   5.587   5.808   1.389
 4490TIP3    H113431   5.514   5.812   1.328
 4490TIP3    H213432   5.654   5.756   1.345
 4491TIP3   OH213433   4.912   5.830   2.083
 4491TIP3    H113434   4.922   5.893   2.154
 4491TIP3    H213435   4.893   5.747   2.128
 4492TIP3   OH213436   5.046   5.412   0.873
 4492TIP3    H113437   5.014   5.356   0.944
 4492TIP3    H213438   5.000   5.381   0.795
 4493TIP3   OH213439   4.502   5.354   1.661
 4493TIP3    H113440   4.578   5.384   1.711
 4493TIP3    H213441   4.539   5.322   1.579
 4494TIP3   OH213442   4.428   5.326   1.185
 4494TIP3    H113443   4.490   5.371   1.127
 4494TIP3    H213444   4.362   5.393   1.206
 4495TIP3   OH213445   5.630   6.045   1.771
 4495TIP3    H113446   5.668   5.977   1.715
 4495TIP3    H213447   5.594   5.996   1.845
 4496TIP3   OH213448   5.317   5.481   1.464
 4496TIP3    H113449   5.240   5.485   1.520
 4496TIP3    H213450   5.391   5.481   1.525
 4497TIP3   OH213451   4.728   5.571   1.444
 4497TIP3    H113452   4.639   5.576   1.408
 4497TIP3    H213453   4.755   5.480   1.426
 4498TIP3   OH213454   4.985   5.570   1.157
 4498TIP3    H113455   5.077   5.576   1.131
 4498TIP3    H213456   4.936   5.588   1.077
 4499TIP3   OH213457   5.797   5.566   1.653
 4499TIP3    H113458   5.765   5.583   1.742
 4499TIP3    H213459   5.731   5.508   1.615
 4500TIP3   OH213460   4.820   5.590   0.945
 4500TIP3    H113461   4.751   5.527   0.926
 4500TIP3    H213462   4.882   5.581   0.872
 4501TIP3   OH213463   5.962   7.282   1.877
 4501TIP3    H113464   5.957   7.286   1.782
 4501TIP3    H213465   6.041   7.331   1.900
 4502TIP3   OH213466   4.917   6.389   2.277
 4502TIP3    H113467   4.997   6.409   2.326
 4502TIP3    H213468   4.847   6.394   2.342
 4503TIP3   OH213469   5.370   5.858   1.559
 4503TIP3    H113470   5.441   5.819   1.509
 4503TIP3    H213471   5.369   5.810   1.642
 4504TIP3   OH213472   4.869   5.322   1.423
 4504TIP3    H113473   4.842   5.246   1.475
 4504TIP3    H213474   4.885   5.287   1.336
 4505TIP3   OH213475   5.347   5.751   1.816
 4505TIP3    H113476   5.260   5.783   1.838
 4505TIP3    H213477   5.406   5.805   1.870
 4506TIP3   OH213478   5.117   6.100   1.007
 4506TIP3    H113479   5.055   6.028   1.011
 4506TIP3    H213480   5.087   6.162   1.074
 4507TIP3   OH213481   5.965   6.337   1.579
 4507TIP3    H113482   5.997   6.387   1.504
 4507TIP3    H213483   5.881   6.302   1.550
 4508TIP3   OH213484   5.577   5.402   0.672
 4508TIP3    H113485   5.489   5.441   0.677
 4508TIP3    H213486   5.620   5.430   0.752
 4509TIP3   OH213487   5.512   6.474   1.903
 4509TIP3    H113488   5.543   6.440   1.987
 4509TIP3    H213489   5.446   6.540   1.927
 4510TIP3   OH213490   5.587   5.630   1.068
 4510TIP3    H113491   5.656   5.697   1.063
 4510TIP3    H213492   5.557   5.620   0.978
 4511TIP3   OH213493   4.778   6.148   1.589
 4511TIP3    H113494   4.811   6.116   1.506
 4511TIP3    H213495   4.833   6.106   1.655
 4512TIP3   OH213496   5.324   6.247   0.907
 4512TIP3    H113497   5.290   6.274   0.821
 4512TIP3    H213498   5.258   6.187   0.941
 4513TIP3   OH213499   4.658   6.056   2.204
 4513TIP3    H113500   4.661   6.032   2.297
 4513TIP3    H213501   4.584   6.007   2.169
 4514TIP3   OH213502   5.394   6.193   2.225
 4514TIP3    H113503   5.325   6.132   2.199
 4514TIP3    H213504   5.475   6.151   2.197
 4515TIP3   OH213505   5.614   6.761   1.815
 4515TIP3    H113506   5.526   6.731   1.840
 4515TIP3    H213507   5.657   6.782   1.898
 4516TIP3   OH213508   5.994   5.818   0.709
 4516TIP3    H113509   5.909   5.777   0.691
 4516TIP3    H213510   5.985   5.908   0.677
 4517TIP3   OH213511   6.257   6.634   1.815
 4517TIP3    H113512   6.163   6.625   1.804
 4517TIP3    H213513   6.293   6.613   1.729
 4518TIP3   OH213514   5.722   6.233   1.481
 4518TIP3    H113515   5.631   6.206   1.495
 4518TIP3    H213516   5.766   6.152   1.455
 4519TIP3   OH213517   4.902   6.481   1.290
 4519TIP3    H113518   4.897   6.559   1.235
 4519TIP3    H213519   4.812   6.448   1.293
 4520TIP3   OH213520   4.441   5.743   1.024
 4520TIP3    H113521   4.488   5.825   1.041
 4520TIP3    H213522   4.361   5.750   1.076
 4521TIP3   OH213523   4.957   6.231   1.185
 4521TIP3    H113524   4.951   6.318   1.226
 4521TIP3    H213525   4.938   6.170   1.257
 4522TIP3   OH213526   5.170   6.810   1.707
 4522TIP3    H113527   5.187   6.903   1.719
 4522TIP3    H213528   5.241   6.766   1.753
 4523TIP3   OH213529   4.803   6.692   1.123
 4523TIP3    H113530   4.711   6.700   1.149
 4523TIP3    H213531   4.841   6.777   1.145
 4524TIP3   OH213532   5.543   6.460   1.628
 4524TIP3    H113533   5.535   6.457   1.724
 4524TIP3    H213534   5.616   6.401   1.609
 4525TIP3   OH213535   5.779   6.959   1.719
 4525TIP3    H113536   5.719   6.889   1.742
 4525TIP3    H213537   5.747   6.992   1.635
 4526TIP3   OH213538   4.861   5.578   2.206
 4526TIP3    H113539   4.766   5.588   2.210
 4526TIP3    H213540   4.883   5.524   2.281
 4527TIP3   OH213541   5.593   6.289   0.732
 4527TIP3    H113542   5.581   6.296   0.827
 4527TIP3    H213543   5.603   6.380   0.703
 4528TIP3   OH213544   4.607   6.671   1.859
 4528TIP3    H113545   4.658   6.607   1.909
 4528TIP3    H213546   4.620   6.754   1.906
 4529TIP3   OH213547   4.867   6.389   0.541
 4529TIP3    H113548   4.803   6.333   0.498
 4529TIP3    H213549   4.880   6.350   0.628
 4530TIP3   OH213550   4.918   6.323   0.804
 4530TIP3    H113551   4.879   6.276   0.878
 4530TIP3    H213552   4.874   6.408   0.804
 4531TIP3   OH213553   4.536   5.994   1.090
 4531TIP3    H113554   4.477   6.048   1.143
 4531TIP3    H213555   4.556   6.048   1.014
 4532TIP3   OH213556   5.713   5.634   1.907
 4532TIP3    H113557   5.790   5.680   1.939
 4532TIP3    H213558   5.704   5.558   1.965
 4533TIP3   OH213559   5.616   5.390   1.198
 4533TIP3    H113560   5.602   5.333   1.123
 4533TIP3    H213561   5.603   5.478   1.164
 4534TIP3   OH213562   5.039   6.611   0.632
 4534TIP3    H113563   4.988   6.532   0.610
 4534TIP3    H213564   5.066   6.646   0.547
 4535TIP3   OH213565   5.260   5.552   1.209
 4535TIP3    H113566   5.300   5.638   1.194
 4535TIP3    H213567   5.279   5.533   1.301
 4536TIP3   OH213568   5.550   5.872   1.967
 4536TIP3    H113569   5.578   5.914   2.048
 4536TIP3    H213570   5.602   5.792   1.963
 4537TIP3   OH213571   5.407   5.267   1.316
 4537TIP3    H113572   5.374   5.340   1.367
 4537TIP3    H213573   5.488   5.300   1.276
 4538TIP3   OH213574   4.790   6.555   0.778
 4538TIP3    H113575   4.759   6.576   0.690
 4538TIP3    H213576   4.809   6.640   0.817
 4539TIP3   OH213577   4.923   5.297   1.123
 4539TIP3    H113578   4.917   5.391   1.140
 4539TIP3    H213579   5.016   5.277   1.132
 4540TIP3   OH213580   6.172   5.775   1.965
 4540TIP3    H113581   6.076   5.779   1.970
 4540TIP3    H213582   6.189   5.734   1.880
 4541TIP3   OH213583   5.823   5.992   1.403
 4541TIP3    H113584   5.745   5.937   1.396
 4541TIP3    H213585   5.885   5.940   1.453
 4542TIP3   OH213586   4.528   6.232   0.911
 4542TIP3    H113587   4.622   6.218   0.924
 4542TIP3    H213588   4.503   6.168   0.845
 4543TIP3   OH213589   4.560   5.496   1.017
 4543TIP3    H113590   4.536   5.587   1.034
 4543TIP3    H213591   4.506   5.470   0.942
 4544TIP3   OH213592   4.884   5.197   1.814
 4544TIP3    H113593   4.855   5.165   1.729
 4544TIP3    H213594   4.874   5.123   1.873
 4545TIP3   OH213595   4.418   6.444   1.244
 4545TIP3    H113596   4.377   6.482   1.322
 4545TIP3    H213597   4.369   6.480   1.171
 4546TIP3   OH213598   4.596   6.985   2.278
 4546TIP3    H113599   4.679   6.986   2.326
 4546TIP3    H213600   4.575   6.892   2.271
 4547TIP3   OH213601   5.065   6.908   2.314
 4547TIP3    H113602   5.155   6.880   2.329
 4547TIP3    H213603   5.033   6.850   2.245
 4548TIP3   OH213604   5.707   6.833   2.055
 4548TIP3    H113605   5.705   6.765   2.122
 4548TIP3    H213606   5.780   6.890   2.080
 4549TIP3   OH213607   4.710   6.386   2.464
 4549TIP3    H113608   4.729   6.293   2.475
 4549TIP3    H213609   4.623   6.388   2.424
 4550TIP3   OH213610   4.769   5.890   0.633
 4550TIP3    H113611   4.778   5.983   0.650
 4550TIP3    H213612   4.843   5.868   0.576
 4551TIP3   OH213613   5.328   6.469   2.244
 4551TIP3    H113614   5.280   6.487   2.164
 4551TIP3    H213615   5.361   6.380   2.233
 4552TIP3   OH213616   5.803   6.487   1.874
 4552TIP3    H113617   5.870   6.532   1.822
 4552TIP3    H213618   5.722   6.533   1.854
 4553TIP3   OH213619   4.827   6.132   2.470
 4553TIP3    H113620   4.904   6.103   2.421
 4553TIP3    H213621   4.860   6.151   2.558
 4554TIP3   OH213622   4.937   5.906   1.000
 4554TIP3    H113623   4.879   5.870   1.068
 4554TIP3    H213624   4.936   5.841   0.930
 4555TIP3   OH213625   5.186   6.015   2.132
 4555TIP3    H113626   5.100   6.056   2.139
 4555TIP3    H213627   5.218   6.042   2.046
 4556TIP3   OH213628   4.976   5.750   0.770
 4556TIP3    H113629   4.996   5.801   0.691
 4556TIP3    H213630   5.061   5.739   0.813
 4557TIP3   OH213631   5.687   6.395   2.225
 4557TIP3    H113632   5.760   6.358   2.176
 4557TIP3    H213633   5.681   6.340   2.303
 4558TIP3   OH213634   5.293   5.784   2.235
 4558TIP3    H113635   5.293   5.712   2.172
 4558TIP3    H213636   5.256   5.858   2.187
 4559TIP3   OH213637   5.297   5.578   2.039
 4559TIP3    H113638   5.324   5.615   1.955
 4559TIP3    H213639   5.206   5.553   2.026
 4560TIP3   OH213640   5.307   6.106   1.907
 4560TIP3    H113641   5.396   6.121   1.874
 4560TIP3    H213642   5.254   6.170   1.860
 4561TIP3   OH213643   5.894   6.079   2.282
 4561TIP3    H113644   5.941   5.997   2.295
 4561TIP3    H213645   5.963   6.142   2.259
 4562TIP3   OH213646   5.942   6.322   2.031
 4562TIP3    H113647   5.886   6.381   1.982
 4562TIP3    H213648   6.030   6.338   1.999
 4563TIP3   OH213649   5.179   5.868   2.480
 4563TIP3    H113650   5.108   5.807   2.500
 4563TIP3    H213651   5.206   5.845   2.391
 4564TIP3   OH213652   5.419   5.347   2.140
 4564TIP3    H113653   5.377   5.427   2.109
 4564TIP3    H213654   5.353   5.279   2.127
 4565TIP3   OH213655   5.548   5.824   2.338
 4565TIP3    H113656   5.533   5.813   2.432
 4565TIP3    H213657   5.463   5.804   2.298
 4566TIP3   OH213658   5.796   5.779   2.212
 4566TIP3    H113659   5.717   5.780   2.266
 4566TIP3    H213660   5.865   5.748   2.271
 4567TIP3   OH213661   6.034   5.722   2.362
 4567TIP3    H113662   6.058   5.636   2.397
 4567TIP3    H213663   6.026   5.778   2.439
 4568TIP3   OH213664   5.008   5.652   2.541
 4568TIP3    H113665   5.010   5.562   2.507
 4568TIP3    H213666   5.046   5.645   2.629
 4569TIP3   OH213667   5.514   5.332   2.399
 4569TIP3    H113668   5.576   5.259   2.392
 4569TIP3    H213669   5.474   5.338   2.312
 4570TIP3   OH213670   5.598   5.553   2.542
 4570TIP3    H113671   5.570   5.481   2.486
 4570TIP3    H213672   5.523   5.612   2.545
 4571TIP3   OH213673   4.240   6.172   0.947
 4571TIP3    H113674   4.281   6.234   0.887
 4571TIP3    H213675   4.226   6.093   0.895
 4572TIP3   OH213676   4.199   6.753   1.296
 4572TIP3    H113677   4.133   6.698   1.253
 4572TIP3    H213678   4.245   6.693   1.355
 4573TIP3   OH213679   4.345   6.595   1.469
 4573TIP3    H113680   4.337   6.530   1.538
 4573TIP3    H213681   4.396   6.666   1.508
 4574TIP3   OH213682   6.133   6.993   1.272
 4574TIP3    H113683   6.126   6.999   1.368
 4574TIP3    H213684   6.078   7.065   1.240
 4575TIP3   OH213685   6.104   7.025   1.541
 4575TIP3    H113686   6.057   6.942   1.546
 4575TIP3    H213687   6.174   7.017   1.606
 4576TIP3   OH213688   6.140   6.725   2.120
 4576TIP3    H113689   6.070   6.734   2.185
 4576TIP3    H213690   6.187   6.808   2.124
 4577TIP3   OH213691   6.014   6.427   0.652
 4577TIP3    H113692   6.007   6.382   0.568
 4577TIP3    H213693   5.971   6.368   0.714
 4578TIP3   OH213694   6.073   6.062   0.966
 4578TIP3    H113695   6.038   6.036   1.051
 4578TIP3    H213696   6.084   6.157   0.972
 4579TIP3   OH213697   6.108   6.492   1.410
 4579TIP3    H113698   6.160   6.429   1.361
 4579TIP3    H213699   6.123   6.575   1.366
 4580TIP3   OH213700   5.958   6.797   1.567
 4580TIP3    H113701   5.899   6.837   1.631
 4580TIP3    H213702   5.900   6.749   1.508
 4581TIP3   OH213703   5.924   5.929   1.159
 4581TIP3    H113704   5.835   5.903   1.137
 4581TIP3    H213705   5.921   5.950   1.252
 4582TIP3   OH213706   4.526   6.032   1.836
 4582TIP3    H113707   4.515   5.996   1.748
 4582TIP3    H213708   4.620   6.030   1.852
 4583TIP3   OH213709   6.193   6.381   1.934
 4583TIP3    H113710   6.256   6.312   1.915
 4583TIP3    H213711   6.220   6.455   1.880
 4584TIP3   OH213712   6.355   6.163   1.925
 4584TIP3    H113713   6.283   6.121   1.973
 4584TIP3    H213714   6.433   6.113   1.950
 4585TIP3   OH213715   5.825   5.372   0.545
 4585TIP3    H113716   5.879   5.391   0.622
 4585TIP3    H213717   5.735   5.391   0.573
 4586TIP3   OH213718   5.865   5.681   0.960
 4586TIP3    H113719   5.905   5.622   1.023
 4586TIP3    H213720   5.938   5.712   0.906
 4587TIP3   OH213721   6.033   5.845   1.506
 4587TIP3    H113722   6.110   5.877   1.458
 4587TIP3    H213723   6.047   5.874   1.596
 4588TIP3   OH213724   6.117   5.997   1.725
 4588TIP3    H113725   6.042   6.030   1.773
 4588TIP3    H213726   6.150   6.073   1.677
 4589TIP3   OH213727   4.742   5.710   2.490
 4589TIP3    H113728   4.837   5.707   2.505
 4589TIP3    H213729   4.709   5.629   2.528
 4590TIP3   OH213730   6.581   5.604   2.243
 4590TIP3    H113731   6.644   5.544   2.203
 4590TIP3    H213732   6.544   5.652   2.169
 4591TIP3   OH213733   5.929   5.478   1.141
 4591TIP3    H113734   5.993   5.464   1.211
 4591TIP3    H213735   5.894   5.390   1.123
 4592TIP3   OH213736   4.715   5.418   1.829
 4592TIP3    H113737   4.770   5.340   1.836
 4592TIP3    H213738   4.778   5.489   1.815
 4593TIP3   OH213739   4.500   5.683   1.893
 4593TIP3    H113740   4.551   5.674   1.813
 4593TIP3    H213741   4.529   5.767   1.930
 4594TIP3   OH213742   6.433   5.714   2.042
 4594TIP3    H113743   6.347   5.754   2.058
 4594TIP3    H213744   6.414   5.638   1.987
 4595TIP3   OH213745   6.140   5.357   0.556
 4595TIP3    H113746   6.136   5.280   0.499
 4595TIP3    H213747   6.222   5.400   0.531
 4596TIP3   OH213748   4.487   5.191   1.411
 4596TIP3    H113749   4.399   5.176   1.445
 4596TIP3    H213750   4.473   5.243   1.331
 4597TIP3   OH213751   5.720   6.837   0.999
 4597TIP3    H113752   5.705   6.829   0.905
 4597TIP3    H213753   5.724   6.931   1.015
 4598TIP3   OH213754   4.709   5.260   2.221
 4598TIP3    H113755   4.657   5.249   2.301
 4598TIP3    H213756   4.650   5.304   2.160
 4599TIP3   OH213757   4.744   6.703   2.294
 4599TIP3    H113758   4.651   6.686   2.282
 4599TIP3    H213759   4.759   6.688   2.387
 4600TIP3   OH213760   4.939   6.741   1.843
 4600TIP3    H113761   4.882   6.810   1.807
 4600TIP3    H213762   5.023   6.755   1.800
 4601TIP3   OH213763   5.364   6.986   1.978
 4601TIP3    H113764   5.397   6.973   2.067
 4601TIP3    H213765   5.434   7.031   1.932
 4602TIP3   OH213766   5.567   7.122   1.852
 4602TIP3    H113767   5.643   7.074   1.819
 4602TIP3    H213768   5.604   7.187   1.912
 4603TIP3   OH213769   6.343   5.473   1.931
 4603TIP3    H113770   6.256   5.464   1.892
 4603TIP3    H213771   6.379   5.384   1.928
 4604TIP3   OH213772   4.616   6.990   1.889
 4604TIP3    H113773   4.524   7.006   1.865
 4604TIP3    H213774   4.635   7.056   1.955
 4605TIP3   OH213775   4.837   6.971   1.731
 4605TIP3    H113776   4.757   6.979   1.783
 4605TIP3    H213777   4.812   7.005   1.644
 4606TIP3   OH213778   5.305   7.016   1.514
 4606TIP3    H113779   5.212   7.014   1.491
 4606TIP3    H213780   5.315   7.095   1.568
 4607TIP3   OH213781   4.521   6.774   1.615
 4607TIP3    H113782   4.546   6.744   1.703
 4607TIP3    H213783   4.592   6.743   1.559
 4608TIP3   OH213784   4.725   6.663   1.475
 4608TIP3    H113785   4.733   6.579   1.519
 4608TIP3    H213786   4.813   6.701   1.478
 4609TIP3   OH213787   4.996   6.737   1.504
 4609TIP3    H113788   5.011   6.643   1.495
 4609TIP3    H213789   5.052   6.763   1.577
 4610TIP3   OH213790   5.555   5.399   1.589
 4610TIP3    H113791   5.515   5.323   1.630
 4610TIP3    H213792   5.622   5.363   1.531
 4611TIP3   OH213793   6.045   5.306   1.506
 4611TIP3    H113794   6.080   5.370   1.443
 4611TIP3    H213795   5.950   5.315   1.498
 4612TIP3   OH213796   6.162   5.384   1.265
 4612TIP3    H113797   6.218   5.307   1.251
 4612TIP3    H213798   6.220   5.459   1.251
 4613TIP3   OH213799   4.795   5.098   1.571
 4613TIP3    H113800   4.705   5.066   1.579
 4613TIP3    H213801   4.848   5.018   1.565
 4614TIP3   OH213802   4.601   4.991   1.240
 4614TIP3    H113803   4.642   5.038   1.167
 4614TIP3    H213804   4.568   5.059   1.298
 4615TIP3   OH213805   5.254   5.124   1.491
 4615TIP3    H113806   5.306   5.164   1.422
 4615TIP3    H213807   5.296   5.153   1.572
 4616TIP3   OH213808   5.771   5.301   1.450
 4616TIP3    H113809   5.753   5.293   1.356
 4616TIP3    H213810   5.769   5.212   1.483
 4617TIP3   OH213811   5.844   5.229   1.082
 4617TIP3    H113812   5.829   5.206   0.990
 4617TIP3    H213813   5.825   5.149   1.130
 4618TIP3   OH213814   4.290   6.552   1.033
 4618TIP3    H113815   4.220   6.493   1.004
 4618TIP3    H213816   4.259   6.639   1.009
 4619TIP3   OH213817   4.742   5.112   1.029
 4619TIP3    H113818   4.789   5.061   0.963
 4619TIP3    H213819   4.807   5.174   1.063
 4620TIP3   OH213820   5.193   5.301   1.140
 4620TIP3    H113821   5.254   5.250   1.194
 4620TIP3    H213822   5.208   5.392   1.166
 4621TIP3   OH213823   5.016   5.378   2.462
 4621TIP3    H113824   4.981   5.309   2.518
 4621TIP3    H213825   5.108   5.385   2.488
 4622TIP3   OH213826   5.267   5.383   2.582
 4622TIP3    H113827   5.346   5.355   2.535
 4622TIP3    H213828   5.253   5.314   2.647
 4623TIP3   OH213829   4.302   6.593   0.702
 4623TIP3    H113830   4.290   6.688   0.715
 4623TIP3    H213831   4.388   6.585   0.662
 4624TIP3   OH213832   6.008   7.008   1.877
 4624TIP3    H113833   5.930   6.985   1.826
 4624TIP3    H213834   6.002   7.103   1.889
 4625TIP3   OH213835   6.553   6.261   1.420
 4625TIP3    H113836   6.582   6.203   1.491
 4625TIP3    H213837   6.628   6.318   1.404
 4626TIP3   OH213838   6.226   5.914   0.800
 4626TIP3    H113839   6.174   5.947   0.873
 4626TIP3    H213840   6.162   5.879   0.739
 4627TIP3   OH213841   6.309   6.127   1.123
 4627TIP3    H113842   6.282   6.036   1.134
 4627TIP3    H213843   6.307   6.141   1.028
 4628TIP3   OH213844   6.794   5.816   1.014
 4628TIP3    H113845   6.772   5.886   0.952
 4628TIP3    H213846   6.802   5.738   0.960
 4629TIP3   OH213847   6.481   5.926   1.280
 4629TIP3    H113848   6.577   5.922   1.273
 4629TIP3    H213849   6.450   5.901   1.193
 4630TIP3   OH213850   6.855   6.116   1.078
 4630TIP3    H113851   6.866   6.183   1.011
 4630TIP3    H213852   6.779   6.065   1.048
 4631TIP3   OH213853   6.811   5.753   1.513
 4631TIP3    H113854   6.775   5.795   1.435
 4631TIP3    H213855   6.752   5.778   1.584
 4632TIP3   OH213856   6.744   5.871   1.276
 4632TIP3    H113857   6.789   5.948   1.309
 4632TIP3    H213858   6.788   5.852   1.192
 4633TIP3   OH213859   7.152   5.452   1.302
 4633TIP3    H113860   7.144   5.357   1.313
 4633TIP3    H213861   7.070   5.487   1.335
 4634TIP3   OH213862   6.769   6.359   1.279
 4634TIP3    H113863   6.794   6.327   1.192
 4634TIP3    H213864   6.819   6.439   1.291
 4635TIP3   OH213865   6.721   6.403   1.653
 4635TIP3    H113866   6.731   6.492   1.687
 4635TIP3    H213867   6.627   6.387   1.655
 4636TIP3   OH213868   6.345   6.546   1.579
 4636TIP3    H113869   6.289   6.522   1.505
 4636TIP3    H213870   6.388   6.465   1.604
 4637TIP3   OH213871   6.175   6.716   1.269
 4637TIP3    H113872   6.266   6.715   1.238
 4637TIP3    H213873   6.153   6.809   1.274
 4638TIP3   OH213874   6.585   6.701   1.574
 4638TIP3    H113875   6.554   6.772   1.632
 4638TIP3    H213876   6.505   6.656   1.548
 4639TIP3   OH213877   6.897   5.540   1.375
 4639TIP3    H113878   6.809   5.506   1.358
 4639TIP3    H213879   6.883   5.616   1.431
 4640TIP3   OH213880   7.476   5.634   1.582
 4640TIP3    H113881   7.484   5.727   1.601
 4640TIP3    H213882   7.384   5.614   1.599
 4641TIP3   OH213883   6.853   6.103   1.368
 4641TIP3    H113884   6.835   6.120   1.460
 4641TIP3    H213885   6.807   6.173   1.321
 4642TIP3   OH213886   6.696   6.022   0.871
 4642TIP3    H113887   6.612   5.978   0.857
 4642TIP3    H213888   6.729   6.040   0.783
 4643TIP3   OH213889   6.682   6.091   1.602
 4643TIP3    H113890   6.749   6.136   1.653
 4643TIP3    H213891   6.673   6.006   1.644
 4644TIP3   OH213892   6.337   5.565   1.179
 4644TIP3    H113893   6.366   5.615   1.256
 4644TIP3    H213894   6.414   5.562   1.122
 4645TIP3   OH213895   7.146   5.788   0.953
 4645TIP3    H113896   7.101   5.739   1.022
 4645TIP3    H213897   7.231   5.810   0.991
 4646TIP3   OH213898   6.490   5.878   0.784
 4646TIP3    H113899   6.399   5.887   0.812
 4646TIP3    H213900   6.514   5.788   0.807
 4647TIP3   OH213901   6.736   6.635   1.812
 4647TIP3    H113902   6.726   6.695   1.738
 4647TIP3    H213903   6.655   6.643   1.861
 4648TIP3   OH213904   6.663   5.507   0.758
 4648TIP3    H113905   6.724   5.514   0.831
 4648TIP3    H213906   6.717   5.520   0.680
 4649TIP3   OH213907   7.108   6.008   1.440
 4649TIP3    H113908   7.025   6.035   1.401
 4649TIP3    H213909   7.175   6.041   1.380
 4650TIP3   OH213910   6.556   6.448   1.059
 4650TIP3    H113911   6.565   6.442   0.964
 4650TIP3    H213912   6.569   6.359   1.090
 4651TIP3   OH213913   6.453   6.331   1.712
 4651TIP3    H113914   6.489   6.315   1.799
 4651TIP3    H213915   6.391   6.260   1.697
 4652TIP3   OH213916   6.651   5.833   1.717
 4652TIP3    H113917   6.555   5.837   1.722
 4652TIP3    H213918   6.676   5.773   1.787
 4653TIP3   OH213919   6.637   5.452   1.346
 4653TIP3    H113920   6.571   5.433   1.280
 4653TIP3    H213921   6.631   5.380   1.408
 4654TIP3   OH213922   6.493   6.618   1.956
 4654TIP3    H113923   6.515   6.524   1.955
 4654TIP3    H213924   6.408   6.623   1.912
 4655TIP3   OH213925   6.619   6.365   1.946
 4655TIP3    H113926   6.698   6.373   1.892
 4655TIP3    H213927   6.647   6.389   2.034
 4656TIP3   OH213928   6.935   6.245   1.597
 4656TIP3    H113929   6.870   6.312   1.615
 4656TIP3    H213930   7.008   6.292   1.557
 4657TIP3   OH213931   7.050   6.032   1.740
 4657TIP3    H113932   7.062   5.948   1.696
 4657TIP3    H213933   7.029   6.093   1.670
 4658TIP3   OH213934   7.069   5.792   1.591
 4658TIP3    H113935   7.098   5.861   1.531
 4658TIP3    H213936   6.977   5.777   1.567
 4659TIP3   OH213937   6.939   6.135   1.965
 4659TIP3    H113938   6.882   6.061   1.987
 4659TIP3    H213939   6.975   6.112   1.878
 4660TIP3   OH213940   7.214   5.570   1.626
 4660TIP3    H113941   7.165   5.650   1.613
 4660TIP3    H213942   7.150   5.500   1.614
 4661TIP3   OH213943   7.338   6.033   1.769
 4661TIP3    H113944   7.362   6.043   1.860
 4661TIP3    H213945   7.242   6.035   1.769
 4662TIP3   OH213946   6.796   5.910   2.041
 4662TIP3    H113947   6.804   5.825   1.997
 4662TIP3    H213948   6.840   5.897   2.125
 4663TIP3   OH213949   7.293   5.578   1.889
 4663TIP3    H113950   7.366   5.517   1.884
 4663TIP3    H213951   7.257   5.580   1.800
 4664TIP3   OH213952   7.360   5.798   2.041
 4664TIP3    H113953   7.341   5.729   1.979
 4664TIP3    H213954   7.286   5.859   2.033
 4665TIP3   OH213955   6.191   6.929   1.009
 4665TIP3    H113956   6.281   6.900   1.025
 4665TIP3    H213957   6.156   6.951   1.096
 4666TIP3   OH213958   6.300   6.312   1.328
 4666TIP3    H113959   6.285   6.245   1.261
 4666TIP3    H213960   6.390   6.297   1.357
 4667TIP3   OH213961   6.534   5.963   1.979
 4667TIP3    H113962   6.629   5.961   1.993
 4667TIP3    H213963   6.502   5.880   2.014
 4668TIP3   OH213964   6.461   5.675   1.402
 4668TIP3    H113965   6.538   5.622   1.382
 4668TIP3    H213966   6.480   5.760   1.364
 4669TIP3   OH213967   6.257   5.969   1.422
 4669TIP3    H113968   6.339   5.957   1.375
 4669TIP3    H213969   6.272   6.044   1.479
 4670TIP3   OH213970   6.336   5.400   0.776
 4670TIP3    H113971   6.303   5.360   0.857
 4670TIP3    H213972   6.274   5.471   0.758
 4671TIP3   OH213973   6.509   5.529   1.713
 4671TIP3    H113974   6.456   5.512   1.790
 4671TIP3    H213975   6.448   5.565   1.649
 4672TIP3   OH213976   6.515   6.884   1.769
 4672TIP3    H113977   6.424   6.908   1.757
 4672TIP3    H213978   6.531   6.896   1.863
 4673TIP3   OH213979   6.522   5.357   1.062
 4673TIP3    H113980   6.444   5.312   1.095
 4673TIP3    H213981   6.573   5.289   1.018
 4674TIP3   OH213982   6.384   5.197   0.595
 4674TIP3    H113983   6.470   5.220   0.628
 4674TIP3    H213984   6.323   5.252   0.644
 4675TIP3   OH213985   7.070   5.410   1.003
 4675TIP3    H113986   7.152   5.448   0.970
 4675TIP3    H213987   7.055   5.455   1.086
 4676TIP3   OH213988   6.808   5.643   1.945
 4676TIP3    H113989   6.775   5.575   2.004
 4676TIP3    H213990   6.901   5.648   1.965
 4677TIP3   OH213991   7.059   5.637   2.063
 4677TIP3    H113992   7.139   5.618   2.015
 4677TIP3    H213993   7.053   5.568   2.129
 4678TIP3   OH213994   0.571   6.674   2.735
 4678TIP3    H113995   0.595   6.758   2.775
 4678TIP3    H213996   0.603   6.680   2.645
 4679TIP3   OH213997   0.657   6.880   2.905
 4679TIP3    H113998   0.616   6.966   2.899
 4679TIP3    H213999   0.624   6.843   2.988
 4680TIP3   OH214000   0.183   6.583   2.613
 4680TIP3    H114001   0.225   6.584   2.699
 4680TIP3    H214002   0.199   6.670   2.577
 4681TIP3   OH214003   0.330   6.604   2.851
 4681TIP3    H114004   0.310   6.695   2.876
 4681TIP3    H214005   0.413   6.610   2.804
 4682TIP3   OH214006   0.280   6.191   1.982
 4682TIP3    H114007   0.199   6.197   2.033
 4682TIP3    H214008   0.289   6.277   1.941
 4683TIP3   OH214009   0.439   7.026   3.293
 4683TIP3    H114010   0.415   6.973   3.216
 4683TIP3    H214011   0.397   6.981   3.366
 4684TIP3   OH214012   0.430   6.788   3.145
 4684TIP3    H114013   0.365   6.739   3.196
 4684TIP3    H214014   0.387   6.805   3.061
 4685TIP3   OH214015   0.270   6.849   2.574
 4685TIP3    H114016   0.311   6.863   2.489
 4685TIP3    H214017   0.294   6.926   2.626
 4686TIP3   OH214018   0.831   6.648   3.407
 4686TIP3    H114019   0.892   6.574   3.397
 4686TIP3    H214020   0.818   6.680   3.318
 4687TIP3   OH214021   0.278   6.433   2.180
 4687TIP3    H114022   0.297   6.442   2.273
 4687TIP3    H214023   0.201   6.376   2.176
 4688TIP3   OH214024   0.754   6.698   3.139
 4688TIP3    H114025   0.704   6.762   3.190
 4688TIP3    H214026   0.693   6.625   3.126
 4689TIP3   OH214027   0.600   6.475   3.111
 4689TIP3    H114028   0.511   6.453   3.082
 4689TIP3    H214029   0.647   6.392   3.109
 4690TIP3   OH214030   0.311   6.332   2.609
 4690TIP3    H114031   0.368   6.380   2.548
 4690TIP3    H214032   0.235   6.390   2.621
 4691TIP3   OH214033   0.444   6.457   2.409
 4691TIP3    H114034   0.506   6.394   2.372
 4691TIP3    H214035   0.469   6.541   2.371
 4692TIP3   OH214036   0.065   6.256   2.146
 4692TIP3    H114037  -0.022   6.285   2.118
 4692TIP3    H214038   0.047   6.181   2.203
 4693TIP3   OH214039   0.386   6.602   3.572
 4693TIP3    H114040   0.374   6.541   3.644
 4693TIP3    H214041   0.438   6.554   3.508
 4694TIP3   OH214042   2.364   6.931   2.248
 4694TIP3    H114043   2.400   7.011   2.287
 4694TIP3    H214044   2.309   6.962   2.177
 4695TIP3   OH214045   1.813   7.184   2.419
 4695TIP3    H114046   1.852   7.162   2.335
 4695TIP3    H214047   1.722   7.207   2.398
 4696TIP3   OH214048   1.111   6.774   2.168
 4696TIP3    H114049   1.078   6.815   2.088
 4696TIP3    H214050   1.062   6.692   2.174
 4697TIP3   OH214051   1.813   6.866   1.825
 4697TIP3    H114052   1.876   6.845   1.893
 4697TIP3    H214053   1.865   6.882   1.747
 4698TIP3   OH214054   0.689   6.984   2.382
 4698TIP3    H114055   0.724   6.941   2.460
 4698TIP3    H214056   0.722   6.932   2.309
 4699TIP3   OH214057   2.464   7.141   2.395
 4699TIP3    H114058   2.417   7.223   2.377
 4699TIP3    H214059   2.466   7.135   2.491
 4700TIP3   OH214060   1.093   6.760   2.693
 4700TIP3    H114061   1.025   6.780   2.628
 4700TIP3    H214062   1.048   6.763   2.777
 4701TIP3   OH214063   1.985   6.830   2.031
 4701TIP3    H114064   1.961   6.812   2.122
 4701TIP3    H214065   2.055   6.895   2.037
 4702TIP3   OH214066   0.915   6.874   2.513
 4702TIP3    H114067   0.927   6.941   2.580
 4702TIP3    H214068   0.958   6.910   2.436
 4703TIP3   OH214069   2.157   6.828   2.402
 4703TIP3    H114070   2.077   6.879   2.387
 4703TIP3    H214071   2.219   6.860   2.337
 4704TIP3   OH214072   1.429   6.491   2.387
 4704TIP3    H114073   1.421   6.398   2.409
 4704TIP3    H214074   1.354   6.532   2.428
 4705TIP3   OH214075   2.063   6.452   1.484
 4705TIP3    H114076   1.984   6.470   1.536
 4705TIP3    H214077   2.076   6.531   1.431
 4706TIP3   OH214078   2.282   7.277   2.752
 4706TIP3    H114079   2.197   7.284   2.708
 4706TIP3    H214080   2.266   7.218   2.825
 4707TIP3   OH214081   1.195   6.573   2.516
 4707TIP3    H114082   1.109   6.545   2.484
 4707TIP3    H214083   1.176   6.647   2.574
 4708TIP3   OH214084   1.728   6.677   2.721
 4708TIP3    H114085   1.804   6.663   2.778
 4708TIP3    H214086   1.653   6.649   2.774
 4709TIP3   OH214087   1.958   7.029   2.585
 4709TIP3    H114088   1.938   7.046   2.678
 4709TIP3    H214089   1.908   7.096   2.538
 4710TIP3   OH214090   1.333   6.619   1.463
 4710TIP3    H114091   1.312   6.627   1.556
 4710TIP3    H214092   1.293   6.537   1.436
 4711TIP3   OH214093   0.954   6.914   1.974
 4711TIP3    H114094   0.877   6.968   1.957
 4711TIP3    H214095   0.978   6.879   1.888
 4712TIP3   OH214096   1.664   7.030   1.996
 4712TIP3    H114097   1.637   7.095   1.931
 4712TIP3    H214098   1.702   6.959   1.944
 4713TIP3   OH214099   0.919   7.021   2.743
 4713TIP3    H114100   1.009   7.049   2.759
 4713TIP3    H214101   0.906   6.948   2.803
 4714TIP3   OH214102   0.954   6.550   1.468
 4714TIP3    H114103   0.971   6.574   1.559
 4714TIP3    H214104   0.913   6.464   1.473
 4715TIP3   OH214105   0.594   6.653   2.261
 4715TIP3    H114106   0.637   6.671   2.345
 4715TIP3    H214107   0.629   6.568   2.234
 4716TIP3   OH214108   1.381   6.745   2.097
 4716TIP3    H114109   1.296   6.753   2.142
 4716TIP3    H214110   1.445   6.743   2.168
 4717TIP3   OH214111   0.615   6.752   1.996
 4717TIP3    H114112   0.582   6.739   2.085
 4717TIP3    H214113   0.664   6.672   1.977
 4718TIP3   OH214114   1.043   6.857   1.722
 4718TIP3    H114115   1.137   6.871   1.735
 4718TIP3    H214116   1.020   6.915   1.650
 4719TIP3   OH214117   1.830   6.844   2.321
 4719TIP3    H114118   1.799   6.867   2.409
 4719TIP3    H214119   1.765   6.781   2.289
 4720TIP3   OH214120   1.578   7.122   2.264
 4720TIP3    H114121   1.600   7.104   2.173
 4720TIP3    H214122   1.580   7.037   2.307
 4721TIP3   OH214123   0.926   6.584   2.063
 4721TIP3    H114124   0.897   6.511   2.118
 4721TIP3    H214125   0.945   6.545   1.978
 4722TIP3   OH214126   1.402   7.031   2.504
 4722TIP3    H114127   1.319   7.072   2.526
 4722TIP3    H214128   1.460   7.052   2.578
 4723TIP3   OH214129   1.593   6.712   1.484
 4723TIP3    H114130   1.500   6.702   1.467
 4723TIP3    H214131   1.609   6.807   1.475
 4724TIP3   OH214132   1.687   6.975   1.516
 4724TIP3    H114133   1.780   6.962   1.536
 4724TIP3    H214134   1.683   7.058   1.469
 4725TIP3   OH214135   2.078   7.059   1.378
 4725TIP3    H114136   2.027   7.036   1.300
 4725TIP3    H214137   2.082   7.155   1.376
 4726TIP3   OH214138   0.927   6.801   2.912
 4726TIP3    H114139   0.833   6.811   2.923
 4726TIP3    H214140   0.955   6.748   2.988
 4727TIP3   OH214141   1.718   6.901   2.572
 4727TIP3    H114142   1.804   6.939   2.590
 4727TIP3    H214143   1.715   6.821   2.623
 4728TIP3   OH214144   1.641   6.663   1.748
 4728TIP3    H114145   1.618   6.680   1.657
 4728TIP3    H214146   1.688   6.741   1.776
 4729TIP3   OH214147   1.307   6.845   1.820
 4729TIP3    H114148   1.376   6.898   1.781
 4729TIP3    H214149   1.320   6.855   1.915
 4730TIP3   OH214150   1.561   7.068   2.728
 4730TIP3    H114151   1.608   7.151   2.732
 4730TIP3    H214152   1.620   7.008   2.682
 4731TIP3   OH214153   1.468   6.550   1.928
 4731TIP3    H114154   1.442   6.625   1.981
 4731TIP3    H214155   1.533   6.585   1.867
 4732TIP3   OH214156   0.993   6.589   1.740
 4732TIP3    H114157   0.994   6.685   1.740
 4732TIP3    H214158   1.085   6.564   1.743
 4733TIP3   OH214159   2.231   7.005   2.629
 4733TIP3    H114160   2.138   7.008   2.649
 4733TIP3    H214161   2.235   6.983   2.536
 4734TIP3   OH214162   0.932   6.489   2.475
 4734TIP3    H114163   0.907   6.456   2.389
 4734TIP3    H214164   0.926   6.413   2.533
 4735TIP3   OH214165   1.362   6.994   2.945
 4735TIP3    H114166   1.401   6.927   2.888
 4735TIP3    H214167   1.284   7.023   2.898
 4736TIP3   OH214168   1.359   6.824   2.708
 4736TIP3    H114169   1.381   6.877   2.631
 4736TIP3    H214170   1.264   6.813   2.703
 4737TIP3   OH214171   4.502   0.146   2.862
 4737TIP3    H114172   4.525   0.072   2.919
 4737TIP3    H214173   4.572   0.209   2.876
 4738TIP3   OH214174   1.190   7.154   3.165
 4738TIP3    H114175   1.170   7.062   3.149
 4738TIP3    H214176   1.165   7.199   3.084
 4739TIP3   OH214177   1.472   6.595   2.797
 4739TIP3    H114178   1.435   6.676   2.762
 4739TIP3    H214179   1.404   6.529   2.783
 4740TIP3   OH214180   1.639   7.060   3.007
 4740TIP3    H114181   1.574   7.051   3.076
 4740TIP3    H214182   1.588   7.054   2.926
 4741TIP3   OH214183   1.869   7.018   2.846
 4741TIP3    H114184   1.792   7.031   2.901
 4741TIP3    H214185   1.941   7.006   2.909
 4742TIP3   OH214186   2.075   6.989   3.036
 4742TIP3    H114187   2.092   6.895   3.033
 4742TIP3    H214188   2.063   7.008   3.130
 4743TIP3   OH214189   1.135   6.891   3.179
 4743TIP3    H114190   1.134   6.809   3.129
 4743TIP3    H214191   1.180   6.869   3.260
 4744TIP3   OH214192   1.533   6.616   3.062
 4744TIP3    H114193   1.608   6.556   3.061
 4744TIP3    H214194   1.501   6.614   2.972
 4745TIP3   OH214195   1.602   6.826   3.220
 4745TIP3    H114196   1.579   6.760   3.155
 4745TIP3    H214197   1.536   6.895   3.208
 4746TIP3   OH214198   1.939   6.988   1.157
 4746TIP3    H114199   1.902   7.012   1.072
 4746TIP3    H214200   1.921   6.894   1.165
 4747TIP3   OH214201   1.894   6.710   1.147
 4747TIP3    H114202   1.963   6.691   1.211
 4747TIP3    H214203   1.815   6.669   1.184
 4748TIP3   OH214204   1.952   6.936   1.592
 4748TIP3    H114205   2.007   6.861   1.613
 4748TIP3    H214206   2.000   6.983   1.524
 4749TIP3   OH214207   2.160   7.033   2.103
 4749TIP3    H114208   2.147   7.071   2.016
 4749TIP3    H214209   2.105   7.086   2.160
 4750TIP3   OH214210   0.891   7.000   3.186
 4750TIP3    H114211   0.973   6.952   3.184
 4750TIP3    H214212   0.828   6.939   3.224
 4751TIP3   OH214213   2.619   6.902   2.906
 4751TIP3    H114214   2.685   6.837   2.882
 4751TIP3    H214215   2.591   6.939   2.822
 4752TIP3   OH214216   2.079   6.708   1.676
 4752TIP3    H114217   2.118   6.697   1.763
 4752TIP3    H214218   2.010   6.641   1.672
 4753TIP3   OH214219   0.730   6.674   2.503
 4753TIP3    H114220   0.785   6.596   2.505
 4753TIP3    H214221   0.792   6.747   2.503
 4754TIP3   OH214222   2.499   6.976   2.672
 4754TIP3    H114223   2.411   7.013   2.682
 4754TIP3    H214224   2.484   6.890   2.633
 4755TIP3   OH214225   2.120   6.658   1.303
 4755TIP3    H114226   2.163   6.591   1.251
 4755TIP3    H214227   2.181   6.731   1.305
 4756TIP3   OH214228   0.499   6.484   2.030
 4756TIP3    H114229   0.427   6.457   2.086
 4756TIP3    H214230   0.471   6.567   1.992
 4757TIP3   OH214231   0.752   6.515   2.868
 4757TIP3    H114232   0.709   6.511   2.953
 4757TIP3    H214233   0.694   6.567   2.813
 4758TIP3   OH214234   2.392   6.740   2.588
 4758TIP3    H114235   2.303   6.738   2.553
 4758TIP3    H214236   2.421   6.649   2.586
 4759TIP3   OH214237   1.608   6.681   2.248
 4759TIP3    H114238   1.566   6.607   2.292
 4759TIP3    H214239   1.671   6.642   2.189
 4760TIP3   OH214240   2.107   6.580   2.125
 4760TIP3    H114241   2.149   6.635   2.058
 4760TIP3    H214242   2.014   6.605   2.122
 4761TIP3   OH214243   2.234   6.680   1.904
 4761TIP3    H114244   2.303   6.623   1.870
 4761TIP3    H214245   2.266   6.769   1.888
 4762TIP3   OH214246   0.842   6.385   2.235
 4762TIP3    H114247   0.754   6.349   2.243
 4762TIP3    H214248   0.900   6.309   2.229
 4763TIP3   OH214249   0.685   6.307   1.934
 4763TIP3    H114250   0.706   6.349   1.850
 4763TIP3    H214251   0.617   6.363   1.972
 4764TIP3   OH214252   1.306   6.432   2.133
 4764TIP3    H114253   1.355   6.470   2.060
 4764TIP3    H214254   1.349   6.464   2.211
 4765TIP3   OH214255   1.817   6.576   2.100
 4765TIP3    H114256   1.829   6.543   2.011
 4765TIP3    H214257   1.818   6.498   2.155
 4766TIP3   OH214258   1.871   6.522   1.672
 4766TIP3    H114259   1.788   6.567   1.689
 4766TIP3    H214260   1.861   6.436   1.712
 4767TIP3   OH214261   0.760   6.444   1.709
 4767TIP3    H114262   0.784   6.390   1.634
 4767TIP3    H214263   0.838   6.498   1.725
 4768TIP3   OH214264   1.267   6.593   1.734
 4768TIP3    H114265   1.324   6.539   1.789
 4768TIP3    H214266   1.279   6.682   1.765
 4769TIP3   OH214267   1.078   6.625   3.110
 4769TIP3    H114268   1.025   6.575   3.172
 4769TIP3    H214269   1.165   6.627   3.148
 4770TIP3   OH214270   1.312   6.665   3.258
 4770TIP3    H114271   1.392   6.647   3.209
 4770TIP3    H214272   1.306   6.594   3.322
 4771TIP3   OH214273   2.143   6.725   3.031
 4771TIP3    H114274   2.161   6.701   3.122
 4771TIP3    H214275   2.229   6.729   2.990
 4772TIP3   OH214276   4.163   7.213   1.734
 4772TIP3    H114277   4.184   7.297   1.776
 4772TIP3    H214278   4.185   7.227   1.642
 4773TIP3   OH214279   6.234   0.044   1.704
 4773TIP3    H114280   6.232  -0.038   1.754
 4773TIP3    H214281   6.154   0.042   1.651
 4774TIP3   OH214282   2.901   7.064   1.704
 4774TIP3    H114283   2.867   7.126   1.639
 4774TIP3    H214284   2.859   6.981   1.683
 4775TIP3   OH214285   3.585   7.143   1.361
 4775TIP3    H114286   3.653   7.127   1.427
 4775TIP3    H214287   3.631   7.182   1.287
 4776TIP3   OH214288   2.544   7.207   1.774
 4776TIP3    H114289   2.610   7.158   1.823
 4776TIP3    H214290   2.530   7.155   1.695
 4777TIP3   OH214291   6.853   0.088   1.877
 4777TIP3    H114292   6.799   0.161   1.848
 4777TIP3    H214293   6.884   0.115   1.963
 4778TIP3   OH214294   2.894   7.016   2.145
 4778TIP3    H114295   2.835   7.051   2.078
 4778TIP3    H214296   2.843   7.018   2.226
 4779TIP3   OH214297   3.774   7.136   1.560
 4779TIP3    H114298   3.725   7.132   1.642
 4779TIP3    H214299   3.833   7.211   1.572
 4780TIP3   OH214300   2.760   7.137   1.935
 4780TIP3    H114301   2.784   7.216   1.983
 4780TIP3    H214302   2.828   7.128   1.868
 4781TIP3   OH214303   3.959   7.112   1.904
 4781TIP3    H114304   3.873   7.146   1.879
 4781TIP3    H214305   4.018   7.141   1.834
 4782TIP3   OH214306   3.231   6.742   1.871
 4782TIP3    H114307   3.224   6.650   1.896
 4782TIP3    H214308   3.154   6.783   1.910
 4783TIP3   OH214309   3.853   6.690   0.988
 4783TIP3    H114310   3.774   6.707   1.040
 4783TIP3    H214311   3.865   6.769   0.936
 4784TIP3   OH214312   6.718   0.222   2.256
 4784TIP3    H114313   6.659   0.207   2.182
 4784TIP3    H214314   6.708   0.144   2.311
 4785TIP3   OH214315   2.993   6.819   1.987
 4785TIP3    H114316   2.906   6.790   1.961
 4785TIP3    H214317   2.978   6.899   2.038
 4786TIP3   OH214318   3.526   6.942   2.203
 4786TIP3    H114319   3.601   6.926   2.260
 4786TIP3    H214320   3.450   6.912   2.254
 4787TIP3   OH214321   3.732   7.296   2.058
 4787TIP3    H114322   3.718   7.290   2.153
 4787TIP3    H214323   3.761   7.386   2.044
 4788TIP3   OH214324   3.132   6.864   1.009
 4788TIP3    H114325   3.101   6.879   1.098
 4788TIP3    H214326   3.098   6.777   0.986
 4789TIP3   OH214327   2.767   7.198   1.507
 4789TIP3    H114328   2.678   7.166   1.515
 4789TIP3    H214329   2.790   7.181   1.415
 4790TIP3   OH214330   3.429   7.315   1.517
 4790TIP3    H114331   3.423   7.378   1.445
 4790TIP3    H214332   3.474   7.240   1.479
 4791TIP3   OH214333   2.754   7.279   2.183
 4791TIP3    H114334   2.733   7.357   2.233
 4791TIP3    H214335   2.745   7.207   2.246
 4792TIP3   OH214336   2.782   6.896   0.942
 4792TIP3    H114337   2.778   6.883   1.037
 4792TIP3    H214338   2.693   6.922   0.918
 4793TIP3   OH214339   2.333   6.917   1.805
 4793TIP3    H114340   2.409   6.938   1.859
 4793TIP3    H214341   2.370   6.877   1.726
 4794TIP3   OH214342   2.285   6.888   1.321
 4794TIP3    H114343   2.319   6.919   1.237
 4794TIP3    H214344   2.216   6.950   1.344
 4795TIP3   OH214345   3.165   7.043   1.590
 4795TIP3    H114346   3.089   7.050   1.647
 4795TIP3    H214347   3.239   7.034   1.650
 4796TIP3   OH214348   2.536   7.044   1.551
 4796TIP3    H114349   2.464   7.002   1.504
 4796TIP3    H214350   2.602   6.976   1.560
 4797TIP3   OH214351   2.845   7.130   1.248
 4797TIP3    H114352   2.937   7.132   1.273
 4797TIP3    H214353   2.840   7.184   1.169
 4798TIP3   OH214354   3.607   7.130   1.787
 4798TIP3    H114355   3.577   7.143   1.877
 4798TIP3    H214356   3.543   7.071   1.748
 4799TIP3   OH214357   5.888   0.040   1.745
 4799TIP3    H114358   5.925   0.004   1.664
 4799TIP3    H214359   5.863  -0.036   1.796
 4800TIP3   OH214360   2.737   6.859   1.581
 4800TIP3    H114361   2.702   6.786   1.633
 4800TIP3    H214362   2.784   6.816   1.509
 4801TIP3   OH214363   3.210   7.241   1.969
 4801TIP3    H114364   3.156   7.318   1.985
 4801TIP3    H214365   3.290   7.256   2.021
 4802TIP3   OH214366   3.385   6.976   0.980
 4802TIP3    H114367   3.292   6.955   0.984
 4802TIP3    H214368   3.389   7.071   0.987
 4803TIP3   OH214369   3.445   7.239   1.066
 4803TIP3    H114370   3.538   7.239   1.088
 4803TIP3    H214371   3.426   7.329   1.042
 4804TIP3   OH214372   6.459   0.058   0.933
 4804TIP3    H114373   6.382   0.014   0.898
 4804TIP3    H214374   6.482   0.122   0.866
 4805TIP3   OH214375   2.732   7.062   2.355
 4805TIP3    H114376   2.639   7.079   2.372
 4805TIP3    H214377   2.765   7.024   2.437
 4806TIP3   OH214378   3.501   7.162   2.045
 4806TIP3    H114379   3.586   7.206   2.054
 4806TIP3    H214380   3.509   7.083   2.099
 4807TIP3   OH214381   3.442   6.933   1.248
 4807TIP3    H114382   3.425   6.954   1.157
 4807TIP3    H214383   3.487   7.010   1.284
 4808TIP3   OH214384   3.109   7.128   1.335
 4808TIP3    H114385   3.183   7.181   1.306
 4808TIP3    H214386   3.125   7.111   1.427
 4809TIP3   OH214387   3.356   7.336   2.205
 4809TIP3    H114388   3.407   7.417   2.213
 4809TIP3    H214389   3.417   7.273   2.167
 4810TIP3   OH214390   3.265   6.827   1.432
 4810TIP3    H114391   3.247   6.903   1.486
 4810TIP3    H214392   3.332   6.856   1.370
 4811TIP3   OH214393   2.772   6.859   1.216
 4811TIP3    H114394   2.772   6.952   1.239
 4811TIP3    H214395   2.862   6.830   1.232
 4812TIP3   OH214396   4.025   7.312   2.114
 4812TIP3    H114397   3.947   7.356   2.147
 4812TIP3    H214398   3.992   7.251   2.048
 4813TIP3   OH214399   2.318   7.011   1.074
 4813TIP3    H114400   2.384   7.035   1.009
 4813TIP3    H214401   2.245   6.976   1.023
 4814TIP3   OH214402   2.728   6.742   1.964
 4814TIP3    H114403   2.699   6.709   1.879
 4814TIP3    H214404   2.718   6.668   2.023
 4815TIP3   OH214405   3.155   7.262   2.445
 4815TIP3    H114406   3.174   7.171   2.421
 4815TIP3    H214407   3.109   7.297   2.369
 4816TIP3   OH214408   3.158   7.068   2.184
 4816TIP3    H114409   3.182   7.125   2.111
 4816TIP3    H214410   3.063   7.059   2.177
 4817TIP3   OH214411   6.329   0.385   2.334
 4817TIP3    H114412   6.341   0.314   2.398
 4817TIP3    H214413   6.407   0.440   2.346
 4818TIP3   OH214414   5.624   0.068   2.663
 4818TIP3    H114415   5.545   0.073   2.718
 4818TIP3    H214416   5.609  -0.008   2.607
 4819TIP3   OH214417   3.275   6.849   2.282
 4819TIP3    H114418   3.239   6.929   2.245
 4819TIP3    H214419   3.208   6.783   2.268
 4820TIP3   OH214420   3.433   7.317   2.492
 4820TIP3    H114421   3.376   7.308   2.569
 4820TIP3    H214422   3.373   7.313   2.418
 4821TIP3   OH214423   3.659   7.272   2.327
 4821TIP3    H114424   3.580   7.285   2.380
 4821TIP3    H214425   3.729   7.258   2.391
 4822TIP3   OH214426   3.882   7.257   2.529
 4822TIP3    H114427   3.893   7.163   2.521
 4822TIP3    H214428   3.873   7.273   2.623
 4823TIP3   OH214429   2.931   7.158   2.664
 4823TIP3    H114430   2.979   7.079   2.638
 4823TIP3    H214431   2.949   7.166   2.758
 4824TIP3   OH214432   3.327   6.873   2.547
 4824TIP3    H114433   3.402   6.813   2.552
 4824TIP3    H214434   3.299   6.869   2.456
 4825TIP3   OH214435   3.412   7.080   2.704
 4825TIP3    H114436   3.382   7.015   2.641
 4825TIP3    H214437   3.348   7.150   2.699
 4826TIP3   OH214438   3.676   7.324   0.560
 4826TIP3    H114439   3.593   7.292   0.527
 4826TIP3    H214440   3.667   7.320   0.655
 4827TIP3   OH214441   3.662   7.008   0.760
 4827TIP3    H114442   3.740   6.960   0.789
 4827TIP3    H214443   3.594   6.941   0.756
 4828TIP3   OH214444   3.721   7.234   1.136
 4828TIP3    H114445   3.768   7.151   1.140
 4828TIP3    H214446   3.780   7.293   1.089
 4829TIP3   OH214447   6.495   0.028   1.617
 4829TIP3    H114448   6.519   0.099   1.559
 4829TIP3    H214449   6.409   0.053   1.651
 4830TIP3   OH214450   2.670   7.181   2.611
 4830TIP3    H114451   2.764   7.177   2.624
 4830TIP3    H214452   2.639   7.093   2.631
 4831TIP3   OH214453   4.423   7.164   2.395
 4831TIP3    H114454   4.485   7.101   2.357
 4831TIP3    H214455   4.385   7.209   2.320
 4832TIP3   OH214456   3.834   6.985   1.179
 4832TIP3    H114457   3.880   6.967   1.260
 4832TIP3    H214458   3.773   6.912   1.169
 4833TIP3   OH214459   2.554   6.955   1.962
 4833TIP3    H114460   2.605   6.876   1.977
 4833TIP3    H214461   2.617   7.027   1.970
 4834TIP3   OH214462   4.284   7.263   2.182
 4834TIP3    H114463   4.195   7.300   2.178
 4834TIP3    H214464   4.277   7.179   2.136
 4835TIP3   OH214465   3.906   6.908   0.827
 4835TIP3    H114466   3.953   6.845   0.772
 4835TIP3    H214467   3.975   6.947   0.882
 4836TIP3   OH214468   2.337   6.764   1.559
 4836TIP3    H114469   2.252   6.735   1.592
 4836TIP3    H214470   2.317   6.807   1.476
 4837TIP3   OH214471   2.558   6.778   2.365
 4837TIP3    H114472   2.506   6.768   2.445
 4837TIP3    H214473   2.502   6.827   2.305
 4838TIP3   OH214474   4.195   7.018   2.087
 4838TIP3    H114475   4.107   7.020   2.049
 4838TIP3    H214476   4.222   6.927   2.081
 4839TIP3   OH214477   3.394   6.948   1.716
 4839TIP3    H114478   3.358   6.878   1.770
 4839TIP3    H214479   3.464   6.905   1.666
 4840TIP3   OH214480   3.900   6.861   1.619
 4840TIP3    H114481   3.939   6.911   1.548
 4840TIP3    H214482   3.809   6.892   1.623
 4841TIP3   OH214483   4.012   6.935   1.381
 4841TIP3    H114484   4.079   6.872   1.353
 4841TIP3    H214485   4.053   7.021   1.367
 4842TIP3   OH214486   2.640   6.644   1.722
 4842TIP3    H114487   2.550   6.612   1.729
 4842TIP3    H214488   2.693   6.565   1.717
 4843TIP3   OH214489   2.453   6.560   1.383
 4843TIP3    H114490   2.481   6.607   1.304
 4843TIP3    H214491   2.426   6.630   1.443
 4844TIP3   OH214492   3.102   6.697   1.620
 4844TIP3    H114493   3.157   6.737   1.553
 4844TIP3    H214494   3.145   6.719   1.703
 4845TIP3   OH214495   3.610   6.834   1.588
 4845TIP3    H114496   3.636   6.799   1.503
 4845TIP3    H214497   3.614   6.758   1.647
 4846TIP3   OH214498   3.658   6.773   1.167
 4846TIP3    H114499   3.576   6.820   1.186
 4846TIP3    H214500   3.648   6.690   1.213
 4847TIP3   OH214501   2.559   6.687   1.151
 4847TIP3    H114502   2.601   6.624   1.093
 4847TIP3    H214503   2.630   6.745   1.179
 4848TIP3   OH214504   3.042   6.869   1.267
 4848TIP3    H114505   3.103   6.816   1.318
 4848TIP3    H214506   3.062   6.960   1.292
 4849TIP3   OH214507   2.862   6.881   2.594
 4849TIP3    H114508   2.819   6.830   2.662
 4849TIP3    H214509   2.952   6.892   2.624
 4850TIP3   OH214510   3.108   6.924   2.715
 4850TIP3    H114511   3.188   6.902   2.668
 4850TIP3    H214512   3.100   6.857   2.783
 4851TIP3   OH214513   3.938   6.990   2.514
 4851TIP3    H114514   3.955   6.964   2.604
 4851TIP3    H214515   4.025   6.991   2.473
 4852TIP3   OH214516   0.087   0.273   1.345
 4852TIP3    H114517   0.139   0.226   1.410
 4852TIP3    H214518   0.130   0.358   1.337
 4853TIP3   OH214519   4.679   7.342   1.254
 4853TIP3    H114520   4.649   7.400   1.184
 4853TIP3    H214521   4.643   7.256   1.231
 4854TIP3   OH214522   6.866   0.179   1.282
 4854TIP3    H114523   6.910   0.189   1.367
 4854TIP3    H214524   6.909   0.104   1.242
 4855TIP3   OH214525   4.674   7.307   1.639
 4855TIP3    H114526   4.619   7.354   1.576
 4855TIP3    H214527   4.624   7.311   1.721
 4856TIP3   OH214528   0.311   0.125   0.989
 4856TIP3    H114529   0.320   0.085   1.075
 4856TIP3    H214530   0.400   0.154   0.967
 4857TIP3   OH214531   7.122   0.091   1.451
 4857TIP3    H114532   7.154   0.180   1.468
 4857TIP3    H214533   7.177   0.060   1.379
 4858TIP3   OH214534   0.549  -0.026   1.446
 4858TIP3    H114535   0.509   0.043   1.499
 4858TIP3    H214536   0.517  -0.009   1.357
 4859TIP3   OH214537   5.036   7.000   1.429
 4859TIP3    H114538   5.018   6.907   1.443
 4859TIP3    H214539   4.956   7.044   1.457
 4860TIP3   OH214540   4.787   7.101   1.492
 4860TIP3    H114541   4.703   7.066   1.462
 4860TIP3    H214542   4.765   7.184   1.535
 4861TIP3   OH214543   5.339   7.206   1.706
 4861TIP3    H114544   5.410   7.185   1.767
 4861TIP3    H214545   5.259   7.186   1.755
 4862TIP3   OH214546   0.349   0.257   1.581
 4862TIP3    H114547   0.324   0.283   1.669
 4862TIP3    H214548   0.395   0.333   1.545
 4863TIP3   OH214549   7.169   0.144   1.058
 4863TIP3    H114550   7.092   0.091   1.074
 4863TIP3    H214551   7.149   0.192   0.977
 4864TIP3   OH214552   0.133   0.197   0.796
 4864TIP3    H114553   0.079   0.271   0.825
 4864TIP3    H214554   0.197   0.186   0.866
 4865TIP3   OH214555   7.186   0.252   1.756
 4865TIP3    H114556   7.162   0.314   1.825
 4865TIP3    H214557   7.164   0.167   1.791
 4866TIP3   OH214558   4.146   7.159   1.311
 4866TIP3    H114559   4.214   7.191   1.371
 4866TIP3    H214560   4.151   7.217   1.236
 4867TIP3   OH214561   4.146   7.191   0.813
 4867TIP3    H114562   4.192   7.230   0.739
 4867TIP3    H214563   4.055   7.182   0.783
 4868TIP3   OH214564   7.539  -0.020   1.173
 4868TIP3    H114565   7.463  -0.024   1.230
 4868TIP3    H214566   7.586   0.058   1.201
 4869TIP3   OH214567   4.370   7.326   1.140
 4869TIP3    H114568   4.285   7.313   1.097
 4869TIP3    H214569   4.417   7.244   1.125
 4870TIP3   OH214570   7.293   0.062   0.696
 4870TIP3    H114571   7.379   0.041   0.731
 4870TIP3    H214572   7.303   0.150   0.660
 4871TIP3   OH214573   0.266  -0.020   1.317
 4871TIP3    H114574   0.224   0.011   1.397
 4871TIP3    H214575   0.203  -0.001   1.248
 4872TIP3   OH214576   7.634   0.223   1.243
 4872TIP3    H114577   7.713   0.277   1.234
 4872TIP3    H214578   7.618   0.220   1.338
 4873TIP3   OH214579   4.565   7.115   1.158
 4873TIP3    H114580   4.503   7.050   1.190
 4873TIP3    H214581   4.613   7.071   1.087
 4874TIP3   OH214582   7.564   0.222   1.511
 4874TIP3    H114583   7.511   0.300   1.497
 4874TIP3    H214584   7.642   0.253   1.557
 4875TIP3   OH214585   4.521   7.353   1.864
 4875TIP3    H114586   4.426   7.367   1.865
 4875TIP3    H214587   4.538   7.296   1.939
 4876TIP3   OH214588   0.150   0.079   1.548
 4876TIP3    H114589   0.230   0.125   1.573
 4876TIP3    H214590   0.145   0.004   1.607
 4877TIP3   OH214591   7.548   0.001   0.775
 4877TIP3    H114592   7.569   0.092   0.794
 4877TIP3    H214593   7.502  -0.030   0.852
 4878TIP3   OH214594  -0.022   0.294   1.657
 4878TIP3    H114595   0.012   0.312   1.745
 4878TIP3    H214596   0.046   0.241   1.616
 4879TIP3   OH214597   5.086   7.121   0.982
 4879TIP3    H114598   5.091   7.138   1.076
 4879TIP3    H214599   5.128   7.197   0.941
 4880TIP3   OH214600   4.417   7.115   0.657
 4880TIP3    H114601   4.414   7.189   0.596
 4880TIP3    H214602   4.510   7.107   0.678
 4881TIP3   OH214603   4.523   7.018   1.479
 4881TIP3    H114604   4.486   6.986   1.397
 4881TIP3    H214605   4.515   6.944   1.539
 4882TIP3   OH214606   7.528   0.224   1.870
 4882TIP3    H114607   7.533   0.137   1.830
 4882TIP3    H214608   7.504   0.282   1.797
 4883TIP3   OH214609   7.537   0.005   1.689
 4883TIP3    H114610   7.557   0.067   1.618
 4883TIP3    H214611   7.444  -0.014   1.678
 4884TIP3   OH214612   0.403   0.492   1.977
 4884TIP3    H114613   0.345   0.451   1.913
 4884TIP3    H214614   0.488   0.495   1.933
 4885TIP3   OH214615   7.393   0.314   2.100
 4885TIP3    H114616   7.337   0.239   2.120
 4885TIP3    H214617   7.433   0.293   2.016
 4886TIP3   OH214618   5.067   7.124   1.761
 4886TIP3    H114619   5.031   7.209   1.734
 4886TIP3    H214620   4.994   7.063   1.754
 4887TIP3   OH214621   7.797   0.267   1.950
 4887TIP3    H114622   7.793   0.272   2.045
 4887TIP3    H214623   7.707   0.251   1.923
 4888TIP3   OH214624   0.253   0.289   1.838
 4888TIP3    H114625   0.170   0.279   1.885
 4888TIP3    H214626   0.317   0.244   1.893
 4889TIP3   OH214627   0.451   0.184   1.999
 4889TIP3    H114628   0.468   0.090   2.007
 4889TIP3    H214629   0.441   0.214   2.089
 4890TIP3   OH214630   7.246   0.098   2.186
 4890TIP3    H114631   7.247   0.011   2.145
 4890TIP3    H214632   7.292   0.086   2.269
 4891TIP3   OH214633   5.133   7.145   2.029
 4891TIP3    H114634   5.206   7.083   2.030
 4891TIP3    H214635   5.098   7.141   1.940
 4892TIP3   OH214636   7.806   0.007   2.182
 4892TIP3    H114637   7.779  -0.063   2.122
 4892TIP3    H214638   7.738   0.074   2.173
 4893TIP3   OH214639   6.990   0.157   2.109
 4893TIP3    H114640   7.083   0.150   2.132
 4893TIP3    H214641   6.949   0.082   2.154
 4894TIP3   OH214642   4.344   7.235   1.492
 4894TIP3    H114643   4.405   7.162   1.496
 4894TIP3    H214644   4.399   7.312   1.478
 4895TIP3   OH214645   4.064   7.001   1.030
 4895TIP3    H114646   3.988   6.992   1.088
 4895TIP3    H214647   4.097   7.089   1.046
 4896TIP3   OH214648   4.353   7.056   1.857
 4896TIP3    H114649   4.303   7.046   1.938
 4896TIP3    H214650   4.294   7.104   1.799
 4897TIP3   OH214651   5.967   7.269   1.604
 4897TIP3    H114652   5.892   7.285   1.546
 4897TIP3    H214653   6.007   7.190   1.568
 4898TIP3   OH214654   5.176   7.147   1.245
 4898TIP3    H114655   5.129   7.101   1.314
 4898TIP3    H214656   5.264   7.111   1.246
 4899TIP3   OH214657   5.644   7.059   1.240
 4899TIP3    H114658   5.709   7.109   1.191
 4899TIP3    H214659   5.560   7.099   1.218
 4900TIP3   OH214660   4.420   6.907   1.254
 4900TIP3    H114661   4.330   6.875   1.258
 4900TIP3    H214662   4.472   6.829   1.237
 4901TIP3   OH214663   4.201   6.786   0.933
 4901TIP3    H114664   4.241   6.824   0.855
 4901TIP3    H214665   4.159   6.860   0.978
 4902TIP3   OH214666   4.911   6.945   1.175
 4902TIP3    H114667   4.991   6.908   1.139
 4902TIP3    H214668   4.939   6.992   1.254
 4903TIP3   OH214669   5.422   7.145   1.080
 4903TIP3    H114670   5.361   7.210   1.045
 4903TIP3    H214671   5.377   7.061   1.069
 4904TIP3   OH214672   4.328   6.866   0.704
 4904TIP3    H114673   4.346   6.846   0.612
 4904TIP3    H214674   4.366   6.953   0.718
 4905TIP3   OH214675   4.931   7.037   0.762
 4905TIP3    H114676   4.969   7.080   0.838
 4905TIP3    H214677   4.848   7.081   0.748
 4906TIP3   OH214678   4.652   7.186   2.093
 4906TIP3    H114679   4.616   7.120   2.153
 4906TIP3    H214680   4.744   7.193   2.118
 4907TIP3   OH214681   4.900   7.195   2.217
 4907TIP3    H114682   4.982   7.173   2.172
 4907TIP3    H214683   4.891   7.127   2.284
 4908TIP3   OH214684   5.723   7.275   2.017
 4908TIP3    H114685   5.742   7.246   2.106
 4908TIP3    H214686   5.809   7.276   1.973
 4909TIP3   OH214687   1.902   0.689   5.602
 4909TIP3    H114688   1.889   0.621   5.669
 4909TIP3    H214689   1.923   0.768   5.652
 4910TIP3   OH214690   1.556   1.093   5.638
 4910TIP3    H114691   1.585   1.027   5.575
 4910TIP3    H214692   1.566   1.051   5.724
 4911TIP3   OH214693   2.478   0.063   6.158
 4911TIP3    H114694   2.434   0.139   6.118
 4911TIP3    H214695   2.562   0.097   6.189
 4912TIP3   OH214696   1.550   0.614   5.369
 4912TIP3    H114697   1.506   0.570   5.297
 4912TIP3    H214698   1.486   0.677   5.402
 4913TIP3   OH214699   1.932   0.920   5.762
 4913TIP3    H114700   1.843   0.914   5.796
 4913TIP3    H214701   1.935   1.006   5.719
 4914TIP3   OH214702   1.647   0.936   5.422
 4914TIP3    H114703   1.700   0.858   5.408
 4914TIP3    H214704   1.704   1.009   5.396
 4915TIP3   OH214705   1.805   0.710   5.341
 4915TIP3    H114706   1.722   0.664   5.351
 4915TIP3    H214707   1.849   0.699   5.425
 4916TIP3   OH214708   2.179   0.821   6.105
 4916TIP3    H114709   2.163   0.746   6.047
 4916TIP3    H214710   2.161   0.898   6.050
 4917TIP3   OH214711   2.368   0.481   5.980
 4917TIP3    H114712   2.282   0.524   5.978
 4917TIP3    H214713   2.402   0.490   5.892
 4918TIP3   OH214714   2.067   0.297   6.259
 4918TIP3    H114715   2.059   0.384   6.298
 4918TIP3    H214716   1.979   0.274   6.231
 4919TIP3   OH214717   1.680   0.921   5.870
 4919TIP3    H114718   1.684   0.984   5.941
 4919TIP3    H214719   1.689   0.835   5.912
 4920TIP3   OH214720   1.680   0.152   5.189
 4920TIP3    H114721   1.757   0.166   5.244
 4920TIP3    H214722   1.708   0.180   5.102
 4921TIP3   OH214723   1.388   0.835   5.417
 4921TIP3    H114724   1.472   0.879   5.433
 4921TIP3    H214725   1.331   0.904   5.383
 4922TIP3   OH214726   1.966   0.761   4.760
 4922TIP3    H114727   1.964   0.856   4.771
 4922TIP3    H214728   2.008   0.747   4.676
 4923TIP3   OH214729   2.415   1.170   6.141
 4923TIP3    H114730   2.422   1.076   6.157
 4923TIP3    H214731   2.338   1.198   6.191
 4924TIP3   OH214732   1.506   0.907   6.257
 4924TIP3    H114733   1.510   0.999   6.283
 4924TIP3    H214734   1.509   0.859   6.340
 4925TIP3   OH214735   1.284   1.057   5.259
 4925TIP3    H114736   1.239   1.042   5.176
 4925TIP3    H214737   1.252   1.142   5.289
 4926TIP3   OH214738   1.487   0.980   4.890
 4926TIP3    H114739   1.535   0.905   4.855
 4926TIP3    H214740   1.522   0.993   4.978
 4927TIP3   OH214741   1.539   1.024   5.160
 4927TIP3    H114742   1.453   1.030   5.201
 4927TIP3    H214743   1.596   0.990   5.229
 4928TIP3   OH214744   4.906   3.941   0.040
 4928TIP3    H114745   4.835   3.965  -0.020
 4928TIP3    H214746   4.924   3.849   0.021
 4929TIP3   OH214747   1.782   0.241   4.949
 4929TIP3    H114748   1.786   0.170   4.886
 4929TIP3    H214749   1.736   0.311   4.903
 4930TIP3   OH214750   2.122   1.517   6.262
 4930TIP3    H114751   2.119   1.544   6.170
 4930TIP3    H214752   2.199   1.562   6.297
 4931TIP3   OH214753   2.131   0.610   5.942
 4931TIP3    H114754   2.161   0.653   5.862
 4931TIP3    H214755   2.051   0.563   5.915
 4932TIP3   OH214756   1.673   0.622   6.247
 4932TIP3    H114757   1.714   0.570   6.317
 4932TIP3    H214758   1.608   0.676   6.293
 4933TIP3   OH214759   7.009   7.250   5.151
 4933TIP3    H114760   7.068   7.237   5.225
 4933TIP3    H214761   6.949   7.319   5.181
 4934TIP3   OH214762   1.385   0.514   5.164
 4934TIP3    H114763   1.328   0.591   5.161
 4934TIP3    H214764   1.340   0.453   5.222
 4935TIP3   OH214765   1.773   0.945   6.162
 4935TIP3    H114766   1.682   0.924   6.182
 4935TIP3    H214767   1.806   0.989   6.241
 4936TIP3   OH214768   2.193   0.030   5.100
 4936TIP3    H114769   2.137  -0.000   5.029
 4936TIP3    H214770   2.136   0.084   5.155
 4937TIP3   OH214771   2.423   0.895   6.196
 4937TIP3    H114772   2.329   0.878   6.194
 4937TIP3    H214773   2.455   0.861   6.113
 4938TIP3   OH214774   1.898   0.833   5.065
 4938TIP3    H114775   1.869   0.782   5.140
 4938TIP3    H214776   1.913   0.769   4.996
 4939TIP3   OH214777   1.901   0.470   5.879
 4939TIP3    H114778   1.806   0.460   5.874
 4939TIP3    H214779   1.935   0.385   5.851
 4940TIP3   OH214780   1.319   1.009   6.070
 4940TIP3    H114781   1.369   1.083   6.034
 4940TIP3    H214782   1.382   0.962   6.125
 4941TIP3   OH214783   0.917   0.969   5.458
 4941TIP3    H114784   0.900   0.934   5.545
 4941TIP3    H214785   0.956   1.055   5.474
 4942TIP3   OH214786   1.744   0.680   5.990
 4942TIP3    H114787   1.710   0.660   6.078
 4942TIP3    H214788   1.821   0.624   5.981
 4943TIP3   OH214789   1.656   0.557   4.956
 4943TIP3    H114790   1.717   0.530   5.025
 4943TIP3    H214791   1.569   0.540   4.993
 4944TIP3   OH214792   1.927   1.194   6.096
 4944TIP3    H114793   1.853   1.134   6.101
 4944TIP3    H214794   1.906   1.251   6.022
 4945TIP3   OH214795   1.982   1.036   4.753
 4945TIP3    H114796   2.008   1.095   4.682
 4945TIP3    H214797   1.911   1.082   4.798
 4946TIP3   OH214798   1.853   0.467   5.128
 4946TIP3    H114799   1.837   0.399   5.194
 4946TIP3    H214800   1.913   0.529   5.171
 4947TIP3   OH214801   1.220   0.726   5.135
 4947TIP3    H114802   1.135   0.744   5.175
 4947TIP3    H214803   1.262   0.812   5.128
 4948TIP3   OH214804   0.991   0.841   5.225
 4948TIP3    H114805   0.954   0.901   5.161
 4948TIP3    H214806   0.962   0.876   5.310
 4949TIP3   OH214807   2.264   0.002   6.309
 4949TIP3    H114808   2.183  -0.014   6.260
 4949TIP3    H214809   2.331   0.012   6.242
 4950TIP3   OH214810   1.977   0.225   5.789
 4950TIP3    H114811   1.956   0.184   5.705
 4950TIP3    H214812   2.055   0.178   5.820
 4951TIP3   OH214813   1.961   1.183   5.682
 4951TIP3    H114814   1.918   1.232   5.611
 4951TIP3    H214815   2.054   1.194   5.665
 4952TIP3   OH214816   1.187   0.743   4.856
 4952TIP3    H114817   1.192   0.702   4.942
 4952TIP3    H214818   1.255   0.700   4.804
 4953TIP3   OH214819   4.471   4.738   0.015
 4953TIP3    H114820   4.488   4.664   0.073
 4953TIP3    H214821   4.481   4.815   0.071
 4954TIP3   OH214822   1.613   0.766   4.772
 4954TIP3    H114823   1.648   0.700   4.832
 4954TIP3    H214824   1.673   0.765   4.697
 4955TIP3   OH214825   1.361   0.463   4.894
 4955TIP3    H114826   1.359   0.477   4.989
 4955TIP3    H214827   1.390   0.372   4.884
 4956TIP3   OH214828   1.956   0.748   6.246
 4956TIP3    H114829   2.035   0.784   6.205
 4956TIP3    H214830   1.884   0.790   6.199
 4957TIP3   OH214831   4.482   4.294   0.322
 4957TIP3    H114832   4.571   4.260   0.311
 4957TIP3    H214833   4.476   4.315   0.415
 4958TIP3   OH214834   2.024   0.317   4.833
 4958TIP3    H114835   2.031   0.253   4.763
 4958TIP3    H214836   1.975   0.389   4.795
 4959TIP3   OH214837   2.089   0.545   6.364
 4959TIP3    H114838   2.032   0.610   6.323
 4959TIP3    H214839   2.177   0.565   6.331
 4960TIP3   OH214840   0.953   1.027   5.020
 4960TIP3    H114841   1.048   1.014   5.019
 4960TIP3    H214842   0.936   1.087   4.948
 4961TIP3   OH214843   2.231   1.232   5.662
 4961TIP3    H114844   2.250   1.262   5.751
 4961TIP3    H214845   2.289   1.283   5.606
 4962TIP3   OH214846   2.249   1.270   5.937
 4962TIP3    H114847   2.198   1.189   5.936
 4962TIP3    H214848   2.323   1.251   5.994
 4963TIP3   OH214849   4.848   4.633   0.080
 4963TIP3    H114850   4.926   4.593   0.118
 4963TIP3    H214851   4.881   4.708   0.031
 4964TIP3   OH214852   2.137   0.442   5.078
 4964TIP3    H114853   2.188   0.519   5.052
 4964TIP3    H214854   2.182   0.408   5.155
 4965TIP3   OH214855   2.256   0.352   5.309
 4965TIP3    H114856   2.173   0.314   5.337
 4965TIP3    H214857   2.299   0.378   5.391
 4966TIP3   OH214858   2.296   0.740   5.762
 4966TIP3    H114859   2.349   0.672   5.721
 4966TIP3    H214860   2.298   0.813   5.700
 4967TIP3   OH214861   2.103   1.034   5.951
 4967TIP3    H114862   2.035   1.076   6.004
 4967TIP3    H214863   2.055   0.990   5.881
 4968TIP3   OH214864   7.182   7.304   4.932
 4968TIP3    H114865   7.142   7.267   4.853
 4968TIP3    H214866   7.123   7.278   5.003
 4969TIP3   OH214867   2.338   0.610   6.277
 4969TIP3    H114868   2.403   0.541   6.266
 4969TIP3    H214869   2.350   0.667   6.202
 4970TIP3   OH214870   2.520   0.409   6.300
 4970TIP3    H114871   2.459   0.350   6.345
 4970TIP3    H214872   2.603   0.397   6.346
 4971TIP3   OH214873   7.212   7.256   5.345
 4971TIP3    H114874   7.254   7.250   5.431
 4971TIP3    H214875   7.210   7.349   5.325
 4972TIP3   OH214876   2.208   0.103   5.870
 4972TIP3    H114877   2.288   0.117   5.819
 4972TIP3    H214878   2.230   0.135   5.958
 4973TIP3   OH214879   2.282   0.247   6.094
 4973TIP3    H114880   2.202   0.272   6.140
 4973TIP3    H214881   2.314   0.329   6.056
 4974TIP3   OH214882   1.791   1.137   5.319
 4974TIP3    H114883   1.846   1.131   5.241
 4974TIP3    H214884   1.829   1.208   5.370
 4975TIP3   OH214885   1.542   1.170   6.309
 4975TIP3    H114886   1.578   1.162   6.397
 4975TIP3    H214887   1.602   1.229   6.264
 4976TIP3   OH214888   1.700   1.375   6.222
 4976TIP3    H114889   1.767   1.329   6.170
 4976TIP3    H214890   1.751   1.433   6.278
 4977TIP3   OH214891   1.021   1.221   6.094
 4977TIP3    H114892   1.038   1.127   6.098
 4977TIP3    H214893   0.985   1.235   6.006
 4978TIP3   OH214894   1.408   1.235   5.924
 4978TIP3    H114895   1.339   1.248   5.859
 4978TIP3    H214896   1.422   1.322   5.962
 4979TIP3   OH214897   1.670   1.183   5.982
 4979TIP3    H114898   1.578   1.191   5.960
 4979TIP3    H214899   1.714   1.248   5.928
 4980TIP3   OH214900   1.876   1.355   5.879
 4980TIP3    H114901   1.869   1.441   5.837
 4980TIP3    H214902   1.903   1.297   5.809
 4981TIP3   OH214903   1.136   1.025   5.870
 4981TIP3    H114904   1.130   0.937   5.834
 4981TIP3    H214905   1.197   1.017   5.943
 4982TIP3   OH214906   1.226   0.982   4.990
 4982TIP3    H114907   1.311   1.008   4.953
 4982TIP3    H214908   1.198   0.908   4.936
 4983TIP3   OH214909   1.940   1.102   5.087
 4983TIP3    H114910   1.932   1.007   5.079
 4983TIP3    H214911   1.896   1.137   5.009
 4984TIP3   OH214912   2.162   1.246   6.231
 4984TIP3    H114913   2.083   1.210   6.192
 4984TIP3    H214914   2.148   1.341   6.232
 4985TIP3   OH214915   3.419   0.637   5.013
 4985TIP3    H114916   3.400   0.728   4.990
 4985TIP3    H214917   3.339   0.589   4.989
 4986TIP3   OH214918   3.435   0.631   5.413
 4986TIP3    H114919   3.454   0.599   5.501
 4986TIP3    H214920   3.434   0.553   5.358
 4987TIP3   OH214921   2.730   0.510   5.778
 4987TIP3    H114922   2.759   0.445   5.842
 4987TIP3    H214923   2.811   0.548   5.744
 4988TIP3   OH214924   3.685   0.933   5.097
 4988TIP3    H114925   3.673   0.867   5.165
 4988TIP3    H214926   3.712   1.012   5.144
 4989TIP3   OH214927   2.718   0.911   5.483
 4989TIP3    H114928   2.702   0.817   5.489
 4989TIP3    H214929   2.813   0.918   5.473
 4990TIP3   OH214930   2.409   0.129   5.252
 4990TIP3    H114931   2.366   0.212   5.271
 4990TIP3    H214932   2.347   0.082   5.196
 4991TIP3   OH214933   2.474   0.413   5.481
 4991TIP3    H114934   2.527   0.337   5.504
 4991TIP3    H214935   2.534   0.471   5.433
 4992TIP3   OH214936   3.347   1.358   5.115
 4992TIP3    H114937   3.383   1.288   5.061
 4992TIP3    H214938   3.335   1.319   5.201
 4993TIP3   OH214939   3.234   0.842   5.445
 4993TIP3    H114940   3.277   0.763   5.410
 4993TIP3    H214941   3.307   0.895   5.478
 4994TIP3   OH214942   3.566   0.329   5.556
 4994TIP3    H114943   3.525   0.260   5.608
 4994TIP3    H214944   3.583   0.289   5.471
 4995TIP3   OH214945   2.985   0.018   5.458
 4995TIP3    H114946   2.958   0.087   5.398
 4995TIP3    H214947   2.931  -0.057   5.434
 4996TIP3   OH214948   3.803   0.155   5.114
 4996TIP3    H114949   3.823   0.068   5.149
 4996TIP3    H214950   3.720   0.144   5.068
 4997TIP3   OH214951   2.630   0.201   5.565
 4997TIP3    H114952   2.710   0.185   5.616
 4997TIP3    H214953   2.639   0.144   5.488
 4998TIP3   OH214954   3.031   0.398   5.369
 4998TIP3    H114955   3.118   0.363   5.387
 4998TIP3    H214956   2.982   0.323   5.334
 4999TIP3   OH214957   4.300   0.294   5.551
 4999TIP3    H114958   4.334   0.337   5.473
 4999TIP3    H214959   4.371   0.237   5.580
 5000TIP3   OH214960   3.340   0.860   4.864
 5000TIP3    H114961   3.292   0.823   4.790
 5000TIP3    H214962   3.283   0.928   4.899
 5001TIP3   OH214963   3.078   0.765   5.661
 5001TIP3    H114964   3.020   0.833   5.696
 5001TIP3    H214965   3.122   0.807   5.588
 5002TIP3   OH214966   2.869   0.134   5.682
 5002TIP3    H114967   2.933   0.190   5.725
 5002TIP3    H214968   2.919   0.085   5.617
 5003TIP3   OH214969   2.915   0.964   5.765
 5003TIP3    H114970   2.899   1.053   5.734
 5003TIP3    H214971   2.837   0.942   5.816
 5004TIP3   OH214972   2.290   0.675   5.024
 5004TIP3    H114973   2.267   0.715   4.940
 5004TIP3    H214974   2.320   0.748   5.078
 5005TIP3   OH214975   3.738   1.168   5.247
 5005TIP3    H114976   3.653   1.160   5.291
 5005TIP3    H214977   3.735   1.255   5.206
 5006TIP3   OH214978   3.450   1.191   4.910
 5006TIP3    H114979   3.503   1.112   4.904
 5006TIP3    H214980   3.509   1.261   4.881
 5007TIP3   OH214981   3.602   0.942   4.830
 5007TIP3    H114982   3.512   0.910   4.842
 5007TIP3    H214983   3.641   0.937   4.917
 5008TIP3   OH214984   3.967   1.066   5.599
 5008TIP3    H114985   3.949   0.992   5.541
 5008TIP3    H214986   3.951   1.143   5.545
 5009TIP3   OH214987   3.232   0.508   4.844
 5009TIP3    H114988   3.147   0.549   4.828
 5009TIP3    H214989   3.279   0.518   4.761
 5010TIP3   OH214990   3.212   0.266   4.588
 5010TIP3    H114991   3.256   0.333   4.640
 5010TIP3    H214992   3.282   0.228   4.533
 5011TIP3   OH214993   4.160   0.754   5.466
 5011TIP3    H114994   4.074   0.797   5.461
 5011TIP3    H214995   4.190   0.750   5.375
 5012TIP3   OH214996   3.598   0.549   4.828
 5012TIP3    H114997   3.543   0.581   4.899
 5012TIP3    H214998   3.682   0.529   4.870
 5013TIP3   OH214999   3.812   0.606   5.770
 5013TIP3    H115000   3.818   0.688   5.820
 5013TIP3    H215001   3.724   0.607   5.734
 5014TIP3   OH215002   2.832   0.542   5.238
 5014TIP3    H115003   2.795   0.484   5.171
 5014TIP3    H215004   2.906   0.492   5.273
 5015TIP3   OH215005   2.979   0.958   5.378
 5015TIP3    H115006   2.954   0.939   5.287
 5015TIP3    H215007   3.066   0.918   5.387
 5016TIP3   OH215008   2.962   0.522   5.610
 5016TIP3    H115009   2.990   0.488   5.525
 5016TIP3    H215010   3.008   0.605   5.619
 5017TIP3   OH215011   3.506   1.158   5.387
 5017TIP3    H115012   3.488   1.239   5.434
 5017TIP3    H215013   3.488   1.088   5.450
 5018TIP3   OH215014   3.115   1.063   5.928
 5018TIP3    H115015   3.056   1.122   5.975
 5018TIP3    H215016   3.056   1.011   5.873
 5019TIP3   OH215017   3.427   0.439   4.650
 5019TIP3    H115018   3.489   0.483   4.708
 5019TIP3    H215019   3.459   0.459   4.562
 5020TIP3   OH215020   2.882   0.644   6.020
 5020TIP3    H115021   2.884   0.730   6.063
 5020TIP3    H215022   2.791   0.616   6.026
 5021TIP3   OH215023   3.194   1.085   4.926
 5021TIP3    H115024   3.274   1.137   4.929
 5021TIP3    H215025   3.131   1.140   4.879
 5022TIP3   OH215026   2.911   1.227   6.015
 5022TIP3    H115027   2.883   1.235   5.924
 5022TIP3    H215028   2.829   1.212   6.063
 5023TIP3   OH215029   2.714   0.386   5.034
 5023TIP3    H115030   2.639   0.436   5.001
 5023TIP3    H215031   2.678   0.299   5.053
 5024TIP3   OH215032   2.495   0.777   5.963
 5024TIP3    H115033   2.429   0.761   5.896
 5024TIP3    H215034   2.539   0.692   5.975
 5025TIP3   OH215035   2.343   0.972   5.609
 5025TIP3    H115036   2.437   0.988   5.619
 5025TIP3    H215037   2.302   1.050   5.643
 5026TIP3   OH215038   4.202   1.422   5.664
 5026TIP3    H115039   4.206   1.327   5.679
 5026TIP3    H215040   4.121   1.449   5.708
 5027TIP3   OH215041   3.304   1.205   5.790
 5027TIP3    H115042   3.299   1.295   5.820
 5027TIP3    H215043   3.236   1.159   5.839
 5028TIP3   OH215044   3.086   1.317   4.742
 5028TIP3    H115045   3.033   1.296   4.665
 5028TIP3    H215046   3.049   1.400   4.775
 5029TIP3   OH215047   2.521   1.168   5.126
 5029TIP3    H115048   2.566   1.160   5.210
 5029TIP3    H215049   2.472   1.087   5.117
 5030TIP3   OH215050   3.287   1.236   4.374
 5030TIP3    H115051   3.338   1.163   4.340
 5030TIP3    H215052   3.319   1.248   4.463
 5031TIP3   OH215053   3.339   1.279   4.646
 5031TIP3    H115054   3.251   1.286   4.682
 5031TIP3    H215055   3.393   1.251   4.719
 5032TIP3   OH215056   4.084   0.570   5.968
 5032TIP3    H115057   4.006   0.600   5.922
 5032TIP3    H215058   4.109   0.489   5.922
 5033TIP3   OH215059   2.694   0.967   5.932
 5033TIP3    H115060   2.749   0.954   6.010
 5033TIP3    H215061   2.625   0.902   5.941
 5034TIP3   OH215062   3.833   0.360   5.896
 5034TIP3    H115063   3.833   0.388   5.987
 5034TIP3    H215064   3.824   0.441   5.846
 5035TIP3   OH215065   3.535   0.494   4.406
 5035TIP3    H115066   3.487   0.463   4.329
 5035TIP3    H215067   3.610   0.541   4.370
 5036TIP3   OH215068   3.045   0.323   5.788
 5036TIP3    H115069   2.983   0.333   5.860
 5036TIP3    H215070   3.021   0.392   5.726
 5037TIP3   OH215071   2.885   0.190   5.268
 5037TIP3    H115072   2.798   0.154   5.283
 5037TIP3    H215073   2.908   0.162   5.179
 5038TIP3   OH215074   3.336   0.318   5.009
 5038TIP3    H115075   3.289   0.381   4.954
 5038TIP3    H215076   3.421   0.308   4.966
 5039TIP3   OH215077   3.573   0.540   6.080
 5039TIP3    H115078   3.542   0.477   6.145
 5039TIP3    H215079   3.666   0.551   6.101
 5040TIP3   OH215080   3.447   0.392   5.262
 5040TIP3    H115081   3.397   0.387   5.180
 5040TIP3    H215082   3.513   0.323   5.254
 5041TIP3   OH215083   2.836   0.333   5.971
 5041TIP3    H115084   2.817   0.392   6.044
 5041TIP3    H215085   2.795   0.250   5.995
 5042TIP3   OH215086   3.550   0.563   5.684
 5042TIP3    H115087   3.566   0.488   5.626
 5042TIP3    H215088   3.513   0.525   5.763
 5043TIP3   OH215089   3.219   0.042   5.302
 5043TIP3    H115090   3.151   0.007   5.359
 5043TIP3    H215091   3.249   0.121   5.347
 5044TIP3   OH215092   2.655   0.050   5.331
 5044TIP3    H115093   2.570   0.083   5.302
 5044TIP3    H215094   2.649  -0.045   5.318
 5045TIP3   OH215095   2.941   0.088   5.022
 5045TIP3    H115096   3.029   0.058   4.997
 5045TIP3    H215097   2.888   0.074   4.944
 5046TIP3   OH215098   2.795   0.067   4.786
 5046TIP3    H115099   2.718   0.043   4.734
 5046TIP3    H215100   2.849   0.118   4.726
 5047TIP3   OH215101   3.912   1.766   5.757
 5047TIP3    H115102   3.907   1.786   5.663
 5047TIP3    H215103   3.990   1.812   5.787
 5048TIP3   OH215104   2.862   0.887   6.152
 5048TIP3    H115105   2.941   0.905   6.203
 5048TIP3    H215106   2.791   0.889   6.216
 5049TIP3   OH215107   3.268   0.277   5.437
 5049TIP3    H115108   3.340   0.327   5.398
 5049TIP3    H215109   3.289   0.275   5.531
 5050TIP3   OH215110   3.308   0.268   5.707
 5050TIP3    H115111   3.218   0.279   5.739
 5050TIP3    H215112   3.362   0.311   5.773
 5051TIP3   OH215113   2.986   0.634   4.801
 5051TIP3    H115114   2.921   0.564   4.788
 5051TIP3    H215115   2.974   0.661   4.892
 5052TIP3   OH215116   3.912   0.865   5.419
 5052TIP3    H115117   3.946   0.913   5.344
 5052TIP3    H215118   3.830   0.827   5.389
 5053TIP3   OH215119   3.360  -0.025   4.677
 5053TIP3    H115120   3.275   0.016   4.691
 5053TIP3    H215121   3.423   0.047   4.688
 5054TIP3   OH215122   3.429   0.939   5.830
 5054TIP3    H115123   3.472   0.931   5.915
 5054TIP3    H215124   3.385   1.024   5.833
 5055TIP3   OH215125   3.533   0.191   4.722
 5055TIP3    H115126   3.611   0.216   4.771
 5055TIP3    H215127   3.494   0.274   4.694
 5056TIP3   OH215128   2.717   0.628   5.474
 5056TIP3    H115129   2.753   0.607   5.388
 5056TIP3    H215130   2.772   0.580   5.536
 5057TIP3   OH215131   3.171   0.770   4.656
 5057TIP3    H115132   3.133   0.858   4.650
 5057TIP3    H215133   3.104   0.719   4.702
 5058TIP3   OH215134   2.626   0.554   6.077
 5058TIP3    H115135   2.654   0.549   6.168
 5058TIP3    H215136   2.547   0.499   6.073
 5059TIP3   OH215137   3.336   0.689   6.120
 5059TIP3    H115138   3.264   0.636   6.086
 5059TIP3    H215139   3.414   0.649   6.083
 5060TIP3   OH215140   3.576   1.219   5.712
 5060TIP3    H115141   3.481   1.208   5.719
 5060TIP3    H215142   3.601   1.261   5.795
 5061TIP3   OH215143   3.935   0.364   4.642
 5061TIP3    H115144   3.909   0.289   4.589
 5061TIP3    H215145   3.941   0.436   4.579
 5062TIP3   OH215146   4.215   1.135   5.691
 5062TIP3    H115147   4.120   1.127   5.682
 5062TIP3    H215148   4.249   1.109   5.606
 5063TIP3   OH215149   3.718   1.016   4.535
 5063TIP3    H115150   3.674   1.021   4.620
 5063TIP3    H215151   3.651   1.041   4.472
 5064TIP3   OH215152   3.677   0.744   5.318
 5064TIP3    H115153   3.588   0.726   5.346
 5064TIP3    H215154   3.709   0.661   5.282
 5065TIP3   OH215155   2.833   0.956   5.131
 5065TIP3    H115156   2.828   1.033   5.073
 5065TIP3    H215157   2.742   0.939   5.155
 5066TIP3   OH215158   2.943   0.716   5.053
 5066TIP3    H115159   2.916   0.805   5.076
 5066TIP3    H215160   2.906   0.661   5.122
 5067TIP3   OH215161   3.118   1.282   5.585
 5067TIP3    H115162   3.155   1.354   5.535
 5067TIP3    H215163   3.192   1.247   5.636
 5068TIP3   OH215164   2.752   1.181   4.977
 5068TIP3    H115165   2.666   1.188   5.017
 5068TIP3    H215166   2.787   1.270   4.981
 5069TIP3   OH215167   3.473   0.937   5.557
 5069TIP3    H115168   3.460   0.934   5.652
 5069TIP3    H215169   3.550   0.882   5.542
 5070TIP3   OH215170   3.476   0.819   4.422
 5070TIP3    H115171   3.529   0.779   4.491
 5070TIP3    H215172   3.394   0.771   4.424
 5071TIP3   OH215173   3.727   1.442   5.595
 5071TIP3    H115174   3.654   1.381   5.608
 5071TIP3    H215175   3.699   1.499   5.524
 5072TIP3   OH215176   3.779   1.291   4.253
 5072TIP3    H115177   3.803   1.340   4.175
 5072TIP3    H215178   3.700   1.335   4.285
 5073TIP3   OH215179   3.646   0.739   4.634
 5073TIP3    H115180   3.631   0.659   4.684
 5073TIP3    H215181   3.643   0.809   4.699
 5074TIP3   OH215182   2.545   1.165   5.746
 5074TIP3    H115183   2.596   1.102   5.796
 5074TIP3    H215184   2.561   1.249   5.790
 5075TIP3   OH215185   2.822   0.788   4.433
 5075TIP3    H115186   2.827   0.696   4.407
 5075TIP3    H215187   2.798   0.785   4.526
 5076TIP3   OH215188   2.757   0.802   4.700
 5076TIP3    H115189   2.829   0.766   4.752
 5076TIP3    H215190   2.760   0.896   4.716
 5077TIP3   OH215191   2.502   0.520   4.928
 5077TIP3    H115192   2.428   0.556   4.977
 5077TIP3    H215193   2.503   0.570   4.847
 5078TIP3   OH215194   3.038   1.005   4.651
 5078TIP3    H115195   2.952   1.020   4.689
 5078TIP3    H215196   3.051   1.078   4.590
 5079TIP3   OH215197   3.245   0.055   5.029
 5079TIP3    H115198   3.256   0.150   5.025
 5079TIP3    H215199   3.232   0.036   5.122
 5080TIP3   OH215200   3.496   0.370   5.882
 5080TIP3    H115201   3.513   0.432   5.953
 5080TIP3    H215202   3.562   0.302   5.892
 5081TIP3   OH215203   2.783   1.073   4.727
 5081TIP3    H115204   2.759   1.143   4.665
 5081TIP3    H215205   2.769   1.112   4.813
 5082TIP3   OH215206   4.010   0.173   5.782
 5082TIP3    H115207   3.935   0.222   5.815
 5082TIP3    H215208   4.083   0.235   5.782
 5083TIP3   OH215209   3.763   0.491   5.240
 5083TIP3    H115210   3.714   0.421   5.281
 5083TIP3    H215211   3.853   0.480   5.272
 5084TIP3   OH215212   2.499   0.685   4.702
 5084TIP3    H115213   2.573   0.746   4.708
 5084TIP3    H215214   2.530   0.617   4.641
 5085TIP3   OH215215   3.755   1.435   5.168
 5085TIP3    H115216   3.712   1.482   5.097
 5085TIP3    H215217   3.849   1.448   5.154
 5086TIP3   OH215218   2.350   0.944   5.111
 5086TIP3    H115219   2.308   0.983   5.187
 5086TIP3    H215220   2.304   0.983   5.036
 5087TIP3   OH215221   2.537   1.475   6.169
 5087TIP3    H115222   2.621   1.477   6.214
 5087TIP3    H215223   2.520   1.383   6.153
 5088TIP3   OH215224   3.015   1.389   6.211
 5088TIP3    H115225   3.108   1.365   6.219
 5088TIP3    H215226   2.983   1.336   6.138
 5089TIP3   OH215227   2.978   0.987   4.327
 5089TIP3    H115228   2.928   0.918   4.371
 5089TIP3    H215229   3.051   0.941   4.286
 5090TIP3   OH215230   3.633   1.332   5.956
 5090TIP3    H115231   3.641   1.261   6.020
 5090TIP3    H215232   3.709   1.389   5.973
 5091TIP3   OH215233   3.421   1.027   4.256
 5091TIP3    H115234   3.451   0.953   4.309
 5091TIP3    H215235   3.471   1.019   4.175
 5092TIP3   OH215236   2.661   0.893   6.335
 5092TIP3    H115237   2.678   0.822   6.397
 5092TIP3    H215238   2.573   0.876   6.302
 5093TIP3   OH215239   2.635   0.492   4.562
 5093TIP3    H115240   2.686   0.469   4.639
 5093TIP3    H215241   2.700   0.504   4.493
 5094TIP3   OH215242   3.275   0.962   6.126
 5094TIP3    H115243   3.227   0.978   6.045
 5094TIP3    H215244   3.304   0.871   6.119
 5095TIP3   OH215245   3.212   0.710   4.390
 5095TIP3    H115246   3.187   0.726   4.481
 5095TIP3    H215247   3.192   0.617   4.376
 5096TIP3   OH215248   3.744   0.995   5.747
 5096TIP3    H115249   3.820   1.028   5.700
 5096TIP3    H215250   3.676   1.062   5.732
 5097TIP3   OH215251   2.790   0.578   6.309
 5097TIP3    H115252   2.878   0.540   6.312
 5097TIP3    H215253   2.783   0.629   6.390
 5098TIP3   OH215254   2.811   0.426   4.771
 5098TIP3    H115255   2.786   0.399   4.859
 5098TIP3    H215256   2.854   0.349   4.734
 5099TIP3   OH215257   3.130   0.529   6.020
 5099TIP3    H115258   3.042   0.566   6.019
 5099TIP3    H215259   3.166   0.549   5.933
 5100TIP3   OH215260   2.939   0.230   4.620
 5100TIP3    H115261   2.912   0.239   4.529
 5100TIP3    H215262   3.035   0.236   4.617
 5101TIP3   OH215263   3.627   0.879   6.115
 5101TIP3    H115264   3.697   0.841   6.062
 5101TIP3    H215265   3.620   0.821   6.191
 5102TIP3   OH215266   3.761   0.589   4.256
 5102TIP3    H115267   3.713   0.541   4.189
 5102TIP3    H215268   3.831   0.633   4.208
 5103TIP3   OH215269   3.216   0.295   6.124
 5103TIP3    H115270   3.209   0.230   6.054
 5103TIP3    H215271   3.187   0.377   6.084
 5104TIP3   OH215272   3.263   0.618   5.799
 5104TIP3    H115273   3.346   0.658   5.771
 5104TIP3    H215274   3.196   0.668   5.754
 5105TIP3   OH215275   3.839   0.543   6.160
 5105TIP3    H115276   3.858   0.495   6.240
 5105TIP3    H215277   3.918   0.594   6.143
 5106TIP3   OH215278   3.873   0.832   5.919
 5106TIP3    H115279   3.817   0.893   5.870
 5106TIP3    H215280   3.961   0.848   5.886
 5107TIP3   OH215281   3.072   0.386   6.354
 5107TIP3    H115282   3.007   0.316   6.366
 5107TIP3    H215283   3.120   0.361   6.276
 5108TIP3   OH215284   3.467   0.342   6.231
 5108TIP3    H115285   3.473   0.286   6.308
 5108TIP3    H215286   3.380   0.325   6.195
 5109TIP3   OH215287   2.770   1.279   4.541
 5109TIP3    H115288   2.860   1.263   4.511
 5109TIP3    H215289   2.730   1.326   4.468
 5110TIP3   OH215290   2.147   1.254   5.180
 5110TIP3    H115291   2.083   1.201   5.133
 5110TIP3    H215292   2.191   1.193   5.239
 5111TIP3   OH215293   2.287   1.087   5.351
 5111TIP3    H115294   2.278   1.020   5.418
 5111TIP3    H215295   2.340   1.156   5.392
 5112TIP3   OH215296   4.026   1.487   5.154
 5112TIP3    H115297   4.046   1.524   5.240
 5112TIP3    H215298   4.081   1.535   5.093
 5113TIP3   OH215299   4.039   1.526   5.439
 5113TIP3    H115300   3.993   1.442   5.432
 5113TIP3    H215301   4.111   1.510   5.499
 5114TIP3   OH215302   4.092   1.218   6.010
 5114TIP3    H115303   4.018   1.227   6.070
 5114TIP3    H215304   4.137   1.302   6.016
 5115TIP3   OH215305   3.958   0.780   4.613
 5115TIP3    H115306   4.054   0.784   4.613
 5115TIP3    H215307   3.937   0.732   4.694
 5116TIP3   OH215308   4.020   0.637   4.836
 5116TIP3    H115309   3.957   0.588   4.889
 5116TIP3    H215310   4.092   0.656   4.896
 5117TIP3   OH215311   4.098   0.992   5.252
 5117TIP3    H115312   4.144   0.924   5.204
 5117TIP3    H215313   4.099   1.068   5.193
 5118TIP3   OH215314   3.901   1.283   5.445
 5118TIP3    H115315   3.833   1.328   5.496
 5118TIP3    H215316   3.854   1.242   5.373
 5119TIP3   OH215317   3.953   0.553   4.446
 5119TIP3    H115318   3.880   0.555   4.384
 5119TIP3    H215319   3.940   0.631   4.501
 5120TIP3   OH215320   3.712   0.197   4.433
 5120TIP3    H115321   3.734   0.240   4.350
 5120TIP3    H215322   3.795   0.159   4.462
 5121TIP3   OH215323   3.825   0.495   4.971
 5121TIP3    H115324   3.829   0.401   4.956
 5121TIP3    H215325   3.802   0.503   5.064
 5122TIP3   OH215326   2.465   0.523   5.729
 5122TIP3    H115327   2.454   0.487   5.641
 5122TIP3    H215328   2.560   0.529   5.741
 5123TIP3   OH215329   4.128   0.874   5.820
 5123TIP3    H115330   4.197   0.810   5.803
 5123TIP3    H215331   4.146   0.946   5.759
 5124TIP3   OH215332   4.316   0.669   5.819
 5124TIP3    H115333   4.243   0.620   5.856
 5124TIP3    H215334   4.390   0.648   5.876
 5125TIP3   OH215335   3.777   0.248   4.832
 5125TIP3    H115336   3.822   0.169   4.862
 5125TIP3    H215337   3.842   0.292   4.777
 5126TIP3   OH215338   4.021   0.453   5.322
 5126TIP3    H115339   4.116   0.462   5.325
 5126TIP3    H215340   3.996   0.427   5.411
 5127TIP3   OH215341   4.039   0.552   5.614
 5127TIP3    H115342   3.955   0.586   5.646
 5127TIP3    H215343   4.075   0.623   5.561
 5128TIP3   OH215344   2.692   0.138   6.315
 5128TIP3    H115345   2.724   0.210   6.369
 5128TIP3    H215346   2.636   0.086   6.373
 5129TIP3   OH215347   2.446   0.201   5.773
 5129TIP3    H115348   2.504   0.184   5.698
 5129TIP3    H215349   2.467   0.291   5.799
 5130TIP3   OH215350   3.603   1.378   4.795
 5130TIP3    H115351   3.658   1.378   4.717
 5130TIP3    H215352   3.632   1.455   4.845
 5131TIP3   OH215353   2.688   1.199   6.175
 5131TIP3    H115354   2.596   1.178   6.157
 5131TIP3    H215355   2.697   1.186   6.270
 5132TIP3   OH215356   2.888   1.239   5.732
 5132TIP3    H115357   2.836   1.313   5.700
 5132TIP3    H215358   2.973   1.249   5.689
 5133TIP3   OH215359   3.296   1.471   5.870
 5133TIP3    H115360   3.333   1.465   5.958
 5133TIP3    H215361   3.358   1.524   5.821
 5134TIP3   OH215362   3.485   1.627   5.742
 5134TIP3    H115363   3.549   1.575   5.695
 5134TIP3    H215364   3.537   1.685   5.798
 5135TIP3   OH215365   2.551   1.483   5.779
 5135TIP3    H115366   2.460   1.503   5.755
 5135TIP3    H215367   2.572   1.549   5.845
 5136TIP3   OH215368   2.780   1.470   5.627
 5136TIP3    H115369   2.697   1.476   5.675
 5136TIP3    H215370   2.758   1.496   5.538
 5137TIP3   OH215371   3.200   1.488   5.417
 5137TIP3    H115372   3.126   1.500   5.357
 5137TIP3    H215373   3.211   1.574   5.459
 5138TIP3   OH215374   3.463   1.421   5.468
 5138TIP3    H115375   3.372   1.442   5.449
 5138TIP3    H215376   3.513   1.490   5.423
 5139TIP3   OH215377   3.662   1.597   5.371
 5139TIP3    H115378   3.661   1.685   5.333
 5139TIP3    H215379   3.694   1.540   5.301
 5140TIP3   OH215380   2.463   1.263   5.497
 5140TIP3    H115381   2.488   1.237   5.586
 5140TIP3    H215382   2.535   1.231   5.442
 5141TIP3   OH215383   2.666   1.149   5.359
 5141TIP3    H115384   2.677   1.065   5.404
 5141TIP3    H215385   2.753   1.189   5.361
 5142TIP3   OH215386   2.934   1.234   5.379
 5142TIP3    H115387   2.953   1.142   5.365
 5142TIP3    H215388   2.986   1.258   5.456
 5143TIP3   OH215389   2.225   1.059   4.894
 5143TIP3    H115390   2.140   1.028   4.861
 5143TIP3    H215391   2.234   1.147   4.859
 5144TIP3   OH215392   3.028   1.215   4.468
 5144TIP3    H115393   3.111   1.243   4.431
 5144TIP3    H215394   3.000   1.143   4.412
 5145TIP3   OH215395   3.748   1.358   4.555
 5145TIP3    H115396   3.805   1.304   4.500
 5145TIP3    H215397   3.688   1.400   4.493
 5146TIP3   OH215398   2.329   1.060   4.530
 5146TIP3    H115399   2.332   1.075   4.625
 5146TIP3    H215400   2.410   1.012   4.511
 5147TIP3   OH215401   3.951   1.492   5.758
 5147TIP3    H115402   3.876   1.462   5.707
 5147TIP3    H215403   3.938   1.587   5.767
 5148TIP3   OH215404   5.203   0.864   4.523
 5148TIP3    H115405   5.205   0.960   4.526
 5148TIP3    H215406   5.133   0.844   4.460
 5149TIP3   OH215407   5.214   0.909   4.897
 5149TIP3    H115408   5.245   0.897   4.987
 5149TIP3    H215409   5.202   0.820   4.864
 5150TIP3   OH215410   4.516   0.790   5.268
 5150TIP3    H115411   4.564   0.745   5.338
 5150TIP3    H215412   4.584   0.817   5.206
 5151TIP3   OH215413   5.478   1.184   4.598
 5151TIP3    H115414   5.470   1.122   4.670
 5151TIP3    H215415   5.508   1.266   4.639
 5152TIP3   OH215416   4.502   1.161   4.973
 5152TIP3    H115417   4.482   1.067   4.968
 5152TIP3    H215418   4.596   1.166   4.959
 5153TIP3   OH215419   4.190   0.448   4.707
 5153TIP3    H115420   4.175   0.532   4.751
 5153TIP3    H215421   4.104   0.406   4.706
 5154TIP3   OH215422   4.275   0.685   4.944
 5154TIP3    H115423   4.328   0.608   4.964
 5154TIP3    H215424   4.338   0.755   4.928
 5155TIP3   OH215425   5.143   1.626   4.599
 5155TIP3    H115426   5.171   1.565   4.531
 5155TIP3    H215427   5.120   1.570   4.674
 5156TIP3   OH215428   5.027   1.111   4.934
 5156TIP3    H115429   5.069   1.034   4.897
 5156TIP3    H215430   5.099   1.166   4.964
 5157TIP3   OH215431   5.351   0.659   4.964
 5157TIP3    H115432   5.437   0.623   4.984
 5157TIP3    H215433   5.338   0.642   4.871
 5158TIP3   OH215434   4.806   0.340   4.934
 5158TIP3    H115435   4.764   0.409   4.882
 5158TIP3    H215436   4.773   0.258   4.897
 5159TIP3   OH215437   5.566   0.349   4.584
 5159TIP3    H115438   5.618   0.319   4.510
 5159TIP3    H215439   5.480   0.368   4.546
 5160TIP3   OH215440   4.424   0.470   5.028
 5160TIP3    H115441   4.506   0.448   5.071
 5160TIP3    H215442   4.420   0.412   4.953
 5161TIP3   OH215443   4.817   0.693   4.886
 5161TIP3    H115444   4.911   0.675   4.896
 5161TIP3    H215445   4.785   0.623   4.830
 5162TIP3   OH215446   6.202   0.576   5.096
 5162TIP3    H115447   6.241   0.569   5.009
 5162TIP3    H215448   6.181   0.669   5.106
 5163TIP3   OH215449   5.128   1.093   4.367
 5163TIP3    H115450   5.079   1.078   4.286
 5163TIP3    H215451   5.084   1.167   4.409
 5164TIP3   OH215452   4.887   1.035   5.159
 5164TIP3    H115453   4.828   1.104   5.189
 5164TIP3    H215454   4.931   1.073   5.083
 5165TIP3   OH215455   4.654   0.392   5.161
 5165TIP3    H115456   4.714   0.464   5.177
 5165TIP3    H215457   4.697   0.339   5.093
 5166TIP3   OH215458   4.711   1.224   5.254
 5166TIP3    H115459   4.696   1.312   5.220
 5166TIP3    H215460   4.633   1.205   5.307
 5167TIP3   OH215461   4.053   0.980   4.431
 5167TIP3    H115462   4.110   0.974   4.355
 5167TIP3    H215463   4.091   1.049   4.485
 5168TIP3   OH215464   5.538   1.424   4.739
 5168TIP3    H115465   5.452   1.416   4.780
 5168TIP3    H215466   5.535   1.507   4.692
 5169TIP3   OH215467   5.224   1.463   4.385
 5169TIP3    H115468   5.271   1.380   4.378
 5169TIP3    H215469   5.288   1.530   4.359
 5170TIP3   OH215470   5.384   1.242   4.343
 5170TIP3    H115471   5.332   1.165   4.321
 5170TIP3    H215472   5.427   1.219   4.425
 5171TIP3   OH215473   5.769   1.319   5.089
 5171TIP3    H115474   5.747   1.249   5.027
 5171TIP3    H215475   5.754   1.400   5.041
 5172TIP3   OH215476   5.031   0.804   4.309
 5172TIP3    H115477   4.944   0.843   4.301
 5172TIP3    H215478   5.075   0.826   4.226
 5173TIP3   OH215479   4.992   0.559   4.082
 5173TIP3    H115480   5.049   0.605   4.144
 5173TIP3    H215481   5.051   0.503   4.032
 5174TIP3   OH215482   5.937   1.018   4.939
 5174TIP3    H115483   5.857   1.067   4.922
 5174TIP3    H215484   5.982   1.017   4.854
 5175TIP3   OH215485   5.387   0.823   4.318
 5175TIP3    H115486   5.331   0.846   4.392
 5175TIP3    H215487   5.466   0.787   4.359
 5176TIP3   OH215488   5.609   0.895   5.265
 5176TIP3    H115489   5.603   0.976   5.315
 5176TIP3    H215490   5.528   0.893   5.214
 5177TIP3   OH215491   4.617   0.800   4.721
 5177TIP3    H115492   4.591   0.734   4.657
 5177TIP3    H215493   4.694   0.764   4.764
 5178TIP3   OH215494   4.763   1.194   4.877
 5178TIP3    H115495   4.741   1.191   4.784
 5178TIP3    H215496   4.855   1.165   4.880
 5179TIP3   OH215497   4.715   0.838   5.087
 5179TIP3    H115498   4.753   0.797   5.009
 5179TIP3    H215499   4.776   0.908   5.110
 5180TIP3   OH215500   5.307   1.417   4.879
 5180TIP3    H115501   5.285   1.497   4.927
 5180TIP3    H215502   5.288   1.346   4.940
 5181TIP3   OH215503   4.907   1.320   5.422
 5181TIP3    H115504   4.847   1.380   5.467
 5181TIP3    H215505   4.852   1.269   5.364
 5182TIP3   OH215506   5.235   0.694   4.137
 5182TIP3    H115507   5.293   0.748   4.190
 5182TIP3    H215508   5.265   0.708   4.047
 5183TIP3   OH215509   4.675   0.884   5.582
 5183TIP3    H115510   4.681   0.979   5.594
 5183TIP3    H215511   4.582   0.867   5.568
 5184TIP3   OH215512   4.989   1.314   4.441
 5184TIP3    H115513   5.047   1.388   4.426
 5184TIP3    H215514   4.901   1.351   4.434
 5185TIP3   OH215515   4.702   1.484   5.506
 5185TIP3    H115516   4.677   1.494   5.414
 5185TIP3    H215517   4.620   1.466   5.551
 5186TIP3   OH215518   4.512   0.627   4.524
 5186TIP3    H115519   4.430   0.659   4.486
 5186TIP3    H215520   4.497   0.534   4.537
 5187TIP3   OH215521   5.572   1.270   3.752
 5187TIP3    H115522   5.568   1.365   3.738
 5187TIP3    H215523   5.663   1.247   3.732
 5188TIP3   OH215524   4.294   1.037   5.450
 5188TIP3    H115525   4.225   1.023   5.386
 5188TIP3    H215526   4.334   0.950   5.461
 5189TIP3   OH215527   4.145   1.223   5.098
 5189TIP3    H115528   4.240   1.238   5.098
 5189TIP3    H215529   4.109   1.303   5.136
 5190TIP3   OH215530   5.994   1.688   5.151
 5190TIP3    H115531   6.002   1.593   5.158
 5190TIP3    H215532   5.911   1.709   5.195
 5191TIP3   OH215533   5.099   1.457   5.282
 5191TIP3    H115534   5.091   1.549   5.310
 5191TIP3    H215535   5.030   1.412   5.329
 5192TIP3   OH215536   4.283   1.434   4.636
 5192TIP3    H115537   4.358   1.432   4.696
 5192TIP3    H215538   4.270   1.343   4.610
 5193TIP3   OH215539   5.093   1.502   3.852
 5193TIP3    H115540   5.145   1.427   3.821
 5193TIP3    H215541   5.120   1.513   3.943
 5194TIP3   OH215542   5.113   1.536   4.129
 5194TIP3    H115543   5.021   1.518   4.149
 5194TIP3    H215544   5.160   1.510   4.209
 5195TIP3   OH215545   5.792   0.838   5.490
 5195TIP3    H115546   5.741   0.850   5.410
 5195TIP3    H215547   5.875   0.801   5.460
 5196TIP3   OH215548   4.496   1.223   5.426
 5196TIP3    H115549   4.544   1.214   5.508
 5196TIP3    H215550   4.424   1.161   5.433
 5197TIP3   OH215551   5.628   0.618   5.342
 5197TIP3    H115552   5.619   0.614   5.437
 5197TIP3    H215553   5.594   0.704   5.318
 5198TIP3   OH215554   5.326   0.720   3.885
 5198TIP3    H115555   5.274   0.701   3.807
 5198TIP3    H215556   5.405   0.763   3.851
 5199TIP3   OH215557   4.812   0.606   5.217
 5199TIP3    H115558   4.765   0.631   5.297
 5199TIP3    H215559   4.799   0.680   5.158
 5200TIP3   OH215560   4.685   0.496   4.748
 5200TIP3    H115561   4.599   0.453   4.748
 5200TIP3    H215562   4.720   0.481   4.660
 5201TIP3   OH215563   5.117   0.573   4.411
 5201TIP3    H115564   5.081   0.654   4.374
 5201TIP3    H215565   5.204   0.565   4.370
 5202TIP3   OH215566   5.381   0.817   5.611
 5202TIP3    H115567   5.382   0.743   5.672
 5202TIP3    H215568   5.468   0.855   5.619
 5203TIP3   OH215569   5.243   0.656   4.701
 5203TIP3    H115570   5.238   0.730   4.642
 5203TIP3    H215571   5.272   0.583   4.647
 5204TIP3   OH215572   4.667   0.635   5.443
 5204TIP3    H115573   4.659   0.683   5.525
 5204TIP3    H215574   4.613   0.557   5.455
 5205TIP3   OH215575   4.219   0.205   4.579
 5205TIP3    H115576   4.228   0.220   4.484
 5205TIP3    H215577   4.225   0.293   4.617
 5206TIP3   OH215578   5.358   0.860   5.141
 5206TIP3    H115579   5.366   0.790   5.075
 5206TIP3    H215580   5.344   0.813   5.223
 5207TIP3   OH215581   5.026   0.348   4.774
 5207TIP3    H115582   4.951   0.342   4.832
 5207TIP3    H215583   5.076   0.268   4.789
 5208TIP3   OH215584   4.447   0.362   4.760
 5208TIP3    H115585   4.356   0.392   4.750
 5208TIP3    H215586   4.440   0.267   4.765
 5209TIP3   OH215587   4.743   0.390   4.493
 5209TIP3    H115588   4.837   0.380   4.475
 5209TIP3    H215589   4.703   0.403   4.407
 5210TIP3   OH215590   4.569   0.389   4.271
 5210TIP3    H115591   4.536   0.314   4.222
 5210TIP3    H215592   4.609   0.445   4.204
 5211TIP3   OH215593   5.709   2.020   5.237
 5211TIP3    H115594   5.704   2.034   5.143
 5211TIP3    H215595   5.787   2.067   5.265
 5212TIP3   OH215596   4.650   1.148   5.663
 5212TIP3    H115597   4.731   1.169   5.710
 5212TIP3    H215598   4.581   1.156   5.729
 5213TIP3   OH215599   5.073   0.603   4.913
 5213TIP3    H115600   5.128   0.622   4.837
 5213TIP3    H215601   5.089   0.511   4.932
 5214TIP3   OH215602   5.015   0.495   5.357
 5214TIP3    H115603   4.952   0.548   5.307
 5214TIP3    H215604   5.092   0.489   5.300
 5215TIP3   OH215605   4.775   0.903   4.285
 5215TIP3    H115606   4.711   0.833   4.276
 5215TIP3    H215607   4.768   0.930   4.377
 5216TIP3   OH215608   5.695   1.138   4.901
 5216TIP3    H115609   5.727   1.182   4.822
 5216TIP3    H215610   5.613   1.096   4.873
 5217TIP3   OH215611   5.175   0.234   4.125
 5217TIP3    H115612   5.115   0.203   4.193
 5217TIP3    H215613   5.225   0.304   4.167
 5218TIP3   OH215614   5.226   1.192   5.316
 5218TIP3    H115615   5.268   1.182   5.402
 5218TIP3    H215616   5.183   1.277   5.321
 5219TIP3   OH215617   5.316   0.450   4.224
 5219TIP3    H115618   5.405   0.461   4.256
 5219TIP3    H215619   5.292   0.535   4.187
 5220TIP3   OH215620   4.478   0.876   4.943
 5220TIP3    H115621   4.518   0.861   4.857
 5220TIP3    H215622   4.550   0.862   5.005
 5221TIP3   OH215623   4.946   1.052   4.136
 5221TIP3    H115624   4.907   1.139   4.134
 5221TIP3    H215625   4.883   0.999   4.186
 5222TIP3   OH215626   4.408   0.803   5.584
 5222TIP3    H115627   4.407   0.788   5.678
 5222TIP3    H215628   4.323   0.770   5.554
 5223TIP3   OH215629   5.139   0.956   5.611
 5223TIP3    H115630   5.074   0.897   5.574
 5223TIP3    H215631   5.223   0.914   5.594
 5224TIP3   OH215632   5.366   1.476   5.200
 5224TIP3    H115633   5.271   1.460   5.205
 5224TIP3    H215634   5.387   1.520   5.283
 5225TIP3   OH215635   5.755   0.621   4.134
 5225TIP3    H115636   5.708   0.652   4.056
 5225TIP3    H215637   5.840   0.664   4.129
 5226TIP3   OH215638   6.016   1.413   5.173
 5226TIP3    H115639   5.924   1.388   5.174
 5226TIP3    H215640   6.048   1.384   5.087
 5227TIP3   OH215641   5.503   1.345   4.022
 5227TIP3    H115642   5.474   1.282   4.088
 5227TIP3    H215643   5.515   1.292   3.943
 5228TIP3   OH215644   5.466   1.003   4.815
 5228TIP3    H115645   5.374   0.983   4.833
 5228TIP3    H215646   5.503   0.920   4.785
 5229TIP3   OH215647   4.648   1.216   4.628
 5229TIP3    H115648   4.681   1.278   4.562
 5229TIP3    H215649   4.554   1.236   4.634
 5230TIP3   OH215650   4.189   0.516   4.307
 5230TIP3    H115651   4.243   0.592   4.330
 5230TIP3    H215652   4.108   0.528   4.357
 5231TIP3   OH215653   4.731   0.971   4.538
 5231TIP3    H115654   4.714   1.062   4.564
 5231TIP3    H215655   4.694   0.918   4.608
 5232TIP3   OH215656   4.914   1.534   5.074
 5232TIP3    H115657   4.947   1.608   5.023
 5232TIP3    H215658   4.991   1.501   5.121
 5233TIP3   OH215659   5.271   1.195   5.045
 5233TIP3    H115660   5.259   1.186   5.139
 5233TIP3    H215661   5.343   1.134   5.024
 5234TIP3   OH215662   5.260   1.079   3.915
 5234TIP3    H115663   5.311   1.056   3.993
 5234TIP3    H215664   5.174   1.041   3.931
 5235TIP3   OH215665   5.519   1.705   5.080
 5235TIP3    H115666   5.442   1.649   5.082
 5235TIP3    H215667   5.503   1.765   5.007
 5236TIP3   OH215668   5.577   1.545   3.722
 5236TIP3    H115669   5.604   1.612   3.659
 5236TIP3    H215670   5.504   1.584   3.769
 5237TIP3   OH215671   5.429   1.008   4.117
 5237TIP3    H115672   5.416   0.951   4.193
 5237TIP3    H215673   5.524   1.010   4.105
 5238TIP3   OH215674   4.339   1.432   5.229
 5238TIP3    H115675   4.394   1.374   5.281
 5238TIP3    H215676   4.355   1.519   5.266
 5239TIP3   OH215677   4.608   1.048   3.925
 5239TIP3    H115678   4.616   0.954   3.906
 5239TIP3    H215679   4.596   1.052   4.019
 5240TIP3   OH215680   4.569   1.078   4.198
 5240TIP3    H115681   4.636   1.023   4.239
 5240TIP3    H215682   4.604   1.166   4.201
 5241TIP3   OH215683   4.292   0.756   4.412
 5241TIP3    H115684   4.288   0.818   4.485
 5241TIP3    H215685   4.307   0.811   4.335
 5242TIP3   OH215686   4.781   1.271   4.149
 5242TIP3    H115687   4.758   1.315   4.231
 5242TIP3    H215688   4.795   1.342   4.087
 5243TIP3   OH215689   5.033   0.335   4.499
 5243TIP3    H115690   5.045   0.425   4.470
 5243TIP3    H215691   5.018   0.343   4.594
 5244TIP3   OH215692   5.333   0.712   5.361
 5244TIP3    H115693   5.344   0.743   5.451
 5244TIP3    H215694   5.328   0.616   5.370
 5245TIP3   OH215695   5.775   0.424   5.224
 5245TIP3    H115696   5.705   0.482   5.254
 5245TIP3    H215697   5.845   0.484   5.197
 5246TIP3   OH215698   5.572   0.756   4.741
 5246TIP3    H115699   5.526   0.673   4.748
 5246TIP3    H215700   5.661   0.738   4.771
 5247TIP3   OH215701   4.311   0.955   4.222
 5247TIP3    H115702   4.382   1.019   4.226
 5247TIP3    H215703   4.332   0.900   4.146
 5248TIP3   OH215704   4.202   0.244   4.313
 5248TIP3    H115705   4.205   0.340   4.307
 5248TIP3    H215706   4.159   0.216   4.232
 5249TIP3   OH215707   5.555   1.692   4.661
 5249TIP3    H115708   5.511   1.738   4.589
 5249TIP3    H215709   5.648   1.703   4.643
 5250TIP3   OH215710   4.118   1.179   4.605
 5250TIP3    H115711   4.103   1.224   4.688
 5250TIP3    H215712   4.085   1.240   4.539
 5251TIP3   OH215713   4.336   1.731   5.653
 5251TIP3    H115714   4.419   1.735   5.701
 5251TIP3    H215715   4.319   1.637   5.642
 5252TIP3   OH215716   4.804   1.650   5.701
 5252TIP3    H115717   4.898   1.634   5.705
 5252TIP3    H215718   4.773   1.594   5.630
 5253TIP3   OH215719   4.772   1.236   3.807
 5253TIP3    H115720   4.723   1.170   3.856
 5253TIP3    H215721   4.849   1.189   3.775
 5254TIP3   OH215722   5.443   1.585   5.443
 5254TIP3    H115723   5.448   1.518   5.512
 5254TIP3    H215724   5.534   1.600   5.418
 5255TIP3   OH215725   5.218   1.285   3.739
 5255TIP3    H115726   5.247   1.221   3.804
 5255TIP3    H215727   5.279   1.276   3.667
 5256TIP3   OH215728   4.443   1.132   5.849
 5256TIP3    H115729   4.462   1.039   5.858
 5256TIP3    H215730   4.356   1.135   5.807
 5257TIP3   OH215731   4.420   0.762   4.053
 5257TIP3    H115732   4.472   0.740   4.131
 5257TIP3    H215733   4.485   0.769   3.983
 5258TIP3   OH215734   5.067   1.227   5.625
 5258TIP3    H115735   5.018   1.244   5.544
 5258TIP3    H215736   5.102   1.139   5.613
 5259TIP3   OH215737   4.989   0.976   3.875
 5259TIP3    H115738   4.963   0.995   3.965
 5259TIP3    H215739   4.975   0.881   3.866
 5260TIP3   OH215740   5.540   1.260   5.238
 5260TIP3    H115741   5.615   1.284   5.183
 5260TIP3    H215742   5.471   1.322   5.213
 5261TIP3   OH215743   4.551   0.875   5.846
 5261TIP3    H115744   4.626   0.863   5.787
 5261TIP3    H215745   4.591   0.892   5.932
 5262TIP3   OH215746   4.591   0.704   4.265
 5262TIP3    H115747   4.583   0.667   4.353
 5262TIP3    H215748   4.642   0.639   4.216
 5263TIP3   OH215749   4.934   0.768   5.531
 5263TIP3    H115750   4.849   0.811   5.543
 5263TIP3    H215751   4.961   0.792   5.443
 5264TIP3   OH215752   4.723   0.531   4.101
 5264TIP3    H115753   4.704   0.529   4.007
 5264TIP3    H215754   4.819   0.539   4.106
 5265TIP3   OH215755   5.421   1.146   5.608
 5265TIP3    H115756   5.497   1.108   5.565
 5265TIP3    H215757   5.411   1.095   5.688
 5266TIP3   OH215758   5.543   0.804   3.738
 5266TIP3    H115759   5.516   0.758   3.659
 5266TIP3    H215760   5.511   0.894   3.725
 5267TIP3   OH215761   4.902   0.490   5.621
 5267TIP3    H115762   4.962   0.472   5.549
 5267TIP3    H215763   4.887   0.585   5.617
 5268TIP3   OH215764   5.042   0.858   5.301
 5268TIP3    H115765   5.132   0.867   5.271
 5268TIP3    H215766   4.993   0.923   5.251
 5269TIP3   OH215767   5.623   0.922   5.685
 5269TIP3    H115768   5.657   0.865   5.753
 5269TIP3    H215769   5.687   0.915   5.613
 5270TIP3   OH215770   5.650   1.117   5.437
 5270TIP3    H115771   5.598   1.173   5.379
 5270TIP3    H215772   5.738   1.119   5.401
 5271TIP3   OH215773   4.858   0.563   5.895
 5271TIP3    H115774   4.808   0.605   5.965
 5271TIP3    H215775   4.940   0.612   5.892
 5272TIP3   OH215776   5.368   0.589   5.774
 5272TIP3    H115777   5.373   0.504   5.818
 5272TIP3    H215778   5.308   0.574   5.700
 5273TIP3   OH215779   3.940   1.512   4.678
 5273TIP3    H115780   3.880   1.460   4.625
 5273TIP3    H215781   3.987   1.448   4.731
 5274TIP3   OH215782   4.078   1.329   4.840
 5274TIP3    H115783   4.074   1.273   4.917
 5274TIP3    H215784   4.137   1.400   4.865
 5275TIP3   OH215785   5.824   1.746   4.644
 5275TIP3    H115786   5.845   1.783   4.730
 5275TIP3    H215787   5.880   1.795   4.583
 5276TIP3   OH215788   5.836   1.782   4.928
 5276TIP3    H115789   5.791   1.698   4.919
 5276TIP3    H215790   5.909   1.764   4.987
 5277TIP3   OH215791   5.883   1.493   5.523
 5277TIP3    H115792   5.793   1.525   5.522
 5277TIP3    H215793   5.936   1.573   5.524
 5278TIP3   OH215794   5.708   0.995   4.087
 5278TIP3    H115795   5.768   1.062   4.055
 5278TIP3    H215796   5.732   0.981   4.178
 5279TIP3   OH215797   5.790   0.951   4.343
 5279TIP3    H115798   5.777   0.858   4.363
 5279TIP3    H215799   5.879   0.969   4.374
 5280TIP3   OH215800   5.888   1.245   4.730
 5280TIP3    H115801   5.935   1.175   4.684
 5280TIP3    H215802   5.890   1.319   4.669
 5281TIP3   OH215803   5.697   1.539   4.939
 5281TIP3    H115804   5.626   1.585   4.983
 5281TIP3    H215805   5.656   1.497   4.864
 5282TIP3   OH215806   5.751   0.785   3.909
 5282TIP3    H115807   5.675   0.795   3.851
 5282TIP3    H215808   5.743   0.856   3.972
 5283TIP3   OH215809   5.510   0.436   3.955
 5283TIP3    H115810   5.494   0.515   3.902
 5283TIP3    H215811   5.604   0.423   3.950
 5284TIP3   OH215812   5.588   0.730   4.468
 5284TIP3    H115813   5.679   0.703   4.454
 5284TIP3    H215814   5.585   0.755   4.561
 5285TIP3   OH215815   4.256   0.760   5.207
 5285TIP3    H115816   4.252   0.741   5.114
 5285TIP3    H215817   4.348   0.780   5.224
 5286TIP3   OH215818   5.887   1.144   5.305
 5286TIP3    H115819   5.965   1.089   5.294
 5286TIP3    H215820   5.875   1.185   5.219
 5287TIP3   OH215821   6.111   0.993   5.323
 5287TIP3    H115822   6.076   0.908   5.351
 5287TIP3    H215823   6.206   0.982   5.326
 5288TIP3   OH215824   5.580   0.469   4.286
 5288TIP3    H115825   5.641   0.405   4.322
 5288TIP3    H215826   5.634   0.529   4.235
 5289TIP3   OH215827   5.817   0.673   4.838
 5289TIP3    H115828   5.898   0.678   4.788
 5289TIP3    H215829   5.827   0.738   4.907
 5290TIP3   OH215830   5.797   0.821   5.066
 5290TIP3    H115831   5.735   0.855   5.130
 5290TIP3    H215832   5.847   0.898   5.038
 5291TIP3   OH215833   4.508   0.514   5.960
 5291TIP3    H115834   4.548   0.487   5.877
 5291TIP3    H215835   4.479   0.433   6.000
 5292TIP3   OH215836   4.288   0.489   5.267
 5292TIP3    H115837   4.315   0.460   5.180
 5292TIP3    H215838   4.271   0.583   5.257
 5293TIP3   OH215839   5.402   1.639   4.291
 5293TIP3    H115840   5.456   1.637   4.212
 5293TIP3    H215841   5.431   1.717   4.338
 5294TIP3   OH215842   4.478   1.449   5.671
 5294TIP3    H115843   4.384   1.431   5.661
 5294TIP3    H215844   4.493   1.444   5.765
 5295TIP3   OH215845   4.686   1.499   5.224
 5295TIP3    H115846   4.634   1.572   5.189
 5295TIP3    H215847   4.769   1.506   5.178
 5296TIP3   OH215848   5.091   1.724   5.361
 5296TIP3    H115849   5.132   1.722   5.447
 5296TIP3    H215850   5.149   1.777   5.307
 5297TIP3   OH215851   5.273   1.881   5.226
 5297TIP3    H115852   5.327   1.835   5.161
 5297TIP3    H215853   5.335   1.935   5.275
 5298TIP3   OH215854   4.345   1.732   5.268
 5298TIP3    H115855   4.255   1.752   5.243
 5298TIP3    H215856   4.368   1.800   5.331
 5299TIP3   OH215857   4.578   1.728   5.117
 5299TIP3    H115858   4.492   1.733   5.160
 5299TIP3    H215859   4.560   1.751   5.025
 5300TIP3   OH215860   4.997   1.744   4.914
 5300TIP3    H115861   4.926   1.752   4.850
 5300TIP3    H215862   5.009   1.832   4.948
 5301TIP3   OH215863   5.261   1.684   4.961
 5301TIP3    H115864   5.169   1.697   4.942
 5301TIP3    H215865   5.307   1.741   4.900
 5302TIP3   OH215866   5.471   1.863   4.858
 5302TIP3    H115867   5.459   1.948   4.816
 5302TIP3    H215868   5.498   1.805   4.787
 5303TIP3   OH215869   4.254   1.516   4.977
 5303TIP3    H115870   4.281   1.493   5.067
 5303TIP3    H215871   4.326   1.485   4.922
 5304TIP3   OH215872   4.460   1.399   4.843
 5304TIP3    H115873   4.469   1.316   4.890
 5304TIP3    H215874   4.547   1.439   4.847
 5305TIP3   OH215875   4.720   1.472   4.883
 5305TIP3    H115876   4.744   1.380   4.871
 5305TIP3    H215877   4.783   1.504   4.947
 5306TIP3   OH215878   4.010   1.316   4.397
 5306TIP3    H115879   3.938   1.289   4.339
 5306TIP3    H215880   4.036   1.402   4.365
 5307TIP3   OH215881   4.841   1.457   3.957
 5307TIP3    H115882   4.921   1.489   3.915
 5307TIP3    H215883   4.806   1.392   3.896
 5308TIP3   OH215884   5.542   1.613   4.051
 5308TIP3    H115885   5.532   1.518   4.046
 5308TIP3    H215886   5.491   1.647   3.978
 5309TIP3   OH215887   4.118   1.300   4.023
 5309TIP3    H115888   4.132   1.350   4.104
 5309TIP3    H215889   4.204   1.264   4.002
 5310TIP3   OH215890   5.737   1.742   5.248
 5310TIP3    H115891   5.665   1.718   5.190
 5310TIP3    H215892   5.731   1.837   5.256
 5311TIP3   OH215893   7.002   1.113   4.004
 5311TIP3    H115894   6.993   1.208   4.008
 5311TIP3    H215895   6.927   1.083   3.953
 5312TIP3   OH215896   6.989   1.154   4.384
 5312TIP3    H115897   7.029   1.165   4.471
 5312TIP3    H215898   6.956   1.065   4.384
 5313TIP3   OH215899   6.311   1.026   4.750
 5313TIP3    H115900   6.358   0.980   4.819
 5313TIP3    H215901   6.379   1.057   4.690
 5314TIP3   OH215902   7.273   1.428   4.085
 5314TIP3    H115903   7.269   1.365   4.156
 5314TIP3    H215904   7.303   1.509   4.125
 5315TIP3   OH215905   6.306   1.443   4.469
 5315TIP3    H115906   6.285   1.350   4.463
 5315TIP3    H215907   6.400   1.447   4.453
 5316TIP3   OH215908   5.843   0.671   4.389
 5316TIP3    H115909   5.932   0.699   4.367
 5316TIP3    H215910   5.806   0.641   4.307
 5317TIP3   OH215911   6.059   0.918   4.418
 5317TIP3    H115912   6.129   0.864   4.454
 5317TIP3    H215913   6.060   0.898   4.324
 5318TIP3   OH215914   6.939   1.862   4.104
 5318TIP3    H115915   6.968   1.794   4.043
 5318TIP3    H215916   6.943   1.821   4.190
 5319TIP3   OH215917   6.819   1.372   4.420
 5319TIP3    H115918   6.857   1.293   4.382
 5319TIP3    H215919   6.894   1.423   4.450
 5320TIP3   OH215920   7.179   0.917   4.463
 5320TIP3    H115921   7.214   0.849   4.520
 5320TIP3    H215922   7.183   0.880   4.375
 5321TIP3   OH215923   6.600   0.604   4.404
 5321TIP3    H115924   6.557   0.671   4.352
 5321TIP3    H215925   6.566   0.521   4.370
 5322TIP3   OH215926   7.425   0.607   4.081
 5322TIP3    H115927   7.430   0.512   4.072
 5322TIP3    H215928   7.334   0.628   4.062
 5323TIP3   OH215929   6.232   0.735   4.526
 5323TIP3    H115930   6.317   0.713   4.562
 5323TIP3    H215931   6.217   0.670   4.457
 5324TIP3   OH215932   6.627   0.968   4.357
 5324TIP3    H115933   6.722   0.956   4.362
 5324TIP3    H215934   6.596   0.895   4.303
 5325TIP3   OH215935   6.920   1.354   3.856
 5325TIP3    H115936   6.877   1.325   3.776
 5325TIP3    H215937   6.866   1.427   3.888
 5326TIP3   OH215938   6.685   1.290   4.648
 5326TIP3    H115939   6.625   1.357   4.681
 5326TIP3    H215940   6.727   1.330   4.572
 5327TIP3   OH215941   6.464   0.646   4.638
 5327TIP3    H115942   6.526   0.713   4.665
 5327TIP3    H215943   6.507   0.601   4.565
 5328TIP3   OH215944   6.511   1.480   4.741
 5328TIP3    H115945   6.494   1.568   4.706
 5328TIP3    H215946   6.433   1.459   4.792
 5329TIP3   OH215947   5.884   1.184   3.982
 5329TIP3    H115948   5.850   1.209   3.895
 5329TIP3    H215949   5.910   1.267   4.022
 5330TIP3   OH215950   7.312   1.669   4.228
 5330TIP3    H115951   7.224   1.662   4.266
 5330TIP3    H215952   7.315   1.756   4.189
 5331TIP3   OH215953   7.029   1.706   3.889
 5331TIP3    H115954   7.086   1.630   3.877
 5331TIP3    H215955   7.083   1.781   3.865
 5332TIP3   OH215956   7.169   1.475   3.834
 5332TIP3    H115957   7.089   1.422   3.840
 5332TIP3    H215958   7.216   1.456   3.915
 5333TIP3   OH215959   7.567   1.547   4.575
 5333TIP3    H115960   7.546   1.474   4.516
 5333TIP3    H215961   7.539   1.625   4.527
 5334TIP3   OH215962   6.826   1.033   3.802
 5334TIP3    H115963   6.735   1.063   3.805
 5334TIP3    H215964   6.860   1.071   3.721
 5335TIP3   OH215965   6.818   0.819   3.549
 5335TIP3    H115966   6.875   0.869   3.607
 5335TIP3    H215967   6.879   0.768   3.495
 5336TIP3   OH215968   7.207   1.072   3.826
 5336TIP3    H115969   7.137   1.087   3.889
 5336TIP3    H215970   7.287   1.073   3.878
 5337TIP3   OH215971   7.407   1.112   4.729
 5337TIP3    H115972   7.431   1.187   4.784
 5337TIP3    H215973   7.333   1.143   4.678
 5338TIP3   OH215974   6.405   1.062   4.201
 5338TIP3    H115975   6.369   0.997   4.141
 5338TIP3    H215976   6.479   1.018   4.244
 5339TIP3   OH215977   6.563   1.474   4.355
 5339TIP3    H115978   6.541   1.453   4.264
 5339TIP3    H215979   6.651   1.438   4.367
 5340TIP3   OH215980   6.519   1.086   4.575
 5340TIP3    H115981   6.556   1.053   4.493
 5340TIP3    H215982   6.576   1.159   4.599
 5341TIP3   OH215983   7.070   1.672   4.355
 5341TIP3    H115984   7.067   1.751   4.409
 5341TIP3    H215985   7.067   1.600   4.418
 5342TIP3   OH215986   6.707   1.582   4.906
 5342TIP3    H115987   6.647   1.641   4.951
 5342TIP3    H215988   6.651   1.530   4.848
 5343TIP3   OH215989   7.055   0.957   3.618
 5343TIP3    H115990   7.109   1.017   3.670
 5343TIP3    H215991   7.078   0.978   3.527
 5344TIP3   OH215992   6.460   1.152   5.032
 5344TIP3    H115993   6.470   1.241   5.066
 5344TIP3    H215994   6.366   1.136   5.033
 5345TIP3   OH215995   6.780   1.590   3.900
 5345TIP3    H115996   6.861   1.640   3.906
 5345TIP3    H215997   6.719   1.650   3.856
 5346TIP3   OH215998   6.498   1.743   4.988
 5346TIP3    H115999   6.475   1.750   4.895
 5346TIP3    H216000   6.415   1.725   5.032
 5347TIP3   OH216001   6.283   0.893   4.009
 5347TIP3    H116002   6.223   0.952   3.963
 5347TIP3    H216003   6.225   0.832   4.055
 5348TIP3   OH216004   6.077   1.313   4.927
 5348TIP3    H116005   6.011   1.289   4.862
 5348TIP3    H216006   6.110   1.230   4.960
 5349TIP3   OH216007   5.942   1.477   4.581
 5349TIP3    H116008   6.038   1.486   4.579
 5349TIP3    H216009   5.912   1.558   4.623
 5350TIP3   OH216010   6.898   1.718   4.763
 5350TIP3    H116011   6.893   1.810   4.791
 5350TIP3    H216012   6.830   1.674   4.814
 5351TIP3   OH216013   6.670   1.826   3.720
 5351TIP3    H116014   6.617   1.808   3.642
 5351TIP3    H216015   6.637   1.910   3.752
 5352TIP3   OH216016   6.111   1.676   4.096
 5352TIP3    H116017   6.154   1.670   4.181
 5352TIP3    H216018   6.061   1.595   4.089
 5353TIP3   OH216019   6.870   1.751   3.355
 5353TIP3    H116020   6.919   1.678   3.317
 5353TIP3    H216021   6.903   1.757   3.445
 5354TIP3   OH216022   6.921   1.776   3.627
 5354TIP3    H116023   6.833   1.787   3.664
 5354TIP3    H216024   6.973   1.742   3.699
 5355TIP3   OH216025   6.293   1.481   4.909
 5355TIP3    H116026   6.340   1.466   4.991
 5355TIP3    H216027   6.218   1.422   4.913
 5356TIP3   OH216028   7.416   0.879   4.872
 5356TIP3    H116029   7.492   0.826   4.851
 5356TIP3    H216030   7.425   0.958   4.819
 5357TIP3   OH216031   7.126   0.994   3.357
 5357TIP3    H116032   7.086   0.959   3.277
 5357TIP3    H216033   7.180   1.067   3.327
 5358TIP3   OH216034   6.611   0.864   4.707
 5358TIP3    H116035   6.556   0.878   4.783
 5358TIP3    H216036   6.592   0.937   4.649
 5359TIP3   OH216037   6.498   0.773   4.218
 5359TIP3    H116038   6.414   0.729   4.230
 5359TIP3    H216039   6.527   0.747   4.131
 5360TIP3   OH216040   6.969   0.817   3.890
 5360TIP3    H116041   6.902   0.884   3.875
 5360TIP3    H216042   7.033   0.832   3.820
 5361TIP3   OH216043   7.184   1.090   5.064
 5361TIP3    H116044   7.170   1.025   5.133
 5361TIP3    H216045   7.273   1.122   5.078
 5362TIP3   OH216046   7.051   0.887   4.174
 5362TIP3    H116047   7.049   0.968   4.123
 5362TIP3    H216048   7.094   0.824   4.116
 5363TIP3   OH216049   6.458   0.882   4.936
 5363TIP3    H116050   6.482   0.955   4.993
 5363TIP3    H216051   6.509   0.808   4.969
 5364TIP3   OH216052   6.028   0.456   4.061
 5364TIP3    H116053   6.044   0.472   3.968
 5364TIP3    H216054   6.030   0.542   4.102
 5365TIP3   OH216055   7.138   1.132   4.617
 5365TIP3    H116056   7.161   1.066   4.551
 5365TIP3    H216057   7.136   1.084   4.700
 5366TIP3   OH216058   6.834   0.613   4.276
 5366TIP3    H116059   6.752   0.603   4.324
 5366TIP3    H216060   6.880   0.530   4.289
 5367TIP3   OH216061   6.283   0.617   4.267
 5367TIP3    H116062   6.208   0.663   4.231
 5367TIP3    H216063   6.256   0.525   4.270
 5368TIP3   OH216064   6.558   0.634   3.987
 5368TIP3    H116065   6.645   0.615   3.952
 5368TIP3    H216066   6.505   0.653   3.909
 5369TIP3   OH216067   6.403   0.647   3.767
 5369TIP3    H116068   6.320   0.619   3.728
 5369TIP3    H216069   6.454   0.680   3.692
 5370TIP3   OH216070   7.495   2.262   4.754
 5370TIP3    H116071   7.466   2.276   4.664
 5370TIP3    H216072   7.571   2.318   4.765
 5371TIP3   OH216073   6.445   1.404   5.148
 5371TIP3    H116074   6.526   1.422   5.195
 5371TIP3    H216075   6.377   1.403   5.215
 5372TIP3   OH216076   6.889   0.882   4.394
 5372TIP3    H116077   6.953   0.881   4.323
 5372TIP3    H216078   6.859   0.791   4.400
 5373TIP3   OH216079   6.813   0.728   4.821
 5373TIP3    H116080   6.751   0.784   4.774
 5373TIP3    H216081   6.892   0.728   4.767
 5374TIP3   OH216082   6.574   1.153   3.778
 5374TIP3    H116083   6.507   1.084   3.769
 5374TIP3    H216084   6.566   1.180   3.869
 5375TIP3   OH216085   7.496   1.354   4.398
 5375TIP3    H116086   7.553   1.352   4.321
 5375TIP3    H216087   7.412   1.321   4.366
 5376TIP3   OH216088   6.976   0.508   3.693
 5376TIP3    H116089   6.940   0.509   3.604
 5376TIP3    H216090   7.032   0.585   3.698
 5377TIP3   OH216091   7.020   1.452   4.796
 5377TIP3    H116092   7.068   1.444   4.878
 5377TIP3    H216093   6.980   1.539   4.800
 5378TIP3   OH216094   7.162   0.717   3.688
 5378TIP3    H116095   7.243   0.743   3.733
 5378TIP3    H216096   7.131   0.797   3.646
 5379TIP3   OH216097   6.295   1.173   4.432
 5379TIP3    H116098   6.312   1.137   4.346
 5379TIP3    H216099   6.362   1.133   4.489
 5380TIP3   OH216100   6.762   1.280   3.631
 5380TIP3    H116101   6.729   1.369   3.623
 5380TIP3    H216102   6.693   1.233   3.678
 5381TIP3   OH216103   6.190   1.113   5.078
 5381TIP3    H116104   6.183   1.104   5.173
 5381TIP3    H216105   6.155   1.031   5.044
 5382TIP3   OH216106   6.934   1.215   5.096
 5382TIP3    H116107   6.866   1.155   5.066
 5382TIP3    H216108   7.016   1.176   5.065
 5383TIP3   OH216109   7.172   1.731   4.687
 5383TIP3    H116110   7.077   1.719   4.689
 5383TIP3    H216111   7.192   1.772   4.771
 5384TIP3   OH216112   7.297   1.564   3.519
 5384TIP3    H116113   7.231   1.514   3.567
 5384TIP3    H216114   7.279   1.545   3.427
 5385TIP3   OH216115   7.257   1.240   4.297
 5385TIP3    H116116   7.165   1.216   4.311
 5385TIP3    H216117   7.299   1.159   4.268
 5386TIP3   OH216118   6.424   1.471   4.105
 5386TIP3    H116119   6.419   1.548   4.048
 5386TIP3    H216120   6.332   1.450   4.124
 5387TIP3   OH216121   5.992   0.792   3.775
 5387TIP3    H116122   6.043   0.868   3.805
 5387TIP3    H216123   5.915   0.791   3.832
 5388TIP3   OH216124   6.538   1.233   4.030
 5388TIP3    H116125   6.511   1.321   4.054
 5388TIP3    H216126   6.495   1.176   4.094
 5389TIP3   OH216127   6.710   1.792   4.559
 5389TIP3    H116128   6.745   1.865   4.508
 5389TIP3    H216129   6.785   1.758   4.607
 5390TIP3   OH216130   6.344   1.695   3.951
 5390TIP3    H116131   6.257   1.699   3.991
 5390TIP3    H216132   6.377   1.784   3.956
 5391TIP3   OH216133   7.068   1.448   4.525
 5391TIP3    H116134   7.055   1.441   4.619
 5391TIP3    H216135   7.144   1.392   4.507
 5392TIP3   OH216136   7.056   1.338   3.404
 5392TIP3    H116137   7.100   1.304   3.482
 5392TIP3    H216138   6.969   1.298   3.406
 5393TIP3   OH216139   7.322   1.951   4.573
 5393TIP3    H116140   7.254   1.885   4.588
 5393TIP3    H216141   7.287   2.005   4.501
 5394TIP3   OH216142   7.320   1.739   3.250
 5394TIP3    H116143   7.401   1.789   3.249
 5394TIP3    H216144   7.252   1.805   3.268
 5395TIP3   OH216145   7.213   1.252   3.614
 5395TIP3    H116146   7.208   1.196   3.691
 5395TIP3    H216147   7.286   1.311   3.632
 5396TIP3   OH216148   6.138   1.683   4.720
 5396TIP3    H116149   6.190   1.618   4.766
 5396TIP3    H216150   6.160   1.766   4.762
 5397TIP3   OH216151   6.410   1.305   3.408
 5397TIP3    H116152   6.419   1.213   3.383
 5397TIP3    H216153   6.391   1.303   3.502
 5398TIP3   OH216154   6.354   1.318   3.676
 5398TIP3    H116155   6.427   1.282   3.725
 5398TIP3    H216156   6.359   1.413   3.692
 5399TIP3   OH216157   6.090   1.031   3.875
 5399TIP3    H116158   6.024   1.066   3.935
 5399TIP3    H216159   6.101   1.100   3.809
 5400TIP3   OH216160   6.630   1.514   3.620
 5400TIP3    H116161   6.545   1.532   3.662
 5400TIP3    H216162   6.645   1.589   3.563
 5401TIP3   OH216163   6.897   0.583   4.009
 5401TIP3    H116164   6.895   0.672   3.973
 5401TIP3    H216165   6.861   0.592   4.097
 5402TIP3   OH216166   7.145   0.964   4.825
 5402TIP3    H116167   7.157   1.011   4.908
 5402TIP3    H216168   7.215   0.899   4.825
 5403TIP3   OH216169   6.377   1.590   3.700
 5403TIP3    H116170   6.350   1.659   3.640
 5403TIP3    H216171   6.363   1.627   3.787
 5404TIP3   OH216172   7.377   1.003   4.213
 5404TIP3    H116173   7.330   0.920   4.223
 5404TIP3    H216174   7.464   0.977   4.182
 5405TIP3   OH216175   6.099   1.209   3.662
 5405TIP3    H116176   6.173   1.269   3.673
 5405TIP3    H216177   6.133   1.140   3.605
 5406TIP3   OH216178   6.020   0.524   3.801
 5406TIP3    H116179   6.031   0.619   3.805
 5406TIP3    H216180   5.930   0.511   3.772
 5407TIP3   OH216181   7.325   1.938   4.166
 5407TIP3    H116182   7.289   1.992   4.096
 5407TIP3    H216183   7.418   1.962   4.170
 5408TIP3   OH216184   5.941   1.452   4.068
 5408TIP3    H116185   5.891   1.483   4.144
 5408TIP3    H216186   5.899   1.493   3.993
 5409TIP3   OH216187   6.134   1.989   5.142
 5409TIP3    H116188   6.217   1.993   5.189
 5409TIP3    H216189   6.120   1.896   5.125
 5410TIP3   OH216190   6.599   1.907   5.184
 5410TIP3    H116191   6.692   1.887   5.192
 5410TIP3    H216192   6.568   1.853   5.112
 5411TIP3   OH216193   6.565   1.504   3.301
 5411TIP3    H116194   6.517   1.435   3.346
 5411TIP3    H216195   6.639   1.460   3.260
 5412TIP3   OH216196   7.217   1.845   4.932
 5412TIP3    H116197   7.227   1.775   4.997
 5412TIP3    H216198   7.290   1.904   4.950
 5413TIP3   OH216199   6.996   1.543   3.234
 5413TIP3    H116200   7.033   1.476   3.291
 5413TIP3    H216201   7.052   1.542   3.156
 5414TIP3   OH216202   6.240   1.383   5.337
 5414TIP3    H116203   6.258   1.290   5.343
 5414TIP3    H216204   6.157   1.388   5.289
 5415TIP3   OH216205   6.229   1.005   3.534
 5415TIP3    H116206   6.276   0.984   3.614
 5415TIP3    H216207   6.297   1.016   3.468
 5416TIP3   OH216208   6.858   1.481   5.112
 5416TIP3    H116209   6.814   1.501   5.029
 5416TIP3    H216210   6.895   1.394   5.099
 5417TIP3   OH216211   6.796   1.228   3.363
 5417TIP3    H116212   6.770   1.238   3.454
 5417TIP3    H216213   6.779   1.135   3.343
 5418TIP3   OH216214   7.344   1.508   4.736
 5418TIP3    H116215   7.417   1.527   4.678
 5418TIP3    H216216   7.277   1.573   4.713
 5419TIP3   OH216217   6.370   1.125   5.338
 5419TIP3    H116218   6.445   1.080   5.298
 5419TIP3    H216219   6.406   1.165   5.417
 5420TIP3   OH216220   6.394   0.949   3.752
 5420TIP3    H116221   6.370   0.910   3.836
 5420TIP3    H216222   6.447   0.882   3.709
 5421TIP3   OH216223   6.720   1.064   4.998
 5421TIP3    H116224   6.636   1.110   5.001
 5421TIP3    H216225   6.754   1.083   4.911
 5422TIP3   OH216226   6.544   0.787   3.583
 5422TIP3    H116227   6.520   0.787   3.490
 5422TIP3    H216228   6.640   0.788   3.582
 5423TIP3   OH216229   7.221   1.397   5.099
 5423TIP3    H116230   7.289   1.351   5.050
 5423TIP3    H216231   7.209   1.346   5.179
 5424TIP3   OH216232   6.698   0.812   5.084
 5424TIP3    H116233   6.765   0.757   5.043
 5424TIP3    H216234   6.714   0.900   5.050
 5425TIP3   OH216235   6.857   1.117   4.773
 5425TIP3    H116236   6.944   1.133   4.738
 5425TIP3    H216237   6.801   1.180   4.728
 5426TIP3   OH216238   7.438   1.151   5.152
 5426TIP3    H116239   7.467   1.060   5.165
 5426TIP3    H216240   7.514   1.196   5.116
 5427TIP3   OH216241   7.483   1.339   4.895
 5427TIP3    H116242   7.423   1.398   4.849
 5427TIP3    H216243   7.566   1.348   4.849
 5428TIP3   OH216244   6.563   0.926   5.290
 5428TIP3    H116245   6.608   0.895   5.368
 5428TIP3    H216246   6.618   0.898   5.217
 5429TIP3   OH216247   7.161   0.866   5.223
 5429TIP3    H116248   7.151   0.787   5.275
 5429TIP3    H216249   7.091   0.862   5.159
 5430TIP3   OH216250   6.357   1.796   3.515
 5430TIP3    H116251   6.447   1.778   3.489
 5430TIP3    H216252   6.319   1.843   3.440
 5431TIP3   OH216253   5.829   1.188   3.693
 5431TIP3    H116254   5.923   1.205   3.687
 5431TIP3    H216255   5.818   1.100   3.658
 5432TIP3   OH216256   5.742   1.768   4.151
 5432TIP3    H116257   5.678   1.715   4.105
 5432TIP3    H216258   5.784   1.707   4.212
 5433TIP3   OH216259   5.878   1.600   4.324
 5433TIP3    H116260   5.864   1.531   4.389
 5433TIP3    H216261   5.930   1.666   4.370
 5434TIP3   OH216262   7.580   2.040   4.176
 5434TIP3    H116263   7.639   2.114   4.187
 5434TIP3    H216264   7.584   2.019   4.083
 5435TIP3   OH216265   7.610   2.063   4.452
 5435TIP3    H116266   7.594   2.038   4.361
 5435TIP3    H216267   7.658   1.989   4.489
 5436TIP3   OH216268   7.683   1.670   5.017
 5436TIP3    H116269   7.618   1.716   5.071
 5436TIP3    H216270   7.670   1.705   4.929
 5437TIP3   OH216271   7.482   1.760   4.434
 5437TIP3    H116272   7.427   1.831   4.469
 5437TIP3    H216273   7.433   1.727   4.358
 5438TIP3   OH216274   6.050   1.018   4.680
 5438TIP3    H116275   6.047   1.000   4.586
 5438TIP3    H216276   6.143   1.032   4.699
 5439TIP3   OH216277   6.328   0.802   5.273
 5439TIP3    H116278   6.412   0.847   5.274
 5439TIP3    H216279   6.350   0.709   5.272
 5440TIP3   OH216280   6.062   0.743   4.737
 5440TIP3    H116281   6.105   0.728   4.652
 5440TIP3    H216282   6.052   0.838   4.742
 5441TIP3   OH216283   7.158   1.919   3.789
 5441TIP3    H116284   7.198   1.890   3.707
 5441TIP3    H216285   7.225   1.972   3.832
 5442TIP3   OH216286   6.271   1.713   5.149
 5442TIP3    H116287   6.178   1.692   5.143
 5442TIP3    H216288   6.294   1.699   5.241
 5443TIP3   OH216289   6.481   1.755   4.707
 5443TIP3    H116290   6.430   1.829   4.673
 5443TIP3    H216291   6.566   1.763   4.663
 5444TIP3   OH216292   6.884   1.985   4.843
 5444TIP3    H116293   6.921   1.980   4.931
 5444TIP3    H216294   6.947   2.037   4.793
 5445TIP3   OH216295   7.076   2.138   4.716
 5445TIP3    H116296   7.142   2.085   4.671
 5445TIP3    H216297   7.126   2.195   4.774
 5446TIP3   OH216298   6.144   2.000   4.753
 5446TIP3    H116299   6.053   2.017   4.729
 5446TIP3    H216300   6.164   2.067   4.818
 5447TIP3   OH216301   6.373   1.985   4.601
 5447TIP3    H116302   6.290   1.992   4.648
 5447TIP3    H216303   6.352   2.010   4.511
 5448TIP3   OH216304   6.789   2.001   4.394
 5448TIP3    H116305   6.719   2.013   4.329
 5448TIP3    H216306   6.801   2.087   4.433
 5449TIP3   OH216307   7.050   1.933   4.451
 5449TIP3    H116308   6.958   1.951   4.430
 5449TIP3    H216309   7.099   2.004   4.410
 5450TIP3   OH216310   7.236   2.118   4.354
 5450TIP3    H116311   7.226   2.202   4.309
 5450TIP3    H216312   7.263   2.057   4.285
 5451TIP3   OH216313   6.052   1.777   4.472
 5451TIP3    H116314   6.077   1.750   4.560
 5451TIP3    H216315   6.124   1.746   4.416
 5452TIP3   OH216316   6.256   1.670   4.330
 5452TIP3    H116317   6.266   1.588   4.379
 5452TIP3    H216318   6.343   1.710   4.331
 5453TIP3   OH216319   6.526   1.750   4.351
 5453TIP3    H116320   6.541   1.657   4.337
 5453TIP3    H216321   6.579   1.772   4.428
 5454TIP3   OH216322   5.826   1.570   3.848
 5454TIP3    H116323   5.740   1.537   3.823
 5454TIP3    H216324   5.826   1.661   3.819
 5455TIP3   OH216325   6.613   1.731   3.445
 5455TIP3    H116326   6.698   1.759   3.411
 5455TIP3    H216327   6.586   1.659   3.388
 5456TIP3   OH216328   7.279   1.834   3.558
 5456TIP3    H116329   7.298   1.740   3.548
 5456TIP3    H216330   7.246   1.860   3.472
 5457TIP3   OH216331   5.922   1.568   3.506
 5457TIP3    H116332   5.921   1.576   3.602
 5457TIP3    H216333   6.005   1.524   3.487
 5458TIP3   OH216334   7.553   1.989   4.749
 5458TIP3    H116335   7.485   1.959   4.689
 5458TIP3    H216336   7.540   2.084   4.754
 5459TIP3   OH216337   7.439   2.027   3.656
 5459TIP3    H116338   7.382   1.956   3.626
 5459TIP3    H216339   7.526   2.004   3.622
 5460TIP3   OH216340   1.270   2.178   5.172
 5460TIP3    H116341   1.243   2.266   5.146
 5460TIP3    H216342   1.200   2.121   5.141
 5461TIP3   OH216343   1.273   2.173   5.588
 5461TIP3    H116344   1.323   2.156   5.668
 5461TIP3    H216345   1.231   2.090   5.568
 5462TIP3   OH216346   0.573   2.061   5.919
 5462TIP3    H116347   0.592   1.991   5.982
 5462TIP3    H216348   0.656   2.073   5.872
 5463TIP3   OH216349   1.536   2.480   5.267
 5463TIP3    H116350   1.525   2.416   5.337
 5463TIP3    H216351   1.559   2.561   5.313
 5464TIP3   OH216352   0.560   2.461   5.634
 5464TIP3    H116353   0.543   2.367   5.634
 5464TIP3    H216354   0.655   2.468   5.618
 5465TIP3   OH216355   0.293   1.730   5.433
 5465TIP3    H116356   0.286   1.812   5.481
 5465TIP3    H216357   0.211   1.724   5.382
 5466TIP3   OH216358   0.339   1.961   5.602
 5466TIP3    H116359   0.389   1.895   5.650
 5466TIP3    H216360   0.400   2.034   5.590
 5467TIP3   OH216361   1.190   2.920   5.268
 5467TIP3    H116362   1.221   2.854   5.207
 5467TIP3    H216363   1.172   2.871   5.349
 5468TIP3   OH216364   1.074   2.394   5.598
 5468TIP3    H116365   1.116   2.315   5.565
 5468TIP3    H216366   1.146   2.449   5.629
 5469TIP3   OH216367   2.106   1.718   5.608
 5469TIP3    H116368   2.124   1.802   5.648
 5469TIP3    H216369   2.131   1.729   5.516
 5470TIP3   OH216370   1.488   1.886   5.633
 5470TIP3    H116371   1.525   1.802   5.659
 5470TIP3    H216372   1.450   1.871   5.546
 5471TIP3   OH216373   0.847   1.547   5.596
 5471TIP3    H116374   0.837   1.626   5.544
 5471TIP3    H216375   0.800   1.480   5.546
 5472TIP3   OH216376   1.535   1.645   5.226
 5472TIP3    H116377   1.601   1.636   5.295
 5472TIP3    H216378   1.584   1.679   5.151
 5473TIP3   OH216379   0.474   1.751   5.722
 5473TIP3    H116380   0.548   1.720   5.774
 5473TIP3    H216381   0.484   1.706   5.638
 5474TIP3   OH216382   0.901   1.967   5.532
 5474TIP3    H116383   0.995   1.953   5.540
 5474TIP3    H216384   0.868   1.886   5.493
 5475TIP3   OH216385   2.165   1.936   5.779
 5475TIP3    H116386   2.077   1.972   5.769
 5475TIP3    H216387   2.199   1.974   5.860
 5476TIP3   OH216388   0.812   1.536   6.043
 5476TIP3    H116389   0.758   1.574   5.973
 5476TIP3    H216390   0.774   1.571   6.124
 5477TIP3   OH216391   1.172   2.398   5.033
 5477TIP3    H116392   1.132   2.371   4.950
 5477TIP3    H216393   1.121   2.474   5.060
 5478TIP3   OH216394   0.914   2.325   5.816
 5478TIP3    H116395   0.856   2.394   5.849
 5478TIP3    H216396   0.960   2.366   5.742
 5479TIP3   OH216397   1.702   1.661   5.442
 5479TIP3    H116398   1.660   1.641   5.526
 5479TIP3    H216399   1.758   1.736   5.461
 5480TIP3   OH216400   0.716   1.654   5.817
 5480TIP3    H116401   0.771   1.729   5.840
 5480TIP3    H216402   0.757   1.616   5.740
 5481TIP3   OH216403   0.743   2.519   5.923
 5481TIP3    H116404   0.732   2.608   5.889
 5481TIP3    H216405   0.661   2.500   5.968
 5482TIP3   OH216406   0.173   2.193   5.198
 5482TIP3    H116407   0.103   2.189   5.133
 5482TIP3    H216408   0.192   2.287   5.206
 5483TIP3   OH216409   1.581   2.733   5.402
 5483TIP3    H116410   1.494   2.723   5.442
 5483TIP3    H216411   1.576   2.815   5.353
 5484TIP3   OH216412   1.901   1.614   5.773
 5484TIP3    H116413   1.815   1.638   5.738
 5484TIP3    H216414   1.963   1.641   5.706
 5485TIP3   OH216415   1.172   1.272   5.755
 5485TIP3    H116416   1.164   1.181   5.785
 5485TIP3    H216417   1.097   1.317   5.794
 5486TIP3   OH216418   1.288   2.767   5.056
 5486TIP3    H116419   1.339   2.687   5.046
 5486TIP3    H216420   1.349   2.837   5.032
 5487TIP3   OH216421   1.422   2.533   5.020
 5487TIP3    H116422   1.351   2.468   5.014
 5487TIP3    H216423   1.471   2.508   5.098
 5488TIP3   OH216424   1.809   2.622   5.747
 5488TIP3    H116425   1.793   2.547   5.690
 5488TIP3    H216426   1.793   2.699   5.692
 5489TIP3   OH216427   1.099   2.022   5.016
 5489TIP3    H116428   1.017   2.067   4.998
 5489TIP3    H216429   1.144   2.021   4.931
 5490TIP3   OH216430   1.073   1.805   4.725
 5490TIP3    H116431   1.138   1.856   4.773
 5490TIP3    H216432   1.125   1.742   4.674
 5491TIP3   OH216433   1.994   2.276   5.612
 5491TIP3    H116434   1.910   2.322   5.613
 5491TIP3    H216435   2.029   2.290   5.524
 5492TIP3   OH216436   1.454   2.102   4.983
 5492TIP3    H116437   1.400   2.132   5.057
 5492TIP3    H216438   1.538   2.079   5.022
 5493TIP3   OH216439   1.685   2.144   5.913
 5493TIP3    H116440   1.683   2.227   5.961
 5493TIP3    H216441   1.601   2.140   5.868
 5494TIP3   OH216442   0.687   2.090   5.395
 5494TIP3    H116443   0.652   2.029   5.330
 5494TIP3    H216444   0.765   2.046   5.429
 5495TIP3   OH216445   0.820   2.509   5.528
 5495TIP3    H116446   0.795   2.496   5.437
 5495TIP3    H216447   0.907   2.471   5.536
 5496TIP3   OH216448   0.799   2.082   5.762
 5496TIP3    H116449   0.836   2.051   5.680
 5496TIP3    H216450   0.842   2.166   5.777
 5497TIP3   OH216451   1.347   2.716   5.538
 5497TIP3    H116452   1.332   2.797   5.587
 5497TIP3    H216453   1.328   2.646   5.601
 5498TIP3   OH216454   0.948   2.624   6.075
 5498TIP3    H116455   0.891   2.686   6.120
 5498TIP3    H216456   0.888   2.572   6.021
 5499TIP3   OH216457   1.289   1.967   4.808
 5499TIP3    H116458   1.348   2.023   4.859
 5499TIP3    H216459   1.309   1.987   4.717
 5500TIP3   OH216460   0.707   2.164   6.186
 5500TIP3    H116461   0.713   2.249   6.231
 5500TIP3    H216462   0.621   2.165   6.145
 5501TIP3   OH216463   1.041   2.641   5.074
 5501TIP3    H116464   1.122   2.692   5.074
 5501TIP3    H216465   0.978   2.695   5.027
 5502TIP3   OH216466   0.745   2.798   6.154
 5502TIP3    H116467   0.737   2.806   6.059
 5502TIP3    H216468   0.655   2.794   6.185
 5503TIP3   OH216469   1.798   1.202   4.870
 5503TIP3    H116470   1.721   1.223   4.923
 5503TIP3    H216471   1.808   1.278   4.813
 5504TIP3   OH216472   0.568   1.927   5.194
 5504TIP3    H116473   0.492   1.970   5.154
 5504TIP3    H216474   0.538   1.838   5.213
 5505TIP3   OH216475   1.615   2.559   4.422
 5505TIP3    H116476   1.609   2.651   4.397
 5505TIP3    H216477   1.705   2.533   4.402
 5506TIP3   OH216478   0.362   2.290   6.090
 5506TIP3    H116479   0.303   2.270   6.018
 5506TIP3    H216480   0.376   2.207   6.135
 5507TIP3   OH216481   0.236   2.547   5.740
 5507TIP3    H116482   0.312   2.490   5.735
 5507TIP3    H216483   0.252   2.603   5.816
 5508TIP3   OH216484   2.043   2.980   5.813
 5508TIP3    H116485   2.047   2.886   5.827
 5508TIP3    H216486   1.962   3.007   5.856
 5509TIP3   OH216487   1.148   2.760   5.943
 5509TIP3    H116488   1.142   2.850   5.972
 5509TIP3    H216489   1.078   2.714   5.989
 5510TIP3   OH216490   0.926   2.867   4.897
 5510TIP3    H116491   0.879   2.849   4.816
 5510TIP3    H216492   0.893   2.952   4.927
 5511TIP3   OH216493   0.392   2.705   5.285
 5511TIP3    H116494   0.447   2.719   5.363
 5511TIP3    H216495   0.310   2.671   5.319
 5512TIP3   OH216496   1.125   2.800   4.526
 5512TIP3    H116497   1.170   2.724   4.491
 5512TIP3    H216498   1.161   2.812   4.614
 5513TIP3   OH216499   1.180   2.842   4.797
 5513TIP3    H116500   1.092   2.847   4.835
 5513TIP3    H216501   1.233   2.802   4.866
 5514TIP3   OH216502   1.922   2.102   6.087
 5514TIP3    H116503   1.848   2.107   6.027
 5514TIP3    H216504   1.946   2.009   6.088
 5515TIP3   OH216505   0.513   2.519   6.097
 5515TIP3    H116506   0.577   2.490   6.163
 5515TIP3    H216507   0.451   2.447   6.090
 5516TIP3   OH216508   0.928   1.358   5.860
 5516TIP3    H116509   0.877   1.384   5.783
 5516TIP3    H216510   0.891   1.409   5.932
 5517TIP3   OH216511   1.480   1.458   6.071
 5517TIP3    H116512   1.549   1.432   6.133
 5517TIP3    H216513   1.399   1.447   6.119
 5518TIP3   OH216514   1.698   1.882   5.998
 5518TIP3    H116515   1.653   1.876   6.082
 5518TIP3    H216516   1.680   1.970   5.966
 5519TIP3   OH216517   1.344   2.011   4.539
 5519TIP3    H116518   1.384   1.954   4.474
 5519TIP3    H216519   1.398   2.090   4.538
 5520TIP3   OH216520   1.083   1.381   4.862
 5520TIP3    H116521   1.047   1.383   4.951
 5520TIP3    H216522   1.042   1.305   4.821
 5521TIP3   OH216523   0.866   1.863   5.916
 5521TIP3    H116524   0.815   1.872   5.996
 5521TIP3    H216525   0.846   1.942   5.866
 5522TIP3   OH216526   0.778   1.748   5.421
 5522TIP3    H116527   0.689   1.725   5.446
 5522TIP3    H216528   0.787   1.715   5.332
 5523TIP3   OH216529   1.232   1.821   5.152
 5523TIP3    H116530   1.183   1.893   5.111
 5523TIP3    H216531   1.290   1.789   5.083
 5524TIP3   OH216532   1.418   2.100   6.197
 5524TIP3    H116533   1.397   2.033   6.263
 5524TIP3    H216534   1.511   2.117   6.211
 5525TIP3   OH216535   1.394   1.833   5.381
 5525TIP3    H116536   1.328   1.858   5.316
 5525TIP3    H216537   1.439   1.758   5.341
 5526TIP3   OH216538   0.679   1.893   6.123
 5526TIP3    H116539   0.699   1.975   6.169
 5526TIP3    H216540   0.599   1.862   6.163
 5527TIP3   OH216541   0.745   1.367   4.843
 5527TIP3    H116542   0.728   1.357   4.937
 5527TIP3    H216543   0.666   1.407   4.809
 5528TIP3   OH216544   1.428   2.085   5.807
 5528TIP3    H116545   1.455   2.019   5.743
 5528TIP3    H216546   1.384   2.035   5.876
 5529TIP3   OH216547   1.113   1.540   5.477
 5529TIP3    H116548   1.036   1.540   5.535
 5529TIP3    H216549   1.188   1.535   5.536
 5530TIP3   OH216550   0.540   1.626   5.480
 5530TIP3    H116551   0.453   1.647   5.448
 5530TIP3    H216552   0.556   1.536   5.452
 5531TIP3   OH216553   0.771   1.624   5.175
 5531TIP3    H116554   0.865   1.635   5.157
 5531TIP3    H216555   0.728   1.644   5.092
 5532TIP3   OH216556   1.565   1.623   5.682
 5532TIP3    H116557   1.544   1.643   5.774
 5532TIP3    H216558   1.495   1.565   5.654
 5533TIP3   OH216559   0.640   1.653   4.938
 5533TIP3    H116560   0.576   1.601   4.889
 5533TIP3    H216561   0.695   1.693   4.871
 5534TIP3   OH216562   1.754   3.325   5.912
 5534TIP3    H116563   1.753   3.336   5.817
 5534TIP3    H216564   1.833   3.372   5.941
 5535TIP3   OH216565   0.679   2.421   6.294
 5535TIP3    H116566   0.754   2.468   6.332
 5535TIP3    H216567   0.617   2.414   6.366
 5536TIP3   OH216568   1.167   1.904   5.584
 5536TIP3    H116569   1.233   1.853   5.535
 5536TIP3    H216570   1.163   1.861   5.670
 5537TIP3   OH216571   0.710   1.370   5.430
 5537TIP3    H116572   0.733   1.281   5.458
 5537TIP3    H216573   0.705   1.365   5.335
 5538TIP3   OH216574   1.129   1.804   5.846
 5538TIP3    H116575   1.043   1.837   5.872
 5538TIP3    H216576   1.191   1.851   5.900
 5539TIP3   OH216577   0.861   2.162   4.965
 5539TIP3    H116578   0.788   2.104   4.942
 5539TIP3    H216579   0.837   2.200   5.049
 5540TIP3   OH216580   1.758   2.413   5.573
 5540TIP3    H116581   1.791   2.462   5.498
 5540TIP3    H216582   1.677   2.373   5.542
 5541TIP3   OH216583   1.338   1.474   4.867
 5541TIP3    H116584   1.244   1.456   4.860
 5541TIP3    H216585   1.343   1.569   4.875
 5542TIP3   OH216586   1.274   2.494   5.981
 5542TIP3    H116587   1.325   2.483   6.061
 5542TIP3    H216588   1.239   2.583   5.986
 5543TIP3   OH216589   1.393   1.740   4.936
 5543TIP3    H116590   1.488   1.745   4.945
 5543TIP3    H216591   1.371   1.815   4.882
 5544TIP3   OH216592   0.548   2.174   5.618
 5544TIP3    H116593   0.593   2.155   5.535
 5544TIP3    H216594   0.608   2.142   5.686
 5545TIP3   OH216595   1.018   2.322   4.808
 5545TIP3    H116596   0.972   2.405   4.806
 5545TIP3    H216597   0.962   2.264   4.859
 5546TIP3   OH216598   0.411   2.052   6.227
 5546TIP3    H116599   0.447   2.083   6.310
 5546TIP3    H216600   0.337   1.996   6.253
 5547TIP3   OH216601   1.183   2.243   6.213
 5547TIP3    H116602   1.117   2.189   6.170
 5547TIP3    H216603   1.266   2.202   6.190
 5548TIP3   OH216604   1.416   2.771   5.860
 5548TIP3    H116605   1.321   2.762   5.870
 5548TIP3    H216606   1.443   2.824   5.935
 5549TIP3   OH216607   1.810   1.833   4.762
 5549TIP3    H116608   1.752   1.787   4.701
 5549TIP3    H216609   1.816   1.922   4.728
 5550TIP3   OH216610   2.056   2.698   5.840
 5550TIP3    H116611   1.961   2.687   5.834
 5550TIP3    H216612   2.089   2.669   5.756
 5551TIP3   OH216613   1.543   2.637   4.683
 5551TIP3    H116614   1.515   2.566   4.740
 5551TIP3    H216615   1.559   2.595   4.599
 5552TIP3   OH216616   1.527   2.279   5.475
 5552TIP3    H116617   1.436   2.257   5.497
 5552TIP3    H216618   1.562   2.199   5.435
 5553TIP3   OH216619   0.678   2.514   5.281
 5553TIP3    H116620   0.685   2.588   5.220
 5553TIP3    H216621   0.585   2.511   5.305
 5554TIP3   OH216622   0.205   1.805   4.980
 5554TIP3    H116623   0.263   1.877   5.005
 5554TIP3    H216624   0.133   1.810   5.043
 5555TIP3   OH216625   0.771   2.268   5.196
 5555TIP3    H116626   0.749   2.357   5.222
 5555TIP3    H216627   0.742   2.214   5.270
 5556TIP3   OH216628   0.968   2.836   5.734
 5556TIP3    H116629   1.002   2.911   5.685
 5556TIP3    H216630   1.042   2.804   5.785
 5557TIP3   OH216631   0.609   2.736   5.120
 5557TIP3    H116632   0.525   2.735   5.166
 5557TIP3    H216633   0.638   2.827   5.125
 5558TIP3   OH216634   1.311   2.493   5.707
 5558TIP3    H116635   1.301   2.490   5.802
 5558TIP3    H216636   1.391   2.442   5.690
 5559TIP3   OH216637   1.302   2.372   4.581
 5559TIP3    H116638   1.354   2.347   4.657
 5559TIP3    H216639   1.213   2.342   4.602
 5560TIP3   OH216640   1.569   3.006   5.745
 5560TIP3    H116641   1.491   2.950   5.746
 5560TIP3    H216642   1.552   3.069   5.675
 5561TIP3   OH216643   1.619   2.837   4.382
 5561TIP3    H116644   1.632   2.892   4.305
 5561TIP3    H216645   1.549   2.880   4.431
 5562TIP3   OH216646   1.474   2.286   4.775
 5562TIP3    H116647   1.463   2.233   4.854
 5562TIP3    H216648   1.569   2.296   4.767
 5563TIP3   OH216649   0.382   2.713   5.921
 5563TIP3    H116650   0.429   2.653   5.979
 5563TIP3    H216651   0.393   2.799   5.962
 5564TIP3   OH216652   0.662   2.346   4.586
 5564TIP3    H116653   0.676   2.256   4.559
 5564TIP3    H216654   0.647   2.341   4.680
 5565TIP3   OH216655   0.610   2.357   4.860
 5565TIP3    H116656   0.684   2.333   4.917
 5565TIP3    H216657   0.606   2.452   4.864
 5566TIP3   OH216658   0.347   2.032   5.062
 5566TIP3    H116659   0.293   2.080   5.125
 5566TIP3    H216660   0.367   2.095   4.994
 5567TIP3   OH216661   1.501   1.695   5.937
 5567TIP3    H116662   1.579   1.739   5.971
 5567TIP3    H216663   1.495   1.615   5.990
 5568TIP3   OH216664   1.388   1.426   5.135
 5568TIP3    H116665   1.368   1.444   5.043
 5568TIP3    H216666   1.431   1.506   5.166
 5569TIP3   OH216667   0.874   2.550   4.804
 5569TIP3    H116668   0.787   2.574   4.836
 5569TIP3    H216669   0.897   2.621   4.744
 5570TIP3   OH216670   1.051   1.626   5.219
 5570TIP3    H116671   1.112   1.695   5.194
 5570TIP3    H216672   1.070   1.609   5.311
 5571TIP3   OH216673   1.331   1.914   6.001
 5571TIP3    H116674   1.364   1.962   6.077
 5571TIP3    H216675   1.386   1.836   5.996
 5572TIP3   OH216676   1.205   1.327   5.316
 5572TIP3    H116677   1.183   1.405   5.367
 5572TIP3    H216678   1.273   1.356   5.256
 5573TIP3   OH216679   0.618   2.628   4.870
 5573TIP3    H116680   0.596   2.698   4.809
 5573TIP3    H216681   0.613   2.669   4.956
 5574TIP3   OH216682   0.724   1.352   5.134
 5574TIP3    H116683   0.718   1.447   5.146
 5574TIP3    H216684   0.817   1.334   5.129
 5575TIP3   OH216685   1.961   1.825   5.998
 5575TIP3    H116686   1.867   1.833   6.009
 5575TIP3    H216687   1.971   1.774   5.918
 5576TIP3   OH216688   1.618   2.022   5.382
 5576TIP3    H116689   1.541   1.966   5.393
 5576TIP3    H216690   1.685   1.980   5.436
 5577TIP3   OH216691   0.367   2.223   4.859
 5577TIP3    H116692   0.433   2.291   4.870
 5577TIP3    H216693   0.404   2.163   4.794
 5578TIP3   OH216694   0.285   1.537   5.033
 5578TIP3    H116695   0.260   1.625   5.006
 5578TIP3    H216696   0.272   1.483   4.955
 5579TIP3   OH216697   1.593   3.005   5.315
 5579TIP3    H116698   1.548   3.060   5.251
 5579TIP3    H216699   1.686   3.025   5.303
 5580TIP3   OH216700   0.202   2.466   5.211
 5580TIP3    H116701   0.151   2.546   5.224
 5580TIP3    H216702   0.244   2.477   5.126
 5581TIP3   OH216703   0.407   3.039   6.250
 5581TIP3    H116704   0.482   3.054   6.308
 5581TIP3    H216705   0.405   2.945   6.237
 5582TIP3   OH216706   0.873   2.920   6.362
 5582TIP3    H116707   0.966   2.901   6.349
 5582TIP3    H216708   0.829   2.880   6.287
 5583TIP3   OH216709   0.827   2.543   4.480
 5583TIP3    H116710   0.776   2.473   4.521
 5583TIP3    H216711   0.899   2.498   4.436
 5584TIP3   OH216712   1.475   2.908   6.089
 5584TIP3    H116713   1.475   2.832   6.146
 5584TIP3    H216714   1.555   2.955   6.113
 5585TIP3   OH216715   1.246   2.584   4.413
 5585TIP3    H116716   1.282   2.517   4.471
 5585TIP3    H216717   1.310   2.591   4.342
 5586TIP3   OH216718   3.071   6.080   0.112
 5586TIP3    H116719   3.078   5.984   0.107
 5586TIP3    H216720   2.979   6.098   0.096
 5587TIP3   OH216721   0.486   2.032   4.707
 5587TIP3    H116722   0.538   2.009   4.784
 5587TIP3    H216723   0.550   2.048   4.638
 5588TIP3   OH216724   1.115   2.510   6.256
 5588TIP3    H116725   1.066   2.534   6.177
 5588TIP3    H216726   1.147   2.421   6.240
 5589TIP3   OH216727   1.021   2.274   4.536
 5589TIP3    H116728   1.008   2.289   4.630
 5589TIP3    H216729   1.021   2.179   4.526
 5590TIP3   OH216730   1.586   2.551   5.895
 5590TIP3    H116731   1.662   2.584   5.847
 5590TIP3    H216732   1.519   2.618   5.881
 5591TIP3   OH216733   3.109   5.811   0.096
 5591TIP3    H116734   3.203   5.824   0.106
 5591TIP3    H216735   3.084   5.758   0.172
 5592TIP3   OH216736   0.660   1.976   4.919
 5592TIP3    H116737   0.641   1.941   5.006
 5592TIP3    H216738   0.708   1.906   4.875
 5593TIP3   OH216739   0.959   2.049   6.148
 5593TIP3    H116740   0.876   2.097   6.148
 5593TIP3    H216741   1.000   2.072   6.064
 5594TIP3   OH216742   0.796   1.791   4.761
 5594TIP3    H116743   0.768   1.796   4.670
 5594TIP3    H216744   0.892   1.792   4.758
 5595TIP3   OH216745   1.465   2.440   6.221
 5595TIP3    H116746   1.538   2.408   6.167
 5595TIP3    H216747   1.469   2.386   6.300
 5596TIP3   OH216748   1.605   2.062   4.410
 5596TIP3    H116749   1.632   2.023   4.327
 5596TIP3    H216750   1.572   2.148   4.387
 5597TIP3   OH216751   1.088   1.824   6.260
 5597TIP3    H116752   1.081   1.751   6.199
 5597TIP3    H216753   1.041   1.896   6.217
 5598TIP3   OH216754   1.073   1.629   6.063
 5598TIP3    H116755   1.095   1.668   5.979
 5598TIP3    H216756   0.984   1.595   6.052
 5599TIP3   OH216757   1.094   2.159   5.939
 5599TIP3    H116758   1.182   2.190   5.918
 5599TIP3    H216759   1.036   2.221   5.896
 5600TIP3   OH216760   1.680   2.145   6.271
 5600TIP3    H116761   1.707   2.077   6.333
 5600TIP3    H216762   1.761   2.171   6.227
 5601TIP3   OH216763   1.714   2.383   6.060
 5601TIP3    H116764   1.661   2.443   6.007
 5601TIP3    H216765   1.804   2.397   6.029
 5602TIP3   OH216766   3.544   5.748   0.056
 5602TIP3    H116767   3.453   5.732   0.082
 5602TIP3    H216768   3.545   5.731  -0.038
 5603TIP3   OH216769   1.213   1.408   6.146
 5603TIP3    H116770   1.169   1.489   6.120
 5603TIP3    H216771   1.149   1.339   6.130
 5604TIP3   OH216772   3.933   5.575  -0.013
 5604TIP3    H116773   3.907   5.590   0.078
 5604TIP3    H216774   3.853   5.546  -0.057
 5605TIP3   OH216775   1.565   1.826   6.221
 5605TIP3    H116776   1.491   1.825   6.282
 5605TIP3    H216777   1.638   1.793   6.273
 5606TIP3   OH216778   1.826   1.770   6.324
 5606TIP3    H116779   1.826   1.682   6.360
 5606TIP3    H216780   1.792   1.825   6.395
 5607TIP3   OH216781   3.347   5.330   0.168
 5607TIP3    H116782   3.415   5.312   0.103
 5607TIP3    H216783   3.357   5.260   0.233
 5608TIP3   OH216784   1.347   1.344   6.368
 5608TIP3    H116785   1.414   1.282   6.337
 5608TIP3    H216786   1.292   1.360   6.292
 5609TIP3   OH216787   4.018   5.284   0.048
 5609TIP3    H116788   4.008   5.190   0.036
 5609TIP3    H216789   3.929   5.316   0.063
 5610TIP3   OH216790   0.608   2.832   4.687
 5610TIP3    H116791   0.701   2.817   4.667
 5610TIP3    H216792   0.575   2.881   4.612
 5611TIP3   OH216793   0.097   2.196   4.826
 5611TIP3    H116794   0.189   2.212   4.844
 5611TIP3    H216795   0.093   2.104   4.799
 5612TIP3   OH216796   7.764   2.915   5.319
 5612TIP3    H116797   7.670   2.896   5.322
 5612TIP3    H216798   7.805   2.829   5.307
 5613TIP3   OH216799   0.213   2.672   5.489
 5613TIP3    H116800   0.197   2.597   5.546
 5613TIP3    H216801   0.243   2.741   5.548
 5614TIP3   OH216802   1.853   3.091   5.302
 5614TIP3    H116803   1.888   3.092   5.391
 5614TIP3    H216804   1.930   3.093   5.246
 5615TIP3   OH216805   1.898   3.078   5.582
 5615TIP3    H116806   1.845   2.999   5.578
 5615TIP3    H216807   1.965   3.059   5.648
 5616TIP3   OH216808   1.927   2.780   6.161
 5616TIP3    H116809   1.853   2.788   6.220
 5616TIP3    H216810   1.974   2.863   6.169
 5617TIP3   OH216811   1.754   2.288   4.770
 5617TIP3    H116812   1.811   2.358   4.740
 5617TIP3    H216813   1.800   2.249   4.844
 5618TIP3   OH216814   1.884   2.148   4.973
 5618TIP3    H116815   1.816   2.111   5.029
 5618TIP3    H216816   1.947   2.186   5.034
 5619TIP3   OH216817   1.935   2.550   5.406
 5619TIP3    H116818   1.987   2.479   5.366
 5619TIP3    H216819   1.940   2.622   5.343
 5620TIP3   OH216820   1.745   2.844   5.597
 5620TIP3    H116821   1.677   2.889   5.648
 5620TIP3    H216822   1.698   2.804   5.524
 5621TIP3   OH216823   1.795   2.065   4.611
 5621TIP3    H116824   1.727   2.059   4.544
 5621TIP3    H216825   1.773   2.144   4.661
 5622TIP3   OH216826   1.658   1.734   4.561
 5622TIP3    H116827   1.657   1.776   4.475
 5622TIP3    H216828   1.636   1.642   4.543
 5623TIP3   OH216829   1.684   2.011   5.113
 5623TIP3    H116830   1.690   1.916   5.100
 5623TIP3    H216831   1.666   2.021   5.206
 5624TIP3   OH216832   0.301   2.073   5.879
 5624TIP3    H116833   0.289   2.062   5.784
 5624TIP3    H216834   0.395   2.080   5.891
 5625TIP3   OH216835   1.969   2.429   5.965
 5625TIP3    H116836   2.036   2.362   5.950
 5625TIP3    H216837   1.985   2.494   5.897
 5626TIP3   OH216838   2.143   2.217   5.966
 5626TIP3    H116839   2.069   2.178   6.012
 5626TIP3    H216840   2.218   2.162   5.990
 5627TIP3   OH216841   1.607   1.465   4.537
 5627TIP3    H116842   1.675   1.434   4.596
 5627TIP3    H216843   1.529   1.415   4.562
 5628TIP3   OH216844   1.681   1.735   4.998
 5628TIP3    H116845   1.725   1.651   5.010
 5628TIP3    H216846   1.724   1.775   4.923
 5629TIP3   OH216847   1.833   1.896   5.518
 5629TIP3    H116848   1.914   1.914   5.470
 5629TIP3    H216849   1.847   1.936   5.604
 5630TIP3   OH216850   1.907   2.049   5.745
 5630TIP3    H116851   1.830   2.079   5.795
 5630TIP3    H216852   1.938   2.127   5.700
 5631TIP3   OH216853   2.366   1.665   6.276
 5631TIP3    H116854   2.429   1.600   6.244
 5631TIP3    H216855   2.330   1.705   6.197
 5632TIP3   OH216856   1.792   1.483   5.048
 5632TIP3    H116857   1.839   1.468   5.130
 5632TIP3    H216858   1.729   1.411   5.042
 5633TIP3   OH216859   0.316   1.799   5.954
 5633TIP3    H116860   0.358   1.775   5.872
 5633TIP3    H216861   0.294   1.892   5.944
 5634TIP3   OH216862   2.219   1.763   6.070
 5634TIP3    H116863   2.133   1.803   6.083
 5634TIP3    H216864   2.202   1.684   6.020
 5635TIP3   OH216865   1.841   1.402   4.685
 5635TIP3    H116866   1.886   1.341   4.627
 5635TIP3    H216867   1.897   1.480   4.687
 5636TIP3   OH216868   1.445   2.967   4.960
 5636TIP3    H116869   1.484   2.941   4.876
 5636TIP3    H216870   1.499   3.040   4.989
 5637TIP3   OH216871   0.484   2.769   6.242
 5637TIP3    H116872   0.466   2.680   6.213
 5637TIP3    H216873   0.492   2.764   6.337
 5638TIP3   OH216874   0.739   2.792   5.878
 5638TIP3    H116875   0.685   2.866   5.847
 5638TIP3    H216876   0.822   2.803   5.832
 5639TIP3   OH216877   1.137   3.026   6.019
 5639TIP3    H116878   1.176   3.023   6.107
 5639TIP3    H216879   1.199   3.079   5.968
 5640TIP3   OH216880   1.327   3.181   5.894
 5640TIP3    H116881   1.392   3.129   5.847
 5640TIP3    H216882   1.379   3.242   5.947
 5641TIP3   OH216883   2.130   1.517   5.974
 5641TIP3    H116884   2.041   1.508   5.940
 5641TIP3    H216885   2.167   1.429   5.966
 5642TIP3   OH216886   0.392   3.018   5.921
 5642TIP3    H116887   0.330   3.047   5.854
 5642TIP3    H216888   0.357   3.054   6.003
 5643TIP3   OH216889   0.631   3.024   5.780
 5643TIP3    H116890   0.547   3.028   5.826
 5643TIP3    H216891   0.613   3.060   5.694
 5644TIP3   OH216892   1.051   3.043   5.571
 5644TIP3    H116893   0.983   3.054   5.504
 5644TIP3    H216894   1.060   3.130   5.611
 5645TIP3   OH216895   1.313   2.981   5.621
 5645TIP3    H116896   1.221   2.998   5.603
 5645TIP3    H216897   1.360   3.048   5.571
 5646TIP3   OH216898   1.519   3.166   5.526
 5646TIP3    H116899   1.500   3.250   5.484
 5646TIP3    H216900   1.546   3.109   5.455
 5647TIP3   OH216901   0.337   2.843   5.670
 5647TIP3    H116902   0.333   2.811   5.760
 5647TIP3    H216903   0.409   2.794   5.630
 5648TIP3   OH216904   0.526   2.712   5.525
 5648TIP3    H116905   0.532   2.626   5.565
 5648TIP3    H216906   0.616   2.746   5.526
 5649TIP3   OH216907   0.790   2.790   5.526
 5649TIP3    H116908   0.808   2.696   5.514
 5649TIP3    H216909   0.843   2.815   5.601
 5650TIP3   OH216910   1.343   1.455   5.613
 5650TIP3    H116911   1.297   1.388   5.663
 5650TIP3    H216912   1.409   1.408   5.563
 5651TIP3   OH216913   1.838   1.348   5.502
 5651TIP3    H116914   1.876   1.398   5.429
 5651TIP3    H216915   1.747   1.376   5.505
 5652TIP3   OH216916   1.953   1.430   5.268
 5652TIP3    H116917   2.022   1.370   5.239
 5652TIP3    H216918   1.990   1.517   5.255
 5653TIP3   OH216919   1.034   1.212   5.512
 5653TIP3    H116920   1.087   1.246   5.440
 5653TIP3    H216921   1.083   1.233   5.591
 5654TIP3   OH216922   1.549   1.323   5.488
 5654TIP3    H116923   1.564   1.288   5.400
 5654TIP3    H216924   1.553   1.245   5.544
 5655TIP3   OH216925   1.607   1.272   5.056
 5655TIP3    H116926   1.527   1.319   5.078
 5655TIP3    H216927   1.594   1.185   5.094
 5656TIP3   OH216928   0.133   2.535   4.940
 5656TIP3    H116929   0.056   2.479   4.928
 5656TIP3    H216930   0.106   2.598   5.007
 5657TIP3   OH216931   0.513   1.213   4.981
 5657TIP3    H116932   0.566   1.137   4.955
 5657TIP3    H216933   0.563   1.254   5.051
 5658TIP3   OH216934   1.000   1.373   5.127
 5658TIP3    H116935   1.061   1.325   5.183
 5658TIP3    H216936   1.013   1.465   5.151
 5659TIP3   OH216937   0.870   2.770   4.627
 5659TIP3    H116938   0.952   2.802   4.590
 5659TIP3    H216939   0.843   2.699   4.569
 5660TIP3   OH216940   1.570   2.906   4.722
 5660TIP3    H116941   1.565   2.811   4.711
 5660TIP3    H216942   1.531   2.941   4.642
 5661TIP3   OH216943   3.653   5.092   0.433
 5661TIP3    H116944   3.702   5.086   0.350
 5661TIP3    H216945   3.687   5.019   0.485
 5662TIP3   OH216946   0.172   2.608   4.680
 5662TIP3    H116947   0.161   2.591   4.774
 5662TIP3    H216948   0.261   2.580   4.661
 5663TIP3   OH216949   4.476   5.183   0.018
 5663TIP3    H116950   4.479   5.113   0.084
 5663TIP3    H216951   4.564   5.186  -0.018
 5664TIP3   OH216952   1.793   3.051   5.907
 5664TIP3    H116953   1.717   3.022   5.857
 5664TIP3    H216954   1.780   3.145   5.918
 5665TIP3   OH216955   3.068   2.430   4.657
 5665TIP3    H116956   3.037   2.518   4.638
 5665TIP3    H216957   2.996   2.372   4.631
 5666TIP3   OH216958   3.068   2.427   5.073
 5666TIP3    H116959   3.117   2.411   5.154
 5666TIP3    H216960   3.023   2.345   5.055
 5667TIP3   OH216961   2.367   2.300   5.423
 5667TIP3    H116962   2.403   2.244   5.492
 5667TIP3    H216963   2.442   2.323   5.369
 5668TIP3   OH216964   3.334   2.734   4.750
 5668TIP3    H116965   3.319   2.671   4.820
 5668TIP3    H216966   3.354   2.816   4.794
 5669TIP3   OH216967   2.342   2.720   5.124
 5669TIP3    H116968   2.331   2.625   5.124
 5669TIP3    H216969   2.436   2.733   5.111
 5670TIP3   OH216970   2.041   1.924   4.902
 5670TIP3    H116971   2.002   2.009   4.924
 5670TIP3    H216972   1.971   1.875   4.859
 5671TIP3   OH216973   2.114   2.228   5.115
 5671TIP3    H116974   2.164   2.151   5.140
 5671TIP3    H216975   2.178   2.289   5.078
 5672TIP3   OH216976   2.985   3.155   4.771
 5672TIP3    H116977   3.014   3.088   4.708
 5672TIP3    H216978   2.982   3.109   4.855
 5673TIP3   OH216979   2.869   2.651   5.085
 5673TIP3    H116980   2.912   2.573   5.049
 5673TIP3    H216981   2.941   2.706   5.116
 5674TIP3   OH216982   3.903   1.971   5.098
 5674TIP3    H116983   3.920   2.056   5.140
 5674TIP3    H216984   3.933   1.983   5.008
 5675TIP3   OH216985   3.281   2.141   5.119
 5675TIP3    H116986   3.317   2.056   5.145
 5675TIP3    H216987   3.243   2.126   5.033
 5676TIP3   OH216988   2.634   1.800   5.078
 5676TIP3    H116989   2.614   1.874   5.021
 5676TIP3    H216990   2.580   1.728   5.046
 5677TIP3   OH216991   3.331   1.901   4.714
 5677TIP3    H116992   3.396   1.895   4.784
 5677TIP3    H216993   3.380   1.937   4.640
 5678TIP3   OH216994   2.258   2.011   5.207
 5678TIP3    H116995   2.342   1.994   5.251
 5678TIP3    H216996   2.263   1.960   5.126
 5679TIP3   OH216997   2.681   2.211   5.022
 5679TIP3    H116998   2.776   2.196   5.027
 5679TIP3    H216999   2.646   2.130   4.985
 5680TIP3   OH217000   3.960   2.188   5.269
 5680TIP3    H117001   3.876   2.232   5.257
 5680TIP3    H217002   3.998   2.229   5.347
 5681TIP3   OH217003   2.615   1.802   5.531
 5681TIP3    H117004   2.565   1.837   5.457
 5681TIP3    H217005   2.560   1.819   5.607
 5682TIP3   OH217006   2.937   2.640   4.538
 5682TIP3    H117007   2.913   2.625   4.447
 5682TIP3    H217008   2.897   2.724   4.561
 5683TIP3   OH217009   2.712   2.575   5.300
 5683TIP3    H117010   2.658   2.646   5.334
 5683TIP3    H217011   2.759   2.614   5.227
 5684TIP3   OH217012   3.496   1.918   4.931
 5684TIP3    H117013   3.454   1.898   5.014
 5684TIP3    H217014   3.552   1.993   4.950
 5685TIP3   OH217015   2.505   1.908   5.300
 5685TIP3    H117016   2.560   1.983   5.323
 5685TIP3    H217017   2.550   1.866   5.228
 5686TIP3   OH217018   2.554   2.777   5.406
 5686TIP3    H117019   2.541   2.866   5.373
 5686TIP3    H217020   2.475   2.758   5.457
 5687TIP3   OH217021   1.929   2.476   4.656
 5687TIP3    H117022   1.893   2.489   4.568
 5687TIP3    H217023   1.952   2.563   4.686
 5688TIP3   OH217024   3.372   2.986   4.888
 5688TIP3    H117025   3.285   2.977   4.927
 5688TIP3    H217026   3.369   3.068   4.839
 5689TIP3   OH217027   3.701   1.854   5.261
 5689TIP3    H117028   3.615   1.883   5.229
 5689TIP3    H217029   3.763   1.886   5.195
 5690TIP3   OH217030   2.959   1.496   5.258
 5690TIP3    H117031   2.950   1.404   5.283
 5690TIP3    H217032   2.883   1.539   5.298
 5691TIP3   OH217033   3.081   3.010   4.551
 5691TIP3    H117034   3.131   2.929   4.537
 5691TIP3    H217035   3.143   3.080   4.530
 5692TIP3   OH217036   3.231   2.790   4.497
 5692TIP3    H117037   3.230   2.712   4.443
 5692TIP3    H217038   3.269   2.762   4.580
 5693TIP3   OH217039   3.606   2.874   5.238
 5693TIP3    H117040   3.590   2.800   5.180
 5693TIP3    H217041   3.589   2.951   5.184
 5694TIP3   OH217042   2.893   2.273   4.505
 5694TIP3    H117043   2.813   2.323   4.489
 5694TIP3    H217044   2.940   2.277   4.421
 5695TIP3   OH217045   2.861   2.078   4.202
 5695TIP3    H117046   2.926   2.127   4.252
 5695TIP3    H217047   2.913   2.013   4.154
 5696TIP3   OH217048   3.791   2.531   5.100
 5696TIP3    H117049   3.707   2.577   5.101
 5696TIP3    H217050   3.826   2.547   5.013
 5697TIP3   OH217051   3.251   2.362   4.467
 5697TIP3    H117052   3.196   2.389   4.540
 5697TIP3    H217053   3.335   2.338   4.508
 5698TIP3   OH217054   3.481   2.394   5.407
 5698TIP3    H117055   3.479   2.478   5.454
 5698TIP3    H217056   3.399   2.392   5.359
 5699TIP3   OH217057   2.476   2.345   4.879
 5699TIP3    H117058   2.441   2.287   4.811
 5699TIP3    H217059   2.551   2.297   4.915
 5700TIP3   OH217060   2.606   2.761   5.022
 5700TIP3    H117061   2.583   2.750   4.929
 5700TIP3    H217062   2.696   2.726   5.028
 5701TIP3   OH217063   2.583   2.340   5.247
 5701TIP3    H117064   2.620   2.305   5.167
 5701TIP3    H217065   2.631   2.421   5.263
 5702TIP3   OH217066   3.135   2.972   5.021
 5702TIP3    H117067   3.123   3.053   5.071
 5702TIP3    H217068   3.119   2.902   5.084
 5703TIP3   OH217069   2.754   2.878   5.571
 5703TIP3    H117070   2.694   2.938   5.616
 5703TIP3    H217071   2.697   2.826   5.513
 5704TIP3   OH217072   3.085   2.221   4.298
 5704TIP3    H117073   3.143   2.280   4.346
 5704TIP3    H217074   3.112   2.229   4.207
 5705TIP3   OH217075   2.507   2.423   5.714
 5705TIP3    H117076   2.512   2.517   5.730
 5705TIP3    H217077   2.413   2.405   5.704
 5706TIP3   OH217078   2.828   2.896   4.561
 5706TIP3    H117079   2.913   2.940   4.564
 5706TIP3    H217080   2.773   2.954   4.509
 5707TIP3   OH217081   2.544   3.038   5.654
 5707TIP3    H117082   2.520   3.048   5.562
 5707TIP3    H217083   2.461   3.023   5.699
 5708TIP3   OH217084   3.585   1.458   4.356
 5708TIP3    H117085   3.509   1.482   4.409
 5708TIP3    H217086   3.600   1.535   4.300
 5709TIP3   OH217087   2.352   2.191   4.674
 5709TIP3    H117088   2.278   2.241   4.640
 5709TIP3    H217089   2.317   2.103   4.688
 5710TIP3   OH217090   3.414   2.826   3.905
 5710TIP3    H117091   3.410   2.919   3.881
 5710TIP3    H217092   3.505   2.801   3.884
 5711TIP3   OH217093   2.133   2.589   5.604
 5711TIP3    H117094   2.065   2.573   5.539
 5711TIP3    H217095   2.169   2.503   5.624
 5712TIP3   OH217096   2.025   2.767   5.242
 5712TIP3    H117097   2.110   2.748   5.202
 5712TIP3    H217098   2.043   2.838   5.304
 5713TIP3   OH217099   3.841   3.242   5.304
 5713TIP3    H117100   3.843   3.147   5.316
 5713TIP3    H217101   3.760   3.270   5.348
 5714TIP3   OH217102   2.943   3.018   5.429
 5714TIP3    H117103   2.937   3.110   5.456
 5714TIP3    H217104   2.875   2.974   5.480
 5715TIP3   OH217105   2.717   3.109   4.389
 5715TIP3    H117106   2.665   3.093   4.310
 5715TIP3    H217107   2.680   3.188   4.428
 5716TIP3   OH217108   2.154   2.977   4.759
 5716TIP3    H117109   2.196   2.969   4.845
 5716TIP3    H217110   2.104   2.895   4.749
 5717TIP3   OH217111   2.903   3.044   4.032
 5717TIP3    H117112   2.953   2.987   3.974
 5717TIP3    H217113   2.957   3.052   4.110
 5718TIP3   OH217114   2.976   3.102   4.299
 5718TIP3    H117115   2.887   3.097   4.332
 5718TIP3    H217116   3.030   3.065   4.369
 5719TIP3   OH217117   3.725   2.357   5.578
 5719TIP3    H117118   3.644   2.367   5.528
 5719TIP3    H217119   3.745   2.264   5.573
 5720TIP3   OH217120   2.333   2.777   5.572
 5720TIP3    H117121   2.383   2.766   5.653
 5720TIP3    H217122   2.262   2.713   5.580
 5721TIP3   OH217123   2.722   1.588   5.384
 5721TIP3    H117124   2.638   1.556   5.352
 5721TIP3    H217125   2.700   1.669   5.431
 5722TIP3   OH217126   3.264   1.703   5.582
 5722TIP3    H117127   3.333   1.680   5.644
 5722TIP3    H217128   3.183   1.687   5.629
 5723TIP3   OH217129   3.488   2.128   5.494
 5723TIP3    H117130   3.447   2.125   5.581
 5723TIP3    H217131   3.472   2.217   5.463
 5724TIP3   OH217132   3.165   2.210   4.036
 5724TIP3    H117133   3.120   2.213   3.952
 5724TIP3    H217134   3.246   2.259   4.021
 5725TIP3   OH217135   2.875   1.624   4.353
 5725TIP3    H117136   2.837   1.632   4.441
 5725TIP3    H217137   2.836   1.545   4.317
 5726TIP3   OH217138   2.660   2.117   5.394
 5726TIP3    H117139   2.614   2.126   5.477
 5726TIP3    H217140   2.640   2.198   5.347
 5727TIP3   OH217141   2.542   1.997   4.912
 5727TIP3    H117142   2.452   1.975   4.937
 5727TIP3    H217143   2.552   1.964   4.823
 5728TIP3   OH217144   3.023   2.072   4.639
 5728TIP3    H117145   2.974   2.144   4.599
 5728TIP3    H217146   3.081   2.041   4.570
 5729TIP3   OH217147   3.210   2.343   5.714
 5729TIP3    H117148   3.183   2.275   5.775
 5729TIP3    H217149   3.302   2.358   5.734
 5730TIP3   OH217150   3.187   2.089   4.868
 5730TIP3    H117151   3.120   2.115   4.804
 5730TIP3    H217152   3.232   2.015   4.826
 5731TIP3   OH217153   2.494   2.135   5.613
 5731TIP3    H117154   2.509   2.199   5.683
 5731TIP3    H217155   2.476   2.053   5.660
 5732TIP3   OH217156   2.539   1.610   4.326
 5732TIP3    H117157   2.528   1.614   4.421
 5732TIP3    H217158   2.461   1.653   4.291
 5733TIP3   OH217159   2.084   1.653   5.195
 5733TIP3    H117160   2.155   1.689   5.247
 5733TIP3    H217161   2.121   1.639   5.108
 5734TIP3   OH217162   1.998   1.634   4.699
 5734TIP3    H117163   2.042   1.669   4.622
 5734TIP3    H217164   1.935   1.702   4.724
 5735TIP3   OH217165   3.225   2.340   5.294
 5735TIP3    H117166   3.250   2.274   5.230
 5735TIP3    H217167   3.181   2.291   5.364
 5736TIP3   OH217168   2.900   1.791   4.966
 5736TIP3    H117169   2.821   1.792   5.020
 5736TIP3    H217170   2.972   1.785   5.028
 5737TIP3   OH217171   2.303   1.873   4.974
 5737TIP3    H117172   2.214   1.879   4.939
 5737TIP3    H217173   2.331   1.784   4.955
 5738TIP3   OH217174   2.558   1.872   4.669
 5738TIP3    H117175   2.651   1.885   4.655
 5738TIP3    H217176   2.518   1.891   4.583
 5739TIP3   OH217177   3.356   1.878   5.172
 5739TIP3    H117178   3.337   1.895   5.264
 5739TIP3    H217179   3.287   1.819   5.144
 5740TIP3   OH217180   2.436   1.896   4.425
 5740TIP3    H117181   2.372   1.848   4.373
 5740TIP3    H217182   2.489   1.942   4.360
 5741TIP3   OH217183   3.545   3.586   5.390
 5741TIP3    H117184   3.545   3.606   5.296
 5741TIP3    H217185   3.602   3.653   5.428
 5742TIP3   OH217186   2.491   2.689   5.807
 5742TIP3    H117187   2.571   2.713   5.853
 5742TIP3    H217188   2.422   2.699   5.873
 5743TIP3   OH217189   2.954   2.154   5.072
 5743TIP3    H117190   3.021   2.107   5.023
 5743TIP3    H217191   2.954   2.113   5.158
 5744TIP3   OH217192   2.448   1.626   4.956
 5744TIP3    H117193   2.419   1.551   5.007
 5744TIP3    H217194   2.471   1.590   4.871
 5745TIP3   OH217195   2.927   2.057   5.341
 5745TIP3    H117196   2.840   2.090   5.362
 5745TIP3    H217197   2.986   2.111   5.393
 5746TIP3   OH217198   2.660   2.417   4.451
 5746TIP3    H117199   2.585   2.361   4.429
 5746TIP3    H217200   2.637   2.457   4.535
 5747TIP3   OH217201   3.555   2.668   5.061
 5747TIP3    H117202   3.589   2.718   4.987
 5747TIP3    H217203   3.474   2.630   5.028
 5748TIP3   OH217204   3.127   1.730   4.350
 5748TIP3    H117205   3.033   1.709   4.348
 5748TIP3    H217206   3.130   1.824   4.363
 5749TIP3   OH217207   3.062   2.751   5.466
 5749TIP3    H117208   3.115   2.748   5.545
 5749TIP3    H217209   3.024   2.839   5.466
 5750TIP3   OH217210   3.187   1.993   4.423
 5750TIP3    H117211   3.281   2.000   4.433
 5750TIP3    H217212   3.162   2.070   4.372
 5751TIP3   OH217213   2.351   2.437   5.106
 5751TIP3    H117214   2.387   2.417   5.020
 5751TIP3    H217215   2.417   2.405   5.168
 5752TIP3   OH217216   2.814   2.575   4.290
 5752TIP3    H117217   2.768   2.658   4.288
 5752TIP3    H217218   2.760   2.518   4.344
 5753TIP3   OH217219   2.233   2.358   5.735
 5753TIP3    H117220   2.236   2.331   5.827
 5753TIP3    H217221   2.159   2.309   5.699
 5754TIP3   OH217222   2.973   2.491   5.757
 5754TIP3    H117223   2.905   2.433   5.724
 5754TIP3    H217224   3.055   2.453   5.725
 5755TIP3   OH217225   3.215   3.026   5.357
 5755TIP3    H117226   3.120   3.021   5.360
 5755TIP3    H217227   3.239   3.073   5.437
 5756TIP3   OH217228   3.606   2.084   4.247
 5756TIP3    H117229   3.550   2.038   4.185
 5756TIP3    H217230   3.611   2.173   4.213
 5757TIP3   OH217231   3.852   2.956   5.328
 5757TIP3    H117232   3.757   2.944   5.322
 5757TIP3    H217233   3.885   2.927   5.243
 5758TIP3   OH217234   3.345   2.893   4.170
 5758TIP3    H117235   3.309   2.822   4.222
 5758TIP3    H217236   3.361   2.855   4.084
 5759TIP3   OH217237   3.322   2.536   4.961
 5759TIP3    H117238   3.231   2.514   4.984
 5759TIP3    H217239   3.357   2.456   4.922
 5760TIP3   OH217240   2.474   2.765   4.772
 5760TIP3    H117241   2.477   2.843   4.716
 5760TIP3    H217242   2.381   2.747   4.783
 5761TIP3   OH217243   2.039   2.058   4.480
 5761TIP3    H117244   2.079   2.143   4.500
 5761TIP3    H217245   1.955   2.059   4.526
 5762TIP3   OH217246   2.569   2.521   4.683
 5762TIP3    H117247   2.552   2.612   4.709
 5762TIP3    H217248   2.539   2.469   4.757
 5763TIP3   OH217249   2.756   3.090   5.221
 5763TIP3    H117250   2.790   3.165   5.171
 5763TIP3    H217251   2.831   3.058   5.270
 5764TIP3   OH217252   2.393   2.987   4.619
 5764TIP3    H117253   2.305   2.996   4.655
 5764TIP3    H217254   2.429   3.076   4.622
 5765TIP3   OH217255   3.108   2.750   5.193
 5765TIP3    H117256   3.095   2.746   5.288
 5765TIP3    H217257   3.189   2.702   5.177
 5766TIP3   OH217258   3.107   2.635   4.069
 5766TIP3    H117259   3.148   2.617   4.154
 5766TIP3    H217260   3.017   2.604   4.080
 5767TIP3   OH217261   3.367   3.257   5.232
 5767TIP3    H117262   3.290   3.200   5.241
 5767TIP3    H217263   3.344   3.317   5.161
 5768TIP3   OH217264   3.418   3.099   3.860
 5768TIP3    H117265   3.417   3.153   3.781
 5768TIP3    H217266   3.355   3.141   3.919
 5769TIP3   OH217267   2.441   1.881   5.736
 5769TIP3    H117268   2.346   1.889   5.740
 5769TIP3    H217269   2.464   1.826   5.811
 5770TIP3   OH217270   3.272   2.578   4.294
 5770TIP3    H117271   3.256   2.504   4.352
 5770TIP3    H217272   3.365   2.574   4.274
 5771TIP3   OH217273   2.173   2.973   5.393
 5771TIP3    H117274   2.229   2.912   5.440
 5771TIP3    H217275   2.194   3.058   5.430
 5772TIP3   OH217276   2.452   2.598   4.074
 5772TIP3    H117277   2.463   2.507   4.048
 5772TIP3    H217278   2.434   2.594   4.168
 5773TIP3   OH217279   2.396   2.616   4.346
 5773TIP3    H117280   2.467   2.589   4.404
 5773TIP3    H217281   2.396   2.712   4.351
 5774TIP3   OH217282   2.131   2.311   4.557
 5774TIP3    H117283   2.064   2.356   4.608
 5774TIP3    H217284   2.148   2.369   4.483
 5775TIP3   OH217285   3.296   1.936   5.434
 5775TIP3    H117286   3.373   1.981   5.467
 5775TIP3    H217287   3.287   1.859   5.490
 5776TIP3   OH217288   3.182   1.685   4.621
 5776TIP3    H117289   3.161   1.703   4.530
 5776TIP3    H217290   3.224   1.766   4.652
 5777TIP3   OH217291   2.668   2.802   4.284
 5777TIP3    H117292   2.584   2.828   4.322
 5777TIP3    H217293   2.690   2.874   4.225
 5778TIP3   OH217294   2.839   1.879   4.709
 5778TIP3    H117295   2.900   1.948   4.683
 5778TIP3    H217296   2.858   1.863   4.801
 5779TIP3   OH217297   3.131   2.175   5.494
 5779TIP3    H117298   3.158   2.222   5.573
 5779TIP3    H217299   3.183   2.094   5.495
 5780TIP3   OH217300   2.997   1.584   4.802
 5780TIP3    H117301   2.972   1.660   4.853
 5780TIP3    H217302   3.064   1.616   4.741
 5781TIP3   OH217303   2.417   2.888   4.364
 5781TIP3    H117304   2.391   2.959   4.306
 5781TIP3    H217305   2.407   2.924   4.452
 5782TIP3   OH217306   2.509   1.600   4.605
 5782TIP3    H117307   2.498   1.691   4.633
 5782TIP3    H217308   2.604   1.585   4.610
 5783TIP3   OH217309   3.756   2.090   5.490
 5783TIP3    H117310   3.661   2.087   5.495
 5783TIP3    H217311   3.777   2.059   5.402
 5784TIP3   OH217312   3.414   2.278   4.869
 5784TIP3    H117313   3.336   2.224   4.882
 5784TIP3    H217314   3.481   2.237   4.924
 5785TIP3   OH217315   2.146   2.490   4.341
 5785TIP3    H117316   2.215   2.555   4.350
 5785TIP3    H217317   2.179   2.427   4.277
 5786TIP3   OH217318   2.064   1.781   4.478
 5786TIP3    H117319   2.074   1.876   4.487
 5786TIP3    H217320   2.012   1.770   4.399
 5787TIP3   OH217321   3.389   3.253   4.797
 5787TIP3    H117322   3.353   3.308   4.727
 5787TIP3    H217323   3.484   3.262   4.788
 5788TIP3   OH217324   2.461   1.502   5.344
 5788TIP3    H117325   2.431   1.471   5.259
 5788TIP3    H217326   2.451   1.426   5.402
 5789TIP3   OH217327   1.982   2.750   4.732
 5789TIP3    H117328   1.933   2.784   4.807
 5789TIP3    H217329   1.940   2.791   4.656
 5790TIP3   OH217330   2.177   3.294   5.799
 5790TIP3    H117331   2.259   3.299   5.848
 5790TIP3    H217332   2.160   3.200   5.791
 5791TIP3   OH217333   2.641   3.207   5.850
 5791TIP3    H117334   2.736   3.194   5.856
 5791TIP3    H217335   2.614   3.150   5.778
 5792TIP3   OH217336   2.602   2.804   3.970
 5792TIP3    H117337   2.554   2.732   4.011
 5792TIP3    H217338   2.680   2.764   3.934
 5793TIP3   OH217339   3.268   3.145   5.599
 5793TIP3    H117340   3.280   3.075   5.664
 5793TIP3    H217341   3.342   3.203   5.612
 5794TIP3   OH217342   3.043   2.852   3.887
 5794TIP3    H117343   3.096   2.791   3.938
 5794TIP3    H217344   3.093   2.867   3.807
 5795TIP3   OH217345   2.285   2.687   5.996
 5795TIP3    H117346   2.303   2.594   6.006
 5795TIP3    H217347   2.199   2.691   5.955
 5796TIP3   OH217348   2.277   2.300   4.197
 5796TIP3    H117349   2.330   2.278   4.273
 5796TIP3    H217350   2.341   2.311   4.126
 5797TIP3   OH217351   2.905   2.769   5.774
 5797TIP3    H117352   2.862   2.793   5.692
 5797TIP3    H217353   2.940   2.681   5.759
 5798TIP3   OH217354   2.835   2.523   4.022
 5798TIP3    H117355   2.816   2.535   4.115
 5798TIP3    H217356   2.819   2.430   4.006
 5799TIP3   OH217357   3.382   2.804   5.387
 5799TIP3    H117358   3.459   2.834   5.340
 5799TIP3    H217359   3.317   2.873   5.374
 5800TIP3   OH217360   2.403   2.432   5.999
 5800TIP3    H117361   2.474   2.418   5.936
 5800TIP3    H217362   2.448   2.458   6.080
 5801TIP3   OH217363   2.453   2.237   4.406
 5801TIP3    H117364   2.431   2.205   4.494
 5801TIP3    H217365   2.499   2.164   4.365
 5802TIP3   OH217366   2.763   2.314   5.658
 5802TIP3    H117367   2.678   2.358   5.668
 5802TIP3    H217368   2.797   2.345   5.574
 5803TIP3   OH217369   2.588   2.047   4.254
 5803TIP3    H117370   2.558   2.052   4.163
 5803TIP3    H217371   2.684   2.055   4.248
 5804TIP3   OH217372   3.264   2.692   5.755
 5804TIP3    H117373   3.330   2.652   5.698
 5804TIP3    H217374   3.261   2.634   5.831
 5805TIP3   OH217375   3.386   2.341   3.931
 5805TIP3    H117376   3.373   2.300   3.846
 5805TIP3    H217377   3.361   2.433   3.918
 5806TIP3   OH217378   2.868   2.086   5.767
 5806TIP3    H117379   2.870   2.014   5.704
 5806TIP3    H217380   2.833   2.160   5.718
 5807TIP3   OH217381   2.876   1.883   5.567
 5807TIP3    H117382   2.903   1.922   5.484
 5807TIP3    H217383   2.784   1.858   5.554
 5808TIP3   OH217384   2.887   2.418   5.440
 5808TIP3    H117385   2.975   2.452   5.425
 5808TIP3    H217386   2.829   2.477   5.392
 5809TIP3   OH217387   3.477   2.375   5.814
 5809TIP3    H117388   3.522   2.290   5.817
 5809TIP3    H217389   3.547   2.437   5.793
 5810TIP3   OH217390   3.507   2.634   5.557
 5810TIP3    H117391   3.453   2.693   5.505
 5810TIP3    H217392   3.596   2.650   5.526
 5811TIP3   OH217393   2.752   2.175   6.009
 5811TIP3    H117394   2.678   2.118   6.030
 5811TIP3    H217395   2.778   2.151   5.920
 5812TIP3   OH217396   2.999   1.649   5.661
 5812TIP3    H117397   2.957   1.730   5.630
 5812TIP3    H217398   2.931   1.582   5.649
 5813TIP3   OH217399   3.126   2.129   5.861
 5813TIP3    H117400   3.115   2.116   5.956
 5813TIP3    H217401   3.041   2.108   5.824
 5814TIP3   OH217402   3.372   2.084   5.733
 5814TIP3    H117403   3.293   2.084   5.787
 5814TIP3    H217404   3.442   2.058   5.793
 5815TIP3   OH217405   3.605   2.043   5.885
 5815TIP3    H117406   3.619   1.949   5.892
 5815TIP3    H217407   3.600   2.074   5.975
 5816TIP3   OH217408   2.585   1.949   6.069
 5816TIP3    H117409   2.590   1.862   6.031
 5816TIP3    H217410   2.628   1.942   6.154
 5817TIP3   OH217411   3.069   1.631   5.926
 5817TIP3    H117412   3.137   1.565   5.921
 5817TIP3    H217413   3.036   1.640   5.836
 5818TIP3   OH217414   3.164   1.855   6.053
 5818TIP3    H117415   3.133   1.780   6.003
 5818TIP3    H217416   3.090   1.915   6.055
 5819TIP3   OH217417   2.393   3.102   4.190
 5819TIP3    H117418   2.481   3.084   4.158
 5819TIP3    H217419   2.349   3.142   4.115
 5820TIP3   OH217420   1.874   2.469   4.373
 5820TIP3    H117421   1.967   2.485   4.363
 5820TIP3    H217422   1.859   2.385   4.329
 5821TIP3   OH217423   1.775   3.063   4.820
 5821TIP3    H117424   1.714   3.008   4.771
 5821TIP3    H217425   1.823   3.002   4.875
 5822TIP3   OH217426   1.921   2.898   4.990
 5822TIP3    H117427   1.911   2.830   5.057
 5822TIP3    H217428   1.972   2.967   5.033
 5823TIP3   OH217429   3.659   3.299   4.795
 5823TIP3    H117430   3.677   3.338   4.881
 5823TIP3    H217431   3.718   3.345   4.735
 5824TIP3   OH217432   3.673   3.339   5.076
 5824TIP3    H117433   3.631   3.253   5.072
 5824TIP3    H217434   3.745   3.327   5.137
 5825TIP3   OH217435   3.734   3.031   5.653
 5825TIP3    H117436   3.661   3.042   5.715
 5825TIP3    H217437   3.777   3.116   5.652
 5826TIP3   OH217438   3.549   2.547   4.261
 5826TIP3    H117439   3.606   2.617   4.230
 5826TIP3    H217440   3.596   2.509   4.335
 5827TIP3   OH217441   3.681   2.404   4.460
 5827TIP3    H117442   3.614   2.368   4.517
 5827TIP3    H217443   3.746   2.442   4.520
 5828TIP3   OH217444   3.732   2.807   4.895
 5828TIP3    H117445   3.783   2.740   4.849
 5828TIP3    H217446   3.731   2.882   4.835
 5829TIP3   OH217447   3.539   3.093   5.086
 5829TIP3    H117448   3.472   3.139   5.137
 5829TIP3    H217449   3.491   3.054   5.013
 5830TIP3   OH217450   3.596   2.323   4.108
 5830TIP3    H117451   3.525   2.322   4.043
 5830TIP3    H217452   3.578   2.400   4.161
 5831TIP3   OH217453   3.453   1.974   4.049
 5831TIP3    H117454   3.405   2.016   3.978
 5831TIP3    H217455   3.442   1.880   4.034
 5832TIP3   OH217456   3.479   2.269   4.600
 5832TIP3    H117457   3.485   2.174   4.588
 5832TIP3    H217458   3.461   2.280   4.693
 5833TIP3   OH217459   2.102   2.331   5.368
 5833TIP3    H117460   2.093   2.298   5.278
 5833TIP3    H217461   2.197   2.330   5.384
 5834TIP3   OH217462   3.763   2.687   5.461
 5834TIP3    H117463   3.830   2.621   5.442
 5834TIP3    H217464   3.776   2.755   5.395
 5835TIP3   OH217465   3.939   2.474   5.451
 5835TIP3    H117466   3.865   2.435   5.498
 5835TIP3    H217467   4.013   2.419   5.473
 5836TIP3   OH217468   3.411   1.702   4.018
 5836TIP3    H117469   3.474   1.679   4.086
 5836TIP3    H217470   3.328   1.665   4.048
 5837TIP3   OH217471   3.475   1.992   4.485
 5837TIP3    H117472   3.520   1.908   4.497
 5837TIP3    H217473   3.519   2.032   4.410
 5838TIP3   OH217474   3.630   2.152   5.006
 5838TIP3    H117475   3.710   2.172   4.957
 5838TIP3    H217476   3.643   2.193   5.091
 5839TIP3   OH217477   3.703   2.304   5.234
 5839TIP3    H117478   3.629   2.334   5.286
 5839TIP3    H217479   3.734   2.383   5.189
 5840TIP3   OH217480   2.322   2.016   6.020
 5840TIP3    H117481   2.416   2.012   6.034
 5840TIP3    H217482   2.289   1.931   6.051
 5841TIP3   OH217483   4.163   1.903   5.776
 5841TIP3    H117484   4.226   1.845   5.732
 5841TIP3    H217485   4.124   1.954   5.705
 5842TIP3   OH217486   3.588   1.740   4.534
 5842TIP3    H117487   3.635   1.727   4.617
 5842TIP3    H217488   3.523   1.670   4.532
 5843TIP3   OH217489   2.294   1.724   5.365
 5843TIP3    H117490   2.348   1.646   5.369
 5843TIP3    H217491   2.355   1.795   5.347
 5844TIP3   OH217492   2.077   1.988   5.424
 5844TIP3    H117493   2.128   1.978   5.344
 5844TIP3    H217494   2.100   2.075   5.456
 5845TIP3   OH217495   4.014   2.020   5.581
 5845TIP3    H117496   3.932   2.063   5.605
 5845TIP3    H217497   3.988   1.947   5.525
 5846TIP3   OH217498   3.639   1.657   4.174
 5846TIP3    H117499   3.687   1.595   4.120
 5846TIP3    H217500   3.695   1.734   4.177
 5847TIP3   OH217501   2.064   1.493   4.924
 5847TIP3    H117502   1.977   1.483   4.963
 5847TIP3    H217503   2.049   1.549   4.848
 5848TIP3   OH217504   3.226   3.220   4.458
 5848TIP3    H117505   3.275   3.201   4.379
 5848TIP3    H217506   3.273   3.294   4.498
 5849TIP3   OH217507   2.290   1.561   5.745
 5849TIP3    H117508   2.237   1.551   5.824
 5849TIP3    H217509   2.233   1.608   5.684
 5850TIP3   OH217510   2.318   3.008   5.816
 5850TIP3    H117511   2.225   2.990   5.808
 5850TIP3    H217512   2.336   3.003   5.910
 5851TIP3   OH217513   2.529   3.051   5.370
 5851TIP3    H117514   2.477   3.124   5.335
 5851TIP3    H217515   2.614   3.058   5.327
 5852TIP3   OH217516   2.933   3.285   5.508
 5852TIP3    H117517   2.972   3.281   5.595
 5852TIP3    H217518   2.993   3.339   5.457
 5853TIP3   OH217519   3.121   3.441   5.380
 5853TIP3    H117520   3.187   3.394   5.329
 5853TIP3    H217521   3.172   3.501   5.435
 5854TIP3   OH217522   3.922   1.780   5.466
 5854TIP3    H117523   3.837   1.780   5.422
 5854TIP3    H217524   3.953   1.690   5.459
 5855TIP3   OH217525   2.190   3.288   5.410
 5855TIP3    H117526   2.110   3.319   5.368
 5855TIP3    H217527   2.209   3.354   5.477
 5856TIP3   OH217528   2.422   3.277   5.258
 5856TIP3    H117529   2.339   3.285   5.304
 5856TIP3    H217530   2.403   3.306   5.169
 5857TIP3   OH217531   2.843   3.301   5.065
 5857TIP3    H117532   2.769   3.312   5.005
 5857TIP3    H217533   2.856   3.388   5.104
 5858TIP3   OH217534   3.105   3.232   5.111
 5858TIP3    H117535   3.013   3.253   5.094
 5858TIP3    H217536   3.155   3.299   5.064
 5859TIP3   OH217537   3.299   3.407   5.007
 5859TIP3    H117538   3.298   3.496   4.972
 5859TIP3    H217539   3.329   3.353   4.934
 5860TIP3   OH217540   2.093   3.076   5.146
 5860TIP3    H117541   2.124   3.047   5.231
 5860TIP3    H217542   2.161   3.048   5.084
 5861TIP3   OH217543   2.291   2.961   4.999
 5861TIP3    H117544   2.305   2.877   5.042
 5861TIP3    H217545   2.378   3.002   4.998
 5862TIP3   OH217546   2.558   3.037   5.023
 5862TIP3    H117547   2.582   2.945   5.014
 5862TIP3    H217548   2.617   3.070   5.091
 5863TIP3   OH217549   3.129   1.704   5.107
 5863TIP3    H117550   3.089   1.632   5.156
 5863TIP3    H217551   3.197   1.662   5.055
 5864TIP3   OH217552   3.631   1.593   4.981
 5864TIP3    H117553   3.670   1.648   4.913
 5864TIP3    H217554   3.541   1.624   4.989
 5865TIP3   OH217555   3.747   1.691   4.754
 5865TIP3    H117556   3.818   1.631   4.731
 5865TIP3    H217557   3.785   1.778   4.742
 5866TIP3   OH217558   2.373   1.402   5.102
 5866TIP3    H117559   2.283   1.369   5.109
 5866TIP3    H217560   2.427   1.323   5.095
 5867TIP3   OH217561   2.196   1.300   4.759
 5867TIP3    H117562   2.217   1.349   4.679
 5867TIP3    H217563   2.156   1.364   4.817
 5868TIP3   OH217564   2.850   1.437   4.996
 5868TIP3    H117565   2.895   1.487   4.929
 5868TIP3    H217566   2.887   1.468   5.078
 5869TIP3   OH217567   3.342   1.590   4.974
 5869TIP3    H117568   3.343   1.560   4.883
 5869TIP3    H217569   3.347   1.510   5.026
 5870TIP3   OH217570   3.400   1.531   4.546
 5870TIP3    H117571   3.320   1.578   4.567
 5870TIP3    H217572   3.387   1.443   4.582
 5871TIP3   OH217573   1.861   2.873   4.519
 5871TIP3    H117574   1.779   2.839   4.483
 5871TIP3    H217575   1.865   2.964   4.489
 5872TIP3   OH217576   2.293   1.436   4.517
 5872TIP3    H117577   2.337   1.376   4.457
 5872TIP3    H217578   2.362   1.492   4.551
 5873TIP3   OH217579   2.785   1.628   4.615
 5873TIP3    H117580   2.844   1.577   4.672
 5873TIP3    H217581   2.800   1.719   4.641
 5874TIP3   OH217582   2.647   3.032   4.114
 5874TIP3    H117583   2.735   3.053   4.083
 5874TIP3    H217584   2.618   2.961   4.057
 5875TIP3   OH217585   3.365   3.160   4.227
 5875TIP3    H117586   3.362   3.065   4.214
 5875TIP3    H217587   3.328   3.197   4.147
 5876TIP3   OH217588   2.596   1.678   5.987
 5876TIP3    H117589   2.560   1.611   6.046
 5876TIP3    H217590   2.688   1.685   6.011
 5877TIP3   OH217591   2.845   1.685   6.108
 5877TIP3    H117592   2.924   1.663   6.059
 5877TIP3    H217593   2.836   1.615   6.173
 5878TIP3   OH217594   1.965   2.871   4.163
 5878TIP3    H117595   1.968   2.888   4.257
 5878TIP3    H217596   2.049   2.828   4.144
 5879TIP3   OH217597   3.669   1.773   5.895
 5879TIP3    H117598   3.686   1.744   5.985
 5879TIP3    H217599   3.754   1.767   5.852
 5880TIP3   OH217600   3.589   3.314   5.398
 5880TIP3    H117601   3.514   3.283   5.346
 5880TIP3    H217602   3.578   3.408   5.403
 5881TIP3   OH217603   4.865   2.689   4.145
 5881TIP3    H117604   4.835   2.776   4.119
 5881TIP3    H217605   4.794   2.630   4.119
 5882TIP3   OH217606   4.864   2.684   4.563
 5882TIP3    H117607   4.916   2.664   4.640
 5882TIP3    H217608   4.820   2.601   4.541
 5883TIP3   OH217609   4.163   2.555   4.908
 5883TIP3    H117610   4.199   2.501   4.979
 5883TIP3    H217611   4.239   2.580   4.856
 5884TIP3   OH217612   5.127   2.991   4.238
 5884TIP3    H117613   5.116   2.925   4.306
 5884TIP3    H217614   5.148   3.071   4.285
 5885TIP3   OH217615   4.151   2.979   4.603
 5885TIP3    H117616   4.134   2.885   4.610
 5885TIP3    H217617   4.246   2.985   4.593
 5886TIP3   OH217618   3.837   2.178   4.388
 5886TIP3    H117619   3.800   2.263   4.412
 5886TIP3    H217620   3.766   2.131   4.346
 5887TIP3   OH217621   3.912   2.486   4.599
 5887TIP3    H117622   3.963   2.409   4.625
 5887TIP3    H217623   3.978   2.549   4.568
 5888TIP3   OH217624   4.773   3.439   4.220
 5888TIP3    H117625   4.808   3.367   4.168
 5888TIP3    H217626   4.754   3.400   4.305
 5889TIP3   OH217627   4.668   2.907   4.571
 5889TIP3    H117628   4.711   2.827   4.541
 5889TIP3    H217629   4.740   2.963   4.600
 5890TIP3   OH217630   5.697   2.229   4.584
 5890TIP3    H117631   5.716   2.314   4.625
 5890TIP3    H217632   5.718   2.242   4.492
 5891TIP3   OH217633   5.081   2.391   4.605
 5891TIP3    H117634   5.117   2.306   4.630
 5891TIP3    H217635   5.041   2.377   4.520
 5892TIP3   OH217636   4.421   2.059   4.570
 5892TIP3    H117637   4.406   2.133   4.510
 5892TIP3    H217638   4.370   1.987   4.533
 5893TIP3   OH217639   5.124   2.167   4.191
 5893TIP3    H117640   5.186   2.155   4.263
 5893TIP3    H217641   5.178   2.199   4.118
 5894TIP3   OH217642   4.053   2.266   4.692
 5894TIP3    H117643   4.136   2.249   4.737
 5894TIP3    H217644   4.060   2.216   4.610
 5895TIP3   OH217645   4.479   2.467   4.509
 5895TIP3    H117646   4.574   2.452   4.515
 5895TIP3    H217647   4.444   2.386   4.471
 5896TIP3   OH217648   5.760   2.448   4.753
 5896TIP3    H117649   5.672   2.486   4.745
 5896TIP3    H217650   5.795   2.486   4.833
 5897TIP3   OH217651   4.411   2.057   5.019
 5897TIP3    H117652   4.361   2.092   4.945
 5897TIP3    H217653   4.356   2.075   5.096
 5898TIP3   OH217654   4.760   2.905   4.008
 5898TIP3    H117655   4.720   2.880   3.925
 5898TIP3    H217656   4.710   2.980   4.037
 5899TIP3   OH217657   4.509   2.834   4.786
 5899TIP3    H117658   4.454   2.905   4.820
 5899TIP3    H217659   4.556   2.873   4.713
 5900TIP3   OH217660   5.288   2.181   4.407
 5900TIP3    H117661   5.259   2.138   4.488
 5900TIP3    H217662   5.344   2.252   4.437
 5901TIP3   OH217663   4.296   2.166   4.792
 5901TIP3    H117664   4.352   2.240   4.814
 5901TIP3    H217665   4.341   2.123   4.719
 5902TIP3   OH217666   4.350   3.036   4.890
 5902TIP3    H117667   4.334   3.125   4.858
 5902TIP3    H217668   4.272   3.015   4.942
 5903TIP3   OH217669   3.723   2.732   4.141
 5903TIP3    H117670   3.687   2.750   4.054
 5903TIP3    H217671   3.744   2.819   4.176
 5904TIP3   OH217672   5.166   3.236   4.379
 5904TIP3    H117673   5.081   3.232   4.423
 5904TIP3    H217674   5.166   3.320   4.334
 5905TIP3   OH217675   5.489   2.123   4.751
 5905TIP3    H117676   5.402   2.142   4.716
 5905TIP3    H217677   5.549   2.151   4.681
 5906TIP3   OH217678   4.771   1.775   4.752
 5906TIP3    H117679   4.753   1.689   4.715
 5906TIP3    H217680   4.688   1.803   4.791
 5907TIP3   OH217681   4.876   3.268   4.024
 5907TIP3    H117682   4.926   3.187   4.017
 5907TIP3    H217683   4.938   3.337   4.002
 5908TIP3   OH217684   5.023   3.042   3.986
 5908TIP3    H117685   4.964   2.969   3.971
 5908TIP3    H217686   5.068   3.020   4.067
 5909TIP3   OH217687   5.401   3.130   4.723
 5909TIP3    H117688   5.385   3.054   4.667
 5909TIP3    H217689   5.388   3.206   4.666
 5910TIP3   OH217690   4.691   2.530   3.994
 5910TIP3    H117691   4.610   2.577   3.975
 5910TIP3    H217692   4.739   2.530   3.911
 5911TIP3   OH217693   4.657   2.338   3.688
 5911TIP3    H117694   4.723   2.387   3.738
 5911TIP3    H217695   4.707   2.270   3.643
 5912TIP3   OH217696   5.588   2.789   4.587
 5912TIP3    H117697   5.503   2.834   4.587
 5912TIP3    H217698   5.623   2.804   4.500
 5913TIP3   OH217699   5.049   2.620   3.955
 5913TIP3    H117700   4.994   2.647   4.029
 5913TIP3    H217701   5.132   2.594   3.995
 5914TIP3   OH217702   5.279   2.651   4.893
 5914TIP3    H117703   5.275   2.734   4.940
 5914TIP3    H217704   5.197   2.647   4.844
 5915TIP3   OH217705   4.276   2.601   4.365
 5915TIP3    H117706   4.240   2.542   4.298
 5915TIP3    H217707   4.350   2.552   4.402
 5916TIP3   OH217708   4.413   3.022   4.503
 5916TIP3    H117709   4.388   3.005   4.412
 5916TIP3    H217710   4.500   2.984   4.512
 5917TIP3   OH217711   4.380   2.597   4.734
 5917TIP3    H117712   4.419   2.561   4.654
 5917TIP3    H217713   4.429   2.678   4.750
 5918TIP3   OH217714   4.937   3.240   4.525
 5918TIP3    H117715   4.926   3.312   4.587
 5918TIP3    H217716   4.921   3.161   4.577
 5919TIP3   OH217717   4.549   3.135   5.055
 5919TIP3    H117718   4.490   3.194   5.102
 5919TIP3    H217719   4.491   3.084   4.998
 5920TIP3   OH217720   4.879   2.483   3.786
 5920TIP3    H117721   4.939   2.541   3.834
 5920TIP3    H217722   4.907   2.490   3.695
 5921TIP3   OH217723   4.304   2.680   5.199
 5921TIP3    H117724   4.309   2.774   5.217
 5921TIP3    H217725   4.210   2.662   5.190
 5922TIP3   OH217726   4.627   3.147   4.049
 5922TIP3    H117727   4.708   3.197   4.047
 5922TIP3    H217728   4.567   3.196   3.992
 5923TIP3   OH217729   4.341   3.295   5.141
 5923TIP3    H117730   4.314   3.306   5.050
 5923TIP3    H217731   4.259   3.277   5.188
 5924TIP3   OH217732   5.389   1.709   3.841
 5924TIP3    H117733   5.312   1.726   3.895
 5924TIP3    H217734   5.400   1.788   3.788
 5925TIP3   OH217735   4.149   2.449   4.160
 5925TIP3    H117736   4.074   2.497   4.127
 5925TIP3    H217737   4.115   2.361   4.177
 5926TIP3   OH217738   5.205   3.108   3.386
 5926TIP3    H117739   5.199   3.200   3.361
 5926TIP3    H217740   5.295   3.084   3.365
 5927TIP3   OH217741   3.931   2.848   5.091
 5927TIP3    H117742   3.862   2.832   5.026
 5927TIP3    H217743   3.965   2.761   5.110
 5928TIP3   OH217744   3.772   3.041   4.740
 5928TIP3    H117745   3.865   3.063   4.746
 5928TIP3    H217746   3.727   3.119   4.771
 5929TIP3   OH217747   5.632   3.493   4.794
 5929TIP3    H117748   5.637   3.399   4.808
 5929TIP3    H217749   5.555   3.521   4.842
 5930TIP3   OH217750   4.738   3.275   4.914
 5930TIP3    H117751   4.731   3.366   4.943
 5930TIP3    H217752   4.670   3.229   4.963
 5931TIP3   OH217753   4.501   3.373   3.847
 5931TIP3    H117754   4.477   3.343   3.759
 5931TIP3    H217755   4.440   3.444   3.865
 5932TIP3   OH217756   3.948   3.224   4.246
 5932TIP3    H117757   3.985   3.223   4.334
 5932TIP3    H217758   3.890   3.149   4.243
 5933TIP3   OH217759   4.718   3.310   3.495
 5933TIP3    H117760   4.768   3.238   3.456
 5933TIP3    H217761   4.753   3.318   3.583
 5934TIP3   OH217762   4.765   3.338   3.768
 5934TIP3    H117763   4.677   3.349   3.805
 5934TIP3    H217764   4.817   3.302   3.839
 5935TIP3   OH217765   5.521   2.609   5.059
 5935TIP3    H117766   5.440   2.620   5.009
 5935TIP3    H217767   5.540   2.516   5.054
 5936TIP3   OH217768   4.133   3.033   5.060
 5936TIP3    H117769   4.180   3.023   5.143
 5936TIP3    H217770   4.060   2.971   5.067
 5937TIP3   OH217771   4.518   1.843   4.873
 5937TIP3    H117772   4.436   1.810   4.838
 5937TIP3    H217773   4.495   1.923   4.920
 5938TIP3   OH217774   5.055   1.969   5.070
 5938TIP3    H117775   5.122   1.940   5.133
 5938TIP3    H217776   4.972   1.949   5.113
 5939TIP3   OH217777   5.284   2.386   4.985
 5939TIP3    H117778   5.242   2.385   5.071
 5939TIP3    H217779   5.267   2.474   4.951
 5940TIP3   OH217780   4.961   2.475   3.525
 5940TIP3    H117781   4.917   2.472   3.440
 5940TIP3    H217782   5.041   2.524   3.508
 5941TIP3   OH217783   4.667   1.896   3.839
 5941TIP3    H117784   4.633   1.886   3.928
 5941TIP3    H217785   4.637   1.818   3.793
 5942TIP3   OH217786   4.454   2.374   4.883
 5942TIP3    H117787   4.408   2.383   4.966
 5942TIP3    H217788   4.435   2.455   4.835
 5943TIP3   OH217789   4.339   2.255   4.396
 5943TIP3    H117790   4.250   2.231   4.418
 5943TIP3    H217791   4.353   2.219   4.308
 5944TIP3   OH217792   4.812   2.321   4.129
 5944TIP3    H117793   4.764   2.394   4.089
 5944TIP3    H217794   4.873   2.293   4.061
 5945TIP3   OH217795   5.002   2.599   5.203
 5945TIP3    H117796   4.977   2.530   5.265
 5945TIP3    H217797   5.094   2.615   5.222
 5946TIP3   OH217798   4.982   2.347   4.353
 5946TIP3    H117799   4.912   2.368   4.291
 5946TIP3    H217800   5.030   2.274   4.312
 5947TIP3   OH217801   4.289   2.392   5.102
 5947TIP3    H117802   4.301   2.457   5.171
 5947TIP3    H217803   4.271   2.310   5.149
 5948TIP3   OH217804   4.330   1.851   3.813
 5948TIP3    H117805   4.324   1.857   3.909
 5948TIP3    H217806   4.256   1.902   3.781
 5949TIP3   OH217807   3.884   1.911   4.684
 5949TIP3    H117808   3.950   1.948   4.742
 5949TIP3    H217809   3.927   1.906   4.598
 5950TIP3   OH217810   3.797   1.888   4.187
 5950TIP3    H117811   3.841   1.924   4.110
 5950TIP3    H217812   3.735   1.956   4.213
 5951TIP3   OH217813   5.025   2.594   4.776
 5951TIP3    H117814   5.051   2.526   4.714
 5951TIP3    H217815   4.980   2.547   4.846
 5952TIP3   OH217816   4.690   2.067   4.470
 5952TIP3    H117817   4.609   2.058   4.520
 5952TIP3    H217818   4.760   2.057   4.534
 5953TIP3   OH217819   4.100   2.129   4.458
 5953TIP3    H117820   4.012   2.133   4.423
 5953TIP3    H217821   4.131   2.041   4.437
 5954TIP3   OH217822   4.364   2.124   4.156
 5954TIP3    H117823   4.459   2.124   4.141
 5954TIP3    H217824   4.327   2.143   4.070
 5955TIP3   OH217825   5.158   2.131   4.669
 5955TIP3    H117826   5.128   2.152   4.757
 5955TIP3    H217827   5.095   2.067   4.636
 5956TIP3   OH217828   4.239   2.150   3.912
 5956TIP3    H117829   4.174   2.102   3.860
 5956TIP3    H217830   4.291   2.199   3.848
 5957TIP3   OH217831   5.338   3.839   4.880
 5957TIP3    H117832   5.329   3.856   4.786
 5957TIP3    H217833   5.412   3.892   4.907
 5958TIP3   OH217834   4.290   2.943   5.297
 5958TIP3    H117835   4.370   2.968   5.344
 5958TIP3    H217836   4.220   2.955   5.362
 5959TIP3   OH217837   4.751   2.412   4.560
 5959TIP3    H117838   4.814   2.360   4.509
 5959TIP3    H217839   4.749   2.369   4.646
 5960TIP3   OH217840   4.245   1.884   4.436
 5960TIP3    H117841   4.213   1.810   4.488
 5960TIP3    H217842   4.277   1.845   4.355
 5961TIP3   OH217843   4.720   2.314   4.826
 5961TIP3    H117844   4.632   2.346   4.849
 5961TIP3    H217845   4.779   2.368   4.879
 5962TIP3   OH217846   4.456   2.673   3.938
 5962TIP3    H117847   4.382   2.616   3.916
 5962TIP3    H217848   4.433   2.711   4.023
 5963TIP3   OH217849   5.350   2.924   4.546
 5963TIP3    H117850   5.384   2.974   4.472
 5963TIP3    H217851   5.270   2.884   4.514
 5964TIP3   OH217852   4.914   2.005   3.809
 5964TIP3    H117853   4.823   1.980   3.821
 5964TIP3    H217854   4.919   2.096   3.838
 5965TIP3   OH217855   4.864   3.010   4.948
 5965TIP3    H117856   4.909   3.002   5.031
 5965TIP3    H217857   4.820   3.095   4.953
 5966TIP3   OH217858   4.981   2.254   3.912
 5966TIP3    H117859   5.076   2.259   3.922
 5966TIP3    H217860   4.958   2.333   3.863
 5967TIP3   OH217861   4.148   2.690   4.592
 5967TIP3    H117862   4.185   2.671   4.506
 5967TIP3    H217863   4.214   2.659   4.654
 5968TIP3   OH217864   4.610   2.831   3.779
 5968TIP3    H117865   4.564   2.915   3.777
 5968TIP3    H217866   4.554   2.774   3.832
 5969TIP3   OH217867   4.031   2.614   5.221
 5969TIP3    H117868   4.034   2.591   5.314
 5969TIP3    H217869   3.956   2.567   5.187
 5970TIP3   OH217870   4.768   2.751   5.244
 5970TIP3    H117871   4.699   2.692   5.213
 5970TIP3    H217872   4.849   2.711   5.213
 5971TIP3   OH217873   5.008   3.297   4.833
 5971TIP3    H117874   4.914   3.281   4.844
 5971TIP3    H217875   5.036   3.333   4.917
 5972TIP3   OH217876   5.404   2.339   3.730
 5972TIP3    H117877   5.349   2.292   3.667
 5972TIP3    H217878   5.407   2.429   3.697
 5973TIP3   OH217879   5.646   3.211   4.815
 5973TIP3    H117880   5.552   3.197   4.808
 5973TIP3    H217881   5.681   3.182   4.730
 5974TIP3   OH217882   5.145   3.170   3.659
 5974TIP3    H117883   5.114   3.100   3.717
 5974TIP3    H217884   5.155   3.128   3.574
 5975TIP3   OH217885   5.118   2.790   4.447
 5975TIP3    H117886   5.027   2.767   4.469
 5975TIP3    H217887   5.154   2.709   4.409
 5976TIP3   OH217888   4.263   3.018   4.258
 5976TIP3    H117889   4.257   3.091   4.197
 5976TIP3    H217890   4.175   3.008   4.293
 5977TIP3   OH217891   3.832   2.315   3.964
 5977TIP3    H117892   3.874   2.398   3.983
 5977TIP3    H217893   3.752   2.316   4.015
 5978TIP3   OH217894   4.367   2.778   4.170
 5978TIP3    H117895   4.343   2.867   4.196
 5978TIP3    H217896   4.338   2.723   4.243
 5979TIP3   OH217897   4.549   3.352   4.706
 5979TIP3    H117898   4.585   3.426   4.657
 5979TIP3    H217899   4.623   3.317   4.756
 5980TIP3   OH217900   4.177   3.241   4.102
 5980TIP3    H117901   4.088   3.235   4.138
 5980TIP3    H217902   4.207   3.328   4.128
 5981TIP3   OH217903   4.908   3.007   4.676
 5981TIP3    H117904   4.896   3.003   4.771
 5981TIP3    H217905   4.981   2.947   4.658
 5982TIP3   OH217906   4.900   2.892   3.550
 5982TIP3    H117907   4.948   2.866   3.628
 5982TIP3    H217908   4.814   2.851   3.559
 5983TIP3   OH217909   5.176   3.508   4.716
 5983TIP3    H117910   5.101   3.452   4.734
 5983TIP3    H217911   5.144   3.569   4.650
 5984TIP3   OH217912   5.206   3.388   3.334
 5984TIP3    H117913   5.274   3.447   3.302
 5984TIP3    H217914   5.125   3.439   3.331
 5985TIP3   OH217915   4.239   2.137   5.225
 5985TIP3    H117916   4.144   2.143   5.231
 5985TIP3    H217917   4.264   2.084   5.301
 5986TIP3   OH217918   5.067   2.810   3.752
 5986TIP3    H117919   5.054   2.751   3.827
 5986TIP3    H217920   5.162   2.819   3.745
 5987TIP3   OH217921   3.981   3.240   4.873
 5987TIP3    H117922   4.033   3.181   4.927
 5987TIP3    H217923   3.995   3.327   4.911
 5988TIP3   OH217924   4.252   2.854   3.560
 5988TIP3    H117925   4.261   2.762   3.534
 5988TIP3    H217926   4.233   2.849   3.654
 5989TIP3   OH217927   4.195   2.867   3.832
 5989TIP3    H117928   4.263   2.838   3.893
 5989TIP3    H217929   4.196   2.962   3.839
 5990TIP3   OH217930   3.926   2.566   4.044
 5990TIP3    H117931   3.859   2.612   4.096
 5990TIP3    H217932   3.944   2.625   3.971
 5991TIP3   OH217933   5.081   2.204   4.928
 5991TIP3    H117934   5.164   2.242   4.956
 5991TIP3    H217935   5.073   2.124   4.979
 5992TIP3   OH217936   4.986   1.952   4.080
 5992TIP3    H117937   4.964   1.970   3.988
 5992TIP3    H217938   5.025   2.034   4.111
 5993TIP3   OH217939   4.468   3.061   3.774
 5993TIP3    H117940   4.382   3.084   3.809
 5993TIP3    H217941   4.486   3.129   3.708
 5994TIP3   OH217942   4.650   2.107   4.200
 5994TIP3    H117943   4.706   2.180   4.174
 5994TIP3    H217944   4.660   2.103   4.296
 5995TIP3   OH217945   4.924   2.435   4.976
 5995TIP3    H117946   4.952   2.477   5.058
 5995TIP3    H217947   4.974   2.354   4.972
 5996TIP3   OH217948   4.914   1.906   4.343
 5996TIP3    H117949   4.826   1.944   4.349
 5996TIP3    H217950   4.935   1.909   4.250
 5997TIP3   OH217951   4.215   3.138   3.848
 5997TIP3    H117952   4.189   3.205   3.784
 5997TIP3    H217953   4.197   3.179   3.933
 5998TIP3   OH217954   4.306   1.853   4.093
 5998TIP3    H117955   4.297   1.944   4.121
 5998TIP3    H217956   4.400   1.835   4.098
 5999TIP3   OH217957   5.550   2.337   4.972
 5999TIP3    H117958   5.455   2.342   4.981
 5999TIP3    H217959   5.564   2.291   4.889
 6000TIP3   OH217960   5.210   2.533   4.357
 6000TIP3    H117961   5.132   2.478   4.366
 6000TIP3    H217962   5.276   2.490   4.410
 6001TIP3   OH217963   3.943   2.745   3.828
 6001TIP3    H117964   4.013   2.809   3.837
 6001TIP3    H217965   3.977   2.682   3.764
 6002TIP3   OH217966   3.857   2.036   3.964
 6002TIP3    H117967   3.872   2.131   3.973
 6002TIP3    H217968   3.797   2.028   3.890
 6003TIP3   OH217969   5.191   3.506   4.305
 6003TIP3    H117970   5.149   3.556   4.235
 6003TIP3    H217971   5.285   3.516   4.287
 6004TIP3   OH217972   4.253   1.759   4.831
 6004TIP3    H117973   4.224   1.731   4.744
 6004TIP3    H217974   4.246   1.681   4.885
 6005TIP3   OH217975   3.766   3.004   4.218
 6005TIP3    H117976   3.718   3.044   4.291
 6005TIP3    H217977   3.730   3.045   4.140
 6006TIP3   OH217978   3.973   3.539   5.284
 6006TIP3    H117979   4.055   3.541   5.333
 6006TIP3    H217980   3.949   3.447   5.280
 6007TIP3   OH217981   4.441   3.461   5.338
 6007TIP3    H117982   4.535   3.441   5.344
 6007TIP3    H217983   4.409   3.407   5.266
 6008TIP3   OH217984   4.407   3.051   3.450
 6008TIP3    H117985   4.360   2.980   3.493
 6008TIP3    H217986   4.482   3.008   3.408
 6009TIP3   OH217987   5.070   3.396   5.080
 6009TIP3    H117988   5.079   3.326   5.146
 6009TIP3    H217989   5.142   3.456   5.099
 6010TIP3   OH217990   4.846   3.099   3.374
 6010TIP3    H117991   4.883   3.035   3.435
 6010TIP3    H217992   4.909   3.102   3.302
 6011TIP3   OH217993   4.082   2.941   5.484
 6011TIP3    H117994   4.098   2.848   5.494
 6011TIP3    H217995   3.996   2.947   5.443
 6012TIP3   OH217996   4.074   2.555   3.682
 6012TIP3    H117997   4.126   2.533   3.760
 6012TIP3    H217998   4.138   2.567   3.612
 6013TIP3   OH217999   4.701   3.028   5.260
 6013TIP3    H118000   4.656   3.050   5.178
 6013TIP3    H218001   4.735   2.940   5.246
 6014TIP3   OH218002   4.638   2.776   3.512
 6014TIP3    H118003   4.617   2.788   3.605
 6014TIP3    H218004   4.620   2.683   3.496
 6015TIP3   OH218005   5.179   3.069   4.877
 6015TIP3    H118006   5.256   3.097   4.828
 6015TIP3    H218007   5.112   3.134   4.857
 6016TIP3   OH218008   4.198   2.683   5.489
 6016TIP3    H118009   4.272   2.675   5.428
 6016TIP3    H218010   4.238   2.708   5.572
 6017TIP3   OH218011   4.249   2.494   3.893
 6017TIP3    H118012   4.228   2.463   3.981
 6017TIP3    H218013   4.295   2.421   3.852
 6018TIP3   OH218014   4.559   2.571   5.149
 6018TIP3    H118015   4.474   2.614   5.158
 6018TIP3    H218016   4.592   2.600   5.064
 6019TIP3   OH218017   4.384   2.306   3.739
 6019TIP3    H118018   4.354   2.309   3.648
 6019TIP3    H218019   4.479   2.312   3.733
 6020TIP3   OH218020   5.060   2.949   5.241
 6020TIP3    H118021   5.126   2.909   5.184
 6020TIP3    H218022   5.056   2.892   5.317
 6021TIP3   OH218023   5.182   2.604   3.417
 6021TIP3    H118024   5.167   2.563   3.331
 6021TIP3    H218025   5.161   2.696   3.403
 6022TIP3   OH218026   4.667   2.341   5.252
 6022TIP3    H118027   4.668   2.270   5.188
 6022TIP3    H218028   4.631   2.416   5.204
 6023TIP3   OH218029   4.672   2.140   5.053
 6023TIP3    H118030   4.700   2.176   4.968
 6023TIP3    H218031   4.581   2.114   5.039
 6024TIP3   OH218032   4.679   2.671   4.927
 6024TIP3    H118033   4.768   2.697   4.906
 6024TIP3    H218034   4.624   2.733   4.879
 6025TIP3   OH218035   5.271   2.639   5.298
 6025TIP3    H118036   5.316   2.554   5.292
 6025TIP3    H218037   5.340   2.703   5.282
 6026TIP3   OH218038   5.303   2.892   5.042
 6026TIP3    H118039   5.249   2.954   4.992
 6026TIP3    H218040   5.392   2.908   5.010
 6027TIP3   OH218041   4.552   2.426   5.496
 6027TIP3    H118042   4.480   2.365   5.514
 6027TIP3    H218043   4.579   2.405   5.407
 6028TIP3   OH218044   4.794   1.909   5.153
 6028TIP3    H118045   4.753   1.989   5.118
 6028TIP3    H218046   4.729   1.840   5.137
 6029TIP3   OH218047   4.923   2.382   5.354
 6029TIP3    H118048   4.906   2.371   5.448
 6029TIP3    H218049   4.839   2.362   5.312
 6030TIP3   OH218050   5.172   2.349   5.227
 6030TIP3    H118051   5.092   2.344   5.280
 6030TIP3    H218052   5.241   2.319   5.286
 6031TIP3   OH218053   5.406   2.294   5.375
 6031TIP3    H118054   5.419   2.199   5.386
 6031TIP3    H218055   5.401   2.327   5.465
 6032TIP3   OH218056   4.378   2.210   5.559
 6032TIP3    H118057   4.385   2.122   5.523
 6032TIP3    H218058   4.417   2.204   5.646
 6033TIP3   OH218059   4.865   1.887   5.417
 6033TIP3    H118060   4.931   1.819   5.408
 6033TIP3    H218061   4.832   1.899   5.327
 6034TIP3   OH218062   4.957   2.101   5.562
 6034TIP3    H118063   4.927   2.031   5.505
 6034TIP3    H218064   4.886   2.165   5.561
 6035TIP3   OH218065   4.201   3.332   3.651
 6035TIP3    H118066   4.291   3.315   3.623
 6035TIP3    H218067   4.164   3.388   3.582
 6036TIP3   OH218068   3.670   2.732   3.850
 6036TIP3    H118069   3.764   2.747   3.845
 6036TIP3    H218070   3.657   2.645   3.811
 6037TIP3   OH218071   3.583   3.318   4.280
 6037TIP3    H118072   3.504   3.271   4.256
 6037TIP3    H218073   3.622   3.265   4.350
 6038TIP3   OH218074   3.714   3.159   4.469
 6038TIP3    H118075   3.701   3.091   4.535
 6038TIP3    H218076   3.765   3.226   4.514
 6039TIP3   OH218077   5.462   3.557   4.284
 6039TIP3    H118078   5.485   3.585   4.373
 6039TIP3    H218079   5.514   3.614   4.227
 6040TIP3   OH218080   5.488   3.584   4.565
 6040TIP3    H118081   5.441   3.501   4.556
 6040TIP3    H218082   5.554   3.566   4.632
 6041TIP3   OH218083   5.529   3.295   5.140
 6041TIP3    H118084   5.456   3.306   5.201
 6041TIP3    H218085   5.573   3.380   5.142
 6042TIP3   OH218086   5.348   2.805   3.746
 6042TIP3    H118087   5.407   2.876   3.717
 6042TIP3    H218088   5.392   2.767   3.822
 6043TIP3   OH218089   5.475   2.662   3.948
 6043TIP3    H118090   5.407   2.623   4.004
 6043TIP3    H218091   5.539   2.698   4.010
 6044TIP3   OH218092   5.526   3.064   4.380
 6044TIP3    H118093   5.579   2.996   4.338
 6044TIP3    H218094   5.526   3.136   4.316
 6045TIP3   OH218095   5.343   3.347   4.566
 6045TIP3    H118096   5.278   3.395   4.617
 6045TIP3    H218097   5.293   3.306   4.495
 6046TIP3   OH218098   5.390   2.580   3.594
 6046TIP3    H118099   5.319   2.579   3.530
 6046TIP3    H218100   5.374   2.657   3.648
 6047TIP3   OH218101   5.255   2.228   3.529
 6047TIP3    H118102   5.202   2.266   3.459
 6047TIP3    H218103   5.243   2.133   3.518
 6048TIP3   OH218104   5.275   2.522   4.087
 6048TIP3    H118105   5.282   2.427   4.074
 6048TIP3    H218106   5.257   2.532   4.180
 6049TIP3   OH218107   3.898   2.582   4.855
 6049TIP3    H118108   3.889   2.553   4.765
 6049TIP3    H218109   3.993   2.584   4.870
 6050TIP3   OH218110   5.560   2.944   4.948
 6050TIP3    H118111   5.626   2.876   4.932
 6050TIP3    H218112   5.576   3.010   4.881
 6051TIP3   OH218113   5.735   2.732   4.940
 6051TIP3    H118114   5.661   2.690   4.984
 6051TIP3    H218115   5.810   2.676   4.962
 6052TIP3   OH218116   5.209   1.956   3.500
 6052TIP3    H118117   5.270   1.932   3.570
 6052TIP3    H218118   5.125   1.919   3.527
 6053TIP3   OH218119   5.273   2.246   3.966
 6053TIP3    H118120   5.316   2.161   3.980
 6053TIP3    H218121   5.318   2.284   3.891
 6054TIP3   OH218122   5.426   2.409   4.494
 6054TIP3    H118123   5.507   2.427   4.446
 6054TIP3    H218124   5.440   2.448   4.580
 6055TIP3   OH218125   5.502   2.561   4.721
 6055TIP3    H118126   5.426   2.591   4.773
 6055TIP3    H218127   5.532   2.640   4.677
 6056TIP3   OH218128   4.114   2.267   5.500
 6056TIP3    H118129   4.208   2.265   5.516
 6056TIP3    H218130   4.082   2.186   5.540
 6057TIP3   OH218131   5.956   2.159   5.260
 6057TIP3    H118132   6.020   2.102   5.217
 6057TIP3    H218133   5.918   2.210   5.188
 6058TIP3   OH218134   5.383   1.993   4.020
 6058TIP3    H118135   5.428   1.980   4.104
 6058TIP3    H218136   5.320   1.921   4.015
 6059TIP3   OH218137   4.087   1.981   4.860
 6059TIP3    H118138   4.142   1.903   4.861
 6059TIP3    H218139   4.148   2.053   4.842
 6060TIP3   OH218140   3.872   2.248   4.909
 6060TIP3    H118141   3.924   2.238   4.830
 6060TIP3    H218142   3.890   2.338   4.938
 6061TIP3   OH218143   5.809   2.276   5.062
 6061TIP3    H118144   5.725   2.318   5.081
 6061TIP3    H218145   5.786   2.201   5.007
 6062TIP3   OH218146   5.435   1.914   3.661
 6062TIP3    H118147   5.482   1.851   3.606
 6062TIP3    H218148   5.493   1.990   3.664
 6063TIP3   OH218149   3.856   1.733   4.405
 6063TIP3    H118150   3.771   1.733   4.449
 6063TIP3    H218151   3.846   1.796   4.334
 6064TIP3   OH218152   5.047   3.457   3.940
 6064TIP3    H118153   5.081   3.459   3.851
 6064TIP3    H218154   5.083   3.535   3.982
 6065TIP3   OH218155   4.084   1.810   5.234
 6065TIP3    H118156   4.035   1.809   5.316
 6065TIP3    H218157   4.029   1.858   5.173
 6066TIP3   OH218158   4.119   3.255   5.307
 6066TIP3    H118159   4.025   3.242   5.297
 6066TIP3    H218160   4.134   3.257   5.402
 6067TIP3   OH218161   4.322   3.311   4.858
 6067TIP3    H118162   4.268   3.383   4.825
 6067TIP3    H218163   4.405   3.322   4.812
 6068TIP3   OH218164   4.726   3.541   4.996
 6068TIP3    H118165   4.765   3.535   5.083
 6068TIP3    H218166   4.791   3.590   4.945
 6069TIP3   OH218167   4.913   3.671   4.843
 6069TIP3    H118168   4.920   3.616   4.765
 6069TIP3    H218169   5.004   3.693   4.864
 6070TIP3   OH218170   5.718   2.032   4.952
 6070TIP3    H118171   5.632   2.028   4.910
 6070TIP3    H218172   5.753   1.943   4.943
 6071TIP3   OH218173   3.983   3.545   4.906
 6071TIP3    H118174   3.892   3.564   4.881
 6071TIP3    H218175   4.005   3.614   4.969
 6072TIP3   OH218176   4.211   3.540   4.749
 6072TIP3    H118177   4.127   3.546   4.794
 6072TIP3    H218178   4.194   3.573   4.661
 6073TIP3   OH218179   4.642   3.561   4.546
 6073TIP3    H118180   4.569   3.566   4.484
 6073TIP3    H218181   4.647   3.649   4.584
 6074TIP3   OH218182   4.905   3.520   4.611
 6074TIP3    H118183   4.814   3.523   4.582
 6074TIP3    H218184   4.952   3.570   4.544
 6075TIP3   OH218185   5.116   3.687   4.500
 6075TIP3    H118186   5.097   3.769   4.456
 6075TIP3    H218187   5.141   3.627   4.430
 6076TIP3   OH218188   3.886   3.324   4.627
 6076TIP3    H118189   3.917   3.301   4.714
 6076TIP3    H218190   3.958   3.299   4.569
 6077TIP3   OH218191   4.092   3.217   4.482
 6077TIP3    H118192   4.104   3.134   4.529
 6077TIP3    H218193   4.177   3.260   4.486
 6078TIP3   OH218194   4.361   3.299   4.502
 6078TIP3    H118195   4.382   3.206   4.492
 6078TIP3    H218196   4.413   3.327   4.577
 6079TIP3   OH218197   4.917   1.976   4.614
 6079TIP3    H118198   4.876   1.905   4.663
 6079TIP3    H218199   4.935   1.938   4.528
 6080TIP3   OH218200   5.440   1.855   4.474
 6080TIP3    H118201   5.473   1.906   4.399
 6080TIP3    H218202   5.345   1.867   4.470
 6081TIP3   OH218203   5.547   1.944   4.238
 6081TIP3    H118204   5.617   1.885   4.210
 6081TIP3    H218205   5.583   2.032   4.226
 6082TIP3   OH218206   4.157   1.670   4.586
 6082TIP3    H118207   4.067   1.639   4.596
 6082TIP3    H218208   4.210   1.590   4.588
 6083TIP3   OH218209   3.993   1.548   4.239
 6083TIP3    H118210   4.018   1.599   4.163
 6083TIP3    H218211   3.952   1.610   4.299
 6084TIP3   OH218212   5.167   1.862   4.459
 6084TIP3    H118213   5.088   1.870   4.406
 6084TIP3    H218214   5.154   1.783   4.511
 6085TIP3   OH218215   5.197   1.781   4.025
 6085TIP3    H118216   5.120   1.834   4.044
 6085TIP3    H218217   5.181   1.697   4.068
 6086TIP3   OH218218   3.668   3.119   3.986
 6086TIP3    H118219   3.582   3.094   3.952
 6086TIP3    H218220   3.676   3.212   3.964
 6087TIP3   OH218221   4.096   1.683   4.004
 6087TIP3    H118222   4.143   1.628   3.941
 6087TIP3    H218223   4.163   1.742   4.039
 6088TIP3   OH218224   4.582   1.857   4.104
 6088TIP3    H118225   4.637   1.791   4.146
 6088TIP3    H218226   4.613   1.940   4.140
 6089TIP3   OH218227   4.463   3.277   3.588
 6089TIP3    H118228   4.545   3.308   3.551
 6089TIP3    H218229   4.436   3.205   3.531
 6090TIP3   OH218230   5.154   3.442   3.680
 6090TIP3    H118231   5.154   3.346   3.679
 6090TIP3    H218232   5.110   3.466   3.598
 6091TIP3   OH218233   4.390   1.938   5.472
 6091TIP3    H118234   4.355   1.870   5.530
 6091TIP3    H218235   4.482   1.945   5.496
 6092TIP3   OH218236   4.640   1.943   5.593
 6092TIP3    H118237   4.718   1.919   5.542
 6092TIP3    H218238   4.632   1.873   5.658
 6093TIP3   OH218239   3.761   3.118   3.659
 6093TIP3    H118240   3.758   3.127   3.754
 6093TIP3    H218241   3.845   3.075   3.641
 6094TIP3   OH218242   5.472   2.018   5.380
 6094TIP3    H118243   5.499   1.963   5.453
 6094TIP3    H218244   5.551   2.025   5.325
 6095TIP3   OH218245   5.384   3.569   4.893
 6095TIP3    H118246   5.315   3.536   4.836
 6095TIP3    H218247   5.369   3.663   4.898
 6096TIP3   OH218248   6.656   2.952   3.633
 6096TIP3    H118249   6.629   3.040   3.606
 6096TIP3    H218250   6.584   2.896   3.605
 6097TIP3   OH218251   6.650   2.940   4.048
 6097TIP3    H118252   6.701   2.926   4.127
 6097TIP3    H218253   6.608   2.856   4.031
 6098TIP3   OH218254   5.959   2.812   4.396
 6098TIP3    H118255   5.994   2.757   4.466
 6098TIP3    H218256   6.035   2.837   4.344
 6099TIP3   OH218257   6.918   3.248   3.718
 6099TIP3    H118258   6.906   3.182   3.786
 6099TIP3    H218259   6.943   3.327   3.766
 6100TIP3   OH218260   5.946   3.236   4.092
 6100TIP3    H118261   5.930   3.142   4.097
 6100TIP3    H218262   6.041   3.244   4.083
 6101TIP3   OH218263   5.634   2.440   3.871
 6101TIP3    H118264   5.593   2.523   3.896
 6101TIP3    H218265   5.563   2.389   3.832
 6102TIP3   OH218266   5.706   2.741   4.088
 6102TIP3    H118267   5.756   2.664   4.115
 6102TIP3    H218268   5.772   2.802   4.055
 6103TIP3   OH218269   6.579   3.689   3.736
 6103TIP3    H118270   6.607   3.621   3.675
 6103TIP3    H218271   6.583   3.647   3.822
 6104TIP3   OH218272   6.463   3.165   4.059
 6104TIP3    H118273   6.505   3.084   4.030
 6104TIP3    H218274   6.535   3.220   4.089
 6105TIP3   OH218275   7.455   2.475   4.094
 6105TIP3    H118276   7.467   2.569   4.105
 6105TIP3    H218277   7.475   2.460   4.001
 6106TIP3   OH218278   6.872   2.653   4.097
 6106TIP3    H118279   6.914   2.571   4.124
 6106TIP3    H218280   6.831   2.634   4.013
 6107TIP3   OH218281   6.227   2.314   4.053
 6107TIP3    H118282   6.205   2.387   3.995
 6107TIP3    H218283   6.172   2.242   4.022
 6108TIP3   OH218284   6.903   2.412   3.692
 6108TIP3    H118285   6.970   2.406   3.760
 6108TIP3    H218286   6.948   2.449   3.617
 6109TIP3   OH218287   5.850   2.524   4.181
 6109TIP3    H118288   5.933   2.506   4.225
 6109TIP3    H218289   5.854   2.472   4.100
 6110TIP3   OH218290   6.274   2.725   3.993
 6110TIP3    H118291   6.368   2.708   4.001
 6110TIP3    H218292   6.238   2.643   3.959
 6111TIP3   OH218293   7.506   2.715   4.250
 6111TIP3    H118294   7.417   2.749   4.243
 6111TIP3    H218295   7.516   2.695   4.343
 6112TIP3   OH218296   6.208   2.314   4.504
 6112TIP3    H118297   6.157   2.349   4.431
 6112TIP3    H218298   6.153   2.330   4.581
 6113TIP3   OH218299   6.562   3.170   3.485
 6113TIP3    H118300   6.521   3.141   3.404
 6113TIP3    H218301   6.507   3.242   3.515
 6114TIP3   OH218302   6.306   3.089   4.274
 6114TIP3    H118303   6.252   3.160   4.309
 6114TIP3    H218304   6.354   3.129   4.202
 6115TIP3   OH218305   7.078   2.438   3.899
 6115TIP3    H118306   7.043   2.409   3.983
 6115TIP3    H218307   7.133   2.513   3.919
 6116TIP3   OH218308   6.096   2.421   4.275
 6116TIP3    H118309   6.151   2.496   4.298
 6116TIP3    H218310   6.143   2.379   4.202
 6117TIP3   OH218311   6.147   3.291   4.378
 6117TIP3    H118312   6.131   3.381   4.346
 6117TIP3    H218313   6.069   3.271   4.430
 6118TIP3   OH218314   5.521   2.994   3.625
 6118TIP3    H118315   5.482   3.009   3.539
 6118TIP3    H218316   5.543   3.081   3.657
 6119TIP3   OH218317   6.960   3.492   3.858
 6119TIP3    H118318   6.874   3.483   3.901
 6119TIP3    H218319   6.956   3.577   3.815
 6120TIP3   OH218320   7.244   2.374   4.245
 6120TIP3    H118321   7.161   2.394   4.203
 6120TIP3    H218322   7.311   2.404   4.183
 6121TIP3   OH218323   6.550   2.009   4.228
 6121TIP3    H118324   6.543   1.917   4.254
 6121TIP3    H218325   6.474   2.051   4.269
 6122TIP3   OH218326   6.669   3.528   3.525
 6122TIP3    H118327   6.721   3.449   3.514
 6122TIP3    H218328   6.726   3.599   3.495
 6123TIP3   OH218329   6.811   3.300   3.468
 6123TIP3    H118330   6.737   3.240   3.467
 6123TIP3    H218331   6.860   3.278   3.548
 6124TIP3   OH218332   7.127   3.384   4.194
 6124TIP3    H118333   7.142   3.311   4.134
 6124TIP3    H218334   7.141   3.462   4.140
 6125TIP3   OH218335   6.485   2.793   3.479
 6125TIP3    H118336   6.403   2.838   3.460
 6125TIP3    H218337   6.532   2.792   3.395
 6126TIP3   OH218338   6.452   2.594   3.173
 6126TIP3    H118339   6.516   2.646   3.222
 6126TIP3    H218340   6.504   2.527   3.128
 6127TIP3   OH218341   7.365   3.041   4.079
 6127TIP3    H118342   7.285   3.093   4.075
 6127TIP3    H218343   7.399   3.042   3.989
 6128TIP3   OH218344   6.836   2.875   3.444
 6128TIP3    H118345   6.782   2.905   3.518
 6128TIP3    H218346   6.917   2.845   3.485
 6129TIP3   OH218347   7.059   2.916   4.388
 6129TIP3    H118348   7.061   2.999   4.435
 6129TIP3    H218349   6.976   2.918   4.340
 6130TIP3   OH218350   6.074   2.860   3.849
 6130TIP3    H118351   6.037   2.801   3.784
 6130TIP3    H218352   6.146   2.812   3.888
 6131TIP3   OH218353   6.208   3.284   3.989
 6131TIP3    H118354   6.187   3.265   3.897
 6131TIP3    H218355   6.295   3.245   4.001
 6132TIP3   OH218356   6.176   2.854   4.220
 6132TIP3    H118357   6.215   2.819   4.140
 6132TIP3    H218358   6.226   2.934   4.238
 6133TIP3   OH218359   6.724   3.485   3.994
 6133TIP3    H118360   6.713   3.566   4.044
 6133TIP3    H218361   6.710   3.415   4.058
 6134TIP3   OH218362   6.345   3.392   4.545
 6134TIP3    H118363   6.284   3.450   4.592
 6134TIP3    H218364   6.288   3.340   4.487
 6135TIP3   OH218365   6.670   2.744   3.269
 6135TIP3    H118366   6.730   2.798   3.321
 6135TIP3    H218367   6.699   2.754   3.179
 6136TIP3   OH218368   6.101   2.940   4.682
 6136TIP3    H118369   6.105   3.034   4.702
 6136TIP3    H218370   6.008   2.921   4.675
 6137TIP3   OH218371   6.422   3.405   3.532
 6137TIP3    H118372   6.503   3.456   3.540
 6137TIP3    H218373   6.362   3.463   3.485
 6138TIP3   OH218374   6.134   3.550   4.628
 6138TIP3    H118375   6.108   3.560   4.536
 6138TIP3    H218376   6.052   3.535   4.675
 6139TIP3   OH218377   7.162   1.952   3.330
 6139TIP3    H118378   7.086   1.972   3.384
 6139TIP3    H218379   7.172   2.028   3.273
 6140TIP3   OH218380   5.946   2.705   3.646
 6140TIP3    H118381   5.869   2.752   3.613
 6140TIP3    H218382   5.913   2.618   3.667
 6141TIP3   OH218383   6.973   3.352   2.865
 6141TIP3    H118384   6.973   3.447   2.855
 6141TIP3    H218385   7.066   3.330   2.876
 6142TIP3   OH218386   5.725   3.105   4.577
 6142TIP3    H118387   5.657   3.087   4.513
 6142TIP3    H218388   5.760   3.018   4.599
 6143TIP3   OH218389   5.574   3.295   4.216
 6143TIP3    H118390   5.669   3.308   4.220
 6143TIP3    H218391   5.537   3.374   4.256
 6144TIP3   OH218392   7.398   3.746   4.271
 6144TIP3    H118393   7.399   3.651   4.277
 6144TIP3    H218394   7.324   3.773   4.326
 6145TIP3   OH218395   6.529   3.537   4.402
 6145TIP3    H118396   6.524   3.627   4.433
 6145TIP3    H218397   6.464   3.490   4.455
 6146TIP3   OH218398   6.312   3.634   3.353
 6146TIP3    H118399   6.263   3.612   3.273
 6146TIP3    H218400   6.275   3.717   3.382
 6147TIP3   OH218401   5.748   3.487   3.734
 6147TIP3    H118402   5.790   3.478   3.819
 6147TIP3    H218403   5.696   3.407   3.724
 6148TIP3   OH218404   6.514   3.567   2.985
 6148TIP3    H118405   6.565   3.493   2.951
 6148TIP3    H218406   6.545   3.578   3.075
 6149TIP3   OH218407   6.566   3.606   3.254
 6149TIP3    H118408   6.479   3.610   3.295
 6149TIP3    H218409   6.623   3.574   3.324
 6150TIP3   OH218410   7.276   2.859   4.583
 6150TIP3    H118411   7.212   2.870   4.512
 6150TIP3    H218412   7.297   2.765   4.581
 6151TIP3   OH218413   5.928   3.288   4.546
 6151TIP3    H118414   5.978   3.278   4.627
 6151TIP3    H218415   5.856   3.226   4.554
 6152TIP3   OH218416   6.315   2.101   4.356
 6152TIP3    H118417   6.231   2.067   4.325
 6152TIP3    H218418   6.292   2.181   4.404
 6153TIP3   OH218419   6.857   2.217   4.556
 6153TIP3    H118420   6.927   2.192   4.616
 6153TIP3    H218421   6.776   2.200   4.605
 6154TIP3   OH218422   7.061   2.651   4.468
 6154TIP3    H118423   7.022   2.645   4.555
 6154TIP3    H218424   7.043   2.741   4.440
 6155TIP3   OH218425   6.757   2.746   3.011
 6155TIP3    H118426   6.717   2.737   2.924
 6155TIP3    H218427   6.843   2.785   2.994
 6156TIP3   OH218428   6.464   2.140   3.325
 6156TIP3    H118429   6.430   2.147   3.414
 6156TIP3    H218430   6.426   2.059   3.291
 6157TIP3   OH218431   6.252   2.630   4.367
 6157TIP3    H118432   6.206   2.639   4.451
 6157TIP3    H218433   6.231   2.711   4.320
 6158TIP3   OH218434   6.132   2.511   3.886
 6158TIP3    H118435   6.043   2.486   3.912
 6158TIP3    H218436   6.142   2.476   3.798
 6159TIP3   OH218437   6.609   2.591   3.618
 6159TIP3    H118438   6.562   2.664   3.578
 6159TIP3    H218439   6.663   2.556   3.547
 6160TIP3   OH218440   6.799   2.854   4.687
 6160TIP3    H118441   6.773   2.787   4.750
 6160TIP3    H218442   6.890   2.873   4.709
 6161TIP3   OH218443   6.768   2.601   3.849
 6161TIP3    H118444   6.704   2.628   3.783
 6161TIP3    H218445   6.813   2.526   3.809
 6162TIP3   OH218446   6.085   2.646   4.586
 6162TIP3    H118447   6.106   2.709   4.656
 6162TIP3    H218448   6.067   2.564   4.632
 6163TIP3   OH218449   6.129   2.124   3.299
 6163TIP3    H118450   6.120   2.126   3.394
 6163TIP3    H218451   6.051   2.169   3.267
 6164TIP3   OH218452   5.676   2.169   4.164
 6164TIP3    H118453   5.749   2.202   4.217
 6164TIP3    H218454   5.716   2.144   4.081
 6165TIP3   OH218455   5.596   2.144   3.673
 6165TIP3    H118456   5.641   2.179   3.596
 6165TIP3    H218457   5.533   2.212   3.697
 6166TIP3   OH218458   6.809   2.856   4.266
 6166TIP3    H118459   6.839   2.790   4.204
 6166TIP3    H218460   6.768   2.806   4.337
 6167TIP3   OH218461   6.492   2.305   3.939
 6167TIP3    H118462   6.414   2.305   3.995
 6167TIP3    H218463   6.565   2.297   4.000
 6168TIP3   OH218464   5.894   2.386   3.948
 6168TIP3    H118465   5.806   2.391   3.912
 6168TIP3    H218466   5.922   2.296   3.931
 6169TIP3   OH218467   6.148   2.385   3.643
 6169TIP3    H118468   6.242   2.397   3.631
 6169TIP3    H218469   6.110   2.404   3.557
 6170TIP3   OH218470   6.953   2.388   4.147
 6170TIP3    H118471   6.930   2.406   4.238
 6170TIP3    H218472   6.884   2.329   4.116
 6171TIP3   OH218473   6.028   2.412   3.398
 6171TIP3    H118474   5.963   2.364   3.347
 6171TIP3    H218475   6.082   2.456   3.333
 6172TIP3   OH218476   7.141   4.097   4.373
 6172TIP3    H118477   7.139   4.114   4.279
 6172TIP3    H218478   7.222   4.139   4.403
 6173TIP3   OH218479   6.085   3.204   4.781
 6173TIP3    H118480   6.166   3.226   4.828
 6173TIP3    H218481   6.016   3.212   4.847
 6174TIP3   OH218482   6.545   2.668   4.046
 6174TIP3    H118483   6.613   2.622   3.997
 6174TIP3    H218484   6.545   2.626   4.132
 6175TIP3   OH218485   6.042   2.138   3.934
 6175TIP3    H118486   6.012   2.063   3.985
 6175TIP3    H218487   6.070   2.101   3.850
 6176TIP3   OH218488   6.518   2.571   4.313
 6176TIP3    H118489   6.431   2.603   4.335
 6176TIP3    H218490   6.578   2.624   4.366
 6177TIP3   OH218491   6.250   2.931   3.422
 6177TIP3    H118492   6.176   2.874   3.402
 6177TIP3    H218493   6.227   2.970   3.507
 6178TIP3   OH218494   7.135   3.174   4.016
 6178TIP3    H118495   7.168   3.219   3.938
 6178TIP3    H218496   7.052   3.135   3.987
 6179TIP3   OH218497   6.713   2.247   3.316
 6179TIP3    H118498   6.621   2.223   3.318
 6179TIP3    H218499   6.713   2.342   3.332
 6180TIP3   OH218500   6.647   3.262   4.438
 6180TIP3    H118501   6.708   3.254   4.511
 6180TIP3    H218502   6.611   3.350   4.446
 6181TIP3   OH218503   6.755   2.510   3.393
 6181TIP3    H118504   6.849   2.516   3.409
 6181TIP3    H218505   6.734   2.588   3.343
 6182TIP3   OH218506   5.946   2.950   4.078
 6182TIP3    H118507   5.984   2.930   3.992
 6182TIP3    H218508   6.011   2.917   4.141
 6183TIP3   OH218509   6.403   3.092   3.264
 6183TIP3    H118510   6.356   3.175   3.263
 6183TIP3    H218511   6.348   3.034   3.317
 6184TIP3   OH218512   5.828   2.876   4.710
 6184TIP3    H118513   5.834   2.853   4.803
 6184TIP3    H218514   5.754   2.825   4.678
 6185TIP3   OH218515   6.567   3.007   4.729
 6185TIP3    H118516   6.500   2.948   4.694
 6185TIP3    H218517   6.650   2.969   4.701
 6186TIP3   OH218518   6.796   3.548   4.324
 6186TIP3    H118519   6.701   3.541   4.335
 6186TIP3    H218520   6.826   3.590   4.404
 6187TIP3   OH218521   7.149   2.608   3.233
 6187TIP3    H118522   7.085   2.574   3.170
 6187TIP3    H218523   7.174   2.693   3.199
 6188TIP3   OH218524   7.364   3.469   4.312
 6188TIP3    H118525   7.271   3.465   4.332
 6188TIP3    H218526   7.372   3.432   4.224
 6189TIP3   OH218527   6.923   3.400   3.159
 6189TIP3    H118528   6.897   3.345   3.232
 6189TIP3    H218529   6.918   3.342   3.083
 6190TIP3   OH218530   6.900   3.050   3.927
 6190TIP3    H118531   6.810   3.029   3.953
 6190TIP3    H218532   6.935   2.968   3.894
 6191TIP3   OH218533   6.064   3.282   3.739
 6191TIP3    H118534   6.061   3.359   3.682
 6191TIP3    H218535   5.974   3.269   3.767
 6192TIP3   OH218536   5.626   2.571   3.451
 6192TIP3    H118537   5.669   2.654   3.471
 6192TIP3    H218538   5.546   2.571   3.503
 6193TIP3   OH218539   6.162   3.039   3.653
 6193TIP3    H118540   6.141   3.128   3.680
 6193TIP3    H218541   6.134   2.984   3.727
 6194TIP3   OH218542   6.347   3.608   4.195
 6194TIP3    H118543   6.385   3.680   4.145
 6194TIP3    H218544   6.419   3.574   4.248
 6195TIP3   OH218545   5.981   3.507   3.588
 6195TIP3    H118546   5.895   3.512   3.629
 6195TIP3    H218547   6.014   3.597   3.592
 6196TIP3   OH218548   6.701   3.264   4.166
 6196TIP3    H118549   6.684   3.259   4.261
 6196TIP3    H218550   6.785   3.220   4.155
 6197TIP3   OH218551   6.683   3.143   3.028
 6197TIP3    H118552   6.728   3.117   3.108
 6197TIP3    H218553   6.597   3.103   3.034
 6198TIP3   OH218554   6.947   3.775   4.210
 6198TIP3    H118555   6.876   3.711   4.215
 6198TIP3    H218556   6.923   3.831   4.136
 6199TIP3   OH218557   6.998   3.626   2.837
 6199TIP3    H118558   7.021   3.691   2.770
 6199TIP3    H218559   6.926   3.665   2.886
 6200TIP3   OH218560   6.036   2.393   4.710
 6200TIP3    H118561   5.941   2.400   4.714
 6200TIP3    H218562   6.059   2.340   4.787
 6201TIP3   OH218563   6.832   3.058   3.236
 6201TIP3    H118564   6.820   3.006   3.316
 6201TIP3    H218565   6.927   3.067   3.227
 6202TIP3   OH218566   5.776   3.493   4.355
 6202TIP3    H118567   5.826   3.427   4.404
 6202TIP3    H218568   5.791   3.575   4.402
 6203TIP3   OH218569   6.048   3.114   3.048
 6203TIP3    H118570   6.057   3.023   3.022
 6203TIP3    H218571   6.030   3.111   3.142
 6204TIP3   OH218572   5.987   3.131   3.318
 6204TIP3    H118573   6.052   3.103   3.383
 6204TIP3    H218574   5.987   3.226   3.325
 6205TIP3   OH218575   5.721   2.823   3.530
 6205TIP3    H118576   5.655   2.868   3.583
 6205TIP3    H218577   5.738   2.881   3.457
 6206TIP3   OH218578   6.882   2.447   4.405
 6206TIP3    H118579   6.956   2.497   4.439
 6206TIP3    H218580   6.875   2.372   4.463
 6207TIP3   OH218581   6.763   2.195   3.589
 6207TIP3    H118582   6.747   2.217   3.497
 6207TIP3    H218583   6.806   2.272   3.625
 6208TIP3   OH218584   6.260   3.321   3.260
 6208TIP3    H118585   6.175   3.342   3.298
 6208TIP3    H218586   6.280   3.395   3.204
 6209TIP3   OH218587   6.428   2.395   3.684
 6209TIP3    H118588   6.489   2.465   3.661
 6209TIP3    H218589   6.448   2.375   3.776
 6210TIP3   OH218590   6.721   2.689   4.467
 6210TIP3    H118591   6.747   2.735   4.546
 6210TIP3    H218592   6.772   2.608   4.468
 6211TIP3   OH218593   6.587   2.095   3.776
 6211TIP3    H118594   6.565   2.172   3.829
 6211TIP3    H218595   6.654   2.125   3.715
 6212TIP3   OH218596   6.009   3.403   3.336
 6212TIP3    H118597   5.986   3.474   3.276
 6212TIP3    H218598   5.996   3.441   3.423
 6213TIP3   OH218599   6.104   2.113   3.577
 6213TIP3    H118600   6.093   2.203   3.608
 6213TIP3    H218601   6.199   2.097   3.584
 6214TIP3   OH218602   7.320   2.580   4.446
 6214TIP3    H118603   7.227   2.605   4.451
 6214TIP3    H218604   7.320   2.501   4.392
 6215TIP3   OH218605   6.991   2.795   3.850
 6215TIP3    H118606   6.915   2.739   3.868
 6215TIP3    H218607   7.061   2.756   3.903
 6216TIP3   OH218608   5.737   3.003   3.316
 6216TIP3    H118609   5.807   3.068   3.324
 6216TIP3    H218610   5.771   2.940   3.252
 6217TIP3   OH218611   5.655   2.293   3.449
 6217TIP3    H118612   5.667   2.387   3.457
 6217TIP3    H218613   5.583   2.284   3.385
 6218TIP3   OH218614   6.966   3.759   3.782
 6218TIP3    H118615   6.925   3.808   3.711
 6218TIP3    H218616   7.058   3.784   3.778
 6219TIP3   OH218617   6.053   2.013   4.318
 6219TIP3    H118618   6.024   1.981   4.232
 6219TIP3    H218619   6.042   1.939   4.377
 6220TIP3   OH218620   5.566   3.271   3.699
 6220TIP3    H118621   5.518   3.302   3.776
 6220TIP3    H218622   5.525   3.316   3.625
 6221TIP3   OH218623   5.767   3.810   4.780
 6221TIP3    H118624   5.848   3.816   4.830
 6221TIP3    H218625   5.751   3.716   4.771
 6222TIP3   OH218626   6.237   3.721   4.820
 6222TIP3    H118627   6.330   3.700   4.829
 6222TIP3    H218628   6.206   3.664   4.750
 6223TIP3   OH218629   6.206   3.313   2.939
 6223TIP3    H118630   6.157   3.244   2.985
 6223TIP3    H218631   6.280   3.267   2.900
 6224TIP3   OH218632   6.862   3.657   4.566
 6224TIP3    H118633   6.866   3.586   4.630
 6224TIP3    H218634   6.937   3.712   4.586
 6225TIP3   OH218635   6.645   3.359   2.866
 6225TIP3    H118636   6.672   3.291   2.928
 6225TIP3    H218637   6.709   3.353   2.795
 6226TIP3   OH218638   5.878   3.197   4.969
 6226TIP3    H118639   5.896   3.103   4.979
 6226TIP3    H218640   5.792   3.201   4.929
 6227TIP3   OH218641   5.871   2.814   3.170
 6227TIP3    H118642   5.922   2.791   3.247
 6227TIP3    H218643   5.936   2.826   3.101
 6228TIP3   OH218644   6.498   3.284   4.748
 6228TIP3    H118645   6.455   3.306   4.665
 6228TIP3    H218646   6.535   3.197   4.734
 6229TIP3   OH218647   6.426   3.035   2.996
 6229TIP3    H118648   6.406   3.048   3.089
 6229TIP3    H218649   6.411   2.942   2.981
 6230TIP3   OH218650   6.944   3.312   4.374
 6230TIP3    H118651   7.014   3.333   4.312
 6230TIP3    H218652   6.880   3.383   4.363
 6231TIP3   OH218653   5.996   2.940   4.973
 6231TIP3    H118654   6.072   2.929   4.916
 6231TIP3    H218655   6.033   2.964   5.058
 6232TIP3   OH218656   6.045   2.750   3.380
 6232TIP3    H118657   6.022   2.720   3.468
 6232TIP3    H218658   6.090   2.675   3.340
 6233TIP3   OH218659   6.351   2.822   4.630
 6233TIP3    H118660   6.269   2.870   4.640
 6233TIP3    H218661   6.387   2.854   4.547
 6234TIP3   OH218662   6.179   2.561   3.224
 6234TIP3    H118663   6.150   2.566   3.133
 6234TIP3    H218664   6.275   2.568   3.219
 6235TIP3   OH218665   6.857   3.204   4.726
 6235TIP3    H118666   6.932   3.173   4.676
 6235TIP3    H218667   6.856   3.147   4.804
 6236TIP3   OH218668   6.995   2.857   2.890
 6236TIP3    H118669   6.967   2.814   2.809
 6236TIP3    H218670   6.963   2.947   2.882
 6237TIP3   OH218671   6.459   2.597   4.742
 6237TIP3    H118672   6.464   2.526   4.679
 6237TIP3    H218673   6.424   2.671   4.693
 6238TIP3   OH218674   6.469   2.397   4.541
 6238TIP3    H118675   6.496   2.435   4.457
 6238TIP3    H218676   6.377   2.371   4.526
 6239TIP3   OH218677   6.478   2.929   4.416
 6239TIP3    H118678   6.567   2.961   4.401
 6239TIP3    H218679   6.422   2.990   4.368
 6240TIP3   OH218680   7.064   2.884   4.790
 6240TIP3    H118681   7.101   2.797   4.806
 6240TIP3    H218682   7.135   2.934   4.750
 6241TIP3   OH218683   7.092   3.154   4.537
 6241TIP3    H118684   7.035   3.212   4.487
 6241TIP3    H218685   7.180   3.172   4.503
 6242TIP3   OH218686   6.342   2.687   4.983
 6242TIP3    H118687   6.272   2.624   5.001
 6242TIP3    H218688   6.371   2.664   4.894
 6243TIP3   OH218689   6.591   2.164   4.637
 6243TIP3    H118690   6.550   2.244   4.605
 6243TIP3    H218691   6.524   2.096   4.623
 6244TIP3   OH218692   6.715   2.643   4.842
 6244TIP3    H118693   6.707   2.631   4.937
 6244TIP3    H218694   6.629   2.622   4.807
 6245TIP3   OH218695   6.954   2.593   4.707
 6245TIP3    H118696   6.876   2.596   4.763
 6245TIP3    H218697   7.025   2.567   4.766
 6246TIP3   OH218698   7.176   2.548   4.863
 6246TIP3    H118699   7.195   2.455   4.873
 6246TIP3    H218700   7.177   2.583   4.953
 6247TIP3   OH218701   6.175   2.467   5.047
 6247TIP3    H118702   6.182   2.379   5.010
 6247TIP3    H218703   6.215   2.459   5.134
 6248TIP3   OH218704   6.658   2.146   4.902
 6248TIP3    H118705   6.728   2.080   4.896
 6248TIP3    H218706   6.628   2.156   4.812
 6249TIP3   OH218707   6.749   2.362   5.048
 6249TIP3    H118708   6.720   2.291   4.990
 6249TIP3    H218709   6.677   2.424   5.046
 6250TIP3   OH218710   6.002   3.613   3.154
 6250TIP3    H118711   6.091   3.593   3.124
 6250TIP3    H218712   5.962   3.658   3.079
 6251TIP3   OH218713   5.462   2.998   3.335
 6251TIP3    H118714   5.557   3.009   3.331
 6251TIP3    H218715   5.446   2.911   3.299
 6252TIP3   OH218716   5.362   3.594   3.782
 6252TIP3    H118717   5.298   3.541   3.734
 6252TIP3    H218718   5.404   3.532   3.842
 6253TIP3   OH218719   5.506   3.426   3.955
 6253TIP3    H118720   5.491   3.357   4.019
 6253TIP3    H218721   5.561   3.490   4.001
 6254TIP3   OH218722   7.215   3.864   3.781
 6254TIP3    H118723   7.256   3.861   3.867
 6254TIP3    H218724   7.285   3.893   3.722
 6255TIP3   OH218725   7.247   3.865   4.071
 6255TIP3    H118726   7.210   3.780   4.049
 6255TIP3    H218727   7.320   3.846   4.129
 6256TIP3   OH218728   7.311   3.544   4.631
 6256TIP3    H118729   7.241   3.552   4.696
 6256TIP3    H218730   7.350   3.632   4.627
 6257TIP3   OH218731   7.103   3.059   3.232
 6257TIP3    H118732   7.167   3.126   3.209
 6257TIP3    H218733   7.137   3.018   3.311
 6258TIP3   OH218734   7.217   2.919   3.430
 6258TIP3    H118735   7.162   2.879   3.498
 6258TIP3    H218736   7.292   2.954   3.479
 6259TIP3   OH218737   7.265   3.320   3.821
 6259TIP3    H118738   7.328   3.305   3.750
 6259TIP3    H218739   7.227   3.406   3.801
 6260TIP3   OH218740   7.122   3.619   4.048
 6260TIP3    H118741   7.056   3.659   4.105
 6260TIP3    H218742   7.071   3.577   3.978
 6261TIP3   OH218743   7.186   2.843   3.087
 6261TIP3    H118744   7.118   2.836   3.019
 6261TIP3    H218745   7.157   2.917   3.141
 6262TIP3   OH218746   6.993   2.502   3.037
 6262TIP3    H118747   7.002   2.539   2.949
 6262TIP3    H218748   6.984   2.408   3.022
 6263TIP3   OH218749   7.051   2.770   3.585
 6263TIP3    H118750   7.050   2.675   3.575
 6263TIP3    H218751   7.036   2.785   3.678
 6264TIP3   OH218752   5.694   2.845   4.342
 6264TIP3    H118753   5.684   2.811   4.252
 6264TIP3    H218754   5.789   2.844   4.357
 6265TIP3   OH218755   7.346   3.206   4.443
 6265TIP3    H118756   7.395   3.128   4.418
 6265TIP3    H218757   7.372   3.272   4.379
 6266TIP3   OH218758   7.475   2.964   4.425
 6266TIP3    H118759   7.430   2.922   4.498
 6266TIP3    H218760   7.567   2.960   4.448
 6267TIP3   OH218761   6.970   2.233   2.992
 6267TIP3    H118762   7.035   2.197   3.052
 6267TIP3    H218763   6.891   2.182   3.011
 6268TIP3   OH218764   7.027   2.505   3.459
 6268TIP3    H118765   7.059   2.415   3.460
 6268TIP3    H218766   7.075   2.546   3.387
 6269TIP3   OH218767   7.206   2.668   3.973
 6269TIP3    H118768   7.283   2.682   3.918
 6269TIP3    H218769   7.227   2.715   4.055
 6270TIP3   OH218770   7.257   2.821   4.200
 6270TIP3    H118771   7.189   2.851   4.260
 6270TIP3    H218772   7.297   2.902   4.168
 6271TIP3   OH218773   5.911   2.524   4.988
 6271TIP3    H118774   6.005   2.521   5.004
 6271TIP3    H218775   5.878   2.442   5.026
 6272TIP3   OH218776   7.713   2.431   4.731
 6272TIP3    H118777   7.783   2.384   4.686
 6272TIP3    H218778   7.676   2.489   4.664
 6273TIP3   OH218779   7.118   2.253   3.521
 6273TIP3    H118780   7.153   2.234   3.608
 6273TIP3    H218781   7.068   2.176   3.498
 6274TIP3   OH218782   5.887   2.235   4.334
 6274TIP3    H118783   5.941   2.157   4.340
 6274TIP3    H218784   5.949   2.307   4.319
 6275TIP3   OH218785   5.670   2.499   4.400
 6275TIP3    H118786   5.721   2.490   4.319
 6275TIP3    H218787   5.694   2.586   4.433
 6276TIP3   OH218788   7.581   2.583   4.550
 6276TIP3    H118789   7.487   2.593   4.568
 6276TIP3    H218790   7.584   2.532   4.469
 6277TIP3   OH218791   7.191   2.157   3.145
 6277TIP3    H118792   7.232   2.102   3.077
 6277TIP3    H218793   7.233   2.242   3.136
 6278TIP3   OH218794   5.657   2.008   3.902
 6278TIP3    H118795   5.570   1.996   3.941
 6278TIP3    H218796   5.641   2.064   3.826
 6279TIP3   OH218797   6.808   3.726   3.409
 6279TIP3    H118798   6.868   3.713   3.335
 6279TIP3    H218799   6.852   3.790   3.464
 6280TIP3   OH218800   5.881   2.071   4.721
 6280TIP3    H118801   5.829   2.066   4.801
 6280TIP3    H218802   5.824   2.117   4.659
 6281TIP3   OH218803   5.909   3.521   4.791
 6281TIP3    H118804   5.815   3.503   4.785
 6281TIP3    H218805   5.928   3.516   4.885
 6282TIP3   OH218806   6.118   3.567   4.344
 6282TIP3    H118807   6.066   3.641   4.311
 6282TIP3    H218808   6.203   3.576   4.301
 6283TIP3   OH218809   6.527   3.804   4.480
 6283TIP3    H118810   6.564   3.795   4.568
 6283TIP3    H218811   6.592   3.854   4.431
 6284TIP3   OH218812   6.721   3.952   4.351
 6284TIP3    H118813   6.788   3.897   4.311
 6284TIP3    H218814   6.770   4.012   4.407
 6285TIP3   OH218815   7.437   2.267   4.486
 6285TIP3    H118816   7.355   2.234   4.449
 6285TIP3    H218817   7.497   2.193   4.480
 6286TIP3   OH218818   5.781   3.818   4.386
 6286TIP3    H118819   5.689   3.834   4.365
 6286TIP3    H218820   5.802   3.882   4.455
 6287TIP3   OH218821   6.010   3.798   4.236
 6287TIP3    H118822   5.928   3.806   4.285
 6287TIP3    H218823   5.987   3.819   4.146
 6288TIP3   OH218824   6.428   3.817   4.029
 6288TIP3    H118825   6.354   3.831   3.970
 6288TIP3    H218826   6.439   3.900   4.074
 6289TIP3   OH218827   6.692   3.749   4.074
 6289TIP3    H118828   6.600   3.771   4.058
 6289TIP3    H218829   6.741   3.821   4.035
 6290TIP3   OH218830   6.888   3.932   3.983
 6290TIP3    H118831   6.889   4.018   3.943
 6290TIP3    H218832   6.919   3.873   3.915
 6291TIP3   OH218833   5.691   3.590   4.107
 6291TIP3    H118834   5.715   3.564   4.196
 6291TIP3    H218835   5.762   3.556   4.053
 6292TIP3   OH218836   5.894   3.474   3.968
 6292TIP3    H118837   5.905   3.391   4.015
 6292TIP3    H218838   5.981   3.515   3.971
 6293TIP3   OH218839   6.163   3.561   3.989
 6293TIP3    H118840   6.182   3.469   3.975
 6293TIP3    H218841   6.215   3.585   4.066
 6294TIP3   OH218842   6.723   2.212   4.074
 6294TIP3    H118843   6.682   2.142   4.124
 6294TIP3    H218844   6.790   2.168   4.022
 6295TIP3   OH218845   7.209   2.123   4.001
 6295TIP3    H118846   7.228   2.172   3.921
 6295TIP3    H218847   7.114   2.122   4.006
 6296TIP3   OH218848   7.263   2.219   3.749
 6296TIP3    H118849   7.330   2.157   3.721
 6296TIP3    H218850   7.312   2.296   3.777
 6297TIP3   OH218851   5.967   1.912   4.075
 6297TIP3    H118852   5.878   1.880   4.084
 6297TIP3    H218853   6.021   1.833   4.068
 6298TIP3   OH218854   5.775   1.814   3.729
 6298TIP3    H118855   5.802   1.866   3.653
 6298TIP3    H218856   5.741   1.878   3.791
 6299TIP3   OH218857   6.437   1.951   3.970
 6299TIP3    H118858   6.485   2.000   3.902
 6299TIP3    H218859   6.477   1.979   4.052
 6300TIP3   OH218860   6.935   2.085   3.949
 6300TIP3    H118861   6.968   2.053   3.865
 6300TIP3    H218862   6.932   2.007   4.005
 6301TIP3   OH218863   6.967   2.022   3.510
 6301TIP3    H118864   6.887   2.069   3.536
 6301TIP3    H218865   6.960   1.938   3.554
 6302TIP3   OH218866   5.439   3.407   3.496
 6302TIP3    H118867   5.353   3.370   3.475
 6302TIP3    H218868   5.442   3.491   3.449
 6303TIP3   OH218869   5.889   1.949   3.492
 6303TIP3    H118870   5.934   1.887   3.436
 6303TIP3    H218871   5.958   2.005   3.528
 6304TIP3   OH218872   6.380   2.143   3.589
 6304TIP3    H118873   6.438   2.091   3.645
 6304TIP3    H218874   6.394   2.233   3.616
 6305TIP3   OH218875   6.257   3.540   3.082
 6305TIP3    H118876   6.341   3.567   3.046
 6305TIP3    H218877   6.229   3.467   3.026
 6306TIP3   OH218878   6.950   3.670   3.173
 6306TIP3    H118879   6.944   3.575   3.171
 6306TIP3    H218880   6.899   3.699   3.097
 6307TIP3   OH218881   6.187   2.195   4.960
 6307TIP3    H118882   6.153   2.128   5.019
 6307TIP3    H218883   6.280   2.202   4.983
 6308TIP3   OH218884   6.439   2.199   5.076
 6308TIP3    H118885   6.516   2.180   5.023
 6308TIP3    H218886   6.435   2.128   5.140
 6309TIP3   OH218887   5.555   3.380   3.128
 6309TIP3    H118888   5.550   3.401   3.221
 6309TIP3    H218889   5.640   3.337   3.118
 6310TIP3   OH218890   7.250   2.281   4.882
 6310TIP3    H118891   7.263   2.256   4.973
 6310TIP3    H218892   7.337   2.273   4.842
 6311TIP3   OH218893   7.161   3.822   4.385
 6311TIP3    H118894   7.089   3.795   4.327
 6311TIP3    H218895   7.155   3.917   4.388
 6312TIP3   OH218896   7.719   3.076   3.865
 6312TIP3    H118897   7.746   3.011   3.930
 6312TIP3    H218898   7.797   3.129   3.850
 6313TIP3   OH218899   7.703   3.509   3.591
 6313TIP3    H118900   7.735   3.421   3.569
 6313TIP3    H218901   7.782   3.560   3.607
 6314TIP3   OH218902   7.386   2.706   3.382
 6314TIP3    H118903   7.321   2.776   3.395
 6314TIP3    H218904   7.334   2.629   3.358
 6315TIP3   OH218905   7.476   2.989   3.494
 6315TIP3    H118906   7.506   2.902   3.521
 6315TIP3    H218907   7.549   3.047   3.514
 6316TIP3   OH218908   7.598   2.774   3.595
 6316TIP3    H118909   7.666   2.741   3.654
 6316TIP3    H218910   7.586   2.704   3.531
 6317TIP3   OH218911   7.288   3.227   3.135
 6317TIP3    H118912   7.255   3.241   3.046
 6317TIP3    H218913   7.313   3.315   3.165
 6318TIP3   OH218914   0.033   3.231   4.190
 6318TIP3    H118915   0.046   3.321   4.221
 6318TIP3    H218916  -0.048   3.203   4.231
 6319TIP3   OH218917   0.080   3.792   4.116
 6319TIP3    H118918   0.038   3.834   4.042
 6319TIP3    H218919   0.009   3.777   4.179
 6320TIP3   OH218920   7.403   3.357   4.070
 6320TIP3    H118921   7.370   3.347   3.981
 6320TIP3    H218922   7.477   3.296   4.074
 6321TIP3   OH218923   7.330   3.579   3.711
 6321TIP3    H118924   7.402   3.521   3.739
 6321TIP3    H218925   7.335   3.653   3.772
 6322TIP3   OH218926   7.482   3.760   3.216
 6322TIP3    H118927   7.544   3.744   3.287
 6322TIP3    H218928   7.451   3.673   3.191
 6323TIP3   OH218929   7.585   3.572   4.099
 6323TIP3    H118930   7.646   3.554   4.170
 6323TIP3    H218931   7.531   3.493   4.092
 6324TIP3   OH218932   7.410   2.506   3.785
 6324TIP3    H118933   7.469   2.440   3.748
 6324TIP3    H218934   7.376   2.554   3.709
 6325TIP3   OH218935   7.558   2.431   3.194
 6325TIP3    H118936   7.618   2.440   3.120
 6325TIP3    H218937   7.471   2.430   3.154
 6326TIP3   OH218938   0.037   3.508   4.245
 6326TIP3    H118939   0.123   3.493   4.285
 6326TIP3    H218940  -0.024   3.506   4.319
 6327TIP3   OH218941   7.561   3.166   4.237
 6327TIP3    H118942   7.603   3.107   4.300
 6327TIP3    H218943   7.499   3.110   4.189
 6328TIP3   OH218944   7.440   2.839   2.990
 6328TIP3    H118945   7.501   2.851   3.063
 6328TIP3    H218946   7.353   2.836   3.031
 6329TIP3   OH218947   0.055   3.779   3.106
 6329TIP3    H118948  -0.011   3.790   3.174
 6329TIP3    H218949   0.064   3.866   3.067
 6330TIP3   OH218950   7.451   3.736   3.913
 6330TIP3    H118951   7.495   3.678   3.976
 6330TIP3    H218952   7.494   3.821   3.924
 6331TIP3   OH218953   7.511   3.115   3.014
 6331TIP3    H118954   7.437   3.117   3.075
 6331TIP3    H218955   7.503   3.031   2.969
 6332TIP3   OH218956   7.487   3.283   2.779
 6332TIP3    H118957   7.533   3.322   2.853
 6332TIP3    H218958   7.520   3.194   2.773
 6333TIP3   OH218959   7.296   2.598   2.913
 6333TIP3    H118960   7.369   2.650   2.947
 6333TIP3    H218961   7.329   2.562   2.831
 6334TIP3   OH218962   7.365   3.488   3.158
 6334TIP3    H118963   7.358   3.507   3.252
 6334TIP3    H218964   7.305   3.550   3.117
 6335TIP3   OH218965   7.572   4.072   4.258
 6335TIP3    H118966   7.648   4.087   4.314
 6335TIP3    H218967   7.569   3.977   4.246
 6336TIP3   OH218968   7.619   3.474   4.400
 6336TIP3    H118969   7.629   3.432   4.486
 6336TIP3    H218970   7.525   3.471   4.383
 6337TIP3   OH218971   0.113   3.210   4.516
 6337TIP3    H118972   0.160   3.126   4.521
 6337TIP3    H218973   0.110   3.242   4.606
 6338TIP3   OH218974   7.231   3.263   2.868
 6338TIP3    H118975   7.321   3.286   2.845
 6338TIP3    H218976   7.209   3.190   2.809
 6339TIP3   OH218977   7.135   3.841   3.267
 6339TIP3    H118978   7.076   3.779   3.226
 6339TIP3    H218979   7.180   3.791   3.335
 6340TIP3   OH218980   7.249   3.704   3.469
 6340TIP3    H118981   7.280   3.619   3.499
 6340TIP3    H218982   7.250   3.760   3.547
 6341TIP3   OH218983   7.453   3.062   3.821
 6341TIP3    H118984   7.432   3.132   3.759
 6341TIP3    H218985   7.547   3.068   3.834
 6342TIP3   OH218986   7.741   2.803   4.610
 6342TIP3    H118987   7.828   2.763   4.616
 6342TIP3    H218988   7.682   2.729   4.592
 6343TIP3   OH218989   7.548   2.721   3.954
 6343TIP3    H118990   7.485   2.735   3.883
 6343TIP3    H218991   7.552   2.806   3.999
 6344TIP3   OH218992   7.453   2.232   3.345
 6344TIP3    H118993   7.375   2.278   3.374
 6344TIP3    H218994   7.504   2.298   3.298
 6345TIP3   OH218995   7.601   2.417   4.327
 6345TIP3    H118996   7.539   2.361   4.374
 6345TIP3    H218997   7.556   2.441   4.246
 6346TIP3   OH218998   7.663   3.802   4.279
 6346TIP3    H118999   7.577   3.768   4.255
 6346TIP3    H219000   7.669   3.789   4.373
 6347TIP3   OH219001   0.219   3.794   3.831
 6347TIP3    H119002   0.132   3.835   3.832
 6347TIP3    H219003   0.277   3.860   3.868
 6348TIP3   OH219004   7.519   4.030   3.879
 6348TIP3    H119005   7.435   4.076   3.873
 6348TIP3    H219006   7.584   4.096   3.854
 6349TIP3   OH219007   0.057   3.968   3.655
 6349TIP3    H119008  -0.008   4.033   3.683
 6349TIP3    H219009   0.116   4.017   3.597
 6350TIP3   OH219010   7.424   3.894   3.600
 6350TIP3    H119011   7.490   3.884   3.668
 6350TIP3    H219012   7.443   3.824   3.537
 6351TIP3   OH219013   7.689   3.737   3.383
 6351TIP3    H119014   7.721   3.649   3.403
 6351TIP3    H219015   7.764   3.794   3.398
 6352TIP3   OH219016   7.247   3.643   2.958
 6352TIP3    H119017   7.157   3.617   2.939
 6352TIP3    H219018   7.246   3.738   2.949
 6353TIP3   OH219019   7.324   3.655   2.682
 6353TIP3    H119020   7.301   3.648   2.775
 6353TIP3    H219021   7.395   3.592   2.670
 6354TIP3   OH219022   0.918   4.004   4.806
 6354TIP3    H119023   0.880   4.089   4.782
 6354TIP3    H219024   0.850   3.940   4.781
 6355TIP3   OH219025   0.938   3.981   5.218
 6355TIP3    H119026   0.977   3.969   5.305
 6355TIP3    H219027   0.896   3.897   5.199
 6356TIP3   OH219028   0.204   3.900   5.566
 6356TIP3    H119029   0.170   3.825   5.518
 6356TIP3    H219030   0.284   3.925   5.519
 6357TIP3   OH219031   1.173   4.295   4.901
 6357TIP3    H119032   1.163   4.228   4.968
 6357TIP3    H219033   1.198   4.374   4.949
 6358TIP3   OH219034   0.300   4.197   5.460
 6358TIP3    H119035   0.316   4.114   5.416
 6358TIP3    H219036   0.368   4.256   5.428
 6359TIP3   OH219037   0.836   4.724   4.911
 6359TIP3    H119038   0.863   4.657   4.849
 6359TIP3    H219039   0.854   4.686   4.997
 6360TIP3   OH219040   0.775   4.205   5.222
 6360TIP3    H119041   0.815   4.125   5.187
 6360TIP3    H219042   0.849   4.254   5.259
 6361TIP3   OH219043   1.148   3.711   5.264
 6361TIP3    H119044   1.167   3.620   5.287
 6361TIP3    H219045   1.068   3.705   5.211
 6362TIP3   OH219046   0.510   3.352   5.215
 6362TIP3    H119047   0.477   3.442   5.214
 6362TIP3    H219048   0.448   3.304   5.160
 6363TIP3   OH219049   1.177   3.449   4.858
 6363TIP3    H119050   1.241   3.444   4.930
 6363TIP3    H219051   1.226   3.486   4.785
 6364TIP3   OH219052   0.135   3.720   5.371
 6364TIP3    H119053   0.225   3.707   5.343
 6364TIP3    H219054   0.086   3.649   5.329
 6365TIP3   OH219055   0.482   3.355   5.699
 6365TIP3    H119056   0.429   3.390   5.627
 6365TIP3    H219057   0.421   3.351   5.774
 6366TIP3   OH219058   0.800   4.217   4.666
 6366TIP3    H119059   0.756   4.184   4.588
 6366TIP3    H219060   0.745   4.289   4.696
 6367TIP3   OH219061   0.625   4.074   5.405
 6367TIP3    H119062   0.617   4.134   5.479
 6367TIP3    H219063   0.672   4.123   5.339
 6368TIP3   OH219064   1.340   3.474   5.077
 6368TIP3    H119065   1.287   3.455   5.154
 6368TIP3    H219066   1.415   3.524   5.111
 6369TIP3   OH219067   0.370   3.453   5.476
 6369TIP3    H119068   0.387   3.521   5.411
 6369TIP3    H219069   0.343   3.377   5.425
 6370TIP3   OH219070   0.335   4.325   5.701
 6370TIP3    H119071   0.293   4.408   5.678
 6370TIP3    H219072   0.336   4.276   5.619
 6371TIP3   OH219073   1.217   4.540   5.042
 6371TIP3    H119074   1.129   4.530   5.079
 6371TIP3    H219075   1.215   4.625   4.997
 6372TIP3   OH219076   1.484   3.400   5.380
 6372TIP3    H119077   1.395   3.434   5.379
 6372TIP3    H219078   1.491   3.349   5.299
 6373TIP3   OH219079   0.828   3.060   5.403
 6373TIP3    H119080   0.809   2.967   5.416
 6373TIP3    H219081   0.758   3.105   5.449
 6374TIP3   OH219082   0.911   4.567   4.699
 6374TIP3    H119083   0.963   4.487   4.688
 6374TIP3    H219084   0.968   4.637   4.668
 6375TIP3   OH219085   1.059   4.345   4.653
 6375TIP3    H119086   0.994   4.276   4.644
 6375TIP3    H219087   1.109   4.321   4.731
 6376TIP3   OH219088   1.449   4.431   5.387
 6376TIP3    H119089   1.435   4.356   5.329
 6376TIP3    H219090   1.433   4.507   5.330
 6377TIP3   OH219091   0.749   3.841   4.656
 6377TIP3    H119092   0.664   3.880   4.638
 6377TIP3    H219093   0.791   3.833   4.570
 6378TIP3   OH219094   0.714   3.637   4.346
 6378TIP3    H119095   0.780   3.684   4.397
 6378TIP3    H219096   0.763   3.571   4.298
 6379TIP3   OH219097   1.638   4.071   5.236
 6379TIP3    H119098   1.556   4.118   5.246
 6379TIP3    H219099   1.672   4.099   5.151
 6380TIP3   OH219100   1.098   3.926   4.615
 6380TIP3    H119101   1.042   3.955   4.688
 6380TIP3    H219102   1.179   3.897   4.657
 6381TIP3   OH219103   1.326   3.954   5.559
 6381TIP3    H119104   1.325   4.037   5.607
 6381TIP3    H219105   1.242   3.951   5.513
 6382TIP3   OH219106   0.347   3.881   5.054
 6382TIP3    H119107   0.309   3.825   4.986
 6382TIP3    H219108   0.384   3.819   5.117
 6383TIP3   OH219109   0.556   4.353   5.182
 6383TIP3    H119110   0.549   4.348   5.087
 6383TIP3    H219111   0.639   4.311   5.202
 6384TIP3   OH219112   0.977   4.528   5.169
 6384TIP3    H119113   0.970   4.609   5.218
 6384TIP3    H219114   0.973   4.459   5.235
 6385TIP3   OH219115   0.577   4.492   5.749
 6385TIP3    H119116   0.531   4.567   5.711
 6385TIP3    H219117   0.511   4.422   5.748
 6386TIP3   OH219118   0.930   3.785   4.446
 6386TIP3    H119119   0.991   3.842   4.493
 6386TIP3    H219120   0.956   3.794   4.354
 6387TIP3   OH219121   0.487   4.173   5.872
 6387TIP3    H119122   0.435   4.232   5.818
 6387TIP3    H219123   0.453   4.086   5.852
 6388TIP3   OH219124   0.654   4.455   4.725
 6388TIP3    H119125   0.740   4.496   4.728
 6388TIP3    H219126   0.604   4.507   4.662
 6389TIP3   OH219127   1.442   3.016   4.502
 6389TIP3    H119128   1.363   3.038   4.552
 6389TIP3    H219129   1.459   3.094   4.448
 6390TIP3   OH219130   0.200   3.751   4.863
 6390TIP3    H119131   0.147   3.828   4.881
 6390TIP3    H219132   0.145   3.677   4.890
 6391TIP3   OH219133   1.248   4.383   4.062
 6391TIP3    H119134   1.249   4.476   4.039
 6391TIP3    H219135   1.337   4.353   4.047
 6392TIP3   OH219136   1.679   4.794   5.451
 6392TIP3    H119137   1.685   4.699   5.464
 6392TIP3    H219138   1.601   4.820   5.499
 6393TIP3   OH219139   0.797   4.567   5.598
 6393TIP3    H119140   0.800   4.662   5.614
 6393TIP3    H219141   0.724   4.536   5.651
 6394TIP3   OH219142   0.559   4.652   4.535
 6394TIP3    H119143   0.521   4.629   4.450
 6394TIP3    H219144   0.539   4.745   4.546
 6395TIP3   OH219145   0.748   4.594   4.161
 6395TIP3    H119146   0.797   4.518   4.127
 6395TIP3    H219147   0.784   4.610   4.247
 6396TIP3   OH219148   0.814   4.646   4.427
 6396TIP3    H119149   0.729   4.642   4.470
 6396TIP3    H219150   0.875   4.607   4.490
 6397TIP3   OH219151   1.571   3.911   5.719
 6397TIP3    H119152   1.490   3.924   5.670
 6397TIP3    H219153   1.590   3.818   5.711
 6398TIP3   OH219154   0.613   3.163   5.541
 6398TIP3    H119155   0.534   3.124   5.505
 6398TIP3    H219156   0.583   3.244   5.583
 6399TIP3   OH219157   1.111   3.260   5.734
 6399TIP3    H119158   1.178   3.236   5.798
 6399TIP3    H219159   1.028   3.242   5.778
 6400TIP3   OH219160   1.334   3.689   5.648
 6400TIP3    H119161   1.289   3.682   5.733
 6400TIP3    H219162   1.313   3.777   5.617
 6401TIP3   OH219163   1.003   3.781   4.182
 6401TIP3    H119164   0.966   3.770   4.094
 6401TIP3    H219165   1.086   3.828   4.167
 6402TIP3   OH219166   0.730   3.177   4.501
 6402TIP3    H119167   0.698   3.182   4.590
 6402TIP3    H219168   0.690   3.098   4.464
 6403TIP3   OH219169   0.433   3.550   4.971
 6403TIP3    H119170   0.439   3.598   5.054
 6403TIP3    H219171   0.356   3.494   4.980
 6404TIP3   OH219172   0.863   3.629   4.784
 6404TIP3    H119173   0.814   3.702   4.746
 6404TIP3    H219174   0.918   3.597   4.713
 6405TIP3   OH219175   1.057   3.900   5.867
 6405TIP3    H119176   1.031   3.837   5.934
 6405TIP3    H219177   1.149   3.919   5.885
 6406TIP3   OH219178   1.046   3.659   4.985
 6406TIP3    H119179   0.969   3.670   4.930
 6406TIP3    H219180   1.084   3.576   4.957
 6407TIP3   OH219181   0.268   3.622   5.741
 6407TIP3    H119182   0.333   3.669   5.688
 6407TIP3    H219183   0.315   3.599   5.821
 6408TIP3   OH219184   0.419   3.191   4.484
 6408TIP3    H119185   0.420   3.197   4.579
 6408TIP3    H219186   0.371   3.268   4.455
 6409TIP3   OH219187   1.075   3.898   5.447
 6409TIP3    H119188   1.105   3.836   5.380
 6409TIP3    H219189   1.040   3.843   5.517
 6410TIP3   OH219190   0.763   3.351   5.111
 6410TIP3    H119191   0.678   3.354   5.156
 6410TIP3    H219192   0.827   3.346   5.181
 6411TIP3   OH219193   0.216   3.394   5.046
 6411TIP3    H119194   0.129   3.411   5.010
 6411TIP3    H219195   0.224   3.298   5.043
 6412TIP3   OH219196   0.418   3.352   4.766
 6412TIP3    H119197   0.477   3.408   4.818
 6412TIP3    H219198   0.371   3.414   4.709
 6413TIP3   OH219199   1.196   3.440   5.316
 6413TIP3    H119200   1.178   3.455   5.409
 6413TIP3    H219201   1.127   3.380   5.288
 6414TIP3   OH219202   0.275   3.495   4.590
 6414TIP3    H119203   0.183   3.513   4.570
 6414TIP3    H219204   0.322   3.518   4.509
 6415TIP3   OH219205   1.393   5.140   5.547
 6415TIP3    H119206   1.388   5.156   5.453
 6415TIP3    H219207   1.472   5.186   5.575
 6416TIP3   OH219208   0.851   3.714   5.229
 6416TIP3    H119209   0.822   3.666   5.151
 6416TIP3    H219210   0.799   3.677   5.301
 6417TIP3   OH219211   0.364   3.152   5.066
 6417TIP3    H119212   0.341   3.075   5.118
 6417TIP3    H219213   0.382   3.118   4.979
 6418TIP3   OH219214   0.764   3.630   5.519
 6418TIP3    H119215   0.691   3.692   5.516
 6418TIP3    H219216   0.837   3.681   5.554
 6419TIP3   OH219217   0.528   4.009   4.581
 6419TIP3    H119218   0.483   3.925   4.568
 6419TIP3    H219219   0.510   4.032   4.672
 6420TIP3   OH219220   1.404   4.221   5.211
 6420TIP3    H119221   1.439   4.271   5.138
 6420TIP3    H219222   1.324   4.182   5.178
 6421TIP3   OH219223   0.975   3.290   4.499
 6421TIP3    H119224   0.883   3.266   4.497
 6421TIP3    H219225   0.975   3.385   4.513
 6422TIP3   OH219226   0.908   4.315   5.619
 6422TIP3    H119227   0.946   4.295   5.704
 6422TIP3    H219228   0.884   4.408   5.624
 6423TIP3   OH219229   1.029   3.554   4.570
 6423TIP3    H119230   1.124   3.559   4.580
 6423TIP3    H219231   1.007   3.631   4.518
 6424TIP3   OH219232   0.107   3.958   5.230
 6424TIP3    H119233   0.169   3.945   5.158
 6424TIP3    H219234   0.114   3.879   5.283
 6425TIP3   OH219235   0.674   4.129   4.368
 6425TIP3    H119236   0.637   4.217   4.382
 6425TIP3    H219237   0.627   4.074   4.430
 6426TIP3   OH219238   0.822   4.052   5.906
 6426TIP3    H119239   0.748   4.002   5.871
 6426TIP3    H219240   0.900   4.008   5.873
 6427TIP3   OH219241   1.063   4.591   5.499
 6427TIP3    H119242   0.969   4.577   5.508
 6427TIP3    H219243   1.090   4.631   5.581
 6428TIP3   OH219244   1.446   3.642   4.400
 6428TIP3    H119245   1.397   3.588   4.339
 6428TIP3    H219246   1.447   3.729   4.359
 6429TIP3   OH219247   1.694   4.513   5.478
 6429TIP3    H119248   1.599   4.498   5.475
 6429TIP3    H219249   1.726   4.484   5.393
 6430TIP3   OH219250   1.180   4.457   4.328
 6430TIP3    H119251   1.156   4.386   4.388
 6430TIP3    H219252   1.196   4.413   4.244
 6431TIP3   OH219253   1.175   4.091   5.107
 6431TIP3    H119254   1.086   4.069   5.136
 6431TIP3    H219255   1.207   4.012   5.065
 6432TIP3   OH219256   0.305   4.401   4.936
 6432TIP3    H119257   0.294   4.367   4.847
 6432TIP3    H219258   0.248   4.346   4.990
 6433TIP3   OH219259   0.446   4.037   4.838
 6433TIP3    H119260   0.489   4.108   4.885
 6433TIP3    H219261   0.408   3.982   4.906
 6434TIP3   OH219262   0.625   4.680   5.388
 6434TIP3    H119263   0.667   4.742   5.328
 6434TIP3    H219264   0.698   4.633   5.429
 6435TIP3   OH219265   0.224   4.532   4.706
 6435TIP3    H119266   0.200   4.507   4.795
 6435TIP3    H219267   0.283   4.606   4.717
 6436TIP3   OH219268   0.988   4.310   5.352
 6436TIP3    H119269   0.962   4.308   5.444
 6436TIP3    H219270   1.073   4.265   5.349
 6437TIP3   OH219271   0.922   4.189   4.233
 6437TIP3    H119272   0.989   4.166   4.298
 6437TIP3    H219273   0.839   4.162   4.274
 6438TIP3   OH219274   1.210   4.822   5.390
 6438TIP3    H119275   1.137   4.759   5.396
 6438TIP3    H219276   1.188   4.877   5.315
 6439TIP3   OH219277   1.266   4.656   4.021
 6439TIP3    H119278   1.296   4.722   3.958
 6439TIP3    H219279   1.192   4.698   4.065
 6440TIP3   OH219280   0.313   3.333   5.918
 6440TIP3    H119281   0.246   3.283   5.965
 6440TIP3    H219282   0.380   3.351   5.984
 6441TIP3   OH219283   1.116   4.116   4.411
 6441TIP3    H119284   1.103   4.057   4.485
 6441TIP3    H219285   1.211   4.122   4.402
 6442TIP3   OH219286   0.296   4.106   4.212
 6442TIP3    H119287   0.295   4.011   4.213
 6442TIP3    H219288   0.290   4.132   4.304
 6443TIP3   OH219289   0.294   4.132   4.482
 6443TIP3    H119290   0.371   4.098   4.528
 6443TIP3    H219291   0.297   4.227   4.498
 6444TIP3   OH219292   1.156   3.482   5.580
 6444TIP3    H119293   1.226   3.532   5.622
 6444TIP3    H219294   1.141   3.408   5.639
 6445TIP3   OH219295   1.027   3.235   4.767
 6445TIP3    H119296   1.003   3.255   4.677
 6445TIP3    H219297   1.068   3.315   4.800
 6446TIP3   OH219298   0.554   4.364   4.409
 6446TIP3    H119299   0.464   4.364   4.442
 6446TIP3    H219300   0.559   4.443   4.354
 6447TIP3   OH219301   0.696   3.417   4.847
 6447TIP3    H119302   0.745   3.496   4.823
 6447TIP3    H219303   0.702   3.412   4.942
 6448TIP3   OH219304   0.997   3.732   5.647
 6448TIP3    H119305   1.010   3.781   5.729
 6448TIP3    H219306   1.035   3.646   5.664
 6449TIP3   OH219307   0.848   3.138   4.954
 6449TIP3    H119308   0.823   3.216   5.002
 6449TIP3    H219309   0.914   3.169   4.891
 6450TIP3   OH219310   0.292   4.401   4.476
 6450TIP3    H119311   0.250   4.453   4.407
 6450TIP3    H219312   0.264   4.443   4.557
 6451TIP3   OH219313   0.382   3.084   4.775
 6451TIP3    H119314   0.370   3.179   4.781
 6451TIP3    H219315   0.477   3.074   4.765
 6452TIP3   OH219316   1.598   3.645   5.623
 6452TIP3    H119317   1.504   3.646   5.638
 6452TIP3    H219318   1.609   3.610   5.535
 6453TIP3   OH219319   1.262   3.820   5.034
 6453TIP3    H119320   1.183   3.776   5.003
 6453TIP3    H219321   1.262   3.805   5.129
 6454TIP3   OH219322   7.792   3.487   4.620
 6454TIP3    H119323   7.775   3.527   4.705
 6454TIP3    H219324   7.817   3.397   4.639
 6455TIP3   OH219325   1.238   4.808   4.962
 6455TIP3    H119326   1.198   4.858   4.891
 6455TIP3    H219327   1.332   4.817   4.948
 6456TIP3   OH219328   0.377   3.045   5.492
 6456TIP3    H119329   0.348   2.998   5.413
 6456TIP3    H219330   0.364   2.983   5.563
 6457TIP3   OH219331   0.575   4.815   5.940
 6457TIP3    H119332   0.638   4.746   5.961
 6457TIP3    H219333   0.503   4.770   5.895
 6458TIP3   OH219334   1.122   4.696   5.743
 6458TIP3    H119335   1.130   4.627   5.810
 6458TIP3    H219336   1.194   4.756   5.762
 6459TIP3   OH219337   0.880   4.384   4.041
 6459TIP3    H119338   0.906   4.321   4.108
 6459TIP3    H219339   0.949   4.381   3.976
 6460TIP3   OH219340   0.168   3.889   4.354
 6460TIP3    H119341   0.154   3.831   4.429
 6460TIP3    H219342   0.149   3.835   4.278
 6461TIP3   OH219343   0.745   4.322   5.927
 6461TIP3    H119344   0.675   4.326   5.862
 6461TIP3    H219345   0.776   4.232   5.923
 6462TIP3   OH219346   0.566   4.076   4.106
 6462TIP3    H119347   0.597   4.109   4.190
 6462TIP3    H219348   0.590   3.984   4.105
 6463TIP3   OH219349   1.227   4.362   5.536
 6463TIP3    H119350   1.306   4.392   5.490
 6463TIP3    H219351   1.163   4.432   5.522
 6464TIP3   OH219352   0.413   3.769   4.614
 6464TIP3    H119353   0.386   3.724   4.694
 6464TIP3    H219354   0.415   3.700   4.548
 6465TIP3   OH219355   0.634   3.872   5.802
 6465TIP3    H119356   0.541   3.890   5.788
 6465TIP3    H219357   0.675   3.889   5.717
 6466TIP3   OH219358   0.443   3.599   4.398
 6466TIP3    H119359   0.412   3.593   4.307
 6466TIP3    H219360   0.538   3.606   4.389
 6467TIP3   OH219361   1.110   4.253   5.904
 6467TIP3    H119362   1.175   4.208   5.850
 6467TIP3    H219363   1.098   4.195   5.980
 6468TIP3   OH219364   1.228   3.907   4.078
 6468TIP3    H119365   1.216   3.864   3.993
 6468TIP3    H219366   1.195   3.996   4.066
 6469TIP3   OH219367   0.766   3.648   5.900
 6469TIP3    H119368   0.755   3.572   5.843
 6469TIP3    H219369   0.718   3.718   5.856
 6470TIP3   OH219370   0.737   3.438   5.719
 6470TIP3    H119371   0.753   3.485   5.637
 6470TIP3    H219372   0.646   3.409   5.713
 6471TIP3   OH219373   0.775   3.926   5.576
 6471TIP3    H119374   0.863   3.960   5.558
 6471TIP3    H219375   0.719   3.970   5.513
 6472TIP3   OH219376   1.322   3.931   5.964
 6472TIP3    H119377   1.365   3.846   5.970
 6472TIP3    H219378   1.392   3.993   5.944
 6473TIP3   OH219379   1.353   4.192   5.707
 6473TIP3    H119380   1.299   4.253   5.656
 6473TIP3    H219381   1.442   4.207   5.675
 6474TIP3   OH219382   0.663   3.740   6.142
 6474TIP3    H119383   0.582   3.695   6.165
 6474TIP3    H219384   0.683   3.708   6.053
 6475TIP3   OH219385   0.849   3.199   5.807
 6475TIP3    H119386   0.811   3.280   5.773
 6475TIP3    H219387   0.781   3.133   5.794
 6476TIP3   OH219388   0.996   3.693   6.033
 6476TIP3    H119389   0.978   3.679   6.126
 6476TIP3    H219390   0.914   3.671   5.989
 6477TIP3   OH219391   1.215   3.631   5.881
 6477TIP3    H119392   1.141   3.642   5.941
 6477TIP3    H219393   1.289   3.610   5.939
 6478TIP3   OH219394   1.449   3.604   6.032
 6478TIP3    H119395   1.462   3.510   6.039
 6478TIP3    H219396   1.446   3.635   6.123
 6479TIP3   OH219397   0.474   3.566   6.254
 6479TIP3    H119398   0.441   3.499   6.193
 6479TIP3    H219399   0.508   3.515   6.328
 6480TIP3   OH219400   0.915   3.189   6.069
 6480TIP3    H119401   0.983   3.121   6.066
 6480TIP3    H219402   0.883   3.196   5.979
 6481TIP3   OH219403   1.023   3.403   6.205
 6481TIP3    H119404   0.988   3.334   6.148
 6481TIP3    H219405   0.952   3.467   6.210
 6482TIP3   OH219406   1.508   4.860   4.949
 6482TIP3    H119407   1.528   4.890   5.037
 6482TIP3    H219408   1.563   4.913   4.891
 6483TIP3   OH219409   1.524   4.893   5.230
 6483TIP3    H119410   1.476   4.810   5.223
 6483TIP3    H219411   1.594   4.875   5.293
 6484TIP3   OH219412   1.572   4.591   5.797
 6484TIP3    H119413   1.500   4.599   5.860
 6484TIP3    H219414   1.618   4.674   5.802
 6485TIP3   OH219415   1.393   4.112   4.405
 6485TIP3    H119416   1.456   4.178   4.377
 6485TIP3    H219417   1.432   4.073   4.484
 6486TIP3   OH219418   1.504   3.974   4.616
 6486TIP3    H119419   1.439   3.929   4.670
 6486TIP3    H219420   1.573   4.000   4.677
 6487TIP3   OH219421   1.574   4.361   5.041
 6487TIP3    H119422   1.626   4.294   4.997
 6487TIP3    H219423   1.572   4.435   4.979
 6488TIP3   OH219424   1.381   4.654   5.237
 6488TIP3    H119425   1.313   4.696   5.290
 6488TIP3    H219426   1.334   4.612   5.165
 6489TIP3   OH219427   1.429   3.879   4.262
 6489TIP3    H119428   1.358   3.879   4.198
 6489TIP3    H219429   1.416   3.958   4.313
 6490TIP3   OH219430   1.290   3.529   4.205
 6490TIP3    H119431   1.255   3.568   4.125
 6490TIP3    H219432   1.280   3.435   4.192
 6491TIP3   OH219433   1.319   3.820   4.756
 6491TIP3    H119434   1.320   3.727   4.733
 6491TIP3    H219435   1.306   3.821   4.851
 6492TIP3   OH219436   1.612   4.239   5.611
 6492TIP3    H119437   1.677   4.171   5.596
 6492TIP3    H219438   1.629   4.304   5.542
 6493TIP3   OH219439   1.790   4.027   5.599
 6493TIP3    H119440   1.717   3.984   5.644
 6493TIP3    H219441   1.862   3.964   5.605
 6494TIP3   OH219442   1.260   3.257   4.172
 6494TIP3    H119443   1.324   3.235   4.239
 6494TIP3    H219444   1.178   3.217   4.203
 6495TIP3   OH219445   1.322   3.553   4.636
 6495TIP3    H119446   1.362   3.467   4.648
 6495TIP3    H219447   1.364   3.589   4.558
 6496TIP3   OH219448   1.551   3.661   5.143
 6496TIP3    H119449   1.494   3.712   5.084
 6496TIP3    H219450   1.538   3.702   5.228
 6497TIP3   OH219451   1.512   3.841   5.350
 6497TIP3    H119452   1.452   3.872   5.417
 6497TIP3    H219453   1.562   3.918   5.325
 6498TIP3   OH219454   2.002   3.466   5.921
 6498TIP3    H119455   2.064   3.406   5.880
 6498TIP3    H219456   1.964   3.515   5.848
 6499TIP3   OH219457   1.425   3.301   4.694
 6499TIP3    H119458   1.475   3.282   4.773
 6499TIP3    H219459   1.364   3.227   4.686
 6500TIP3   OH219460   0.043   3.241   5.560
 6500TIP3    H119461   0.092   3.229   5.479
 6500TIP3    H219462   0.036   3.336   5.570
 6501TIP3   OH219463   1.860   3.583   5.720
 6501TIP3    H119464   1.778   3.625   5.748
 6501TIP3    H219465   1.831   3.505   5.672
 6502TIP3   OH219466   1.503   3.225   4.324
 6502TIP3    H119467   1.542   3.157   4.269
 6502TIP3    H219468   1.565   3.298   4.319
 6503TIP3   OH219469   1.060   4.766   4.592
 6503TIP3    H119470   1.114   4.754   4.514
 6503TIP3    H219471   1.107   4.831   4.644
 6504TIP3   OH219472   0.453   4.685   5.606
 6504TIP3    H119473   0.362   4.675   5.580
 6504TIP3    H219474   0.501   4.691   5.523
 6505TIP3   OH219475   0.809   4.833   5.647
 6505TIP3    H119476   0.835   4.833   5.740
 6505TIP3    H219477   0.871   4.893   5.605
 6506TIP3   OH219478   0.988   5.003   5.524
 6506TIP3    H119479   1.058   4.950   5.484
 6506TIP3    H219480   1.035   5.063   5.583
 6507TIP3   OH219481   1.770   3.327   5.633
 6507TIP3    H119482   1.686   3.316   5.588
 6507TIP3    H219483   1.820   3.248   5.611
 6508TIP3   OH219484   0.709   4.885   5.216
 6508TIP3    H119485   0.622   4.895   5.179
 6508TIP3    H219486   0.721   4.964   5.270
 6509TIP3   OH219487   0.962   4.792   5.246
 6509TIP3    H119488   0.871   4.819   5.235
 6509TIP3    H219489   1.013   4.863   5.207
 6510TIP3   OH219490   1.158   4.979   5.163
 6510TIP3    H119491   1.145   5.064   5.122
 6510TIP3    H219492   1.186   4.922   5.091
 6511TIP3   OH219493   0.456   4.624   5.056
 6511TIP3    H119494   0.406   4.555   5.012
 6511TIP3    H219495   0.460   4.596   5.147
 6512TIP3   OH219496   0.988   3.256   5.260
 6512TIP3    H119497   0.941   3.185   5.304
 6512TIP3    H219498   1.051   3.211   5.203
 6513TIP3   OH219499   1.477   3.211   5.161
 6513TIP3    H119500   1.513   3.240   5.077
 6513TIP3    H219501   1.383   3.200   5.145
 6514TIP3   OH219502   1.603   3.258   4.912
 6514TIP3    H119503   1.663   3.189   4.881
 6514TIP3    H219504   1.648   3.340   4.891
 6515TIP3   OH219505   0.269   2.957   5.263
 6515TIP3    H119506   0.187   2.973   5.216
 6515TIP3    H219507   0.294   2.868   5.238
 6516TIP3   OH219508   7.707   2.811   4.950
 6516TIP3    H119509   7.755   2.847   4.875
 6516TIP3    H219510   7.660   2.886   4.986
 6517TIP3   OH219511   0.684   2.998   5.137
 6517TIP3    H119512   0.733   3.044   5.069
 6517TIP3    H219513   0.697   3.051   5.216
 6518TIP3   OH219514   1.205   3.144   5.117
 6518TIP3    H119515   1.201   3.110   5.028
 6518TIP3    H219516   1.201   3.067   5.173
 6519TIP3   OH219517   1.248   3.086   4.688
 6519TIP3    H119518   1.166   3.133   4.708
 6519TIP3    H219519   1.236   2.999   4.726
 6520TIP3   OH219520   0.212   2.972   4.579
 6520TIP3    H119521   0.248   2.893   4.538
 6520TIP3    H219522   0.273   2.992   4.650
 6521TIP3   OH219523   0.648   3.160   4.761
 6521TIP3    H119524   0.713   3.131   4.825
 6521TIP3    H219525   0.639   3.254   4.779
 6522TIP3   OH219526   0.495   4.597   4.272
 6522TIP3    H119527   0.571   4.608   4.215
 6522TIP3    H219528   0.426   4.564   4.214
 6523TIP3   OH219529   1.214   4.726   4.362
 6523TIP3    H119530   1.208   4.630   4.355
 6523TIP3    H219531   1.173   4.758   4.282
 6524TIP3   OH219532   0.434   3.299   6.167
 6524TIP3    H119533   0.409   3.210   6.188
 6524TIP3    H219534   0.530   3.300   6.176
 6525TIP3   OH219535   0.705   3.278   6.229
 6525TIP3    H119536   0.776   3.250   6.172
 6525TIP3    H219537   0.687   3.201   6.284
 6526TIP3   OH219538   1.510   3.334   6.042
 6526TIP3    H119539   1.527   3.304   6.131
 6526TIP3    H219540   1.595   3.329   5.998
 6527TIP3   OH219541   1.433   4.866   5.552
 6527TIP3    H119542   1.358   4.836   5.501
 6527TIP3    H219543   1.420   4.961   5.561
 6528TIP3   OH219544   2.697   4.251   4.703
 6528TIP3    H119545   2.743   4.231   4.785
 6528TIP3    H219546   2.697   4.168   4.655
 6529TIP3   OH219547   2.002   4.119   5.067
 6529TIP3    H119548   2.029   4.055   5.132
 6529TIP3    H219549   2.079   4.172   5.050
 6530TIP3   OH219550   2.993   4.565   4.381
 6530TIP3    H119551   2.970   4.493   4.440
 6530TIP3    H219552   2.997   4.642   4.437
 6531TIP3   OH219553   1.995   4.542   4.755
 6531TIP3    H119554   1.981   4.447   4.759
 6531TIP3    H219555   2.090   4.552   4.747
 6532TIP3   OH219556   1.661   3.750   4.542
 6532TIP3    H119557   1.617   3.833   4.557
 6532TIP3    H219558   1.595   3.696   4.498
 6533TIP3   OH219559   1.745   4.028   4.744
 6533TIP3    H119560   1.797   3.950   4.766
 6533TIP3    H219561   1.796   4.073   4.677
 6534TIP3   OH219562   2.622   4.979   4.396
 6534TIP3    H119563   2.636   4.912   4.329
 6534TIP3    H219564   2.630   4.932   4.479
 6535TIP3   OH219565   2.510   4.465   4.731
 6535TIP3    H119566   2.554   4.386   4.702
 6535TIP3    H219567   2.581   4.524   4.758
 6536TIP3   OH219568   3.538   3.800   4.757
 6536TIP3    H119569   3.563   3.874   4.814
 6536TIP3    H219570   3.527   3.840   4.671
 6537TIP3   OH219571   2.871   3.959   4.725
 6537TIP3    H119572   2.905   3.875   4.758
 6537TIP3    H219573   2.876   3.950   4.629
 6538TIP3   OH219574   2.241   3.645   4.739
 6538TIP3    H119575   2.297   3.696   4.681
 6538TIP3    H219576   2.219   3.567   4.688
 6539TIP3   OH219577   1.901   3.819   4.831
 6539TIP3    H119578   1.985   3.800   4.873
 6539TIP3    H219579   1.900   3.761   4.754
 6540TIP3   OH219580   3.605   4.016   4.914
 6540TIP3    H119581   3.515   4.048   4.907
 6540TIP3    H219582   3.637   4.052   4.996
 6541TIP3   OH219583   2.240   3.607   5.185
 6541TIP3    H119584   2.196   3.648   5.111
 6541TIP3    H219585   2.187   3.631   5.261
 6542TIP3   OH219586   2.642   4.450   4.133
 6542TIP3    H119587   2.682   4.368   4.105
 6542TIP3    H219588   2.559   4.424   4.172
 6543TIP3   OH219589   2.366   4.398   4.959
 6543TIP3    H119590   2.306   4.467   4.987
 6543TIP3    H219591   2.413   4.436   4.884
 6544TIP3   OH219592   3.202   3.707   4.654
 6544TIP3    H119593   3.111   3.711   4.684
 6544TIP3    H219594   3.223   3.797   4.630
 6545TIP3   OH219595   2.124   3.725   4.966
 6545TIP3    H119596   2.179   3.801   4.984
 6545TIP3    H219597   2.162   3.687   4.887
 6546TIP3   OH219598   2.191   4.594   5.044
 6546TIP3    H119599   2.175   4.683   5.011
 6546TIP3    H219600   2.114   4.574   5.096
 6547TIP3   OH219601   1.576   4.292   4.295
 6547TIP3    H119602   1.538   4.306   4.208
 6547TIP3    H219603   1.600   4.380   4.325
 6548TIP3   OH219604   3.002   4.805   4.535
 6548TIP3    H119605   2.915   4.792   4.572
 6548TIP3    H219606   2.997   4.889   4.489
 6549TIP3   OH219607   3.341   3.666   4.901
 6549TIP3    H119608   3.261   3.677   4.848
 6549TIP3    H219609   3.411   3.701   4.845
 6550TIP3   OH219610   2.615   3.325   4.910
 6550TIP3    H119611   2.592   3.235   4.891
 6550TIP3    H219612   2.533   3.365   4.939
 6551TIP3   OH219613   2.691   4.817   4.180
 6551TIP3    H119614   2.744   4.738   4.170
 6551TIP3    H219615   2.750   4.889   4.156
 6552TIP3   OH219616   2.866   4.613   4.129
 6552TIP3    H119617   2.799   4.545   4.122
 6552TIP3    H219618   2.921   4.585   4.202
 6553TIP3   OH219619   3.240   4.696   4.877
 6553TIP3    H119620   3.230   4.617   4.823
 6553TIP3    H219621   3.225   4.769   4.817
 6554TIP3   OH219622   3.443   4.337   4.706
 6554TIP3    H119623   3.361   4.385   4.716
 6554TIP3    H219624   3.466   4.348   4.613
 6555TIP3   OH219625   3.104   4.203   5.042
 6555TIP3    H119626   3.108   4.285   5.091
 6555TIP3    H219627   3.023   4.210   4.991
 6556TIP3   OH219628   2.129   4.146   4.519
 6556TIP3    H119629   2.065   4.107   4.460
 6556TIP3    H219630   2.202   4.083   4.520
 6557TIP3   OH219631   2.258   4.586   4.655
 6557TIP3    H119632   2.235   4.563   4.564
 6557TIP3    H219633   2.343   4.546   4.669
 6558TIP3   OH219634   2.248   4.167   4.877
 6558TIP3    H119635   2.291   4.154   4.792
 6558TIP3    H219636   2.288   4.247   4.911
 6559TIP3   OH219637   2.763   4.791   4.662
 6559TIP3    H119638   2.754   4.869   4.716
 6559TIP3    H219639   2.754   4.718   4.723
 6560TIP3   OH219640   2.393   4.697   5.205
 6560TIP3    H119641   2.334   4.755   5.253
 6560TIP3    H219642   2.335   4.644   5.150
 6561TIP3   OH219643   2.141   4.257   5.332
 6561TIP3    H119644   2.142   4.349   5.361
 6561TIP3    H219645   2.049   4.232   5.334
 6562TIP3   OH219646   2.398   4.672   4.106
 6562TIP3    H119647   2.487   4.665   4.140
 6562TIP3    H219648   2.383   4.767   4.098
 6563TIP3   OH219649   2.179   4.854   5.290
 6563TIP3    H119650   2.154   4.861   5.198
 6563TIP3    H219651   2.097   4.837   5.336
 6564TIP3   OH219652   3.256   3.271   4.001
 6564TIP3    H119653   3.175   3.288   4.049
 6564TIP3    H219654   3.267   3.348   3.945
 6565TIP3   OH219655   1.972   4.007   4.344
 6565TIP3    H119656   1.901   4.037   4.287
 6565TIP3    H219657   1.972   3.912   4.334
 6566TIP3   OH219658   3.050   4.639   3.559
 6566TIP3    H119659   3.048   4.731   3.531
 6566TIP3    H219660   3.138   4.609   3.535
 6567TIP3   OH219661   1.769   4.408   5.239
 6567TIP3    H119662   1.702   4.387   5.174
 6567TIP3    H219663   1.804   4.323   5.267
 6568TIP3   OH219664   1.618   4.596   4.885
 6568TIP3    H119665   1.713   4.609   4.891
 6568TIP3    H219666   1.581   4.675   4.923
 6569TIP3   OH219667   3.476   5.047   4.929
 6569TIP3    H119668   3.481   4.953   4.947
 6569TIP3    H219669   3.396   5.076   4.974
 6570TIP3   OH219670   2.580   4.838   5.062
 6570TIP3    H119671   2.574   4.928   5.094
 6570TIP3    H219672   2.515   4.790   5.113
 6571TIP3   OH219673   2.355   4.937   4.022
 6571TIP3    H119674   2.320   4.915   3.935
 6571TIP3    H219675   2.318   5.023   4.042
 6572TIP3   OH219676   1.800   4.790   4.391
 6572TIP3    H119677   1.842   4.784   4.477
 6572TIP3    H219678   1.748   4.709   4.385
 6573TIP3   OH219679   2.562   4.856   3.648
 6573TIP3    H119680   2.615   4.783   3.616
 6573TIP3    H219681   2.592   4.871   3.737
 6574TIP3   OH219682   2.609   4.910   3.916
 6574TIP3    H119683   2.524   4.916   3.959
 6574TIP3    H219684   2.665   4.867   3.980
 6575TIP3   OH219685   3.384   4.147   5.147
 6575TIP3    H119686   3.295   4.164   5.179
 6575TIP3    H219687   3.392   4.051   5.152
 6576TIP3   OH219688   1.972   4.592   5.211
 6576TIP3    H119689   2.021   4.581   5.292
 6576TIP3    H219690   1.900   4.530   5.218
 6577TIP3   OH219691   2.351   3.400   5.021
 6577TIP3    H119692   2.267   3.374   4.984
 6577TIP3    H219693   2.333   3.482   5.066
 6578TIP3   OH219694   2.903   3.522   5.220
 6578TIP3    H119695   2.974   3.500   5.281
 6578TIP3    H219696   2.823   3.502   5.267
 6579TIP3   OH219697   3.129   3.943   5.133
 6579TIP3    H119698   3.081   3.940   5.216
 6579TIP3    H219699   3.113   4.031   5.099
 6580TIP3   OH219700   2.759   4.011   3.647
 6580TIP3    H119701   2.751   4.000   3.552
 6580TIP3    H219702   2.836   4.066   3.659
 6581TIP3   OH219703   2.447   3.497   3.965
 6581TIP3    H119704   2.505   3.562   4.005
 6581TIP3    H219705   2.474   3.413   4.002
 6582TIP3   OH219706   2.290   3.937   5.018
 6582TIP3    H119707   2.281   3.966   5.109
 6582TIP3    H219708   2.272   4.015   4.966
 6583TIP3   OH219709   2.856   4.165   5.356
 6583TIP3    H119710   2.827   4.096   5.417
 6583TIP3    H219711   2.948   4.178   5.378
 6584TIP3   OH219712   2.896   3.941   4.434
 6584TIP3    H119713   2.875   4.005   4.367
 6584TIP3    H219714   2.925   3.864   4.385
 6585TIP3   OH219715   2.105   3.941   5.257
 6585TIP3    H119716   2.179   3.990   5.293
 6585TIP3    H219717   2.104   3.859   5.306
 6586TIP3   OH219718   1.752   3.472   4.802
 6586TIP3    H119719   1.816   3.535   4.769
 6586TIP3    H219720   1.733   3.415   4.728
 6587TIP3   OH219721   1.698   3.451   4.337
 6587TIP3    H119722   1.790   3.467   4.315
 6587TIP3    H219723   1.654   3.534   4.319
 6588TIP3   OH219724   2.848   4.156   4.915
 6588TIP3    H119725   2.869   4.089   4.850
 6588TIP3    H219726   2.822   4.106   4.993
 6589TIP3   OH219727   1.904   3.645   4.622
 6589TIP3    H119728   1.825   3.676   4.576
 6589TIP3    H219729   1.966   3.625   4.552
 6590TIP3   OH219730   2.959   3.704   4.796
 6590TIP3    H119731   2.949   3.717   4.890
 6590TIP3    H219732   2.893   3.639   4.773
 6591TIP3   OH219733   3.186   5.398   5.035
 6591TIP3    H119734   3.187   5.414   4.941
 6591TIP3    H219735   3.265   5.442   5.068
 6592TIP3   OH219736   2.127   4.513   5.445
 6592TIP3    H119737   2.209   4.530   5.491
 6592TIP3    H219738   2.060   4.517   5.513
 6593TIP3   OH219739   2.190   3.414   4.593
 6593TIP3    H119740   2.119   3.357   4.622
 6593TIP3    H219741   2.150   3.468   4.524
 6594TIP3   OH219742   2.556   3.842   5.056
 6594TIP3    H119743   2.479   3.885   5.018
 6594TIP3    H219744   2.623   3.911   5.059
 6595TIP3   OH219745   2.232   4.372   4.067
 6595TIP3    H119746   2.213   4.289   4.024
 6595TIP3    H219747   2.235   4.350   4.161
 6596TIP3   OH219748   3.204   4.483   4.706
 6596TIP3    H119749   3.234   4.522   4.624
 6596TIP3    H219750   3.118   4.446   4.685
 6597TIP3   OH219751   2.707   4.563   5.102
 6597TIP3    H119752   2.765   4.547   5.177
 6597TIP3    H219753   2.672   4.650   5.117
 6598TIP3   OH219754   2.009   4.262   4.745
 6598TIP3    H119755   2.044   4.229   4.661
 6598TIP3    H219756   2.062   4.217   4.811
 6599TIP3   OH219757   1.869   4.186   5.375
 6599TIP3    H119758   1.884   4.162   5.467
 6599TIP3    H219759   1.807   4.120   5.344
 6600TIP3   OH219760   2.627   4.320   5.379
 6600TIP3    H119761   2.580   4.293   5.301
 6600TIP3    H219762   2.714   4.281   5.370
 6601TIP3   OH219763   2.850   4.855   4.983
 6601TIP3    H119764   2.756   4.840   4.991
 6601TIP3    H219765   2.876   4.891   5.068
 6602TIP3   OH219766   3.489   4.763   4.966
 6602TIP3    H119767   3.394   4.753   4.964
 6602TIP3    H219768   3.518   4.732   4.880
 6603TIP3   OH219769   3.008   4.727   3.828
 6603TIP3    H119770   2.978   4.661   3.891
 6603TIP3    H219771   3.015   4.679   3.745
 6604TIP3   OH219772   2.958   4.372   4.625
 6604TIP3    H119773   2.867   4.348   4.640
 6604TIP3    H219774   3.001   4.290   4.600
 6605TIP3   OH219775   2.102   4.581   4.406
 6605TIP3    H119776   2.097   4.655   4.346
 6605TIP3    H219777   2.011   4.567   4.434
 6606TIP3   OH219778   1.619   3.907   4.059
 6606TIP3    H119779   1.683   3.967   4.096
 6606TIP3    H219780   1.563   3.884   4.133
 6607TIP3   OH219781   2.224   4.344   4.339
 6607TIP3    H119782   2.184   4.427   4.366
 6607TIP3    H219783   2.193   4.280   4.403
 6608TIP3   OH219784   2.391   4.909   4.860
 6608TIP3    H119785   2.428   4.981   4.809
 6608TIP3    H219786   2.465   4.876   4.911
 6609TIP3   OH219787   2.030   4.797   4.236
 6609TIP3    H119788   1.943   4.803   4.274
 6609TIP3    H219789   2.064   4.886   4.240
 6610TIP3   OH219790   2.753   4.566   4.830
 6610TIP3    H119791   2.740   4.559   4.924
 6610TIP3    H219792   2.832   4.516   4.813
 6611TIP3   OH219793   2.735   4.417   3.724
 6611TIP3    H119794   2.771   4.382   3.806
 6611TIP3    H219795   2.644   4.387   3.723
 6612TIP3   OH219796   3.000   5.072   4.877
 6612TIP3    H119797   2.932   5.006   4.893
 6612TIP3    H219798   2.965   5.125   4.805
 6613TIP3   OH219799   3.051   4.912   3.506
 6613TIP3    H119800   3.062   4.969   3.430
 6613TIP3    H219801   2.985   4.958   3.559
 6614TIP3   OH219802   2.103   3.688   5.416
 6614TIP3    H119803   2.043   3.736   5.473
 6614TIP3    H219804   2.145   3.624   5.473
 6615TIP3   OH219805   1.821   4.793   5.021
 6615TIP3    H119806   1.871   4.728   5.070
 6615TIP3    H219807   1.838   4.876   5.066
 6616TIP3   OH219808   1.765   4.116   4.185
 6616TIP3    H119809   1.703   4.164   4.240
 6616TIP3    H219810   1.791   4.178   4.117
 6617TIP3   OH219811   2.931   3.754   5.067
 6617TIP3    H119812   3.009   3.799   5.099
 6617TIP3    H219813   2.921   3.678   5.125
 6618TIP3   OH219814   2.779   4.003   5.131
 6618TIP3    H119815   2.808   4.047   5.211
 6618TIP3    H219816   2.825   3.919   5.132
 6619TIP3   OH219817   2.671   3.389   4.480
 6619TIP3    H119818   2.702   3.428   4.562
 6619TIP3    H219819   2.733   3.420   4.414
 6620TIP3   OH219820   2.117   4.673   4.002
 6620TIP3    H119821   2.078   4.721   3.929
 6620TIP3    H219822   2.080   4.714   4.080
 6621TIP3   OH219823   3.387   3.865   5.101
 6621TIP3    H119824   3.296   3.884   5.123
 6621TIP3    H219825   3.382   3.802   5.029
 6622TIP3   OH219826   3.068   4.131   4.555
 6622TIP3    H119827   3.011   4.067   4.511
 6622TIP3    H219828   3.147   4.082   4.577
 6623TIP3   OH219829   1.772   4.327   3.970
 6623TIP3    H119830   1.812   4.409   3.943
 6623TIP3    H219831   1.820   4.260   3.921
 6624TIP3   OH219832   3.037   5.078   4.452
 6624TIP3    H119833   2.987   5.122   4.383
 6624TIP3    H219834   3.128   5.087   4.426
 6625TIP3   OH219835   2.066   3.328   5.000
 6625TIP3    H119836   2.047   3.302   4.910
 6625TIP3    H219837   2.069   3.245   5.049
 6626TIP3   OH219838   1.626   4.567   4.371
 6626TIP3    H119839   1.576   4.599   4.446
 6626TIP3    H219840   1.585   4.607   4.295
 6627TIP3   OH219841   1.816   5.105   5.443
 6627TIP3    H119842   1.899   5.109   5.491
 6627TIP3    H219843   1.800   5.011   5.431
 6628TIP3   OH219844   2.282   5.022   5.482
 6628TIP3    H119845   2.374   4.996   5.493
 6628TIP3    H219846   2.250   4.967   5.411
 6629TIP3   OH219847   2.255   4.582   3.707
 6629TIP3    H119848   2.215   4.495   3.703
 6629TIP3    H219849   2.327   4.578   3.644
 6630TIP3   OH219850   2.909   4.959   5.229
 6630TIP3    H119851   2.912   4.887   5.293
 6630TIP3    H219852   2.986   5.012   5.249
 6631TIP3   OH219853   2.705   4.646   3.543
 6631TIP3    H119854   2.737   4.578   3.603
 6631TIP3    H219855   2.757   4.634   3.463
 6632TIP3   OH219856   1.923   4.503   5.635
 6632TIP3    H119857   1.944   4.410   5.643
 6632TIP3    H219858   1.837   4.505   5.594
 6633TIP3   OH219859   1.920   4.135   3.848
 6633TIP3    H119860   1.974   4.107   3.923
 6633TIP3    H219861   1.980   4.135   3.774
 6634TIP3   OH219862   2.542   4.589   5.412
 6634TIP3    H119863   2.501   4.609   5.328
 6634TIP3    H219864   2.585   4.504   5.399
 6635TIP3   OH219865   2.472   4.322   3.737
 6635TIP3    H119866   2.507   4.292   3.821
 6635TIP3    H219867   2.456   4.241   3.688
 6636TIP3   OH219868   3.017   4.626   5.024
 6636TIP3    H119869   3.097   4.655   4.981
 6636TIP3    H219870   2.953   4.696   5.006
 6637TIP3   OH219871   2.043   4.249   5.634
 6637TIP3    H119872   2.120   4.223   5.583
 6637TIP3    H219873   2.078   4.269   5.721
 6638TIP3   OH219874   2.113   4.078   4.042
 6638TIP3    H119875   2.118   4.039   4.130
 6638TIP3    H219876   2.156   4.013   3.986
 6639TIP3   OH219877   2.347   4.089   5.263
 6639TIP3    H119878   2.287   4.158   5.292
 6639TIP3    H219879   2.416   4.137   5.216
 6640TIP3   OH219880   2.218   3.881   3.882
 6640TIP3    H119881   2.194   3.874   3.790
 6640TIP3    H219882   2.285   3.814   3.894
 6641TIP3   OH219883   2.903   4.507   5.389
 6641TIP3    H119884   2.987   4.487   5.348
 6641TIP3    H219885   2.900   4.451   5.467
 6642TIP3   OH219886   2.990   4.154   3.568
 6642TIP3    H119887   2.990   4.111   3.483
 6642TIP3    H219888   2.968   4.245   3.548
 6643TIP3   OH219889   2.495   3.905   5.414
 6643TIP3    H119890   2.502   3.821   5.367
 6643TIP3    H219891   2.454   3.964   5.351
 6644TIP3   OH219892   2.497   3.673   5.255
 6644TIP3    H119893   2.529   3.723   5.180
 6644TIP3    H219894   2.408   3.647   5.231
 6645TIP3   OH219895   2.529   4.244   5.126
 6645TIP3    H119896   2.614   4.237   5.083
 6645TIP3    H219897   2.479   4.304   5.071
 6646TIP3   OH219898   3.117   4.165   5.472
 6646TIP3    H119899   3.136   4.072   5.473
 6646TIP3    H219900   3.201   4.207   5.488
 6647TIP3   OH219901   3.146   4.445   5.184
 6647TIP3    H119902   3.092   4.507   5.135
 6647TIP3    H219903   3.235   4.461   5.154
 6648TIP3   OH219904   2.384   3.996   5.651
 6648TIP3    H119905   2.317   3.930   5.672
 6648TIP3    H219906   2.415   3.972   5.564
 6649TIP3   OH219907   2.644   3.449   5.304
 6649TIP3    H119908   2.597   3.530   5.284
 6649TIP3    H219909   2.581   3.379   5.284
 6650TIP3   OH219910   2.759   3.953   5.503
 6650TIP3    H119911   2.759   3.939   5.598
 6650TIP3    H219912   2.669   3.933   5.476
 6651TIP3   OH219913   2.987   3.892   5.358
 6651TIP3    H119914   2.910   3.900   5.413
 6651TIP3    H219915   3.058   3.868   5.418
 6652TIP3   OH219916   3.196   3.854   5.526
 6652TIP3    H119917   3.239   3.768   5.520
 6652TIP3    H219918   3.224   3.889   5.611
 6653TIP3   OH219919   2.230   3.767   5.718
 6653TIP3    H119920   2.242   3.680   5.680
 6653TIP3    H219921   2.268   3.761   5.806
 6654TIP3   OH219922   2.705   3.444   5.570
 6654TIP3    H119923   2.777   3.381   5.567
 6654TIP3    H219924   2.675   3.452   5.479
 6655TIP3   OH219925   2.793   3.663   5.714
 6655TIP3    H119926   2.766   3.593   5.656
 6655TIP3    H219927   2.721   3.726   5.711
 6656TIP3   OH219928   2.037   4.859   3.800
 6656TIP3    H119929   2.131   4.863   3.785
 6656TIP3    H219930   2.000   4.921   3.736
 6657TIP3   OH219931   1.506   4.292   4.021
 6657TIP3    H119932   1.598   4.313   4.005
 6657TIP3    H219933   1.492   4.211   3.972
 6658TIP3   OH219934   1.421   4.882   4.452
 6658TIP3    H119935   1.355   4.827   4.409
 6658TIP3    H219936   1.465   4.822   4.513
 6659TIP3   OH219937   1.561   4.719   4.626
 6659TIP3    H119938   1.550   4.649   4.691
 6659TIP3    H219939   1.614   4.785   4.670
 6660TIP3   OH219940   3.348   5.171   4.403
 6660TIP3    H119941   3.347   5.141   4.494
 6660TIP3    H219942   3.335   5.265   4.409
 6661TIP3   OH219943   3.323   5.142   4.687
 6661TIP3    H119944   3.270   5.062   4.695
 6661TIP3    H219945   3.397   5.127   4.746
 6662TIP3   OH219946   3.359   4.849   5.280
 6662TIP3    H119947   3.293   4.851   5.350
 6662TIP3    H219948   3.406   4.932   5.289
 6663TIP3   OH219949   3.181   4.375   3.881
 6663TIP3    H119950   3.252   4.436   3.862
 6663TIP3    H219951   3.203   4.338   3.967
 6664TIP3   OH219952   3.279   4.248   4.106
 6664TIP3    H119953   3.252   4.158   4.119
 6664TIP3    H219954   3.368   4.252   4.141
 6665TIP3   OH219955   3.374   4.592   4.511
 6665TIP3    H119956   3.428   4.523   4.474
 6665TIP3    H219957   3.322   4.624   4.437
 6666TIP3   OH219958   3.172   4.914   4.722
 6666TIP3    H119959   3.109   4.956   4.780
 6666TIP3    H219960   3.119   4.871   4.656
 6667TIP3   OH219961   3.230   4.168   3.707
 6667TIP3    H119962   3.147   4.150   3.662
 6667TIP3    H219963   3.208   4.234   3.773
 6668TIP3   OH219964   1.741   4.144   4.992
 6668TIP3    H119965   1.735   4.112   4.903
 6668TIP3    H219966   1.835   4.147   5.010
 6669TIP3   OH219967   3.403   4.503   5.098
 6669TIP3    H119968   3.472   4.437   5.090
 6669TIP3    H219969   3.433   4.577   5.046
 6670TIP3   OH219970   3.593   4.303   5.087
 6670TIP3    H119971   3.516   4.254   5.115
 6670TIP3    H219972   3.667   4.249   5.114
 6671TIP3   OH219973   3.039   3.509   3.672
 6671TIP3    H119974   3.097   3.473   3.740
 6671TIP3    H219975   2.957   3.460   3.682
 6672TIP3   OH219976   3.286   3.971   4.627
 6672TIP3    H119977   3.369   3.988   4.582
 6672TIP3    H219978   3.297   4.010   4.713
 6673TIP3   OH219979   3.346   4.117   4.852
 6673TIP3    H119980   3.289   4.142   4.924
 6673TIP3    H219981   3.374   4.200   4.814
 6674TIP3   OH219982   1.975   3.820   5.631
 6674TIP3    H119983   2.063   3.819   5.669
 6674TIP3    H219984   1.931   3.743   5.667
 6675TIP3   OH219985   3.817   3.724   5.412
 6675TIP3    H119986   3.871   3.661   5.364
 6675TIP3    H219987   3.771   3.772   5.344
 6676TIP3   OH219988   1.915   3.560   5.061
 6676TIP3    H119989   1.952   3.473   5.045
 6676TIP3    H219990   1.983   3.620   5.033
 6677TIP3   OH219991   1.772   3.826   5.072
 6677TIP3    H119992   1.816   3.851   4.991
 6677TIP3    H219993   1.757   3.909   5.118
 6678TIP3   OH219994   3.648   3.853   5.237
 6678TIP3    H119995   3.591   3.885   5.307
 6678TIP3    H219996   3.589   3.816   5.172
 6679TIP3   OH219997   3.295   3.482   3.828
 6679TIP3    H119998   3.331   3.422   3.763
 6679TIP3    H219999   3.314   3.569   3.792
 6680TIP3   OH220000   1.687   3.322   4.578
 6680TIP3    H120001   1.593   3.308   4.589
 6680TIP3    H220002   1.694   3.375   4.498
 6681TIP3   OH220003   2.846   5.021   4.090
 6681TIP3    H120004   2.902   5.011   4.013
 6681TIP3    H220005   2.891   5.086   4.144
 6682TIP3   OH220006   1.955   4.825   5.455
 6682TIP3    H120007   1.862   4.803   5.447
 6682TIP3    H220008   1.975   4.810   5.547
 6683TIP3   OH220009   2.162   4.869   5.007
 6683TIP3    H120010   2.111   4.943   4.975
 6683TIP3    H220011   2.247   4.878   4.965
 6684TIP3   OH220012   2.569   5.104   5.146
 6684TIP3    H120013   2.607   5.094   5.233
 6684TIP3    H220014   2.633   5.156   5.098
 6685TIP3   OH220015   2.761   5.256   5.017
 6685TIP3    H120016   2.825   5.197   4.976
 6685TIP3    H220017   2.813   5.313   5.072
 6686TIP3   OH220018   3.555   3.591   5.103
 6686TIP3    H120019   3.470   3.591   5.060
 6686TIP3    H220020   3.587   3.501   5.095
 6687TIP3   OH220021   1.824   5.117   5.051
 6687TIP3    H120022   1.733   5.134   5.029
 6687TIP3    H220023   1.845   5.182   5.118
 6688TIP3   OH220024   2.055   5.101   4.902
 6688TIP3    H120025   1.972   5.107   4.949
 6688TIP3    H220026   2.034   5.125   4.812
 6689TIP3   OH220027   2.472   5.117   4.694
 6689TIP3    H120028   2.402   5.129   4.630
 6689TIP3    H220029   2.482   5.203   4.735
 6690TIP3   OH220030   2.738   5.058   4.743
 6690TIP3    H120031   2.646   5.074   4.724
 6690TIP3    H220032   2.784   5.131   4.701
 6691TIP3   OH220033   2.942   5.240   4.654
 6691TIP3    H120034   2.934   5.326   4.611
 6691TIP3    H220035   2.973   5.181   4.586
 6692TIP3   OH220036   1.738   4.891   4.773
 6692TIP3    H120037   1.762   4.865   4.861
 6692TIP3    H220038   1.809   4.859   4.717
 6693TIP3   OH220039   1.939   4.778   4.630
 6693TIP3    H120040   1.950   4.694   4.675
 6693TIP3    H220041   2.026   4.818   4.633
 6694TIP3   OH220042   2.208   4.862   4.653
 6694TIP3    H120043   2.227   4.769   4.640
 6694TIP3    H220044   2.260   4.887   4.730
 6695TIP3   OH220045   2.778   3.486   4.719
 6695TIP3    H120046   2.736   3.432   4.785
 6695TIP3    H220047   2.858   3.439   4.696
 6696TIP3   OH220048   3.275   3.440   4.625
 6696TIP3    H120049   3.284   3.535   4.621
 6696TIP3    H220050   3.180   3.425   4.629
 6697TIP3   OH220051   2.011   3.217   4.753
 6697TIP3    H120052   1.921   3.186   4.750
 6697TIP3    H220053   2.064   3.138   4.738
 6698TIP3   OH220054   1.824   3.121   4.404
 6698TIP3    H120055   1.847   3.168   4.323
 6698TIP3    H220056   1.791   3.189   4.462
 6699TIP3   OH220057   2.470   3.251   4.624
 6699TIP3    H120058   2.536   3.298   4.574
 6699TIP3    H220059   2.398   3.313   4.634
 6700TIP3   OH220060   3.004   3.365   4.603
 6700TIP3    H120061   3.040   3.325   4.524
 6700TIP3    H220062   2.998   3.293   4.666
 6701TIP3   OH220063   3.040   3.327   4.154
 6701TIP3    H120064   2.957   3.375   4.157
 6701TIP3    H220065   3.024   3.249   4.207
 6702TIP3   OH220066   1.510   4.687   4.154
 6702TIP3    H120067   1.427   4.649   4.123
 6702TIP3    H220068   1.507   4.777   4.123
 6703TIP3   OH220069   1.903   3.260   4.169
 6703TIP3    H120070   1.981   3.229   4.125
 6703TIP3    H220071   1.928   3.345   4.206
 6704TIP3   OH220072   2.308   4.845   3.764
 6704TIP3    H120073   2.387   4.863   3.714
 6704TIP3    H220074   2.287   4.754   3.744
 6705TIP3   OH220075   3.011   4.999   3.869
 6705TIP3    H120076   3.017   4.904   3.859
 6705TIP3    H220077   2.977   5.030   3.785
 6706TIP3   OH220078   2.229   3.495   5.609
 6706TIP3    H120079   2.192   3.433   5.672
 6706TIP3    H220080   2.322   3.501   5.633
 6707TIP3   OH220081   2.476   3.500   5.736
 6707TIP3    H120082   2.556   3.481   5.688
 6707TIP3    H220083   2.471   3.431   5.803
 6708TIP3   OH220084   1.601   4.698   3.807
 6708TIP3    H120085   1.598   4.706   3.903
 6708TIP3    H220086   1.680   4.647   3.789
 6709TIP3   OH220087   3.302   3.589   5.530
 6709TIP3    H120088   3.322   3.565   5.620
 6709TIP3    H220089   3.387   3.590   5.486
 6710TIP3   OH220090   3.230   5.125   5.029
 6710TIP3    H120091   3.151   5.094   4.984
 6710TIP3    H220092   3.214   5.217   5.045
 6711TIP3   OH220093   3.801   4.399   4.546
 6711TIP3    H120094   3.827   4.315   4.584
 6711TIP3    H220095   3.851   4.464   4.596
 6712TIP3   OH220096   4.771   4.792   3.880
 6712TIP3    H120097   4.762   4.735   3.956
 6712TIP3    H220098   4.789   4.879   3.916
 6713TIP3   OH220099   3.769   4.787   4.236
 6713TIP3    H120100   3.769   4.692   4.248
 6713TIP3    H220101   3.861   4.809   4.223
 6714TIP3   OH220102   4.416   5.246   3.880
 6714TIP3    H120103   4.444   5.180   3.818
 6714TIP3    H220104   4.409   5.199   3.963
 6715TIP3   OH220105   4.288   4.754   4.210
 6715TIP3    H120106   4.315   4.690   4.144
 6715TIP3    H220107   4.370   4.785   4.248
 6716TIP3   OH220108   5.336   4.045   4.225
 6716TIP3    H120109   5.354   4.128   4.268
 6716TIP3    H220110   5.368   4.057   4.135
 6717TIP3   OH220111   4.729   4.222   4.229
 6717TIP3    H120112   4.768   4.141   4.265
 6717TIP3    H220113   4.672   4.191   4.158
 6718TIP3   OH220114   3.972   3.860   4.187
 6718TIP3    H120115   4.028   3.880   4.112
 6718TIP3    H220116   3.907   3.799   4.152
 6719TIP3   OH220117   4.185   4.271   4.046
 6719TIP3    H120118   4.263   4.248   4.097
 6719TIP3    H220119   4.116   4.217   4.085
 6720TIP3   OH220120   5.401   4.264   4.390
 6720TIP3    H120121   5.312   4.300   4.386
 6720TIP3    H220122   5.438   4.301   4.470
 6721TIP3   OH220123   4.047   3.877   4.652
 6721TIP3    H120124   3.993   3.902   4.576
 6721TIP3    H220125   3.990   3.891   4.727
 6722TIP3   OH220126   4.382   4.690   3.644
 6722TIP3    H120127   4.347   4.681   3.556
 6722TIP3    H220128   4.349   4.774   3.676
 6723TIP3   OH220129   4.150   4.657   4.432
 6723TIP3    H120130   4.089   4.722   4.468
 6723TIP3    H220131   4.192   4.702   4.358
 6724TIP3   OH220132   4.886   4.038   4.029
 6724TIP3    H120133   4.896   3.948   4.060
 6724TIP3    H220134   4.957   4.086   4.072
 6725TIP3   OH220135   3.916   3.979   4.433
 6725TIP3    H120136   3.978   4.052   4.434
 6725TIP3    H220137   3.931   3.936   4.348
 6726TIP3   OH220138   3.981   4.851   4.534
 6726TIP3    H120139   3.963   4.939   4.502
 6726TIP3    H220140   3.904   4.830   4.589
 6727TIP3   OH220141   3.374   4.548   3.773
 6727TIP3    H120142   3.331   4.557   3.687
 6727TIP3    H220143   3.403   4.637   3.794
 6728TIP3   OH220144   4.807   5.049   4.009
 6728TIP3    H120145   4.722   5.039   4.053
 6728TIP3    H220146   4.802   5.133   3.965
 6729TIP3   OH220147   5.110   3.949   4.388
 6729TIP3    H120148   5.022   3.963   4.353
 6729TIP3    H220149   5.169   3.973   4.316
 6730TIP3   OH220150   4.411   3.568   4.394
 6730TIP3    H120151   4.386   3.477   4.407
 6730TIP3    H220152   4.335   3.619   4.423
 6731TIP3   OH220153   4.509   5.084   3.673
 6731TIP3    H120154   4.561   5.004   3.663
 6731TIP3    H220155   4.567   5.154   3.643
 6732TIP3   OH220156   4.664   4.865   3.627
 6732TIP3    H120157   4.653   4.789   3.569
 6732TIP3    H220158   4.701   4.829   3.708
 6733TIP3   OH220159   5.035   4.957   4.365
 6733TIP3    H120160   5.028   4.880   4.307
 6733TIP3    H220161   5.019   5.031   4.307
 6734TIP3   OH220162   4.248   4.368   3.748
 6734TIP3    H120163   4.210   4.414   3.673
 6734TIP3    H220164   4.339   4.352   3.722
 6735TIP3   OH220165   5.237   4.590   4.188
 6735TIP3    H120166   5.158   4.642   4.201
 6735TIP3    H220167   5.275   4.623   4.107
 6736TIP3   OH220168   4.661   4.425   3.591
 6736TIP3    H120169   4.628   4.489   3.654
 6736TIP3    H220170   4.735   4.384   3.635
 6737TIP3   OH220171   4.931   4.466   4.546
 6737TIP3    H120172   4.924   4.551   4.590
 6737TIP3    H220173   4.851   4.459   4.494
 6738TIP3   OH220174   3.940   4.363   3.935
 6738TIP3    H120175   3.887   4.331   3.862
 6738TIP3    H220176   3.895   4.331   4.013
 6739TIP3   OH220177   4.029   4.857   4.146
 6739TIP3    H120178   4.012   4.833   4.055
 6739TIP3    H220179   4.117   4.826   4.164
 6740TIP3   OH220180   4.056   4.409   4.353
 6740TIP3    H120181   3.977   4.432   4.303
 6740TIP3    H220182   4.092   4.493   4.381
 6741TIP3   OH220183   4.578   5.036   4.154
 6741TIP3    H120184   4.560   5.120   4.198
 6741TIP3    H220185   4.555   4.970   4.219
 6742TIP3   OH220186   4.186   4.951   4.693
 6742TIP3    H120187   4.127   5.009   4.741
 6742TIP3    H220188   4.128   4.898   4.639
 6743TIP3   OH220189   3.926   4.511   4.797
 6743TIP3    H120190   3.937   4.597   4.837
 6743TIP3    H220191   3.837   4.484   4.821
 6744TIP3   OH220192   4.268   4.947   3.686
 6744TIP3    H120193   4.347   5.001   3.686
 6744TIP3    H220194   4.203   4.999   3.639
 6745TIP3   OH220195   3.976   5.110   4.778
 6745TIP3    H120196   3.948   5.119   4.687
 6745TIP3    H220197   3.895   5.094   4.826
 6746TIP3   OH220198   3.746   4.235   3.801
 6746TIP3    H120199   3.673   4.284   3.762
 6746TIP3    H220200   3.730   4.240   3.895
 6747TIP3   OH220201   4.848   4.899   3.030
 6747TIP3    H120202   4.847   4.993   3.009
 6747TIP3    H220203   4.938   4.871   3.014
 6748TIP3   OH220204   3.560   4.656   4.723
 6748TIP3    H120205   3.496   4.635   4.655
 6748TIP3    H220206   3.593   4.571   4.752
 6749TIP3   OH220207   3.487   4.901   4.327
 6749TIP3    H120208   3.525   4.820   4.294
 6749TIP3    H220209   3.524   4.912   4.414
 6750TIP3   OH220210   5.272   5.303   4.428
 6750TIP3    H120211   5.277   5.209   4.446
 6750TIP3    H220212   5.192   5.332   4.473
 6751TIP3   OH220213   4.372   5.093   4.550
 6751TIP3    H120214   4.368   5.184   4.580
 6751TIP3    H220215   4.305   5.048   4.601
 6752TIP3   OH220216   4.160   5.197   3.511
 6752TIP3    H120217   4.118   5.169   3.430
 6752TIP3    H220218   4.116   5.278   3.535
 6753TIP3   OH220219   3.535   5.053   3.926
 6753TIP3    H120220   3.621   5.038   3.964
 6753TIP3    H220221   3.510   4.967   3.891
 6754TIP3   OH220222   4.351   5.118   3.131
 6754TIP3    H120223   4.402   5.045   3.097
 6754TIP3    H220224   4.381   5.130   3.221
 6755TIP3   OH220225   4.409   5.164   3.401
 6755TIP3    H120226   4.322   5.171   3.441
 6755TIP3    H220227   4.464   5.125   3.469
 6756TIP3   OH220228   5.170   4.403   4.701
 6756TIP3    H120229   5.086   4.430   4.663
 6756TIP3    H220230   5.180   4.312   4.673
 6757TIP3   OH220231   3.764   4.840   4.706
 6757TIP3    H120232   3.817   4.829   4.785
 6757TIP3    H220233   3.695   4.775   4.715
 6758TIP3   OH220234   4.176   3.672   4.508
 6758TIP3    H120235   4.096   3.631   4.478
 6758TIP3    H220236   4.148   3.754   4.550
 6759TIP3   OH220237   4.689   3.784   4.709
 6759TIP3    H120238   4.754   3.754   4.772
 6759TIP3    H220239   4.605   3.765   4.750
 6760TIP3   OH220240   4.924   4.203   4.655
 6760TIP3    H120241   4.879   4.199   4.740
 6760TIP3    H220242   4.904   4.290   4.622
 6761TIP3   OH220243   4.344   3.701   3.432
 6761TIP3    H120244   4.345   3.752   3.513
 6761TIP3    H220245   4.283   3.629   3.451
 6762TIP3   OH220246   4.098   4.188   4.508
 6762TIP3    H120247   4.037   4.198   4.582
 6762TIP3    H220248   4.082   4.266   4.454
 6763TIP3   OH220249   4.636   4.417   4.832
 6763TIP3    H120250   4.607   4.354   4.898
 6763TIP3    H220251   4.726   4.438   4.857
 6764TIP3   OH220252   4.649   4.157   3.970
 6764TIP3    H120253   4.685   4.234   3.925
 6764TIP3    H220254   4.723   4.098   3.981
 6765TIP3   OH220255   3.912   4.201   4.717
 6765TIP3    H120256   3.930   4.260   4.790
 6765TIP3    H220257   3.900   4.115   4.758
 6766TIP3   OH220258   3.936   3.673   3.476
 6766TIP3    H120259   3.868   3.620   3.518
 6766TIP3    H220260   3.888   3.742   3.431
 6767TIP3   OH220261   4.694   4.422   4.411
 6767TIP3    H120262   4.703   4.356   4.342
 6767TIP3    H220263   4.637   4.382   4.476
 6768TIP3   OH220264   4.808   3.969   4.326
 6768TIP3    H120265   4.772   3.987   4.413
 6768TIP3    H220266   4.748   3.904   4.289
 6769TIP3   OH220267   4.983   5.652   4.520
 6769TIP3    H120268   4.980   5.671   4.426
 6769TIP3    H220269   5.061   5.697   4.552
 6770TIP3   OH220270   3.928   4.763   4.928
 6770TIP3    H120271   4.009   4.781   4.976
 6770TIP3    H220272   3.860   4.764   4.996
 6771TIP3   OH220273   4.394   4.187   4.197
 6771TIP3    H120274   4.458   4.124   4.163
 6771TIP3    H220275   4.383   4.163   4.289
 6772TIP3   OH220276   4.362   4.128   4.467
 6772TIP3    H120277   4.272   4.157   4.482
 6772TIP3    H220278   4.415   4.192   4.515
 6773TIP3   OH220279   4.080   4.502   3.575
 6773TIP3    H120280   4.010   4.441   3.552
 6773TIP3    H220281   4.046   4.553   3.648
 6774TIP3   OH220282   5.010   4.747   4.188
 6774TIP3    H120283   5.042   4.797   4.112
 6774TIP3    H220284   4.928   4.708   4.158
 6775TIP3   OH220285   4.493   4.827   4.593
 6775TIP3    H120286   4.535   4.811   4.678
 6775TIP3    H220287   4.453   4.913   4.602
 6776TIP3   OH220288   3.795   4.495   4.273
 6776TIP3    H120289   3.740   4.433   4.225
 6776TIP3    H220290   3.795   4.462   4.363
 6777TIP3   OH220291   4.221   4.670   3.409
 6777TIP3    H120292   4.163   4.747   3.409
 6777TIP3    H220293   4.173   4.604   3.459
 6778TIP3   OH220294   3.664   4.429   4.852
 6778TIP3    H120295   3.660   4.401   4.943
 6778TIP3    H220296   3.598   4.377   4.807
 6779TIP3   OH220297   4.398   4.566   4.883
 6779TIP3    H120298   4.327   4.509   4.853
 6779TIP3    H220299   4.477   4.527   4.845
 6780TIP3   OH220300   4.644   5.101   4.473
 6780TIP3    H120301   4.549   5.092   4.482
 6780TIP3    H220302   4.672   5.143   4.554
 6781TIP3   OH220303   5.284   5.017   4.458
 6781TIP3    H120304   5.189   5.010   4.450
 6781TIP3    H220305   5.317   4.992   4.371
 6782TIP3   OH220306   4.779   4.969   3.295
 6782TIP3    H120307   4.745   4.898   3.350
 6782TIP3    H220308   4.793   4.927   3.210
 6783TIP3   OH220309   4.784   4.608   4.105
 6783TIP3    H120310   4.726   4.578   4.175
 6783TIP3    H220311   4.814   4.527   4.063
 6784TIP3   OH220312   3.929   4.818   3.889
 6784TIP3    H120313   3.922   4.906   3.851
 6784TIP3    H220314   3.840   4.782   3.881
 6785TIP3   OH220315   3.474   4.128   3.598
 6785TIP3    H120316   3.515   4.213   3.616
 6785TIP3    H220317   3.389   4.133   3.642
 6786TIP3   OH220318   4.080   4.582   3.871
 6786TIP3    H120319   4.077   4.676   3.856
 6786TIP3    H220320   3.993   4.561   3.905
 6787TIP3   OH220321   4.182   5.165   4.346
 6787TIP3    H120322   4.220   5.236   4.295
 6787TIP3    H220323   4.255   5.131   4.398
 6788TIP3   OH220324   3.830   5.061   3.795
 6788TIP3    H120325   3.767   5.049   3.724
 6788TIP3    H220326   3.865   5.149   3.781
 6789TIP3   OH220327   4.540   4.809   4.324
 6789TIP3    H120328   4.517   4.810   4.417
 6789TIP3    H220329   4.633   4.787   4.323
 6790TIP3   OH220330   4.537   4.708   3.189
 6790TIP3    H120331   4.574   4.689   3.275
 6790TIP3    H220332   4.454   4.661   3.187
 6791TIP3   OH220333   4.793   5.329   4.358
 6791TIP3    H120334   4.721   5.268   4.367
 6791TIP3    H220335   4.768   5.387   4.286
 6792TIP3   OH220336   4.852   5.174   2.993
 6792TIP3    H120337   4.868   5.238   2.923
 6792TIP3    H220338   4.781   5.212   3.044
 6793TIP3   OH220339   3.876   3.956   4.860
 6793TIP3    H120340   3.782   3.968   4.873
 6793TIP3    H220341   3.903   3.904   4.936
 6794TIP3   OH220342   4.691   4.656   3.420
 6794TIP3    H120343   4.671   4.570   3.457
 6794TIP3    H220344   4.784   4.652   3.398
 6795TIP3   OH220345   3.607   5.011   4.545
 6795TIP3    H120346   3.657   4.952   4.601
 6795TIP3    H220347   3.643   5.098   4.563
 6796TIP3   OH220348   3.944   4.648   3.196
 6796TIP3    H120349   3.933   4.556   3.172
 6796TIP3    H220350   3.885   4.661   3.270
 6797TIP3   OH220351   3.819   4.704   3.445
 6797TIP3    H120352   3.909   4.731   3.462
 6797TIP3    H220353   3.773   4.786   3.426
 6798TIP3   OH220354   3.563   4.383   3.665
 6798TIP3    H120355   3.496   4.427   3.717
 6798TIP3    H220356   3.579   4.443   3.592
 6799TIP3   OH220357   4.717   4.028   4.581
 6799TIP3    H120358   4.799   4.062   4.616
 6799TIP3    H220359   4.704   3.945   4.626
 6800TIP3   OH220360   4.033   4.889   3.419
 6800TIP3    H120361   3.945   4.925   3.422
 6800TIP3    H220362   4.081   4.948   3.361
 6801TIP3   OH220363   4.566   4.268   4.601
 6801TIP3    H120364   4.586   4.309   4.685
 6801TIP3    H220365   4.610   4.183   4.604
 6802TIP3   OH220366   5.180   4.136   4.601
 6802TIP3    H120367   5.088   4.148   4.624
 6802TIP3    H220368   5.179   4.078   4.525
 6803TIP3   OH220369   4.866   4.352   4.024
 6803TIP3    H120370   4.808   4.313   4.089
 6803TIP3    H220371   4.953   4.318   4.046
 6804TIP3   OH220372   3.574   4.569   3.455
 6804TIP3    H120373   3.642   4.635   3.463
 6804TIP3    H220374   3.609   4.504   3.394
 6805TIP3   OH220375   3.519   3.854   3.591
 6805TIP3    H120376   3.516   3.949   3.587
 6805TIP3    H220377   3.486   3.833   3.679
 6806TIP3   OH220378   4.825   5.319   3.933
 6806TIP3    H120379   4.783   5.370   3.863
 6806TIP3    H220380   4.919   5.333   3.919
 6807TIP3   OH220381   3.934   3.559   4.474
 6807TIP3    H120382   3.887   3.547   4.391
 6807TIP3    H220383   3.894   3.496   4.533
 6808TIP3   OH220384   3.406   4.818   3.847
 6808TIP3    H120385   3.324   4.800   3.895
 6808TIP3    H220386   3.377   4.861   3.767
 6809TIP3   OH220387   3.610   5.359   4.928
 6809TIP3    H120388   3.692   5.365   4.977
 6809TIP3    H220389   3.592   5.266   4.923
 6810TIP3   OH220390   4.077   5.282   4.968
 6810TIP3    H120391   4.169   5.258   4.982
 6810TIP3    H220392   4.047   5.225   4.898
 6811TIP3   OH220393   4.054   4.877   3.093
 6811TIP3    H120394   4.012   4.804   3.139
 6811TIP3    H220395   4.130   4.838   3.051
 6812TIP3   OH220396   4.707   5.214   4.714
 6812TIP3    H120397   4.713   5.145   4.780
 6812TIP3    H220398   4.782   5.271   4.733
 6813TIP3   OH220399   4.490   4.913   3.012
 6813TIP3    H120400   4.520   4.848   3.076
 6813TIP3    H220401   4.551   4.903   2.939
 6814TIP3   OH220402   3.723   4.761   5.117
 6814TIP3    H120403   3.746   4.669   5.131
 6814TIP3    H220404   3.635   4.759   5.081
 6815TIP3   OH220405   3.709   4.373   3.322
 6815TIP3    H120406   3.758   4.347   3.400
 6815TIP3    H220407   3.775   4.380   3.253
 6816TIP3   OH220408   4.339   4.844   4.896
 6816TIP3    H120409   4.293   4.864   4.815
 6816TIP3    H220410   4.369   4.753   4.886
 6817TIP3   OH220411   4.291   4.586   3.148
 6817TIP3    H120412   4.250   4.602   3.234
 6817TIP3    H220413   4.275   4.494   3.130
 6818TIP3   OH220414   4.808   4.872   4.496
 6818TIP3    H120415   4.887   4.909   4.457
 6818TIP3    H220416   4.744   4.943   4.491
 6819TIP3   OH220417   3.853   4.512   5.122
 6819TIP3    H120418   3.925   4.458   5.089
 6819TIP3    H220419   3.878   4.533   5.212
 6820TIP3   OH220420   3.885   4.306   3.552
 6820TIP3    H120421   3.840   4.259   3.623
 6820TIP3    H220422   3.926   4.236   3.501
 6821TIP3   OH220423   4.183   4.392   4.785
 6821TIP3    H120424   4.098   4.435   4.784
 6821TIP3    H220425   4.224   4.418   4.702
 6822TIP3   OH220426   4.002   4.125   3.384
 6822TIP3    H120427   3.969   4.123   3.294
 6822TIP3    H220428   4.074   4.062   3.384
 6823TIP3   OH220429   4.694   4.766   4.883
 6823TIP3    H120430   4.758   4.720   4.830
 6823TIP3    H220431   4.687   4.714   4.963
 6824TIP3   OH220432   4.859   4.430   3.029
 6824TIP3    H120433   4.813   4.372   2.968
 6824TIP3    H220434   4.814   4.514   3.020
 6825TIP3   OH220435   4.298   4.161   4.882
 6825TIP3    H120436   4.298   4.088   4.819
 6825TIP3    H220437   4.256   4.233   4.835
 6826TIP3   OH220438   4.307   3.955   4.687
 6826TIP3    H120439   4.334   3.994   4.604
 6826TIP3    H220440   4.215   3.932   4.673
 6827TIP3   OH220441   4.318   4.489   4.573
 6827TIP3    H120442   4.405   4.497   4.535
 6827TIP3    H220443   4.264   4.551   4.524
 6828TIP3   OH220444   4.896   4.469   4.930
 6828TIP3    H120445   4.948   4.389   4.939
 6828TIP3    H220446   4.961   4.540   4.932
 6829TIP3   OH220447   4.945   4.714   4.674
 6829TIP3    H120448   4.886   4.769   4.622
 6829TIP3    H220449   5.032   4.735   4.640
 6830TIP3   OH220450   4.187   4.241   5.130
 6830TIP3    H120451   4.117   4.180   5.152
 6830TIP3    H220452   4.213   4.219   5.041
 6831TIP3   OH220453   4.428   3.722   4.784
 6831TIP3    H120454   4.387   3.802   4.751
 6831TIP3    H220455   4.362   3.654   4.770
 6832TIP3   OH220456   4.547   4.210   4.988
 6832TIP3    H120457   4.532   4.192   5.081
 6832TIP3    H220458   4.464   4.189   4.945
 6833TIP3   OH220459   4.799   4.151   4.892
 6833TIP3    H120460   4.710   4.169   4.920
 6833TIP3    H220461   4.834   4.092   4.960
 6834TIP3   OH220462   4.021   4.023   5.195
 6834TIP3    H120463   4.023   3.933   5.161
 6834TIP3    H220464   4.059   4.016   5.283
 6835TIP3   OH220465   4.500   3.704   5.049
 6835TIP3    H120466   4.569   3.637   5.041
 6835TIP3    H220467   4.466   3.714   4.960
 6836TIP3   OH220468   4.594   3.917   5.195
 6836TIP3    H120469   4.559   3.847   5.139
 6836TIP3    H220470   4.526   3.984   5.195
 6837TIP3   OH220471   3.303   4.546   3.496
 6837TIP3    H120472   3.396   4.565   3.481
 6837TIP3    H220473   3.289   4.461   3.454
 6838TIP3   OH220474   5.096   5.374   3.924
 6838TIP3    H120475   5.114   5.400   4.014
 6838TIP3    H220476   5.145   5.437   3.871
 6839TIP3   OH220477   5.114   5.407   4.204
 6839TIP3    H120478   5.065   5.325   4.200
 6839TIP3    H220479   5.184   5.391   4.267
 6840TIP3   OH220480   5.163   5.100   4.777
 6840TIP3    H120481   5.090   5.110   4.838
 6840TIP3    H220482   5.208   5.185   4.779
 6841TIP3   OH220483   4.967   4.640   3.383
 6841TIP3    H120484   5.040   4.694   3.354
 6841TIP3    H220485   4.998   4.601   3.465
 6842TIP3   OH220486   5.025   4.503   3.616
 6842TIP3    H120487   4.993   4.413   3.618
 6842TIP3    H220488   4.999   4.540   3.700
 6843TIP3   OH220489   5.174   4.876   4.010
 6843TIP3    H120490   5.231   4.816   3.961
 6843TIP3    H220491   5.171   4.955   3.955
 6844TIP3   OH220492   4.968   5.170   4.206
 6844TIP3    H120493   4.900   5.213   4.257
 6844TIP3    H220494   4.921   5.128   4.134
 6845TIP3   OH220495   5.048   4.425   3.226
 6845TIP3    H120496   4.981   4.410   3.159
 6845TIP3    H220497   5.010   4.492   3.282
 6846TIP3   OH220498   4.803   4.019   3.176
 6846TIP3    H120499   4.790   4.067   3.094
 6846TIP3    H220500   4.862   3.948   3.153
 6847TIP3   OH220501   4.865   4.289   3.733
 6847TIP3    H120502   4.893   4.202   3.705
 6847TIP3    H220503   4.886   4.293   3.826
 6848TIP3   OH220504   3.543   4.386   4.449
 6848TIP3    H120505   3.550   4.356   4.358
 6848TIP3    H220506   3.633   4.391   4.480
 6849TIP3   OH220507   5.204   4.761   4.583
 6849TIP3    H120508   5.268   4.692   4.566
 6849TIP3    H220509   5.231   4.834   4.528
 6850TIP3   OH220510   5.370   4.542   4.576
 6850TIP3    H120511   5.299   4.498   4.622
 6850TIP3    H220512   5.448   4.490   4.596
 6851TIP3   OH220513   5.069   4.212   4.151
 6851TIP3    H120514   5.154   4.235   4.112
 6851TIP3    H220515   5.073   4.249   4.240
 6852TIP3   OH220516   5.143   4.382   4.367
 6852TIP3    H120517   5.072   4.414   4.424
 6852TIP3    H220518   5.169   4.459   4.316
 6853TIP3   OH220519   3.759   4.090   5.143
 6853TIP3    H120520   3.853   4.082   5.159
 6853TIP3    H220521   3.721   4.013   5.185
 6854TIP3   OH220522   5.579   3.982   4.890
 6854TIP3    H120523   5.648   3.922   4.859
 6854TIP3    H220524   5.548   4.026   4.810
 6855TIP3   OH220525   3.551   4.035   4.566
 6855TIP3    H120526   3.631   4.031   4.515
 6855TIP3    H220527   3.550   4.124   4.602
 6856TIP3   OH220528   5.441   4.082   4.672
 6856TIP3    H120529   5.353   4.118   4.664
 6856TIP3    H220530   5.436   3.995   4.632
 6857TIP3   OH220531   4.660   5.279   3.565
 6857TIP3    H120532   4.716   5.269   3.488
 6857TIP3    H220533   4.701   5.350   3.615
 6858TIP3   OH220534   3.721   3.622   4.874
 6858TIP3    H120535   3.675   3.626   4.958
 6858TIP3    H220536   3.667   3.675   4.815
 6859TIP3   OH220537   3.752   5.079   4.942
 6859TIP3    H120538   3.659   5.058   4.932
 6859TIP3    H220539   3.772   5.060   5.033
 6860TIP3   OH220540   3.952   5.126   4.494
 6860TIP3    H120541   3.905   5.203   4.462
 6860TIP3    H220542   4.038   5.132   4.452
 6861TIP3   OH220543   4.367   5.359   4.630
 6861TIP3    H120544   4.404   5.350   4.718
 6861TIP3    H220545   4.431   5.412   4.582
 6862TIP3   OH220546   4.559   5.512   4.502
 6862TIP3    H120547   4.626   5.456   4.460
 6862TIP3    H220548   4.609   5.570   4.558
 6863TIP3   OH220549   5.360   3.827   4.589
 6863TIP3    H120550   5.271   3.807   4.561
 6863TIP3    H220551   5.406   3.743   4.588
 6864TIP3   OH220552   3.614   5.391   4.522
 6864TIP3    H120553   3.520   5.404   4.505
 6864TIP3    H220554   3.633   5.449   4.596
 6865TIP3   OH220555   3.851   5.360   4.388
 6865TIP3    H120556   3.768   5.372   4.433
 6865TIP3    H220557   3.834   5.387   4.297
 6866TIP3   OH220558   4.270   5.371   4.180
 6866TIP3    H120559   4.200   5.385   4.117
 6866TIP3    H220560   4.282   5.456   4.221
 6867TIP3   OH220561   4.535   5.303   4.225
 6867TIP3    H120562   4.443   5.323   4.209
 6867TIP3    H220563   4.583   5.373   4.181
 6868TIP3   OH220564   4.736   5.487   4.134
 6868TIP3    H120565   4.731   5.574   4.094
 6868TIP3    H220566   4.765   5.429   4.063
 6869TIP3   OH220567   3.695   5.057   4.168
 6869TIP3    H120568   3.711   4.966   4.190
 6869TIP3    H220569   3.782   5.094   4.152
 6870TIP3   OH220570   3.981   5.132   4.149
 6870TIP3    H120571   3.996   5.039   4.131
 6870TIP3    H220572   4.039   5.152   4.222
 6871TIP3   OH220573   4.625   3.780   4.234
 6871TIP3    H120574   4.563   3.715   4.268
 6871TIP3    H220575   4.679   3.731   4.172
 6872TIP3   OH220576   5.077   3.681   4.129
 6872TIP3    H120577   5.117   3.730   4.057
 6872TIP3    H220578   4.983   3.684   4.111
 6873TIP3   OH220579   5.182   3.774   3.895
 6873TIP3    H120580   5.251   3.722   3.854
 6873TIP3    H220581   5.125   3.800   3.822
 6874TIP3   OH220582   3.808   3.471   4.249
 6874TIP3    H120583   3.718   3.440   4.249
 6874TIP3    H220584   3.861   3.394   4.227
 6875TIP3   OH220585   3.635   3.371   3.863
 6875TIP3    H120586   3.576   3.376   3.787
 6875TIP3    H220587   3.597   3.431   3.927
 6876TIP3   OH220588   4.807   3.659   4.056
 6876TIP3    H120589   4.809   3.637   3.963
 6876TIP3    H220590   4.797   3.575   4.101
 6877TIP3   OH220591   4.811   3.615   3.772
 6877TIP3    H120592   4.779   3.659   3.693
 6877TIP3    H220593   4.809   3.522   3.750
 6878TIP3   OH220594   3.295   4.944   3.635
 6878TIP3    H120595   3.212   4.909   3.603
 6878TIP3    H220596   3.298   5.033   3.600
 6879TIP3   OH220597   3.744   3.526   3.614
 6879TIP3    H120598   3.771   3.441   3.577
 6879TIP3    H220599   3.750   3.514   3.709
 6880TIP3   OH220600   4.099   5.112   3.255
 6880TIP3    H120601   4.177   5.119   3.200
 6880TIP3    H220602   4.036   5.064   3.202
 6881TIP3   OH220603   4.811   5.237   3.333
 6881TIP3    H120604   4.804   5.142   3.326
 6881TIP3    H220605   4.763   5.271   3.258
 6882TIP3   OH220606   4.027   3.751   5.108
 6882TIP3    H120607   3.990   3.683   5.165
 6882TIP3    H220608   4.119   3.757   5.135
 6883TIP3   OH220609   4.276   3.756   5.232
 6883TIP3    H120610   4.354   3.732   5.182
 6883TIP3    H220611   4.267   3.685   5.296
 6884TIP3   OH220612   3.417   4.960   3.313
 6884TIP3    H120613   3.383   4.972   3.402
 6884TIP3    H220614   3.511   4.950   3.325
 6885TIP3   OH220615   5.021   5.377   4.520
 6885TIP3    H120616   4.944   5.348   4.471
 6885TIP3    H220617   5.008   5.472   4.531
 6886TIP3   OH220618   6.299   4.755   3.265
 6886TIP3    H120619   6.265   4.843   3.248
 6886TIP3    H220620   6.228   4.697   3.238
 6887TIP3   OH220621   6.290   4.759   3.690
 6887TIP3    H120622   6.344   4.753   3.769
 6887TIP3    H220623   6.258   4.670   3.675
 6888TIP3   OH220624   5.604   4.634   4.065
 6888TIP3    H120625   5.632   4.558   4.116
 6888TIP3    H220626   5.656   4.707   4.101
 6889TIP3   OH220627   6.558   5.067   3.359
 6889TIP3    H120628   6.551   5.000   3.427
 6889TIP3    H220629   6.581   5.147   3.406
 6890TIP3   OH220630   5.585   5.038   3.719
 6890TIP3    H120631   5.568   4.947   3.741
 6890TIP3    H220632   5.680   5.047   3.725
 6891TIP3   OH220633   6.212   5.500   3.372
 6891TIP3    H120634   6.243   5.428   3.316
 6891TIP3    H220635   6.220   5.466   3.461
 6892TIP3   OH220636   6.106   4.978   3.697
 6892TIP3    H120637   6.153   4.897   3.676
 6892TIP3    H220638   6.174   5.038   3.728
 6893TIP3   OH220639   7.105   4.311   3.707
 6893TIP3    H120640   7.130   4.393   3.750
 6893TIP3    H220641   7.141   4.319   3.619
 6894TIP3   OH220642   6.515   4.467   3.730
 6894TIP3    H120643   6.560   4.388   3.758
 6894TIP3    H220644   6.478   4.446   3.644
 6895TIP3   OH220645   5.811   4.173   3.650
 6895TIP3    H120646   5.875   4.180   3.578
 6895TIP3    H220647   5.767   4.090   3.634
 6896TIP3   OH220648   6.559   4.228   3.323
 6896TIP3    H120649   6.624   4.223   3.393
 6896TIP3    H220650   6.607   4.264   3.248
 6897TIP3   OH220651   5.479   4.300   3.866
 6897TIP3    H120652   5.570   4.325   3.885
 6897TIP3    H220653   5.469   4.215   3.909
 6898TIP3   OH220654   5.943   4.532   3.611
 6898TIP3    H120655   6.038   4.539   3.627
 6898TIP3    H220656   5.926   4.438   3.609
 6899TIP3   OH220657   7.182   4.521   3.876
 6899TIP3    H120658   7.093   4.556   3.875
 6899TIP3    H220659   7.221   4.556   3.956
 6900TIP3   OH220660   5.855   4.123   4.149
 6900TIP3    H120661   5.807   4.162   4.076
 6900TIP3    H220662   5.798   4.135   4.225
 6901TIP3   OH220663   6.167   4.966   3.146
 6901TIP3    H120664   6.138   4.945   3.057
 6901TIP3    H220665   6.130   5.052   3.164
 6902TIP3   OH220666   5.945   4.903   3.912
 6902TIP3    H120667   5.890   4.972   3.949
 6902TIP3    H220668   5.996   4.947   3.844
 6903TIP3   OH220669   6.728   4.253   3.533
 6903TIP3    H120670   6.694   4.231   3.620
 6903TIP3    H220671   6.786   4.328   3.549
 6904TIP3   OH220672   5.751   4.229   3.916
 6904TIP3    H120673   5.806   4.305   3.936
 6904TIP3    H220674   5.775   4.205   3.826
 6905TIP3   OH220675   5.782   5.104   4.013
 6905TIP3    H120676   5.771   5.195   3.986
 6905TIP3    H220677   5.705   5.086   4.068
 6906TIP3   OH220678   5.175   4.797   3.265
 6906TIP3    H120679   5.136   4.807   3.178
 6906TIP3    H220680   5.196   4.886   3.293
 6907TIP3   OH220681   6.597   5.311   3.499
 6907TIP3    H120682   6.511   5.302   3.541
 6907TIP3    H220683   6.595   5.398   3.459
 6908TIP3   OH220684   6.914   4.190   3.873
 6908TIP3    H120685   6.828   4.216   3.840
 6908TIP3    H220686   6.975   4.223   3.807
 6909TIP3   OH220687   6.185   3.821   3.865
 6909TIP3    H120688   6.181   3.729   3.891
 6909TIP3    H220689   6.108   3.861   3.906
 6910TIP3   OH220690   6.303   5.334   3.160
 6910TIP3    H120691   6.360   5.259   3.149
 6910TIP3    H220692   6.353   5.408   3.126
 6911TIP3   OH220693   6.463   5.118   3.105
 6911TIP3    H120694   6.433   5.033   3.075
 6911TIP3    H220695   6.503   5.101   3.191
 6912TIP3   OH220696   6.833   5.208   3.846
 6912TIP3    H120697   6.819   5.132   3.790
 6912TIP3    H220698   6.819   5.283   3.789
 6913TIP3   OH220699   6.118   4.605   3.115
 6913TIP3    H120700   6.037   4.652   3.094
 6913TIP3    H220701   6.166   4.601   3.033
 6914TIP3   OH220702   6.092   4.405   2.811
 6914TIP3    H120703   6.158   4.453   2.862
 6914TIP3    H220704   6.141   4.339   2.763
 6915TIP3   OH220705   7.017   4.855   3.709
 6915TIP3    H120706   6.934   4.903   3.714
 6915TIP3    H220707   7.050   4.872   3.621
 6916TIP3   OH220708   6.483   4.698   3.074
 6916TIP3    H120709   6.429   4.721   3.149
 6916TIP3    H220710   6.566   4.670   3.113
 6917TIP3   OH220711   6.710   4.722   4.020
 6917TIP3    H120712   6.712   4.806   4.067
 6917TIP3    H220713   6.627   4.723   3.973
 6918TIP3   OH220714   5.715   4.636   3.496
 6918TIP3    H120715   5.738   4.707   3.437
 6918TIP3    H220716   5.798   4.611   3.537
 6919TIP3   OH220717   5.853   5.098   3.628
 6919TIP3    H120718   5.838   5.080   3.535
 6919TIP3    H220719   5.940   5.063   3.645
 6920TIP3   OH220720   5.831   4.666   3.833
 6920TIP3    H120721   5.884   4.638   3.758
 6920TIP3    H220722   5.873   4.747   3.862
 6921TIP3   OH220723   6.360   5.296   3.632
 6921TIP3    H120724   6.351   5.380   3.677
 6921TIP3    H220725   6.349   5.230   3.700
 6922TIP3   OH220726   5.990   5.202   4.176
 6922TIP3    H120727   5.937   5.260   4.229
 6922TIP3    H220728   5.926   5.152   4.124
 6923TIP3   OH220729   6.312   4.554   2.913
 6923TIP3    H120730   6.372   4.611   2.961
 6923TIP3    H220731   6.339   4.562   2.822
 6924TIP3   OH220732   5.733   4.779   4.279
 6924TIP3    H120733   5.744   4.867   4.316
 6924TIP3    H220734   5.645   4.753   4.304
 6925TIP3   OH220735   6.054   5.219   3.160
 6925TIP3    H120736   6.139   5.262   3.171
 6925TIP3    H220737   5.995   5.290   3.134
 6926TIP3   OH220738   5.783   5.363   4.266
 6926TIP3    H120739   5.755   5.376   4.176
 6926TIP3    H220740   5.701   5.353   4.315
 6927TIP3   OH220741   6.810   3.781   2.957
 6927TIP3    H120742   6.736   3.801   3.015
 6927TIP3    H220743   6.826   3.862   2.909
 6928TIP3   OH220744   6.639   5.158   2.519
 6928TIP3    H120745   6.645   5.251   2.499
 6928TIP3    H220746   6.727   5.124   2.500
 6929TIP3   OH220747   5.363   4.916   4.217
 6929TIP3    H120748   5.297   4.896   4.151
 6929TIP3    H220749   5.396   4.831   4.245
 6930TIP3   OH220750   5.209   5.120   3.869
 6930TIP3    H120751   5.299   5.146   3.890
 6930TIP3    H220752   5.156   5.195   3.896
 6931TIP3   OH220753   7.067   5.560   3.911
 6931TIP3    H120754   7.073   5.466   3.928
 6931TIP3    H220755   6.988   5.587   3.957
 6932TIP3   OH220756   6.173   5.350   4.036
 6932TIP3    H120757   6.174   5.437   4.075
 6932TIP3    H220758   6.109   5.301   4.088
 6933TIP3   OH220759   5.933   5.455   2.996
 6933TIP3    H120760   5.848   5.429   2.961
 6933TIP3    H220761   5.920   5.544   3.027
 6934TIP3   OH220762   5.387   5.304   3.372
 6934TIP3    H120763   5.428   5.295   3.458
 6934TIP3    H220764   5.335   5.224   3.363
 6935TIP3   OH220765   6.176   5.405   2.866
 6935TIP3    H120766   6.089   5.415   2.906
 6935TIP3    H220767   6.234   5.383   2.940
 6936TIP3   OH220768   6.957   4.681   4.188
 6936TIP3    H120769   6.872   4.692   4.144
 6936TIP3    H220770   6.975   4.587   4.181
 6937TIP3   OH220771   5.563   5.103   4.181
 6937TIP3    H120772   5.611   5.100   4.263
 6937TIP3    H220773   5.491   5.041   4.193
 6938TIP3   OH220774   5.948   3.914   3.990
 6938TIP3    H120775   5.862   3.881   3.961
 6938TIP3    H220776   5.927   3.989   4.044
 6939TIP3   OH220777   6.497   4.028   4.194
 6939TIP3    H120778   6.569   4.006   4.253
 6939TIP3    H220779   6.418   4.013   4.246
 6940TIP3   OH220780   6.706   4.455   4.101
 6940TIP3    H120781   6.669   4.450   4.189
 6940TIP3    H220782   6.696   4.547   4.076
 6941TIP3   OH220783   6.394   4.561   2.654
 6941TIP3    H120784   6.349   4.550   2.570
 6941TIP3    H220785   6.477   4.603   2.632
 6942TIP3   OH220786   6.107   3.954   2.973
 6942TIP3    H120787   6.066   3.965   3.058
 6942TIP3    H220788   6.067   3.875   2.936
 6943TIP3   OH220789   5.889   4.452   3.996
 6943TIP3    H120790   5.845   4.459   4.080
 6943TIP3    H220791   5.864   4.531   3.948
 6944TIP3   OH220792   6.247   4.400   3.253
 6944TIP3    H120793   6.199   4.471   3.210
 6944TIP3    H220794   6.305   4.366   3.185
 6945TIP3   OH220795   6.445   4.663   4.322
 6945TIP3    H120796   6.420   4.597   4.386
 6945TIP3    H220797   6.535   4.686   4.345
 6946TIP3   OH220798   6.414   4.411   3.481
 6946TIP3    H120799   6.347   4.435   3.417
 6946TIP3    H220800   6.462   4.340   3.439
 6947TIP3   OH220801   5.727   4.443   4.224
 6947TIP3    H120802   5.781   4.492   4.286
 6947TIP3    H220803   5.706   4.361   4.270
 6948TIP3   OH220804   5.780   3.943   2.938
 6948TIP3    H120805   5.764   3.939   3.032
 6948TIP3    H220806   5.702   3.986   2.903
 6949TIP3   OH220807   6.453   4.670   3.903
 6949TIP3    H120808   6.480   4.603   3.840
 6949TIP3    H220809   6.413   4.620   3.975
 6950TIP3   OH220810   6.105   4.165   3.606
 6950TIP3    H120811   6.053   4.153   3.686
 6950TIP3    H220812   6.186   4.117   3.624
 6951TIP3   OH220813   5.779   4.244   3.318
 6951TIP3    H120814   5.874   4.236   3.312
 6951TIP3    H220815   5.748   4.238   3.227
 6952TIP3   OH220816   6.614   4.205   3.781
 6952TIP3    H120817   6.584   4.221   3.870
 6952TIP3    H220818   6.570   4.125   3.754
 6953TIP3   OH220819   5.661   4.241   3.068
 6953TIP3    H120820   5.588   4.191   3.032
 6953TIP3    H220821   5.714   4.264   2.992
 6954TIP3   OH220822   6.780   5.908   4.006
 6954TIP3    H120823   6.782   5.924   3.912
 6954TIP3    H220824   6.859   5.951   4.040
 6955TIP3   OH220825   5.723   5.021   4.419
 6955TIP3    H120826   5.804   5.043   4.464
 6955TIP3    H220827   5.655   5.029   4.486
 6956TIP3   OH220828   6.202   4.490   3.688
 6956TIP3    H120829   6.268   4.439   3.641
 6956TIP3    H220830   6.198   4.449   3.774
 6957TIP3   OH220831   5.711   3.932   3.570
 6957TIP3    H120832   5.671   3.865   3.626
 6957TIP3    H220833   5.717   3.890   3.484
 6958TIP3   OH220834   6.158   4.390   3.951
 6958TIP3    H120835   6.072   4.426   3.973
 6958TIP3    H220836   6.219   4.440   4.005
 6959TIP3   OH220837   5.871   4.753   3.072
 6959TIP3    H120838   5.806   4.687   3.047
 6959TIP3    H220839   5.850   4.775   3.163
 6960TIP3   OH220840   6.784   4.999   3.671
 6960TIP3    H120841   6.819   5.049   3.598
 6960TIP3    H220842   6.703   4.960   3.638
 6961TIP3   OH220843   6.355   4.062   2.954
 6961TIP3    H120844   6.263   4.037   2.959
 6961TIP3    H220845   6.355   4.156   2.972
 6962TIP3   OH220846   6.294   5.076   4.085
 6962TIP3    H120847   6.346   5.064   4.165
 6962TIP3    H220848   6.255   5.163   4.095
 6963TIP3   OH220849   6.412   4.323   3.038
 6963TIP3    H120850   6.507   4.327   3.050
 6963TIP3    H220851   6.391   4.401   2.986
 6964TIP3   OH220852   5.575   4.741   3.741
 6964TIP3    H120853   5.610   4.717   3.655
 6964TIP3    H220854   5.643   4.714   3.802
 6965TIP3   OH220855   6.036   4.898   2.905
 6965TIP3    H120856   5.991   4.980   2.886
 6965TIP3    H220857   5.976   4.850   2.961
 6966TIP3   OH220858   5.478   4.704   4.362
 6966TIP3    H120859   5.509   4.703   4.453
 6966TIP3    H220860   5.420   4.628   4.356
 6967TIP3   OH220861   6.209   4.806   4.359
 6967TIP3    H120862   6.147   4.745   4.320
 6967TIP3    H220863   6.295   4.770   4.336
 6968TIP3   OH220864   6.440   5.353   3.944
 6968TIP3    H120865   6.346   5.346   3.961
 6968TIP3    H220866   6.476   5.396   4.021
 6969TIP3   OH220867   6.829   4.407   2.852
 6969TIP3    H120868   6.776   4.359   2.788
 6969TIP3    H220869   6.831   4.497   2.819
 6970TIP3   OH220870   7.081   5.274   3.942
 6970TIP3    H120871   6.986   5.266   3.936
 6970TIP3    H220872   7.113   5.247   3.856
 6971TIP3   OH220873   6.541   5.223   2.777
 6971TIP3    H120874   6.541   5.164   2.853
 6971TIP3    H220875   6.592   5.177   2.710
 6972TIP3   OH220876   6.553   4.868   3.564
 6972TIP3    H120877   6.464   4.849   3.594
 6972TIP3    H220878   6.585   4.785   3.530
 6973TIP3   OH220879   5.696   5.084   3.365
 6973TIP3    H120880   5.692   5.164   3.312
 6973TIP3    H220881   5.613   5.084   3.413
 6974TIP3   OH220882   5.277   4.391   3.084
 6974TIP3    H120883   5.324   4.472   3.105
 6974TIP3    H220884   5.196   4.398   3.136
 6975TIP3   OH220885   5.820   4.841   3.334
 6975TIP3    H120886   5.770   4.922   3.337
 6975TIP3    H220887   5.909   4.867   3.357
 6976TIP3   OH220888   5.987   5.425   3.836
 6976TIP3    H120889   6.025   5.498   3.786
 6976TIP3    H220890   6.058   5.396   3.893
 6977TIP3   OH220891   5.620   5.324   3.226
 6977TIP3    H120892   5.534   5.327   3.267
 6977TIP3    H220893   5.653   5.414   3.233
 6978TIP3   OH220894   6.342   5.077   3.813
 6978TIP3    H120895   6.321   5.075   3.907
 6978TIP3    H220896   6.433   5.049   3.808
 6979TIP3   OH220897   6.288   4.983   2.710
 6979TIP3    H120898   6.358   4.960   2.771
 6979TIP3    H220899   6.230   4.907   2.709
 6980TIP3   OH220900   6.594   5.578   3.841
 6980TIP3    H120901   6.522   5.517   3.854
 6980TIP3    H220902   6.562   5.640   3.775
 6981TIP3   OH220903   6.650   5.430   2.486
 6981TIP3    H120904   6.687   5.493   2.424
 6981TIP3    H220905   6.578   5.477   2.528
 6982TIP3   OH220906   5.678   4.196   4.353
 6982TIP3    H120907   5.582   4.204   4.358
 6982TIP3    H220908   5.702   4.146   4.430
 6983TIP3   OH220909   6.495   4.895   2.876
 6983TIP3    H120910   6.482   4.829   2.944
 6983TIP3    H220911   6.590   4.897   2.862
 6984TIP3   OH220912   5.417   5.305   3.994
 6984TIP3    H120913   5.468   5.244   4.047
 6984TIP3    H220914   5.430   5.390   4.035
 6985TIP3   OH220915   5.691   4.952   2.686
 6985TIP3    H120916   5.704   4.864   2.649
 6985TIP3    H220917   5.664   4.935   2.777
 6986TIP3   OH220918   5.630   4.950   2.955
 6986TIP3    H120919   5.690   4.906   3.016
 6986TIP3    H220920   5.642   5.043   2.971
 6987TIP3   OH220921   5.400   4.631   3.149
 6987TIP3    H120922   5.339   4.649   3.220
 6987TIP3    H220923   5.388   4.705   3.088
 6988TIP3   OH220924   6.529   4.252   4.034
 6988TIP3    H120925   6.599   4.307   4.070
 6988TIP3    H220926   6.520   4.180   4.097
 6989TIP3   OH220927   6.413   4.012   3.225
 6989TIP3    H120928   6.394   4.032   3.133
 6989TIP3    H220929   6.455   4.092   3.258
 6990TIP3   OH220930   5.893   5.116   2.824
 6990TIP3    H120931   5.845   5.167   2.889
 6990TIP3    H220932   5.826   5.083   2.765
 6991TIP3   OH220933   6.056   4.221   3.342
 6991TIP3    H120934   6.122   4.283   3.310
 6991TIP3    H220935   6.081   4.205   3.433
 6992TIP3   OH220936   6.364   4.503   4.105
 6992TIP3    H120937   6.389   4.553   4.183
 6992TIP3    H220938   6.414   4.422   4.112
 6993TIP3   OH220939   6.236   3.903   3.407
 6993TIP3    H120940   6.265   3.946   3.488
 6993TIP3    H220941   6.295   3.937   3.340
 6994TIP3   OH220942   5.684   5.220   2.981
 6994TIP3    H120943   5.656   5.287   2.919
 6994TIP3    H220944   5.660   5.254   3.067
 6995TIP3   OH220945   5.741   3.932   3.212
 6995TIP3    H120946   5.708   4.010   3.255
 6995TIP3    H220947   5.835   3.934   3.226
 6996TIP3   OH220948   6.974   4.412   4.092
 6996TIP3    H120949   6.878   4.415   4.098
 6996TIP3    H220950   6.992   4.354   4.018
 6997TIP3   OH220951   6.638   4.609   3.477
 6997TIP3    H120952   6.562   4.554   3.496
 6997TIP3    H220953   6.708   4.572   3.531
 6998TIP3   OH220954   5.374   4.830   2.945
 6998TIP3    H120955   5.447   4.892   2.954
 6998TIP3    H220956   5.405   4.765   2.882
 6999TIP3   OH220957   5.332   4.124   3.040
 6999TIP3    H120958   5.315   4.214   3.068
 6999TIP3    H220959   5.296   4.070   3.110
 7000TIP3   OH220960   6.619   5.579   3.420
 7000TIP3    H120961   6.580   5.626   3.347
 7000TIP3    H220962   6.714   5.591   3.408
 7001TIP3   OH220963   5.684   3.827   3.956
 7001TIP3    H120964   5.656   3.794   3.871
 7001TIP3    H220965   5.677   3.752   4.015
 7002TIP3   OH220966   5.217   5.079   3.336
 7002TIP3    H120967   5.161   5.106   3.409
 7002TIP3    H220968   5.177   5.118   3.259
 7003TIP3   OH220969   5.413   5.621   4.419
 7003TIP3    H120970   5.495   5.627   4.469
 7003TIP3    H220971   5.399   5.527   4.407
 7004TIP3   OH220972   5.881   5.566   4.440
 7004TIP3    H120973   5.976   5.567   4.455
 7004TIP3    H220974   5.867   5.494   4.379
 7005TIP3   OH220975   6.525   5.477   4.166
 7005TIP3    H120976   6.498   5.421   4.240
 7005TIP3    H220977   6.587   5.539   4.205
 7006TIP3   OH220978   6.342   5.207   2.523
 7006TIP3    H120979   6.432   5.218   2.553
 7006TIP3    H220980   6.349   5.207   2.428
 7007TIP3   OH220981   5.517   5.014   4.608
 7007TIP3    H120982   5.536   4.921   4.620
 7007TIP3    H220983   5.430   5.016   4.568
 7008TIP3   OH220984   5.506   4.641   2.798
 7008TIP3    H120985   5.554   4.609   2.875
 7008TIP3    H220986   5.573   4.650   2.731
 7009TIP3   OH220987   6.122   5.071   4.386
 7009TIP3    H120988   6.094   5.109   4.303
 7009TIP3    H220989   6.162   4.987   4.361
 7010TIP3   OH220990   6.043   4.840   2.633
 7010TIP3    H120991   6.024   4.843   2.727
 7010TIP3    H220992   6.037   4.747   2.611
 7011TIP3   OH220993   6.606   5.126   3.981
 7011TIP3    H120994   6.686   5.162   3.943
 7011TIP3    H220995   6.542   5.197   3.974
 7012TIP3   OH220996   5.638   4.747   4.601
 7012TIP3    H120997   5.724   4.731   4.561
 7012TIP3    H220998   5.658   4.774   4.691
 7013TIP3   OH220999   5.684   4.559   3.009
 7013TIP3    H121000   5.616   4.517   3.061
 7013TIP3    H221001   5.730   4.487   2.967
 7014TIP3   OH221002   5.964   4.623   4.251
 7014TIP3    H121003   5.892   4.686   4.262
 7014TIP3    H221004   6.013   4.657   4.176
 7015TIP3   OH221005   5.816   4.364   2.866
 7015TIP3    H121006   5.784   4.364   2.776
 7015TIP3    H221007   5.911   4.370   2.857
 7016TIP3   OH221008   6.476   5.028   4.366
 7016TIP3    H121009   6.564   5.012   4.332
 7016TIP3    H221010   6.471   4.975   4.446
 7017TIP3   OH221011   6.618   4.677   2.539
 7017TIP3    H121012   6.603   4.637   2.453
 7017TIP3    H221013   6.586   4.767   2.530
 7018TIP3   OH221014   6.096   4.417   4.378
 7018TIP3    H121015   6.106   4.343   4.319
 7018TIP3    H221016   6.054   4.485   4.326
 7019TIP3   OH221017   6.112   4.213   4.181
 7019TIP3    H121018   6.136   4.252   4.097
 7019TIP3    H221019   6.022   4.184   4.170
 7020TIP3   OH221020   6.115   4.738   4.055
 7020TIP3    H121021   6.203   4.774   4.047
 7020TIP3    H221022   6.059   4.800   4.008
 7021TIP3   OH221023   6.707   4.702   4.431
 7021TIP3    H121024   6.758   4.622   4.444
 7021TIP3    H221025   6.773   4.771   4.419
 7022TIP3   OH221026   6.743   4.965   4.155
 7022TIP3    H121027   6.684   5.021   4.105
 7022TIP3    H221028   6.830   4.987   4.123
 7023TIP3   OH221029   5.975   4.505   4.616
 7023TIP3    H121030   5.909   4.440   4.638
 7023TIP3    H221031   6.009   4.477   4.531
 7024TIP3   OH221032   6.230   3.974   4.273
 7024TIP3    H121033   6.190   4.056   4.244
 7024TIP3    H221034   6.162   3.909   4.261
 7025TIP3   OH221035   6.357   4.456   4.478
 7025TIP3    H121036   6.353   4.446   4.573
 7025TIP3    H221037   6.268   4.437   4.448
 7026TIP3   OH221038   6.596   4.399   4.340
 7026TIP3    H121039   6.520   4.404   4.398
 7026TIP3    H221040   6.670   4.381   4.399
 7027TIP3   OH221041   6.832   4.373   4.492
 7027TIP3    H121042   6.847   4.278   4.501
 7027TIP3    H221043   6.826   4.405   4.582
 7028TIP3   OH221044   5.813   4.283   4.683
 7028TIP3    H121045   5.820   4.195   4.648
 7028TIP3    H221046   5.852   4.278   4.771
 7029TIP3   OH221047   6.299   3.961   4.539
 7029TIP3    H121048   6.371   3.897   4.534
 7029TIP3    H221049   6.268   3.968   4.449
 7030TIP3   OH221050   6.387   4.179   4.684
 7030TIP3    H121051   6.358   4.107   4.628
 7030TIP3    H221052   6.313   4.240   4.684
 7031TIP3   OH221053   5.631   5.397   2.778
 7031TIP3    H121054   5.643   5.471   2.719
 7031TIP3    H221055   5.566   5.342   2.734
 7032TIP3   OH221056   5.104   4.803   2.984
 7032TIP3    H121057   5.197   4.820   2.972
 7032TIP3    H221058   5.090   4.717   2.944
 7033TIP3   OH221059   5.013   5.396   3.427
 7033TIP3    H121060   4.948   5.341   3.383
 7033TIP3    H221061   5.057   5.336   3.488
 7034TIP3   OH221062   5.154   5.234   3.602
 7034TIP3    H121063   5.143   5.164   3.667
 7034TIP3    H221064   5.207   5.300   3.646
 7035TIP3   OH221065   6.890   5.633   3.409
 7035TIP3    H121066   6.909   5.659   3.499
 7035TIP3    H221067   6.945   5.690   3.356
 7036TIP3   OH221068   6.912   5.664   3.689
 7036TIP3    H121069   6.863   5.582   3.685
 7036TIP3    H221070   6.981   5.647   3.753
 7037TIP3   OH221071   6.956   5.359   4.263
 7037TIP3    H121072   6.882   5.368   4.323
 7037TIP3    H221073   6.999   5.444   4.264
 7038TIP3   OH221074   6.776   4.877   2.866
 7038TIP3    H121075   6.837   4.945   2.836
 7038TIP3    H221076   6.818   4.841   2.944
 7039TIP3   OH221077   6.903   4.744   3.073
 7039TIP3    H121078   6.840   4.706   3.134
 7039TIP3    H221079   6.972   4.781   3.128
 7040TIP3   OH221080   6.951   5.140   3.502
 7040TIP3    H121081   7.002   5.069   3.464
 7040TIP3    H221082   6.957   5.212   3.439
 7041TIP3   OH221083   6.769   5.425   3.690
 7041TIP3    H121084   6.703   5.468   3.745
 7041TIP3    H221085   6.719   5.382   3.621
 7042TIP3   OH221086   6.823   4.648   2.718
 7042TIP3    H121087   6.754   4.651   2.652
 7042TIP3    H221088   6.808   4.726   2.772
 7043TIP3   OH221089   6.695   4.294   2.642
 7043TIP3    H121090   6.640   4.336   2.576
 7043TIP3    H221091   6.678   4.201   2.633
 7044TIP3   OH221092   6.706   4.597   3.209
 7044TIP3    H121093   6.715   4.502   3.200
 7044TIP3    H221094   6.687   4.610   3.302
 7045TIP3   OH221095   5.366   4.682   3.945
 7045TIP3    H121096   5.394   4.699   3.855
 7045TIP3    H221097   5.447   4.664   3.993
 7046TIP3   OH221098   6.999   5.022   4.068
 7046TIP3    H121099   7.064   4.953   4.053
 7046TIP3    H221100   7.028   5.094   4.013
 7047TIP3   OH221101   7.166   4.806   4.065
 7047TIP3    H121102   7.092   4.765   4.111
 7047TIP3    H221103   7.240   4.748   4.082
 7048TIP3   OH221104   6.640   4.023   2.627
 7048TIP3    H121105   6.700   4.004   2.700
 7048TIP3    H221106   6.555   3.990   2.657
 7049TIP3   OH221107   6.699   4.317   3.093
 7049TIP3    H121108   6.743   4.233   3.107
 7049TIP3    H221109   6.744   4.355   3.017
 7050TIP3   OH221110   6.851   4.489   3.612
 7050TIP3    H121111   6.934   4.509   3.568
 7050TIP3    H221112   6.862   4.522   3.701
 7051TIP3   OH221113   6.924   4.631   3.844
 7051TIP3    H121114   6.854   4.662   3.901
 7051TIP3    H221115   6.957   4.710   3.802
 7052TIP3   OH221116   5.548   4.336   4.626
 7052TIP3    H121117   5.642   4.336   4.644
 7052TIP3    H221118   5.517   4.251   4.657
 7053TIP3   OH221119   7.392   4.236   4.383
 7053TIP3    H121120   7.455   4.176   4.343
 7053TIP3    H221121   7.354   4.284   4.309
 7054TIP3   OH221122   6.809   4.067   3.144
 7054TIP3    H121123   6.853   4.058   3.228
 7054TIP3    H221124   6.749   3.993   3.140
 7055TIP3   OH221125   5.534   4.062   3.994
 7055TIP3    H121126   5.560   3.970   3.988
 7055TIP3    H221127   5.615   4.111   3.979
 7056TIP3   OH221128   5.299   4.334   4.075
 7056TIP3    H121129   5.357   4.349   4.000
 7056TIP3    H221130   5.295   4.420   4.118
 7057TIP3   OH221131   7.239   4.351   4.190
 7057TIP3    H121132   7.163   4.391   4.233
 7057TIP3    H221133   7.203   4.279   4.139
 7058TIP3   OH221134   6.871   3.984   2.780
 7058TIP3    H121135   6.927   3.926   2.727
 7058TIP3    H221136   6.922   4.064   2.789
 7059TIP3   OH221137   6.429   5.541   3.041
 7059TIP3    H121138   6.491   5.531   2.969
 7059TIP3    H221139   6.472   5.603   3.101
 7060TIP3   OH221140   5.515   3.882   4.359
 7060TIP3    H121141   5.462   3.868   4.438
 7060TIP3    H221142   5.458   3.932   4.301
 7061TIP3   OH221143   5.549   5.337   4.422
 7061TIP3    H121144   5.456   5.316   4.423
 7061TIP3    H221145   5.575   5.336   4.514
 7062TIP3   OH221146   5.757   5.379   3.980
 7062TIP3    H121147   5.706   5.453   3.949
 7062TIP3    H221148   5.844   5.391   3.941
 7063TIP3   OH221149   6.164   5.606   4.139
 7063TIP3    H121150   6.183   5.590   4.231
 7063TIP3    H221151   6.236   5.661   4.109
 7064TIP3   OH221152   6.356   5.763   3.999
 7064TIP3    H121153   6.420   5.695   3.978
 7064TIP3    H221154   6.405   5.827   4.051
 7065TIP3   OH221155   7.137   4.112   4.085
 7065TIP3    H121156   7.049   4.097   4.051
 7065TIP3    H221157   7.179   4.026   4.082
 7066TIP3   OH221158   5.417   5.625   4.024
 7066TIP3    H121159   5.325   5.643   4.003
 7066TIP3    H221160   5.438   5.689   4.092
 7067TIP3   OH221161   5.648   5.610   3.875
 7067TIP3    H121162   5.565   5.616   3.923
 7067TIP3    H221163   5.626   5.637   3.786
 7068TIP3   OH221164   6.067   5.634   3.667
 7068TIP3    H121165   5.993   5.650   3.609
 7068TIP3    H221166   6.079   5.716   3.714
 7069TIP3   OH221167   6.332   5.562   3.701
 7069TIP3    H121168   6.240   5.587   3.692
 7069TIP3    H221169   6.381   5.639   3.671
 7070TIP3   OH221170   6.534   5.748   3.622
 7070TIP3    H121171   6.530   5.834   3.580
 7070TIP3    H221172   6.563   5.689   3.553
 7071TIP3   OH221173   5.333   5.405   3.744
 7071TIP3    H121174   5.355   5.380   3.834
 7071TIP3    H221175   5.405   5.369   3.691
 7072TIP3   OH221176   5.534   5.282   3.605
 7072TIP3    H121177   5.544   5.198   3.650
 7072TIP3    H221178   5.620   5.324   3.614
 7073TIP3   OH221179   5.800   5.374   3.634
 7073TIP3    H121180   5.821   5.281   3.625
 7073TIP3    H221181   5.852   5.403   3.709
 7074TIP3   OH221182   6.313   3.990   3.662
 7074TIP3    H121183   6.291   3.936   3.738
 7074TIP3    H221184   6.405   3.971   3.645
 7075TIP3   OH221185   6.861   3.929   3.595
 7075TIP3    H121186   6.901   3.983   3.527
 7075TIP3    H221187   6.774   3.966   3.606
 7076TIP3   OH221188   6.966   4.031   3.365
 7076TIP3    H121189   7.030   3.966   3.336
 7076TIP3    H221190   7.009   4.115   3.349
 7077TIP3   OH221191   5.602   3.720   3.715
 7077TIP3    H121192   5.512   3.688   3.723
 7077TIP3    H221193   5.655   3.641   3.707
 7078TIP3   OH221194   5.385   3.608   3.307
 7078TIP3    H121195   5.438   3.658   3.245
 7078TIP3    H221196   5.301   3.653   3.310
 7079TIP3   OH221197   6.076   3.764   3.602
 7079TIP3    H121198   6.120   3.815   3.535
 7079TIP3    H221199   6.116   3.792   3.684
 7080TIP3   OH221200   6.572   3.921   3.597
 7080TIP3    H121201   6.595   3.891   3.509
 7080TIP3    H221202   6.578   3.843   3.651
 7081TIP3   OH221203   6.629   3.854   3.150
 7081TIP3    H121204   6.549   3.901   3.173
 7081TIP3    H221205   6.620   3.769   3.191
 7082TIP3   OH221206   5.104   5.198   3.115
 7082TIP3    H121207   5.017   5.166   3.089
 7082TIP3    H221208   5.103   5.291   3.089
 7083TIP3   OH221209   5.538   3.756   3.123
 7083TIP3    H121210   5.581   3.700   3.058
 7083TIP3    H221211   5.608   3.811   3.157
 7084TIP3   OH221212   6.014   3.972   3.236
 7084TIP3    H121213   6.073   3.918   3.289
 7084TIP3    H221214   6.030   4.061   3.267
 7085TIP3   OH221215   6.597   5.492   2.821
 7085TIP3    H121216   6.581   5.398   2.811
 7085TIP3    H221217   6.557   5.531   2.744
 7086TIP3   OH221218   5.824   4.012   4.595
 7086TIP3    H121219   5.788   3.946   4.656
 7086TIP3    H221220   5.916   4.017   4.619
 7087TIP3   OH221221   6.074   4.011   4.713
 7087TIP3    H121222   6.154   3.990   4.666
 7087TIP3    H221223   6.067   3.943   4.780
 7088TIP3   OH221224   5.204   5.195   2.778
 7088TIP3    H121225   5.192   5.196   2.873
 7088TIP3    H221226   5.287   5.149   2.765
 7089TIP3   OH221227   6.898   4.102   4.508
 7089TIP3    H121228   6.913   4.073   4.598
 7089TIP3    H221229   6.984   4.098   4.466
 7090TIP3   OH221230   6.819   5.632   4.005
 7090TIP3    H121231   6.741   5.601   3.960
 7090TIP3    H221232   6.802   5.725   4.020
 7091TIP3   OH221233   7.357   4.889   3.548
 7091TIP3    H121234   7.388   4.850   3.630
 7091TIP3    H221235   7.428   4.946   3.521
 7092TIP3   OH221236   7.353   5.302   3.219
 7092TIP3    H121237   7.334   5.208   3.220
 7092TIP3    H221238   7.446   5.307   3.240
 7093TIP3   OH221239   7.049   4.523   2.986
 7093TIP3    H121240   7.010   4.606   3.014
 7093TIP3    H221241   6.975   4.471   2.954
 7094TIP3   OH221242   7.138   4.826   3.201
 7094TIP3    H121243   7.188   4.752   3.236
 7094TIP3    H221244   7.204   4.894   3.186
 7095TIP3   OH221245   0.054   5.193   3.212
 7095TIP3    H121246   0.130   5.136   3.201
 7095TIP3    H221247   0.092   5.281   3.221
 7096TIP3   OH221248   7.575   4.425   3.196
 7096TIP3    H121249   7.561   4.502   3.140
 7096TIP3    H221250   7.502   4.366   3.175
 7097TIP3   OH221251   7.270   4.613   3.312
 7097TIP3    H121252   7.344   4.584   3.367
 7097TIP3    H221253   7.276   4.559   3.234
 7098TIP3   OH221254   7.685   4.773   3.193
 7098TIP3    H121255   7.736   4.830   3.136
 7098TIP3    H221256   7.622   4.730   3.134
 7099TIP3   OH221257   7.644   4.422   3.661
 7099TIP3    H121258   7.584   4.438   3.588
 7099TIP3    H221259   7.589   4.431   3.739
 7100TIP3   OH221260   7.725   5.151   3.456
 7100TIP3    H121261   7.669   5.225   3.481
 7100TIP3    H221262   7.781   5.186   3.387
 7101TIP3   OH221263   7.484   4.490   3.445
 7101TIP3    H121264   7.529   4.573   3.463
 7101TIP3    H221265   7.530   4.454   3.369
 7102TIP3   OH221266   7.558   5.365   3.503
 7102TIP3    H121267   7.545   5.455   3.475
 7102TIP3    H221268   7.484   5.346   3.561
 7103TIP3   OH221269   6.951   5.064   2.754
 7103TIP3    H121270   6.924   5.083   2.664
 7103TIP3    H221271   6.980   5.148   2.789
 7104TIP3   OH221272   7.501   4.943   2.977
 7104TIP3    H121273   7.471   4.875   2.915
 7104TIP3    H221274   7.595   4.926   2.987
 7105TIP3   OH221275   7.630   5.348   3.112
 7105TIP3    H121276   7.594   5.323   3.027
 7105TIP3    H221277   7.692   5.279   3.133
 7106TIP3   OH221278   7.567   4.956   3.357
 7106TIP3    H121279   7.622   4.901   3.302
 7106TIP3    H221280   7.626   5.022   3.393
 7107TIP3   OH221281   7.763   5.478   3.658
 7107TIP3    H121282   7.706   5.537   3.707
 7107TIP3    H221283   7.703   5.422   3.608
 7108TIP3   OH221284   7.509   5.039   3.758
 7108TIP3    H121285   7.523   5.122   3.803
 7108TIP3    H221286   7.421   5.012   3.784
 7109TIP3   OH221287   7.557   5.636   3.751
 7109TIP3    H121288   7.525   5.639   3.661
 7109TIP3    H221289   7.479   5.614   3.803
 7110TIP3   OH221290   7.373   4.774   2.781
 7110TIP3    H121291   7.300   4.825   2.745
 7110TIP3    H221292   7.333   4.691   2.809
 7111TIP3   OH221293   7.153   5.173   3.700
 7111TIP3    H121294   7.083   5.153   3.638
 7111TIP3    H221295   7.186   5.088   3.727
 7112TIP3   OH221296   7.011   5.367   3.341
 7112TIP3    H121297   7.105   5.378   3.350
 7112TIP3    H221298   6.973   5.444   3.385
 7113TIP3   OH221299   0.142   5.606   3.493
 7113TIP3    H121300   0.145   5.696   3.524
 7113TIP3    H221301   0.084   5.562   3.555
 7114TIP3   OH221302   7.643   5.790   2.407
 7114TIP3    H121303   7.714   5.735   2.373
 7114TIP3    H221304   7.685   5.847   2.472
 7115TIP3   OH221305   7.179   5.560   2.853
 7115TIP3    H121306   7.220   5.555   2.939
 7115TIP3    H221307   7.131   5.478   2.844
 7116TIP3   OH221308   7.347   5.366   3.676
 7116TIP3    H121309   7.400   5.353   3.755
 7116TIP3    H221310   7.278   5.300   3.682
 7117TIP3   OH221311   7.706   4.185   3.521
 7117TIP3    H121312   7.620   4.156   3.490
 7117TIP3    H221313   7.687   4.257   3.581
 7118TIP3   OH221314   7.605   4.720   3.500
 7118TIP3    H121315   7.563   4.736   3.585
 7118TIP3    H221316   7.591   4.801   3.451
 7119TIP3   OH221317   7.529   4.627   3.016
 7119TIP3    H121318   7.438   4.613   3.042
 7119TIP3    H221319   7.539   4.582   2.933
 7120TIP3   OH221320   7.491   4.726   3.748
 7120TIP3    H121321   7.533   4.779   3.816
 7120TIP3    H221322   7.477   4.641   3.789
 7121TIP3   OH221323   7.434   4.194   2.440
 7121TIP3    H121324   7.438   4.224   2.531
 7121TIP3    H221325   7.371   4.252   2.399
 7122TIP3   OH221326   7.105   4.245   3.275
 7122TIP3    H121327   7.160   4.282   3.344
 7122TIP3    H221328   7.167   4.215   3.208
 7123TIP3   OH221329   7.026   4.217   2.794
 7123TIP3    H121330   7.064   4.257   2.716
 7123TIP3    H221331   6.964   4.283   2.827
 7124TIP3   OH221332   0.132   4.353   3.084
 7124TIP3    H121333   0.093   4.297   3.151
 7124TIP3    H221334   0.226   4.344   3.095
 7125TIP3   OH221335   7.301   4.482   3.074
 7125TIP3    H121336   7.212   4.491   3.041
 7125TIP3    H221337   7.323   4.390   3.059
 7126TIP3   OH221338   7.534   4.468   2.799
 7126TIP3    H121339   7.622   4.436   2.781
 7126TIP3    H221340   7.494   4.480   2.713
 7127TIP3   OH221341   7.406   4.476   2.558
 7127TIP3    H121342   7.345   4.472   2.485
 7127TIP3    H221343   7.485   4.517   2.522
 7128TIP3   OH221344   7.506   5.282   3.897
 7128TIP3    H121345   7.591   5.278   3.941
 7128TIP3    H221346   7.442   5.288   3.969
 7129TIP3   OH221347   7.416   4.229   3.077
 7129TIP3    H121348   7.387   4.148   3.118
 7129TIP3    H221349   7.504   4.211   3.046
 7130TIP3   OH221350   0.153   4.667   3.342
 7130TIP3    H121351   0.063   4.641   3.356
 7130TIP3    H221352   0.186   4.689   3.429
 7131TIP3   OH221353   7.647   4.976   2.573
 7131TIP3    H121354   7.561   4.948   2.539
 7131TIP3    H221355   7.626   5.035   2.645
 7132TIP3   OH221356   0.338   5.419   3.534
 7132TIP3    H121357   0.310   5.381   3.618
 7132TIP3    H221358   0.277   5.491   3.520
 7133TIP3   OH221359   7.350   5.014   3.197
 7133TIP3    H121360   7.396   4.996   3.115
 7133TIP3    H221361   7.414   4.992   3.265
 7134TIP3   OH221362   7.259   4.957   3.842
 7134TIP3    H121363   7.285   4.940   3.933
 7134TIP3    H221364   7.190   4.893   3.825
 7135TIP3   OH221365   0.220   4.993   3.794
 7135TIP3    H121366   0.133   4.972   3.758
 7135TIP3    H221367   0.218   4.956   3.882
 7136TIP3   OH221368   7.484   5.360   2.866
 7136TIP3    H121369   7.482   5.436   2.806
 7136TIP3    H221370   7.393   5.350   2.895
 7137TIP3   OH221371   7.066   4.637   2.585
 7137TIP3    H121372   7.110   4.721   2.602
 7137TIP3    H221373   6.985   4.643   2.635
 7138TIP3   OH221374   7.599   5.124   2.792
 7138TIP3    H121375   7.567   5.213   2.807
 7138TIP3    H221376   7.560   5.073   2.863
 7139TIP3   OH221377   7.749   5.667   3.310
 7139TIP3    H121378   7.774   5.750   3.269
 7139TIP3    H221379   7.827   5.638   3.356
 7140TIP3   OH221380   7.411   5.583   2.703
 7140TIP3    H121381   7.326   5.588   2.747
 7140TIP3    H221382   7.445   5.672   2.706
 7141TIP3   OH221383   7.464   4.460   3.861
 7141TIP3    H121384   7.368   4.459   3.862
 7141TIP3    H221385   7.489   4.403   3.934
 7142TIP3   OH221386   7.204   5.566   3.483
 7142TIP3    H121387   7.250   5.503   3.538
 7142TIP3    H221388   7.217   5.650   3.527
 7143TIP3   OH221389   7.456   5.189   2.189
 7143TIP3    H121390   7.465   5.101   2.152
 7143TIP3    H221391   7.447   5.173   2.283
 7144TIP3   OH221392   7.446   5.195   2.466
 7144TIP3    H121393   7.536   5.182   2.494
 7144TIP3    H221394   7.434   5.290   2.465
 7145TIP3   OH221395   7.153   4.893   2.661
 7145TIP3    H121396   7.086   4.939   2.712
 7145TIP3    H221397   7.177   4.956   2.592
 7146TIP3   OH221398   7.694   5.492   2.369
 7146TIP3    H121399   7.600   5.494   2.385
 7146TIP3    H221400   7.704   5.439   2.290
 7147TIP3   OH221401   7.431   5.466   2.453
 7147TIP3    H121402   7.406   5.531   2.387
 7147TIP3    H221403   7.418   5.512   2.537
 7148TIP3   OH221404   7.453   4.202   2.725
 7148TIP3    H121405   7.428   4.283   2.768
 7148TIP3    H221406   7.543   4.218   2.695
 7149TIP3   OH221407   7.167   5.103   2.469
 7149TIP3    H121408   7.242   5.160   2.483
 7149TIP3    H221409   7.195   5.042   2.400
 7150TIP3   OH221410   7.066   4.362   2.560
 7150TIP3    H121411   7.084   4.454   2.580
 7150TIP3    H221412   6.977   4.361   2.527
 7151TIP3   OH221413   7.451   4.110   3.438
 7151TIP3    H121414   7.428   4.072   3.353
 7151TIP3    H221415   7.438   4.039   3.500
 7152TIP3   OH221416   7.009   5.331   2.837
 7152TIP3    H121417   6.969   5.370   2.915
 7152TIP3    H221418   6.967   5.376   2.764
 7153TIP3   OH221419   7.202   5.874   3.899
 7153TIP3    H121420   7.281   5.881   3.952
 7153TIP3    H221421   7.185   5.779   3.894
 7154TIP3   OH221422   7.658   5.807   3.941
 7154TIP3    H121423   7.732   5.756   3.974
 7154TIP3    H221424   7.625   5.756   3.867
 7155TIP3   OH221425   7.700   5.311   2.167
 7155TIP3    H121426   7.617   5.262   2.165
 7155TIP3    H221427   7.765   5.248   2.137
 7156TIP3   OH221428   7.314   5.269   4.098
 7156TIP3    H121429   7.338   5.177   4.105
 7156TIP3    H221430   7.227   5.268   4.059
 7157TIP3   OH221431   7.270   4.914   2.312
 7157TIP3    H121432   7.318   4.867   2.380
 7157TIP3    H221433   7.334   4.926   2.242
 7158TIP3   OH221434   0.074   5.368   3.884
 7158TIP3    H121435   0.046   5.393   3.796
 7158TIP3    H221436   0.165   5.342   3.873
 7159TIP3   OH221437   7.453   5.013   4.085
 7159TIP3    H121438   7.539   5.008   4.044
 7159TIP3    H221439   7.471   5.034   4.176
 7160TIP3   OH221440   7.436   4.802   2.500
 7160TIP3    H121441   7.437   4.770   2.591
 7160TIP3    H221442   7.503   4.750   2.456
 7161TIP3   OH221443   7.756   4.928   3.749
 7161TIP3    H121444   7.667   4.964   3.744
 7161TIP3    H221445   7.779   4.910   3.658
 7162TIP3   OH221446   7.594   4.681   2.282
 7162TIP3    H121447   7.594   4.586   2.290
 7162TIP3    H221448   7.686   4.707   2.290
 7163TIP3   OH221449   0.036   4.632   3.914
 7163TIP3    H121450   0.097   4.565   3.945
 7163TIP3    H221451   0.044   4.630   3.819
 7164TIP3   OH221452   0.111   4.369   3.719
 7164TIP3    H121453   0.164   4.444   3.693
 7164TIP3    H221454   0.021   4.392   3.693
 7165TIP3   OH221455   0.058   4.909   3.500
 7165TIP3    H121456   0.145   4.898   3.460
 7165TIP3    H221457   0.036   5.001   3.485
 7166TIP3   OH221458   7.696   4.781   4.091
 7166TIP3    H121459   7.650   4.719   4.147
 7166TIP3    H221460   7.738   4.727   4.024
 7167TIP3   OH221461   0.331   4.715   3.889
 7167TIP3    H121462   0.344   4.633   3.936
 7167TIP3    H221463   0.245   4.746   3.917
 7168TIP3   OH221464   7.586   4.540   4.184
 7168TIP3    H121465   7.605   4.458   4.138
 7168TIP3    H221466   7.620   4.526   4.273
 7169TIP3   OH221467   7.460   5.653   2.249
 7169TIP3    H121468   7.514   5.713   2.299
 7169TIP3    H221469   7.416   5.708   2.184
 7170TIP3   OH221470   6.894   5.062   2.468
 7170TIP3    H121471   6.987   5.083   2.464
 7170TIP3    H221472   6.887   4.976   2.426
 7171TIP3   OH221473   6.806   5.647   2.915
 7171TIP3    H121474   6.740   5.592   2.872
 7171TIP3    H221475   6.851   5.588   2.975
 7172TIP3   OH221476   6.952   5.484   3.085
 7172TIP3    H121477   6.944   5.416   3.152
 7172TIP3    H221478   7.000   5.555   3.127
 7173TIP3   OH221479   7.107   4.921   3.457
 7173TIP3    H121480   7.104   4.887   3.367
 7173TIP3    H221481   7.199   4.914   3.482
 7174TIP3   OH221482   7.332   4.595   4.108
 7174TIP3    H121483   7.425   4.594   4.127
 7174TIP3    H221484   7.298   4.514   4.146
 7175TIP3   OH221485   7.275   4.314   3.479
 7175TIP3    H121486   7.332   4.237   3.477
 7175TIP3    H221487   7.336   4.388   3.483
 7176TIP3   OH221488   7.092   4.585   3.526
 7176TIP3    H121489   7.145   4.590   3.447
 7176TIP3    H221490   7.123   4.658   3.580
 7177TIP3   OH221491   7.072   4.074   3.027
 7177TIP3    H121492   6.988   4.072   3.073
 7177TIP3    H221493   7.061   4.139   2.958
 7178TIP3   OH221494   7.292   4.178   3.860
 7178TIP3    H121495   7.239   4.158   3.937
 7178TIP3    H221496   7.230   4.212   3.796
 7179TIP3   OH221497   7.342   5.595   3.924
 7179TIP3    H121498   7.249   5.573   3.913
 7179TIP3    H221499   7.359   5.579   4.016
 7180TIP3   OH221500   7.531   5.636   3.470
 7180TIP3    H121501   7.480   5.711   3.438
 7180TIP3    H221502   7.614   5.642   3.424
 7181TIP3   OH221503   0.136   5.865   3.592
 7181TIP3    H121504   0.155   5.832   3.680
 7181TIP3    H221505   0.205   5.929   3.575
 7182TIP3   OH221506   7.205   5.881   3.513
 7182TIP3    H121507   7.113   5.900   3.492
 7182TIP3    H221508   7.228   5.945   3.580
 7183TIP3   OH221509   7.429   5.864   3.358
 7183TIP3    H121510   7.346   5.872   3.406
 7183TIP3    H221511   7.407   5.893   3.269
 7184TIP3   OH221512   7.787   5.899   3.176
 7184TIP3    H121513   7.740   5.906   3.093
 7184TIP3    H221514   7.811   5.990   3.198
 7185TIP3   OH221515   7.122   5.665   3.234
 7185TIP3    H121516   7.144   5.639   3.323
 7185TIP3    H221517   7.192   5.629   3.180
 7186TIP3   OH221518   7.313   5.539   3.090
 7186TIP3    H121519   7.321   5.456   3.137
 7186TIP3    H221520   7.401   5.577   3.094
 7187TIP3   OH221521   7.576   5.619   3.106
 7187TIP3    H121522   7.596   5.526   3.098
 7187TIP3    H221523   7.627   5.649   3.180
 7188TIP3   OH221524   7.347   3.998   3.202
 7188TIP3    H121525   7.257   3.968   3.212
 7188TIP3    H221526   7.399   3.918   3.201
 7189TIP3   OH221527   7.202   3.897   2.868
 7189TIP3    H121528   7.190   3.955   2.793
 7189TIP3    H221529   7.165   3.945   2.942
 7190TIP3   OH221530   6.893   5.457   2.624
 7190TIP3    H121531   6.809   5.424   2.591
 7190TIP3    H221532   6.898   5.547   2.590
 7191TIP3   OH221533   7.352   3.978   2.590
 7191TIP3    H121534   7.381   4.026   2.512
 7191TIP3    H221535   7.366   4.040   2.662
 7192TIP3   OH221536   7.618   4.280   4.068
 7192TIP3    H121537   7.572   4.206   4.107
 7192TIP3    H221538   7.698   4.288   4.120
 7193TIP3   OH221539   0.038   4.298   4.226
 7193TIP3    H121540   0.122   4.327   4.190
 7193TIP3    H221541   0.060   4.224   4.282
 7194TIP3   OH221542   6.992   5.454   2.272
 7194TIP3    H121543   6.998   5.468   2.366
 7194TIP3    H221544   7.074   5.410   2.249
 7195TIP3   OH221545   0.588   5.810   4.476
 7195TIP3    H121546   0.566   5.901   4.454
 7195TIP3    H221547   0.514   5.759   4.444
 7196TIP3   OH221548   0.573   5.821   4.846
 7196TIP3    H121549   0.602   5.782   4.929
 7196TIP3    H221550   0.500   5.766   4.818
 7197TIP3   OH221551   0.825   6.115   4.532
 7197TIP3    H121552   0.807   6.048   4.598
 7197TIP3    H221553   0.837   6.195   4.582
 7198TIP3   OH221554   1.377   5.346   4.884
 7198TIP3    H121555   1.397   5.429   4.927
 7198TIP3    H221556   1.397   5.361   4.792
 7199TIP3   OH221557   0.749   5.514   4.917
 7199TIP3    H121558   0.798   5.436   4.945
 7199TIP3    H221559   0.730   5.498   4.825
 7200TIP3   OH221560   0.815   5.264   4.504
 7200TIP3    H121561   0.880   5.259   4.574
 7200TIP3    H221562   0.863   5.303   4.430
 7201TIP3   OH221563   1.442   5.563   5.052
 7201TIP3    H121564   1.353   5.598   5.045
 7201TIP3    H221565   1.474   5.597   5.136
 7202TIP3   OH221566   0.499   6.041   4.346
 7202TIP3    H121567   0.440   6.003   4.281
 7202TIP3    H221568   0.464   6.128   4.363
 7203TIP3   OH221569   0.980   5.295   4.719
 7203TIP3    H121570   0.946   5.274   4.806
 7203TIP3    H221571   1.037   5.371   4.733
 7204TIP3   OH221572   0.849   6.355   4.675
 7204TIP3    H121573   0.773   6.349   4.733
 7204TIP3    H221574   0.842   6.443   4.637
 7205TIP3   OH221575   1.170   5.240   5.053
 7205TIP3    H121576   1.082   5.259   5.021
 7205TIP3    H221577   1.229   5.268   4.983
 7206TIP3   OH221578   0.438   4.894   5.154
 7206TIP3    H121579   0.448   4.799   5.159
 7206TIP3    H221580   0.377   4.908   5.082
 7207TIP3   OH221581   0.548   6.352   4.286
 7207TIP3    H121582   0.616   6.284   4.285
 7207TIP3    H221583   0.596   6.434   4.281
 7208TIP3   OH221584   0.742   6.155   4.270
 7208TIP3    H121585   0.671   6.091   4.276
 7208TIP3    H221586   0.789   6.146   4.353
 7209TIP3   OH221587   1.089   6.247   5.028
 7209TIP3    H121588   1.069   6.171   4.973
 7209TIP3    H221589   1.071   6.322   4.971
 7210TIP3   OH221590   0.407   5.707   4.294
 7210TIP3    H121591   0.376   5.788   4.252
 7210TIP3    H221592   0.441   5.654   4.222
 7211TIP3   OH221593   0.355   5.425   3.994
 7211TIP3    H121594   0.361   5.449   4.087
 7211TIP3    H221595   0.437   5.379   3.976
 7212TIP3   OH221596   1.272   5.905   4.887
 7212TIP3    H121597   1.188   5.950   4.888
 7212TIP3    H221598   1.306   5.919   4.798
 7213TIP3   OH221599   0.747   5.743   4.262
 7213TIP3    H121600   0.696   5.767   4.339
 7213TIP3    H221601   0.830   5.711   4.298
 7214TIP3   OH221602   0.970   5.776   5.190
 7214TIP3    H121603   0.965   5.854   5.245
 7214TIP3    H221604   0.887   5.776   5.142
 7215TIP3   OH221605   0.663   6.335   4.870
 7215TIP3    H121606   0.665   6.385   4.952
 7215TIP3    H221607   0.662   6.244   4.899
 7216TIP3   OH221608   0.579   5.597   4.104
 7216TIP3    H121609   0.637   5.659   4.149
 7216TIP3    H221610   0.601   5.607   4.011
 7217TIP3   OH221611   1.081   4.822   4.137
 7217TIP3    H121612   1.005   4.840   4.191
 7217TIP3    H221613   1.091   4.901   4.083
 7218TIP3   OH221614   0.897   6.201   3.678
 7218TIP3    H121615   0.895   6.296   3.668
 7218TIP3    H221616   0.988   6.178   3.660
 7219TIP3   OH221617   1.326   6.609   5.092
 7219TIP3    H121618   1.331   6.514   5.103
 7219TIP3    H221619   1.245   6.633   5.137
 7220TIP3   OH221620   0.402   6.422   3.787
 7220TIP3    H121621   0.455   6.353   3.745
 7220TIP3    H221622   0.433   6.424   3.877
 7221TIP3   OH221623   0.428   6.457   4.062
 7221TIP3    H121624   0.333   6.449   4.077
 7221TIP3    H221625   0.468   6.418   4.140
 7222TIP3   OH221626   1.207   5.723   5.358
 7222TIP3    H121627   1.126   5.734   5.309
 7222TIP3    H221628   1.224   5.629   5.355
 7223TIP3   OH221629   0.756   5.089   5.395
 7223TIP3    H121630   0.837   5.063   5.439
 7223TIP3    H221631   0.690   5.086   5.464
 7224TIP3   OH221632   0.972   5.512   5.282
 7224TIP3    H121633   0.927   5.505   5.366
 7224TIP3    H221634   0.947   5.599   5.249
 7225TIP3   OH221635   0.674   5.609   3.849
 7225TIP3    H121636   0.626   5.599   3.767
 7225TIP3    H221637   0.753   5.658   3.826
 7226TIP3   OH221638   0.435   4.949   4.075
 7226TIP3    H121639   0.394   4.942   4.161
 7226TIP3    H221640   0.408   4.870   4.028
 7227TIP3   OH221641   0.540   5.480   4.429
 7227TIP3    H121642   0.471   5.537   4.396
 7227TIP3    H221643   0.580   5.442   4.351
 7228TIP3   OH221644   0.721   5.729   5.504
 7228TIP3    H121645   0.675   5.674   5.568
 7228TIP3    H221646   0.811   5.734   5.537
 7229TIP3   OH221647   0.687   5.465   4.656
 7229TIP3    H121648   0.628   5.495   4.587
 7229TIP3    H221649   0.726   5.385   4.621
 7230TIP3   OH221650   0.718   5.736   5.070
 7230TIP3    H121651   0.738   5.662   5.013
 7230TIP3    H221652   0.678   5.697   5.147
 7231TIP3   OH221653   0.449   5.124   4.712
 7231TIP3    H121654   0.368   5.106   4.759
 7231TIP3    H221655   0.514   5.138   4.782
 7232TIP3   OH221656   0.869   5.263   4.974
 7232TIP3    H121657   0.847   5.280   5.065
 7232TIP3    H221658   0.801   5.204   4.943
 7233TIP3   OH221659   1.030   6.935   5.199
 7233TIP3    H121660   1.017   6.971   5.111
 7233TIP3    H221661   1.107   6.980   5.233
 7234TIP3   OH221662   0.475   5.412   4.863
 7234TIP3    H121663   0.512   5.429   4.777
 7234TIP3    H221664   0.538   5.450   4.924
 7235TIP3   OH221665   1.037   6.043   4.849
 7235TIP3    H121666   1.073   6.094   4.775
 7235TIP3    H221667   0.958   6.003   4.814
 7236TIP3   OH221668   0.641   5.127   4.090
 7236TIP3    H121669   0.555   5.087   4.099
 7236TIP3    H221670   0.633   5.212   4.133
 7237TIP3   OH221671   0.677   5.367   4.211
 7237TIP3    H121672   0.772   5.376   4.225
 7237TIP3    H221673   0.652   5.447   4.164
 7238TIP3   OH221674   0.674   6.446   5.124
 7238TIP3    H121675   0.589   6.409   5.148
 7238TIP3    H221676   0.721   6.456   5.207
 7239TIP3   OH221677   1.086   5.452   4.031
 7239TIP3    H121678   1.030   5.406   3.969
 7239TIP3    H221679   1.089   5.542   3.999
 7240TIP3   OH221680   1.336   6.332   5.112
 7240TIP3    H121681   1.241   6.316   5.112
 7240TIP3    H221682   1.365   6.298   5.028
 7241TIP3   OH221683   0.829   6.268   3.973
 7241TIP3    H121684   0.801   6.215   4.048
 7241TIP3    H221685   0.822   6.208   3.898
 7242TIP3   OH221686   0.808   5.917   4.744
 7242TIP3    H121687   0.719   5.889   4.764
 7242TIP3    H221688   0.848   5.840   4.704
 7243TIP3   OH221689   0.708   6.080   4.975
 7243TIP3    H121690   0.660   6.012   5.022
 7243TIP3    H221691   0.742   6.035   4.897
 7244TIP3   OH221692   0.609   6.029   3.848
 7244TIP3    H121693   0.658   5.988   3.920
 7244TIP3    H221694   0.517   6.020   3.873
 7245TIP3   OH221695   0.859   6.625   5.008
 7245TIP3    H121696   0.784   6.579   5.044
 7245TIP3    H221697   0.821   6.696   4.955
 7246TIP3   OH221698   0.908   6.477   3.657
 7246TIP3    H121699   0.959   6.554   3.632
 7246TIP3    H221700   0.827   6.512   3.693
 7247TIP3   OH221701   0.761   5.916   4.045
 7247TIP3    H121702   0.744   5.863   4.123
 7247TIP3    H221703   0.856   5.925   4.042
 7248TIP3   OH221704   0.784   5.306   5.227
 7248TIP3    H121705   0.850   5.360   5.270
 7248TIP3    H221706   0.768   5.234   5.288
 7249TIP3   OH221707   0.684   5.057   4.376
 7249TIP3    H121708   0.670   5.091   4.288
 7249TIP3    H221709   0.715   5.132   4.427
 7250TIP3   OH221710   0.418   5.225   4.458
 7250TIP3    H121711   0.442   5.317   4.448
 7250TIP3    H221712   0.430   5.207   4.552
 7251TIP3   OH221713   0.640   5.588   5.280
 7251TIP3    H121714   0.659   5.634   5.362
 7251TIP3    H221715   0.657   5.496   5.299
 7252TIP3   OH221716   0.510   4.922   4.538
 7252TIP3    H121717   0.488   4.990   4.602
 7252TIP3    H221718   0.577   4.962   4.483
 7253TIP3   OH221719   1.232   5.445   5.267
 7253TIP3    H121720   1.138   5.461   5.277
 7253TIP3    H221721   1.239   5.386   5.193
 7254TIP3   OH221722   0.900   5.659   4.657
 7254TIP3    H121723   0.822   5.604   4.665
 7254TIP3    H221724   0.966   5.614   4.710
 7255TIP3   OH221725   0.869   6.625   4.608
 7255TIP3    H121726   0.824   6.667   4.534
 7255TIP3    H221727   0.962   6.637   4.588
 7256TIP3   OH221728   0.771   6.486   5.376
 7256TIP3    H121729   0.775   6.429   5.452
 7256TIP3    H221730   0.828   6.560   5.398
 7257TIP3   OH221731   0.555   6.228   3.665
 7257TIP3    H121732   0.590   6.166   3.729
 7257TIP3    H221733   0.612   6.219   3.589
 7258TIP3   OH221734   0.331   6.012   3.883
 7258TIP3    H121735   0.258   6.061   3.919
 7258TIP3    H221736   0.296   5.925   3.866
 7259TIP3   OH221737   0.873   6.178   5.192
 7259TIP3    H121738   0.947   6.219   5.147
 7259TIP3    H221739   0.807   6.168   5.123
 7260TIP3   OH221740   0.768   6.073   5.580
 7260TIP3    H121741   0.783   6.023   5.500
 7260TIP3    H221742   0.760   6.006   5.648
 7261TIP3   OH221743   0.884   5.728   3.704
 7261TIP3    H121744   0.866   5.680   3.623
 7261TIP3    H221745   0.850   5.816   3.688
 7262TIP3   OH221746   0.976   5.731   5.620
 7262TIP3    H121747   1.020   5.646   5.625
 7262TIP3    H221748   1.042   5.790   5.581
 7263TIP3   OH221749   0.999   6.002   5.354
 7263TIP3    H121750   0.943   6.067   5.310
 7263TIP3    H221751   1.087   6.018   5.319
 7264TIP3   OH221752   0.450   5.013   5.439
 7264TIP3    H121753   0.456   5.019   5.344
 7264TIP3    H221754   0.386   4.943   5.454
 7265TIP3   OH221755   0.637   5.523   5.668
 7265TIP3    H121756   0.678   5.513   5.754
 7265TIP3    H221757   0.554   5.476   5.676
 7266TIP3   OH221758   0.855   5.447   5.513
 7266TIP3    H121759   0.778   5.465   5.567
 7266TIP3    H221760   0.924   5.426   5.575
 7267TIP3   OH221761   1.083   5.421   5.675
 7267TIP3    H121762   1.099   5.326   5.681
 7267TIP3    H221763   1.072   5.449   5.766
 7268TIP3   OH221764   0.624   5.041   5.647
 7268TIP3    H121765   0.663   4.955   5.661
 7268TIP3    H221766   0.550   5.024   5.589
 7269TIP3   OH221767   0.615   5.223   5.849
 7269TIP3    H121768   0.633   5.160   5.780
 7269TIP3    H221769   0.520   5.218   5.862
 7270TIP3   OH221770   1.142   6.675   4.584
 7270TIP3    H121771   1.163   6.691   4.676
 7270TIP3    H221772   1.194   6.738   4.536
 7271TIP3   OH221773   1.184   6.684   4.860
 7271TIP3    H121774   1.131   6.605   4.857
 7271TIP3    H221775   1.248   6.667   4.929
 7272TIP3   OH221776   1.212   6.403   5.427
 7272TIP3    H121777   1.139   6.411   5.489
 7272TIP3    H221778   1.256   6.488   5.431
 7273TIP3   OH221779   1.039   5.920   4.046
 7273TIP3    H121780   1.098   5.990   4.020
 7273TIP3    H221781   1.080   5.882   4.124
 7274TIP3   OH221782   1.161   5.778   4.249
 7274TIP3    H121783   1.096   5.737   4.305
 7274TIP3    H221784   1.226   5.813   4.310
 7275TIP3   OH221785   1.209   6.181   4.679
 7275TIP3    H121786   1.260   6.111   4.638
 7275TIP3    H221787   1.207   6.251   4.615
 7276TIP3   OH221788   1.025   6.460   4.865
 7276TIP3    H121789   0.959   6.511   4.912
 7276TIP3    H221790   0.976   6.419   4.793
 7277TIP3   OH221791   1.074   5.693   3.896
 7277TIP3    H121792   1.004   5.697   3.831
 7277TIP3    H221793   1.059   5.769   3.952
 7278TIP3   OH221794   0.940   5.344   3.824
 7278TIP3    H121795   0.888   5.379   3.752
 7278TIP3    H221796   0.933   5.249   3.817
 7279TIP3   OH221797   0.970   5.635   4.389
 7279TIP3    H121798   0.970   5.540   4.378
 7279TIP3    H221799   0.948   5.648   4.481
 7280TIP3   OH221800   1.247   6.057   5.246
 7280TIP3    H121801   1.313   5.989   5.229
 7280TIP3    H221802   1.253   6.116   5.172
 7281TIP3   OH221803   1.422   5.845   5.239
 7281TIP3    H121804   1.347   5.804   5.282
 7281TIP3    H221805   1.496   5.789   5.261
 7282TIP3   OH221806   0.906   5.072   3.796
 7282TIP3    H121807   0.968   5.051   3.866
 7282TIP3    H221808   0.825   5.028   3.822
 7283TIP3   OH221809   0.960   5.361   4.274
 7283TIP3    H121810   1.002   5.276   4.287
 7283TIP3    H221811   1.003   5.398   4.198
 7284TIP3   OH221812   1.110   5.530   4.791
 7284TIP3    H121813   1.192   5.547   4.745
 7284TIP3    H221814   1.123   5.566   4.878
 7285TIP3   OH221815   1.184   5.677   5.019
 7285TIP3    H121816   1.111   5.706   5.074
 7285TIP3    H221817   1.215   5.757   4.976
 7286TIP3   OH221818   1.641   5.278   5.561
 7286TIP3    H121819   1.704   5.219   5.520
 7286TIP3    H221820   1.603   5.327   5.488
 7287TIP3   OH221821   1.070   5.108   4.320
 7287TIP3    H121822   1.114   5.094   4.403
 7287TIP3    H221823   1.010   5.034   4.312
 7288TIP3   OH221824   1.492   5.391   5.361
 7288TIP3    H121825   1.407   5.431   5.380
 7288TIP3    H221826   1.471   5.314   5.308
 7289TIP3   OH221827   1.126   5.030   3.960
 7289TIP3    H121828   1.170   4.966   3.904
 7289TIP3    H221829   1.185   5.105   3.962
 7290TIP3   OH221830   0.702   6.565   4.221
 7290TIP3    H121831   0.767   6.564   4.150
 7290TIP3    H221832   0.736   6.631   4.283
 7291TIP3   OH221833   1.405   5.143   5.256
 7291TIP3    H121834   1.316   5.132   5.223
 7291TIP3    H221835   1.443   5.056   5.251
 7292TIP3   OH221836   0.817   6.821   4.798
 7292TIP3    H121837   0.779   6.892   4.746
 7292TIP3    H221838   0.825   6.748   4.737
 7293TIP3   OH221839   0.669   5.091   4.883
 7293TIP3    H121840   0.626   5.014   4.920
 7293TIP3    H221841   0.733   5.056   4.821
 7294TIP3   OH221842   1.128   4.974   4.776
 7294TIP3    H121843   1.165   5.023   4.703
 7294TIP3    H221844   1.034   4.993   4.774
 7295TIP3   OH221845   1.230   5.062   4.540
 7295TIP3    H121846   1.299   5.002   4.511
 7295TIP3    H221847   1.266   5.149   4.526
 7296TIP3   OH221848   0.344   4.766   4.746
 7296TIP3    H121849   0.431   4.796   4.719
 7296TIP3    H221850   0.334   4.801   4.835
 7297TIP3   OH221851   0.853   4.945   4.743
 7297TIP3    H121852   0.863   4.904   4.657
 7297TIP3    H221853   0.851   4.872   4.804
 7298TIP3   OH221854   0.892   4.889   4.321
 7298TIP3    H121855   0.814   4.941   4.339
 7298TIP3    H221856   0.874   4.804   4.360
 7299TIP3   OH221857   0.343   5.001   4.329
 7299TIP3    H121858   0.403   4.947   4.381
 7299TIP3    H221859   0.356   5.089   4.363
 7300TIP3   OH221860   0.861   6.538   3.988
 7300TIP3    H121861   0.853   6.443   3.987
 7300TIP3    H221862   0.808   6.568   3.914
 7301TIP3   OH221863   1.154   5.153   5.688
 7301TIP3    H121864   1.168   5.121   5.777
 7301TIP3    H221865   1.239   5.145   5.646
 7302TIP3   OH221866   1.073   6.667   5.185
 7302TIP3    H121867   1.002   6.638   5.129
 7302TIP3    H221868   1.056   6.760   5.199
 7303TIP3   OH221869   2.343   6.066   3.929
 7303TIP3    H121870   2.313   6.153   3.903
 7303TIP3    H221871   2.272   6.007   3.904
 7304TIP3   OH221872   2.338   6.056   4.351
 7304TIP3    H121873   2.389   6.040   4.430
 7304TIP3    H221874   2.295   5.973   4.332
 7305TIP3   OH221875   1.639   5.929   4.699
 7305TIP3    H121876   1.673   5.872   4.769
 7305TIP3    H221877   1.717   5.958   4.651
 7306TIP3   OH221878   2.604   6.362   4.024
 7306TIP3    H121879   2.594   6.295   4.092
 7306TIP3    H221880   2.628   6.441   4.072
 7307TIP3   OH221881   1.630   6.350   4.390
 7307TIP3    H121882   1.613   6.256   4.398
 7307TIP3    H221883   1.726   6.356   4.384
 7308TIP3   OH221884   1.318   5.555   4.169
 7308TIP3    H121885   1.277   5.638   4.195
 7308TIP3    H221886   1.246   5.503   4.133
 7309TIP3   OH221887   1.392   5.858   4.387
 7309TIP3    H121888   1.441   5.780   4.415
 7309TIP3    H221889   1.459   5.919   4.357
 7310TIP3   OH221890   2.251   6.797   4.035
 7310TIP3    H121891   2.287   6.729   3.978
 7310TIP3    H221892   2.254   6.759   4.123
 7311TIP3   OH221893   2.147   6.281   4.359
 7311TIP3    H121894   2.189   6.200   4.330
 7311TIP3    H221895   2.219   6.337   4.389
 7312TIP3   OH221896   3.168   5.613   4.372
 7312TIP3    H121897   3.191   5.694   4.419
 7312TIP3    H221898   3.185   5.633   4.280
 7313TIP3   OH221899   2.556   5.770   4.393
 7313TIP3    H121900   2.591   5.686   4.420
 7313TIP3    H221901   2.519   5.754   4.306
 7314TIP3   OH221902   1.910   5.431   4.354
 7314TIP3    H121903   1.888   5.503   4.295
 7314TIP3    H221904   1.855   5.358   4.323
 7315TIP3   OH221905   2.605   5.529   3.986
 7315TIP3    H121906   2.670   5.519   4.056
 7315TIP3    H221907   2.656   5.563   3.912
 7316TIP3   OH221908   1.534   5.640   4.480
 7316TIP3    H121909   1.616   5.622   4.525
 7316TIP3    H221910   1.537   5.588   4.400
 7317TIP3   OH221911   1.957   5.841   4.292
 7317TIP3    H121912   2.051   5.824   4.300
 7317TIP3    H221913   1.921   5.759   4.258
 7318TIP3   OH221914   3.237   5.823   4.543
 7318TIP3    H121915   3.148   5.858   4.538
 7318TIP3    H221916   3.273   5.857   4.624
 7319TIP3   OH221917   1.890   5.429   4.805
 7319TIP3    H121918   1.838   5.464   4.732
 7319TIP3    H221919   1.835   5.444   4.882
 7320TIP3   OH221920   2.240   6.283   3.788
 7320TIP3    H121921   2.200   6.255   3.706
 7320TIP3    H221922   2.187   6.358   3.816
 7321TIP3   OH221923   1.990   6.204   4.574
 7321TIP3    H121924   1.935   6.274   4.610
 7321TIP3    H221925   2.037   6.246   4.502
 7322TIP3   OH221926   2.772   5.543   4.203
 7322TIP3    H121927   2.729   5.522   4.286
 7322TIP3    H221928   2.827   5.619   4.222
 7323TIP3   OH221929   1.779   5.537   4.575
 7323TIP3    H121930   1.834   5.612   4.599
 7323TIP3    H221931   1.826   5.495   4.503
 7324TIP3   OH221932   1.828   6.402   4.680
 7324TIP3    H121933   1.814   6.492   4.650
 7324TIP3    H221934   1.750   6.381   4.732
 7325TIP3   OH221935   1.213   6.107   3.928
 7325TIP3    H121936   1.169   6.132   3.847
 7325TIP3    H221937   1.240   6.190   3.968
 7326TIP3   OH221938   2.646   6.601   4.168
 7326TIP3    H121939   2.558   6.597   4.206
 7326TIP3    H221940   2.649   6.686   4.124
 7327TIP3   OH221941   2.965   5.497   4.535
 7327TIP3    H121942   2.879   5.519   4.499
 7327TIP3    H221943   3.027   5.528   4.468
 7328TIP3   OH221944   2.231   5.121   4.527
 7328TIP3    H121945   2.225   5.030   4.554
 7328TIP3    H221946   2.156   5.164   4.568
 7329TIP3   OH221947   2.355   6.645   3.827
 7329TIP3    H121948   2.408   6.566   3.817
 7329TIP3    H221949   2.412   6.716   3.797
 7330TIP3   OH221950   2.493   6.416   3.777
 7330TIP3    H121951   2.422   6.351   3.773
 7330TIP3    H221952   2.543   6.391   3.855
 7331TIP3   OH221953   2.880   6.500   4.513
 7331TIP3    H121954   2.865   6.425   4.456
 7331TIP3    H221955   2.865   6.576   4.456
 7332TIP3   OH221956   2.168   5.906   3.780
 7332TIP3    H121957   2.087   5.951   3.759
 7332TIP3    H221958   2.217   5.903   3.698
 7333TIP3   OH221959   2.136   5.710   3.474
 7333TIP3    H121960   2.202   5.758   3.525
 7333TIP3    H221961   2.186   5.642   3.429
 7334TIP3   OH221962   3.066   6.157   4.373
 7334TIP3    H121963   2.982   6.204   4.373
 7334TIP3    H221964   3.102   6.174   4.286
 7335TIP3   OH221965   2.528   5.995   3.740
 7335TIP3    H121966   2.474   6.023   3.814
 7335TIP3    H221967   2.611   5.968   3.780
 7336TIP3   OH221968   2.756   6.024   4.682
 7336TIP3    H121969   2.755   6.107   4.730
 7336TIP3    H221970   2.674   6.023   4.634
 7337TIP3   OH221971   1.757   5.977   4.149
 7337TIP3    H121972   1.720   5.917   4.085
 7337TIP3    H221973   1.829   5.928   4.188
 7338TIP3   OH221974   1.893   6.399   4.289
 7338TIP3    H121975   1.871   6.379   4.198
 7338TIP3    H221976   1.980   6.360   4.302
 7339TIP3   OH221977   1.860   5.969   4.521
 7339TIP3    H121978   1.898   5.933   4.441
 7339TIP3    H221979   1.910   6.049   4.538
 7340TIP3   OH221980   2.405   6.603   4.296
 7340TIP3    H121981   2.394   6.682   4.348
 7340TIP3    H221982   2.393   6.531   4.358
 7341TIP3   OH221983   2.027   6.507   4.843
 7341TIP3    H121984   1.968   6.566   4.890
 7341TIP3    H221985   1.970   6.454   4.789
 7342TIP3   OH221986   2.356   5.857   3.575
 7342TIP3    H121987   2.417   5.913   3.623
 7342TIP3    H221988   2.383   5.865   3.483
 7343TIP3   OH221989   1.783   6.057   4.976
 7343TIP3    H121990   1.787   6.150   4.999
 7343TIP3    H221991   1.689   6.037   4.972
 7344TIP3   OH221992   2.105   6.523   3.831
 7344TIP3    H121993   2.186   6.572   3.842
 7344TIP3    H221994   2.047   6.582   3.783
 7345TIP3   OH221995   1.820   6.668   4.930
 7345TIP3    H121996   1.792   6.673   4.838
 7345TIP3    H221997   1.739   6.649   4.978
 7346TIP3   OH221998   2.883   5.090   3.637
 7346TIP3    H121999   2.802   5.105   3.686
 7346TIP3    H222000   2.887   5.164   3.576
 7347TIP3   OH222001   1.630   5.820   3.946
 7347TIP3    H122002   1.550   5.863   3.913
 7347TIP3    H222003   1.601   5.732   3.970
 7348TIP3   OH222004   2.688   6.454   3.180
 7348TIP3    H122005   2.686   6.548   3.163
 7348TIP3    H222006   2.779   6.429   3.162
 7349TIP3   OH222007   1.409   6.218   4.875
 7349TIP3    H122008   1.339   6.201   4.812
 7349TIP3    H222009   1.443   6.132   4.898
 7350TIP3   OH222010   1.255   6.413   4.520
 7350TIP3    H122011   1.348   6.427   4.535
 7350TIP3    H222012   1.212   6.489   4.559
 7351TIP3   OH222013   3.116   6.864   4.579
 7351TIP3    H122014   3.121   6.769   4.591
 7351TIP3    H222015   3.036   6.890   4.623
 7352TIP3   OH222016   2.216   6.646   4.701
 7352TIP3    H122017   2.212   6.737   4.731
 7352TIP3    H222018   2.149   6.601   4.752
 7353TIP3   OH222019   1.990   6.726   3.661
 7353TIP3    H122020   1.951   6.715   3.575
 7353TIP3    H222021   1.960   6.813   3.690
 7354TIP3   OH222022   1.430   6.603   4.042
 7354TIP3    H122023   1.477   6.596   4.125
 7354TIP3    H222024   1.382   6.521   4.034
 7355TIP3   OH222025   2.197   6.661   3.295
 7355TIP3    H122026   2.252   6.592   3.257
 7355TIP3    H222027   2.230   6.672   3.384
 7356TIP3   OH222028   2.244   6.694   3.565
 7356TIP3    H122029   2.158   6.699   3.607
 7356TIP3    H222030   2.303   6.665   3.635
 7357TIP3   OH222031   3.002   5.980   4.848
 7357TIP3    H122032   2.920   5.988   4.800
 7357TIP3    H222033   3.021   5.886   4.848
 7358TIP3   OH222034   1.608   6.406   4.847
 7358TIP3    H122035   1.658   6.394   4.928
 7358TIP3    H222036   1.537   6.342   4.854
 7359TIP3   OH222037   1.996   5.216   4.657
 7359TIP3    H122038   1.912   5.183   4.626
 7359TIP3    H222039   1.974   5.296   4.705
 7360TIP3   OH222040   2.540   5.334   4.857
 7360TIP3    H122041   2.610   5.308   4.917
 7360TIP3    H222042   2.460   5.316   4.906
 7361TIP3   OH222043   2.759   5.759   4.772
 7361TIP3    H122044   2.718   5.755   4.858
 7361TIP3    H222045   2.744   5.849   4.741
 7362TIP3   OH222046   2.434   5.858   3.314
 7362TIP3    H122047   2.396   5.846   3.227
 7362TIP3    H222048   2.517   5.902   3.298
 7363TIP3   OH222049   2.141   5.262   3.625
 7363TIP3    H122050   2.108   5.268   3.714
 7363TIP3    H222051   2.109   5.177   3.593
 7364TIP3   OH222052   1.934   5.746   4.669
 7364TIP3    H122053   1.886   5.754   4.752
 7364TIP3    H222054   1.913   5.827   4.622
 7365TIP3   OH222055   1.814   5.627   4.187
 7365TIP3    H122056   1.726   5.601   4.213
 7365TIP3    H222057   1.824   5.591   4.098
 7366TIP3   OH222058   2.296   5.702   3.916
 7366TIP3    H122059   2.249   5.774   3.875
 7366TIP3    H222060   2.354   5.670   3.847
 7367TIP3   OH222061   2.481   5.971   4.992
 7367TIP3    H122062   2.454   5.902   5.053
 7367TIP3    H222063   2.573   5.986   5.012
 7368TIP3   OH222064   2.464   5.718   4.140
 7368TIP3    H122065   2.395   5.740   4.077
 7368TIP3    H222066   2.510   5.643   4.101
 7369TIP3   OH222067   1.766   5.760   4.887
 7369TIP3    H122068   1.783   5.822   4.958
 7369TIP3    H222069   1.748   5.678   4.932
 7370TIP3   OH222070   1.804   5.243   3.598
 7370TIP3    H122071   1.797   5.243   3.694
 7370TIP3    H222072   1.726   5.289   3.568
 7371TIP3   OH222073   1.358   5.285   4.461
 7371TIP3    H122074   1.431   5.318   4.513
 7371TIP3    H222075   1.398   5.257   4.379
 7372TIP3   OH222076   1.283   5.261   3.973
 7372TIP3    H122077   1.328   5.298   3.896
 7372TIP3    H222078   1.218   5.328   3.996
 7373TIP3   OH222079   2.499   5.970   4.567
 7373TIP3    H122080   2.525   5.904   4.504
 7373TIP3    H222081   2.458   5.921   4.639
 7374TIP3   OH222082   2.177   5.420   4.240
 7374TIP3    H122083   2.100   5.420   4.297
 7374TIP3    H222084   2.251   5.409   4.300
 7375TIP3   OH222085   1.577   5.500   4.248
 7375TIP3    H122086   1.488   5.505   4.212
 7375TIP3    H222087   1.604   5.410   4.233
 7376TIP3   OH222088   1.829   5.502   3.943
 7376TIP3    H122089   1.923   5.513   3.930
 7376TIP3    H222090   1.791   5.520   3.856
 7377TIP3   OH222091   2.631   5.506   4.443
 7377TIP3    H122092   2.612   5.521   4.535
 7377TIP3    H222093   2.563   5.444   4.414
 7378TIP3   OH222094   1.706   5.530   3.698
 7378TIP3    H122095   1.639   5.483   3.647
 7378TIP3    H222096   1.761   5.572   3.632
 7379TIP3   OH222097   2.823   7.202   4.665
 7379TIP3    H122098   2.818   7.217   4.571
 7379TIP3    H222099   2.900   7.252   4.694
 7380TIP3   OH222100   1.768   6.320   5.080
 7380TIP3    H122101   1.848   6.341   5.127
 7380TIP3    H222102   1.699   6.326   5.146
 7381TIP3   OH222103   2.228   5.784   4.347
 7381TIP3    H122104   2.294   5.734   4.301
 7381TIP3    H222105   2.225   5.746   4.435
 7382TIP3   OH222106   1.725   5.252   4.237
 7382TIP3    H122107   1.695   5.177   4.289
 7382TIP3    H222108   1.756   5.214   4.155
 7383TIP3   OH222109   2.201   5.692   4.614
 7383TIP3    H122110   2.114   5.722   4.638
 7383TIP3    H222111   2.261   5.743   4.668
 7384TIP3   OH222112   1.933   6.046   3.719
 7384TIP3    H122113   1.860   5.988   3.700
 7384TIP3    H222114   1.911   6.085   3.804
 7385TIP3   OH222115   2.829   6.296   4.334
 7385TIP3    H122116   2.863   6.346   4.260
 7385TIP3    H222117   2.748   6.257   4.301
 7386TIP3   OH222118   2.396   5.361   3.623
 7386TIP3    H122119   2.303   5.340   3.621
 7386TIP3    H222120   2.399   5.456   3.638
 7387TIP3   OH222121   2.340   6.380   4.738
 7387TIP3    H122122   2.390   6.370   4.819
 7387TIP3    H222123   2.301   6.467   4.745
 7388TIP3   OH222124   2.459   5.625   3.699
 7388TIP3    H122125   2.554   5.627   3.709
 7388TIP3    H222126   2.439   5.703   3.647
 7389TIP3   OH222127   1.629   6.063   4.380
 7389TIP3    H122128   1.667   6.044   4.294
 7389TIP3    H222129   1.693   6.029   4.442
 7390TIP3   OH222130   2.090   6.203   3.560
 7390TIP3    H122131   2.042   6.286   3.559
 7390TIP3    H222132   2.036   6.145   3.613
 7391TIP3   OH222133   1.511   5.991   5.010
 7391TIP3    H122134   1.517   5.967   5.103
 7391TIP3    H222135   1.438   5.939   4.977
 7392TIP3   OH222136   2.246   6.123   5.031
 7392TIP3    H122137   2.178   6.062   5.001
 7392TIP3    H222138   2.328   6.083   5.002
 7393TIP3   OH222139   2.488   6.663   4.624
 7393TIP3    H122140   2.394   6.651   4.629
 7393TIP3    H222141   2.512   6.703   4.708
 7394TIP3   OH222142   2.883   5.709   3.520
 7394TIP3    H122143   2.826   5.662   3.459
 7394TIP3    H222144   2.887   5.798   3.486
 7395TIP3   OH222145   3.126   6.582   4.602
 7395TIP3    H122146   3.032   6.569   4.598
 7395TIP3    H222147   3.159   6.552   4.517
 7396TIP3   OH222148   2.605   6.520   3.447
 7396TIP3    H122149   2.584   6.450   3.509
 7396TIP3    H222150   2.626   6.474   3.365
 7397TIP3   OH222151   2.595   6.163   4.232
 7397TIP3    H122152   2.505   6.141   4.256
 7397TIP3    H222153   2.631   6.082   4.196
 7398TIP3   OH222154   1.748   6.395   4.041
 7398TIP3    H122155   1.742   6.471   3.983
 7398TIP3    H222156   1.658   6.381   4.071
 7399TIP3   OH222157   1.292   5.691   3.729
 7399TIP3    H122158   1.342   5.768   3.755
 7399TIP3    H222159   1.218   5.688   3.790
 7400TIP3   OH222160   1.843   6.153   3.951
 7400TIP3    H122161   1.823   6.242   3.979
 7400TIP3    H222162   1.817   6.097   4.024
 7401TIP3   OH222163   2.030   6.721   4.497
 7401TIP3    H122164   2.067   6.793   4.446
 7401TIP3    H222165   2.103   6.688   4.548
 7402TIP3   OH222166   1.657   6.619   3.889
 7402TIP3    H122167   1.572   6.619   3.933
 7402TIP3    H222168   1.688   6.710   3.896
 7403TIP3   OH222169   2.386   6.380   4.466
 7403TIP3    H122170   2.372   6.376   4.561
 7403TIP3    H222171   2.464   6.328   4.451
 7404TIP3   OH222172   2.374   6.260   3.344
 7404TIP3    H122173   2.433   6.236   3.416
 7404TIP3    H222174   2.288   6.226   3.371
 7405TIP3   OH222175   2.642   6.875   4.510
 7405TIP3    H122176   2.573   6.812   4.528
 7405TIP3    H222177   2.609   6.928   4.438
 7406TIP3   OH222178   2.702   6.728   3.149
 7406TIP3    H122179   2.753   6.798   3.109
 7406TIP3    H222180   2.623   6.771   3.182
 7407TIP3   OH222181   1.717   5.508   5.011
 7407TIP3    H122182   1.622   5.516   5.016
 7407TIP3    H222183   1.741   5.454   5.087
 7408TIP3   OH222184   2.553   6.182   3.534
 7408TIP3    H122185   2.536   6.127   3.610
 7408TIP3    H222186   2.649   6.187   3.529
 7409TIP3   OH222187   1.458   6.601   4.658
 7409TIP3    H122188   1.509   6.538   4.710
 7409TIP3    H222189   1.467   6.684   4.705
 7410TIP3   OH222190   1.724   6.228   3.346
 7410TIP3    H122191   1.739   6.137   3.320
 7410TIP3    H222192   1.710   6.225   3.440
 7411TIP3   OH222193   1.675   6.239   3.619
 7411TIP3    H122194   1.743   6.209   3.679
 7411TIP3    H222195   1.675   6.335   3.629
 7412TIP3   OH222196   1.403   5.931   3.827
 7412TIP3    H122197   1.339   5.977   3.880
 7412TIP3    H222198   1.424   5.992   3.756
 7413TIP3   OH222199   2.573   5.562   4.705
 7413TIP3    H122200   2.648   5.610   4.740
 7413TIP3    H222201   2.563   5.486   4.762
 7414TIP3   OH222202   2.456   5.312   3.893
 7414TIP3    H122203   2.437   5.329   3.801
 7414TIP3    H222204   2.500   5.391   3.924
 7415TIP3   OH222205   1.941   6.428   3.558
 7415TIP3    H122206   1.858   6.452   3.599
 7415TIP3    H222207   1.965   6.504   3.507
 7416TIP3   OH222208   2.109   5.511   3.986
 7416TIP3    H122209   2.173   5.579   3.961
 7416TIP3    H222210   2.131   5.490   4.077
 7417TIP3   OH222211   2.408   5.805   4.768
 7417TIP3    H122212   2.431   5.851   4.849
 7417TIP3    H222213   2.457   5.724   4.772
 7418TIP3   OH222214   2.271   5.209   4.073
 7418TIP3    H122215   2.250   5.285   4.127
 7418TIP3    H222216   2.340   5.239   4.015
 7419TIP3   OH222217   1.690   6.510   3.641
 7419TIP3    H122218   1.670   6.580   3.580
 7419TIP3    H222219   1.678   6.549   3.728
 7420TIP3   OH222220   1.786   5.229   3.877
 7420TIP3    H122221   1.775   5.318   3.910
 7420TIP3    H222222   1.881   5.214   3.882
 7421TIP3   OH222223   3.024   5.704   4.756
 7421TIP3    H122224   2.929   5.713   4.768
 7421TIP3    H222225   3.033   5.648   4.679
 7422TIP3   OH222226   2.687   5.907   4.142
 7422TIP3    H122227   2.610   5.851   4.153
 7422TIP3    H222228   2.754   5.865   4.196
 7423TIP3   OH222229   1.427   6.115   3.616
 7423TIP3    H122230   1.501   6.176   3.626
 7423TIP3    H222231   1.458   6.051   3.551
 7424TIP3   OH222232   1.331   5.413   3.747
 7424TIP3    H122233   1.337   5.509   3.749
 7424TIP3    H222234   1.250   5.395   3.699
 7425TIP3   OH222235   2.674   6.864   4.089
 7425TIP3    H122236   2.628   6.917   4.025
 7425TIP3    H222237   2.767   6.880   4.072
 7426TIP3   OH222238   1.735   5.128   4.619
 7426TIP3    H122239   1.707   5.094   4.534
 7426TIP3    H222240   1.726   5.054   4.679
 7427TIP3   OH222241   1.267   6.375   4.017
 7427TIP3    H122242   1.214   6.405   4.091
 7427TIP3    H222243   1.225   6.412   3.940
 7428TIP3   OH222244   1.452   6.897   5.076
 7428TIP3    H122245   1.534   6.901   5.126
 7428TIP3    H222246   1.430   6.804   5.075
 7429TIP3   OH222247   1.921   6.839   5.122
 7429TIP3    H122248   2.012   6.814   5.132
 7429TIP3    H222249   1.889   6.783   5.051
 7430TIP3   OH222250   1.886   6.429   3.245
 7430TIP3    H122251   1.839   6.359   3.288
 7430TIP3    H222252   1.963   6.387   3.206
 7431TIP3   OH222253   2.545   6.771   4.869
 7431TIP3    H122254   2.554   6.701   4.934
 7431TIP3    H222255   2.620   6.828   4.884
 7432TIP3   OH222256   2.330   6.463   3.164
 7432TIP3    H122257   2.362   6.399   3.228
 7432TIP3    H222258   2.392   6.457   3.091
 7433TIP3   OH222259   1.563   6.315   5.270
 7433TIP3    H122260   1.582   6.221   5.279
 7433TIP3    H222261   1.477   6.318   5.229
 7434TIP3   OH222262   1.553   5.925   3.465
 7434TIP3    H122263   1.603   5.901   3.543
 7434TIP3    H222264   1.619   5.939   3.398
 7435TIP3   OH222265   2.180   6.400   5.047
 7435TIP3    H122266   2.136   6.421   4.965
 7435TIP3    H222267   2.214   6.312   5.034
 7436TIP3   OH222268   2.087   6.148   3.290
 7436TIP3    H122269   2.079   6.159   3.385
 7436TIP3    H222270   2.082   6.053   3.277
 7437TIP3   OH222271   2.656   6.437   4.661
 7437TIP3    H122272   2.734   6.466   4.615
 7437TIP3    H222273   2.591   6.506   4.645
 7438TIP3   OH222274   1.680   6.059   5.274
 7438TIP3    H122275   1.758   6.038   5.222
 7438TIP3    H222276   1.715   6.081   5.361
 7439TIP3   OH222277   1.726   5.866   3.679
 7439TIP3    H122278   1.703   5.838   3.768
 7439TIP3    H222279   1.772   5.791   3.641
 7440TIP3   OH222280   2.036   5.943   4.932
 7440TIP3    H122281   1.952   5.988   4.939
 7440TIP3    H222282   2.071   5.971   4.847
 7441TIP3   OH222283   1.863   5.677   3.526
 7441TIP3    H122284   1.835   5.682   3.434
 7441TIP3    H222285   1.958   5.682   3.522
 7442TIP3   OH222286   2.537   6.321   5.026
 7442TIP3    H122287   2.608   6.284   4.973
 7442TIP3    H222288   2.534   6.266   5.104
 7443TIP3   OH222289   2.661   5.975   3.203
 7443TIP3    H122290   2.646   5.931   3.119
 7443TIP3    H222291   2.633   6.065   3.187
 7444TIP3   OH222292   2.141   5.715   5.043
 7444TIP3    H122293   2.144   5.643   4.979
 7444TIP3    H222294   2.106   5.789   4.993
 7445TIP3   OH222295   2.150   5.514   4.841
 7445TIP3    H122296   2.177   5.550   4.757
 7445TIP3    H222297   2.059   5.487   4.827
 7446TIP3   OH222298   2.160   6.039   4.711
 7446TIP3    H122299   2.250   6.069   4.695
 7446TIP3    H222300   2.105   6.102   4.664
 7447TIP3   OH222301   2.748   5.999   5.092
 7447TIP3    H122302   2.788   5.912   5.104
 7447TIP3    H222303   2.822   6.057   5.073
 7448TIP3   OH222304   2.783   6.265   4.829
 7448TIP3    H122305   2.729   6.325   4.778
 7448TIP3    H222306   2.872   6.281   4.797
 7449TIP3   OH222307   2.024   5.804   5.283
 7449TIP3    H122308   1.956   5.740   5.304
 7449TIP3    H222309   2.054   5.780   5.196
 7450TIP3   OH222310   2.273   5.279   4.937
 7450TIP3    H122311   2.232   5.360   4.906
 7450TIP3    H222312   2.207   5.212   4.924
 7451TIP3   OH222313   2.398   5.757   5.142
 7451TIP3    H122314   2.389   5.744   5.236
 7451TIP3    H222315   2.312   5.735   5.106
 7452TIP3   OH222316   2.641   5.711   5.009
 7452TIP3    H122317   2.563   5.710   5.064
 7452TIP3    H222318   2.713   5.684   5.067
 7453TIP3   OH222319   2.877   5.673   5.158
 7453TIP3    H122320   2.892   5.579   5.166
 7453TIP3    H222321   2.873   5.704   5.248
 7454TIP3   OH222322   1.860   5.582   5.348
 7454TIP3    H122323   1.866   5.494   5.311
 7454TIP3    H222324   1.900   5.574   5.435
 7455TIP3   OH222325   2.343   5.264   5.202
 7455TIP3    H122326   2.412   5.198   5.198
 7455TIP3    H222327   2.312   5.272   5.112
 7456TIP3   OH222328   2.434   5.480   5.347
 7456TIP3    H122329   2.406   5.408   5.292
 7456TIP3    H222330   2.360   5.541   5.347
 7457TIP3   OH222331   1.678   6.712   3.458
 7457TIP3    H122332   1.769   6.701   3.431
 7457TIP3    H222333   1.636   6.754   3.383
 7458TIP3   OH222334   1.154   6.112   3.622
 7458TIP3    H122335   1.249   6.123   3.628
 7458TIP3    H222336   1.142   6.023   3.590
 7459TIP3   OH222337   1.062   6.691   4.087
 7459TIP3    H122338   0.997   6.637   4.043
 7459TIP3    H222339   1.104   6.633   4.150
 7460TIP3   OH222340   1.198   6.534   4.266
 7460TIP3    H122341   1.185   6.463   4.330
 7460TIP3    H222342   1.251   6.599   4.312
 7461TIP3   OH222343   2.941   6.927   4.068
 7461TIP3    H122344   2.961   6.955   4.158
 7461TIP3    H222345   2.992   6.987   4.013
 7462TIP3   OH222346   2.962   6.949   4.349
 7462TIP3    H122347   2.916   6.865   4.345
 7462TIP3    H222348   3.031   6.936   4.413
 7463TIP3   OH222349   3.001   6.661   4.921
 7463TIP3    H122350   2.931   6.670   4.986
 7463TIP3    H222351   3.048   6.745   4.925
 7464TIP3   OH222352   2.831   6.176   3.533
 7464TIP3    H122353   2.890   6.245   3.504
 7464TIP3    H222354   2.875   6.138   3.609
 7465TIP3   OH222355   2.956   6.033   3.735
 7465TIP3    H122356   2.889   5.996   3.792
 7465TIP3    H222357   3.021   6.070   3.796
 7466TIP3   OH222358   3.003   6.435   4.167
 7466TIP3    H122359   3.057   6.367   4.127
 7466TIP3    H222360   3.006   6.507   4.104
 7467TIP3   OH222361   2.815   6.717   4.359
 7467TIP3    H122362   2.748   6.763   4.410
 7467TIP3    H222363   2.766   6.675   4.288
 7468TIP3   OH222364   2.867   5.949   3.382
 7468TIP3    H122365   2.794   5.950   3.320
 7468TIP3    H222366   2.853   6.027   3.437
 7469TIP3   OH222367   2.723   5.602   3.325
 7469TIP3    H122368   2.681   5.638   3.247
 7469TIP3    H222369   2.715   5.508   3.317
 7470TIP3   OH222370   2.753   5.896   3.872
 7470TIP3    H122371   2.758   5.801   3.859
 7470TIP3    H222372   2.735   5.906   3.966
 7471TIP3   OH222373   1.376   5.963   4.640
 7471TIP3    H122374   1.366   5.928   4.551
 7471TIP3    H222375   1.470   5.960   4.657
 7472TIP3   OH222376   3.040   6.315   4.735
 7472TIP3    H122377   3.106   6.247   4.719
 7472TIP3    H222378   3.059   6.382   4.669
 7473TIP3   OH222379   3.215   6.102   4.726
 7473TIP3    H122380   3.141   6.061   4.771
 7473TIP3    H222381   3.290   6.047   4.747
 7474TIP3   OH222382   2.681   5.333   3.287
 7474TIP3    H122383   2.750   5.304   3.346
 7474TIP3    H222384   2.602   5.288   3.318
 7475TIP3   OH222385   2.749   5.619   3.758
 7475TIP3    H122386   2.793   5.535   3.772
 7475TIP3    H222387   2.794   5.657   3.682
 7476TIP3   OH222388   2.901   5.781   4.277
 7476TIP3    H122389   2.983   5.798   4.230
 7476TIP3    H222390   2.915   5.819   4.364
 7477TIP3   OH222391   2.976   5.931   4.505
 7477TIP3    H122392   2.904   5.961   4.560
 7477TIP3    H222393   3.008   6.011   4.463
 7478TIP3   OH222394   1.596   5.639   5.292
 7478TIP3    H122395   1.690   5.635   5.307
 7478TIP3    H222396   1.562   5.557   5.329
 7479TIP3   OH222397   3.435   5.536   5.047
 7479TIP3    H122398   3.498   5.474   5.010
 7479TIP3    H222399   3.400   5.583   4.971
 7480TIP3   OH222400   2.860   5.370   3.813
 7480TIP3    H122401   2.904   5.353   3.897
 7480TIP3    H222402   2.798   5.297   3.804
 7481TIP3   OH222403   1.569   5.351   4.630
 7481TIP3    H122404   1.623   5.272   4.638
 7481TIP3    H222405   1.632   5.422   4.617
 7482TIP3   OH222406   1.356   5.614   4.699
 7482TIP3    H122407   1.405   5.607   4.618
 7482TIP3    H222408   1.385   5.696   4.738
 7483TIP3   OH222409   3.288   5.646   4.844
 7483TIP3    H122410   3.205   5.686   4.871
 7483TIP3    H222411   3.262   5.570   4.792
 7484TIP3   OH222412   2.915   5.285   3.440
 7484TIP3    H122413   2.960   5.220   3.386
 7484TIP3    H222414   2.976   5.358   3.447
 7485TIP3   OH222415   1.340   5.125   4.202
 7485TIP3    H122416   1.253   5.112   4.239
 7485TIP3    H222417   1.326   5.180   4.125
 7486TIP3   OH222418   2.491   6.847   3.707
 7486TIP3    H122419   2.538   6.822   3.628
 7486TIP3    H222420   2.545   6.915   3.747
 7487TIP3   OH222421   1.560   5.188   5.022
 7487TIP3    H122422   1.509   5.180   5.103
 7487TIP3    H222423   1.503   5.234   4.962
 7488TIP3   OH222424   1.602   6.628   5.098
 7488TIP3    H122425   1.508   6.609   5.089
 7488TIP3    H222426   1.619   6.618   5.192
 7489TIP3   OH222427   1.803   6.675   4.647
 7489TIP3    H122428   1.748   6.744   4.610
 7489TIP3    H222429   1.888   6.687   4.605
 7490TIP3   OH222430   2.209   6.911   4.783
 7490TIP3    H122431   2.248   6.904   4.870
 7490TIP3    H222432   2.272   6.961   4.732
 7491TIP3   OH222433   2.399   7.055   4.647
 7491TIP3    H122434   2.457   7.002   4.593
 7491TIP3    H222435   2.458   7.104   4.705
 7492TIP3   OH222436   3.203   5.395   4.739
 7492TIP3    H122437   3.111   5.382   4.716
 7492TIP3    H222438   3.242   5.308   4.731
 7493TIP3   OH222439   1.461   6.916   4.675
 7493TIP3    H122440   1.369   6.936   4.660
 7493TIP3    H222441   1.488   6.975   4.746
 7494TIP3   OH222442   1.689   6.893   4.527
 7494TIP3    H122443   1.607   6.903   4.574
 7494TIP3    H222444   1.668   6.916   4.436
 7495TIP3   OH222445   2.112   6.921   4.322
 7495TIP3    H122446   2.041   6.938   4.261
 7495TIP3    H222447   2.123   7.004   4.369
 7496TIP3   OH222448   2.373   6.861   4.388
 7496TIP3    H122449   2.283   6.882   4.363
 7496TIP3    H222450   2.426   6.927   4.342
 7497TIP3   OH222451   2.571   7.025   4.287
 7497TIP3    H122452   2.567   7.113   4.250
 7497TIP3    H222453   2.605   6.970   4.216
 7498TIP3   OH222454   1.380   6.702   4.410
 7498TIP3    H122455   1.398   6.676   4.501
 7498TIP3    H222456   1.452   6.665   4.359
 7499TIP3   OH222457   1.582   6.589   4.270
 7499TIP3    H122458   1.591   6.505   4.315
 7499TIP3    H222459   1.669   6.628   4.274
 7500TIP3   OH222460   1.848   6.674   4.290
 7500TIP3    H122461   1.867   6.582   4.277
 7500TIP3    H222462   1.900   6.699   4.367
 7501TIP3   OH222463   2.409   5.323   4.371
 7501TIP3    H122464   2.369   5.252   4.421
 7501TIP3    H222465   2.479   5.282   4.320
 7502TIP3   OH222466   2.918   5.232   4.262
 7502TIP3    H122467   2.955   5.274   4.184
 7502TIP3    H222468   2.826   5.260   4.262
 7503TIP3   OH222469   3.029   5.293   4.019
 7503TIP3    H122470   3.077   5.228   3.968
 7503TIP3    H222471   3.079   5.374   4.008
 7504TIP3   OH222472   1.650   5.024   4.377
 7504TIP3    H122473   1.561   4.990   4.385
 7504TIP3    H222474   1.705   4.946   4.367
 7505TIP3   OH222475   1.455   4.927   4.028
 7505TIP3    H122476   1.485   4.979   3.953
 7505TIP3    H222477   1.423   4.992   4.090
 7506TIP3   OH222478   2.121   5.057   4.264
 7506TIP3    H122479   2.170   5.106   4.197
 7506TIP3    H222480   2.159   5.085   4.347
 7507TIP3   OH222481   2.628   5.206   4.245
 7507TIP3    H122482   2.643   5.169   4.158
 7507TIP3    H222483   2.630   5.130   4.304
 7508TIP3   OH222484   2.678   5.158   3.813
 7508TIP3    H122485   2.596   5.202   3.836
 7508TIP3    H222486   2.667   5.069   3.849
 7509TIP3   OH222487   1.152   6.480   3.794
 7509TIP3    H122488   1.067   6.443   3.772
 7509TIP3    H222489   1.147   6.571   3.762
 7510TIP3   OH222490   1.572   5.063   3.795
 7510TIP3    H122491   1.616   5.001   3.737
 7510TIP3    H222492   1.643   5.118   3.830
 7511TIP3   OH222493   2.061   5.259   3.890
 7511TIP3    H122494   2.122   5.208   3.944
 7511TIP3    H222495   2.076   5.350   3.918
 7512TIP3   OH222496   1.939   6.656   3.389
 7512TIP3    H122497   2.024   6.681   3.353
 7512TIP3    H222498   1.910   6.584   3.332
 7513TIP3   OH222499   2.636   6.788   3.480
 7513TIP3    H122500   2.629   6.693   3.471
 7513TIP3    H222501   2.597   6.822   3.399
 7514TIP3   OH222502   1.870   5.310   5.261
 7514TIP3    H122503   1.835   5.243   5.320
 7514TIP3    H222504   1.962   5.317   5.285
 7515TIP3   OH222505   2.120   5.315   5.381
 7515TIP3    H122506   2.198   5.294   5.331
 7515TIP3    H222507   2.113   5.246   5.447
 7516TIP3   OH222508   1.240   6.481   3.460
 7516TIP3    H122509   1.238   6.477   3.555
 7516TIP3    H222510   1.324   6.441   3.436
 7517TIP3   OH222511   2.943   5.402   5.172
 7517TIP3    H122512   2.959   5.371   5.261
 7517TIP3    H222513   3.029   5.397   5.130
 7518TIP3   OH222514   2.865   6.930   4.672
 7518TIP3    H122515   2.789   6.900   4.622
 7518TIP3    H222516   2.853   7.025   4.679
 7519TIP3   OH222517   4.139   6.322   3.416
 7519TIP3    H122518   4.108   6.410   3.390
 7519TIP3    H222519   4.067   6.264   3.390
 7520TIP3   OH222520   4.135   6.314   3.837
 7520TIP3    H122521   4.186   6.297   3.916
 7520TIP3    H222522   4.093   6.230   3.818
 7521TIP3   OH222523   3.435   6.182   4.185
 7521TIP3    H122524   3.470   6.129   4.256
 7521TIP3    H222525   3.512   6.210   4.136
 7522TIP3   OH222526   4.401   6.620   3.510
 7522TIP3    H122527   4.390   6.553   3.577
 7522TIP3    H222528   4.424   6.699   3.558
 7523TIP3   OH222529   3.424   6.605   3.879
 7523TIP3    H122530   3.407   6.511   3.885
 7523TIP3    H222531   3.519   6.612   3.870
 7524TIP3   OH222532   3.112   5.805   3.665
 7524TIP3    H122533   3.073   5.890   3.688
 7524TIP3    H222534   3.041   5.758   3.621
 7525TIP3   OH222535   3.188   6.114   3.874
 7525TIP3    H122536   3.238   6.037   3.900
 7525TIP3    H222537   3.255   6.177   3.846
 7526TIP3   OH222538   4.054   7.060   3.521
 7526TIP3    H122539   4.085   6.991   3.462
 7526TIP3    H222540   4.051   7.018   3.607
 7527TIP3   OH222541   3.942   6.537   3.846
 7527TIP3    H122542   3.985   6.457   3.816
 7527TIP3    H222543   4.014   6.593   3.876
 7528TIP3   OH222544   4.971   5.859   3.861
 7528TIP3    H122545   4.991   5.942   3.905
 7528TIP3    H222546   4.989   5.877   3.768
 7529TIP3   OH222547   4.352   6.026   3.880
 7529TIP3    H122548   4.389   5.942   3.907
 7529TIP3    H222549   4.314   6.010   3.794
 7530TIP3   OH222550   3.704   5.687   3.841
 7530TIP3    H122551   3.687   5.762   3.785
 7530TIP3    H222552   3.659   5.614   3.799
 7531TIP3   OH222553   4.401   5.787   3.473
 7531TIP3    H122554   4.465   5.779   3.543
 7531TIP3    H222555   4.451   5.820   3.398
 7532TIP3   OH222556   3.328   5.893   3.966
 7532TIP3    H122557   3.410   5.876   4.013
 7532TIP3    H222558   3.334   5.842   3.886
 7533TIP3   OH222559   3.753   6.098   3.781
 7533TIP3    H122560   3.847   6.082   3.788
 7533TIP3    H222561   3.717   6.016   3.746
 7534TIP3   OH222562   5.034   6.076   4.027
 7534TIP3    H122563   4.946   6.112   4.022
 7534TIP3    H222564   5.070   6.111   4.109
 7535TIP3   OH222565   3.686   5.689   4.294
 7535TIP3    H122566   3.635   5.727   4.223
 7535TIP3    H222567   3.632   5.703   4.372
 7536TIP3   OH222568   4.036   6.540   3.276
 7536TIP3    H122569   3.995   6.512   3.195
 7536TIP3    H222570   3.983   6.615   3.306
 7537TIP3   OH222571   3.786   6.460   4.062
 7537TIP3    H122572   3.731   6.530   4.097
 7537TIP3    H222573   3.833   6.501   3.989
 7538TIP3   OH222574   4.565   5.806   3.690
 7538TIP3    H122575   4.526   5.782   3.774
 7538TIP3    H222576   4.622   5.881   3.710
 7539TIP3   OH222577   3.574   5.792   4.063
 7539TIP3    H122578   3.628   5.868   4.085
 7539TIP3    H222579   3.620   5.751   3.990
 7540TIP3   OH222580   3.625   6.657   4.168
 7540TIP3    H122581   3.611   6.747   4.137
 7540TIP3    H222582   3.547   6.638   4.220
 7541TIP3   OH222583   3.006   6.361   3.416
 7541TIP3    H122584   2.971   6.385   3.330
 7541TIP3    H222585   3.032   6.444   3.456
 7542TIP3   OH222586   4.442   6.860   3.653
 7542TIP3    H122587   4.355   6.855   3.693
 7542TIP3    H222588   4.443   6.944   3.609
 7543TIP3   OH222589   4.767   5.749   4.027
 7543TIP3    H122590   4.681   5.772   3.992
 7543TIP3    H222591   4.829   5.778   3.960
 7544TIP3   OH222592   4.031   5.383   4.016
 7544TIP3    H122593   4.018   5.292   4.042
 7544TIP3    H222594   3.958   5.430   4.056
 7545TIP3   OH222595   4.149   6.898   3.314
 7545TIP3    H122596   4.201   6.819   3.303
 7545TIP3    H222597   4.204   6.969   3.281
 7546TIP3   OH222598   4.295   6.674   3.260
 7546TIP3    H122599   4.227   6.607   3.252
 7546TIP3    H222600   4.342   6.651   3.340
 7547TIP3   OH222601   4.677   6.758   3.999
 7547TIP3    H122602   4.661   6.683   3.942
 7547TIP3    H222603   4.661   6.834   3.942
 7548TIP3   OH222604   3.964   6.162   3.266
 7548TIP3    H122605   3.883   6.208   3.246
 7548TIP3    H222606   4.012   6.160   3.183
 7549TIP3   OH222607   3.932   5.966   2.960
 7549TIP3    H122608   3.998   6.014   3.011
 7549TIP3    H222609   3.981   5.897   2.916
 7550TIP3   OH222610   4.862   6.417   3.862
 7550TIP3    H122611   4.778   6.462   3.862
 7550TIP3    H222612   4.898   6.433   3.774
 7551TIP3   OH222613   4.324   6.251   3.227
 7551TIP3    H122614   4.269   6.279   3.301
 7551TIP3    H222615   4.406   6.225   3.268
 7552TIP3   OH222616   4.553   6.280   4.169
 7552TIP3    H122617   4.551   6.363   4.217
 7552TIP3    H222618   4.470   6.278   4.121
 7553TIP3   OH222619   3.551   6.232   3.637
 7553TIP3    H122620   3.515   6.172   3.572
 7553TIP3    H222621   3.625   6.184   3.675
 7554TIP3   OH222622   3.686   6.653   3.778
 7554TIP3    H122623   3.663   6.637   3.686
 7554TIP3    H222624   3.773   6.615   3.788
 7555TIP3   OH222625   3.654   6.226   4.008
 7555TIP3    H122626   3.692   6.191   3.928
 7555TIP3    H222627   3.704   6.306   4.025
 7556TIP3   OH222628   4.205   6.859   3.784
 7556TIP3    H122629   4.191   6.939   3.836
 7556TIP3    H222630   4.190   6.787   3.846
 7557TIP3   OH222631   3.823   6.764   4.331
 7557TIP3    H122632   3.764   6.823   4.377
 7557TIP3    H222633   3.766   6.711   4.276
 7558TIP3   OH222634   4.153   6.113   3.061
 7558TIP3    H122635   4.213   6.170   3.109
 7558TIP3    H222636   4.181   6.121   2.970
 7559TIP3   OH222637   3.580   6.317   4.462
 7559TIP3    H122638   3.583   6.409   4.487
 7559TIP3    H222639   3.486   6.297   4.457
 7560TIP3   OH222640   3.900   6.780   3.319
 7560TIP3    H122641   3.982   6.828   3.328
 7560TIP3    H222642   3.842   6.839   3.270
 7561TIP3   OH222643   3.615   6.925   4.417
 7561TIP3    H122644   3.589   6.931   4.325
 7561TIP3    H222645   3.534   6.906   4.464
 7562TIP3   OH222646   4.668   5.339   3.118
 7562TIP3    H122647   4.589   5.356   3.170
 7562TIP3    H222648   4.678   5.416   3.063
 7563TIP3   OH222649   3.426   6.076   3.434
 7563TIP3    H122650   3.348   6.120   3.400
 7563TIP3    H222651   3.397   5.986   3.451
 7564TIP3   OH222652   4.486   6.711   2.669
 7564TIP3    H122653   4.483   6.805   2.651
 7564TIP3    H222654   4.575   6.684   2.648
 7565TIP3   OH222655   3.203   6.476   4.364
 7565TIP3    H122656   3.135   6.457   4.300
 7565TIP3    H222657   3.239   6.391   4.387
 7566TIP3   OH222658   3.059   6.663   4.008
 7566TIP3    H122659   3.154   6.674   4.012
 7566TIP3    H222660   3.024   6.743   4.048
 7567TIP3   OH222661   4.909   7.120   4.062
 7567TIP3    H122662   4.915   7.025   4.076
 7567TIP3    H222663   4.830   7.146   4.108
 7568TIP3   OH222664   4.012   6.903   4.188
 7568TIP3    H122665   4.008   6.993   4.218
 7568TIP3    H222666   3.945   6.857   4.239
 7569TIP3   OH222667   3.792   6.987   3.146
 7569TIP3    H122668   3.748   6.975   3.062
 7569TIP3    H222669   3.758   7.070   3.179
 7570TIP3   OH222670   3.223   6.853   3.529
 7570TIP3    H122671   3.272   6.848   3.611
 7570TIP3    H222672   3.179   6.769   3.522
 7571TIP3   OH222673   3.996   6.928   2.776
 7571TIP3    H122674   4.048   6.855   2.742
 7571TIP3    H222675   4.026   6.939   2.866
 7572TIP3   OH222676   4.045   6.965   3.044
 7572TIP3    H122677   3.960   6.968   3.087
 7572TIP3    H222678   4.105   6.936   3.113
 7573TIP3   OH222679   4.799   6.239   4.335
 7573TIP3    H122680   4.716   6.248   4.288
 7573TIP3    H222681   4.817   6.145   4.333
 7574TIP3   OH222682   3.405   6.661   4.335
 7574TIP3    H122683   3.454   6.651   4.416
 7574TIP3    H222684   3.333   6.599   4.342
 7575TIP3   OH222685   3.797   5.482   4.144
 7575TIP3    H122686   3.713   5.453   4.107
 7575TIP3    H222687   3.774   5.560   4.195
 7576TIP3   OH222688   4.338   5.588   4.341
 7576TIP3    H122689   4.408   5.564   4.402
 7576TIP3    H222690   4.257   5.572   4.390
 7577TIP3   OH222691   4.555   6.015   4.258
 7577TIP3    H122692   4.514   6.012   4.344
 7577TIP3    H222693   4.540   6.105   4.228
 7578TIP3   OH222694   4.235   6.112   2.801
 7578TIP3    H122695   4.191   6.105   2.716
 7578TIP3    H222696   4.317   6.157   2.782
 7579TIP3   OH222697   3.947   5.532   3.111
 7579TIP3    H122698   3.908   5.525   3.199
 7579TIP3    H222699   3.913   5.455   3.065
 7580TIP3   OH222700   3.728   6.003   4.154
 7580TIP3    H122701   3.684   6.012   4.238
 7580TIP3    H222702   3.708   6.084   4.107
 7581TIP3   OH222703   3.611   5.883   3.674
 7581TIP3    H122704   3.523   5.856   3.699
 7581TIP3    H222705   3.623   5.849   3.585
 7582TIP3   OH222706   4.091   5.959   3.403
 7582TIP3    H122707   4.043   6.030   3.361
 7582TIP3    H222708   4.150   5.927   3.334
 7583TIP3   OH222709   4.278   6.227   4.477
 7583TIP3    H122710   4.251   6.159   4.538
 7583TIP3    H222711   4.371   6.242   4.497
 7584TIP3   OH222712   4.258   5.974   3.628
 7584TIP3    H122713   4.190   5.996   3.564
 7584TIP3    H222714   4.304   5.900   3.588
 7585TIP3   OH222715   3.563   6.017   4.375
 7585TIP3    H122716   3.591   6.078   4.443
 7585TIP3    H222717   3.545   5.935   4.421
 7586TIP3   OH222718   3.605   5.486   3.094
 7586TIP3    H122719   3.595   5.483   3.189
 7586TIP3    H222720   3.529   5.535   3.063
 7587TIP3   OH222721   3.159   5.525   3.968
 7587TIP3    H122722   3.229   5.559   4.023
 7587TIP3    H222723   3.190   5.537   3.879
 7588TIP3   OH222724   3.080   5.513   3.473
 7588TIP3    H122725   3.125   5.547   3.396
 7588TIP3    H222726   3.014   5.579   3.494
 7589TIP3   OH222727   4.295   6.226   4.054
 7589TIP3    H122728   4.322   6.160   3.990
 7589TIP3    H222729   4.254   6.177   4.125
 7590TIP3   OH222730   3.975   5.681   3.729
 7590TIP3    H122731   3.898   5.679   3.786
 7590TIP3    H222732   4.049   5.669   3.787
 7591TIP3   OH222733   3.375   5.752   3.734
 7591TIP3    H122734   3.286   5.758   3.698
 7591TIP3    H222735   3.405   5.665   3.707
 7592TIP3   OH222736   3.627   5.761   3.428
 7592TIP3    H122737   3.722   5.769   3.417
 7592TIP3    H222738   3.591   5.780   3.341
 7593TIP3   OH222739   4.430   5.763   3.933
 7593TIP3    H122740   4.408   5.780   4.025
 7593TIP3    H222741   4.363   5.701   3.904
 7594TIP3   OH222742   3.506   5.788   3.183
 7594TIP3    H122743   3.444   5.736   3.133
 7594TIP3    H222744   3.561   5.831   3.117
 7595TIP3   OH222745   7.223   0.108   4.155
 7595TIP3    H122746   7.213   0.135   4.063
 7595TIP3    H222747   7.301   0.155   4.185
 7596TIP3   OH222748   3.563   6.577   4.568
 7596TIP3    H122749   3.644   6.598   4.615
 7596TIP3    H222750   3.494   6.585   4.634
 7597TIP3   OH222751   4.024   6.041   3.834
 7597TIP3    H122752   4.090   5.991   3.785
 7597TIP3    H222753   4.023   6.001   3.920
 7598TIP3   OH222754   3.545   5.512   3.686
 7598TIP3    H122755   3.539   5.426   3.727
 7598TIP3    H222756   3.561   5.494   3.594
 7599TIP3   OH222757   3.997   5.946   4.101
 7599TIP3    H122758   3.909   5.978   4.124
 7599TIP3    H222759   4.056   5.998   4.155
 7600TIP3   OH222760   3.728   6.302   3.208
 7600TIP3    H122761   3.654   6.245   3.187
 7600TIP3    H222762   3.705   6.341   3.293
 7601TIP3   OH222763   4.625   6.553   3.821
 7601TIP3    H122764   4.659   6.603   3.747
 7601TIP3    H222765   4.544   6.514   3.788
 7602TIP3   OH222766   4.201   5.623   3.108
 7602TIP3    H122767   4.108   5.602   3.108
 7602TIP3    H222768   4.205   5.717   3.125
 7603TIP3   OH222769   4.136   6.636   4.226
 7603TIP3    H122770   4.186   6.626   4.307
 7603TIP3    H222771   4.097   6.723   4.232
 7604TIP3   OH222772   4.257   5.884   3.187
 7604TIP3    H122773   4.352   5.888   3.198
 7604TIP3    H222774   4.235   5.961   3.136
 7605TIP3   OH222775   3.421   6.316   3.866
 7605TIP3    H122776   3.459   6.299   3.780
 7605TIP3    H222777   3.487   6.286   3.929
 7606TIP3   OH222778   3.884   6.460   3.050
 7606TIP3    H122779   3.836   6.543   3.048
 7606TIP3    H222780   3.829   6.402   3.103
 7607TIP3   OH222781   3.307   6.252   4.498
 7607TIP3    H122782   3.319   6.233   4.591
 7607TIP3    H222783   3.235   6.195   4.470
 7608TIP3   OH222784   4.045   6.381   4.514
 7608TIP3    H122785   3.979   6.321   4.479
 7608TIP3    H222786   4.129   6.342   4.488
 7609TIP3   OH222787   4.284   6.919   4.112
 7609TIP3    H122788   4.190   6.907   4.117
 7609TIP3    H222789   4.308   6.959   4.196
 7610TIP3   OH222790   4.678   5.967   3.005
 7610TIP3    H122791   4.622   5.921   2.942
 7610TIP3    H222792   4.681   6.057   2.972
 7611TIP3   OH222793   4.923   6.839   4.089
 7611TIP3    H122794   4.828   6.826   4.085
 7611TIP3    H222795   4.955   6.809   4.004
 7612TIP3   OH222796   4.409   6.784   2.937
 7612TIP3    H122797   4.382   6.718   3.000
 7612TIP3    H222798   4.425   6.735   2.856
 7613TIP3   OH222799   4.392   6.421   3.719
 7613TIP3    H122800   4.302   6.398   3.743
 7613TIP3    H222801   4.427   6.339   3.682
 7614TIP3   OH222802   3.545   6.652   3.530
 7614TIP3    H122803   3.541   6.728   3.472
 7614TIP3    H222804   3.454   6.637   3.556
 7615TIP3   OH222805   3.095   5.940   3.229
 7615TIP3    H122806   3.143   6.020   3.253
 7615TIP3    H222807   3.018   5.940   3.286
 7616TIP3   OH222808   3.639   6.409   3.439
 7616TIP3    H122809   3.620   6.498   3.467
 7616TIP3    H222810   3.612   6.354   3.513
 7617TIP3   OH222811   3.827   6.978   3.983
 7617TIP3    H122812   3.863   7.050   3.933
 7617TIP3    H222813   3.900   6.944   4.034
 7618TIP3   OH222814   3.453   6.870   3.378
 7618TIP3    H122815   3.367   6.879   3.418
 7618TIP3    H222816   3.493   6.957   3.386
 7619TIP3   OH222817   4.180   6.637   3.954
 7619TIP3    H122818   4.167   6.633   4.048
 7619TIP3    H222819   4.259   6.584   3.938
 7620TIP3   OH222820   4.170   6.519   2.829
 7620TIP3    H122821   4.223   6.495   2.905
 7620TIP3    H222822   4.084   6.479   2.846
 7621TIP3   OH222823   4.439   7.131   4.000
 7621TIP3    H122824   4.368   7.068   4.016
 7621TIP3    H222825   4.407   7.184   3.927
 7622TIP3   OH222826   4.493   6.985   2.632
 7622TIP3    H122827   4.524   7.053   2.572
 7622TIP3    H222828   4.417   7.024   2.675
 7623TIP3   OH222829   3.515   5.765   4.502
 7623TIP3    H122830   3.420   5.774   4.510
 7623TIP3    H222831   3.542   5.722   4.583
 7624TIP3   OH222832   4.345   6.441   3.024
 7624TIP3    H122833   4.329   6.384   3.099
 7624TIP3    H222834   4.441   6.447   3.018
 7625TIP3   OH222835   3.253   6.862   4.143
 7625TIP3    H122836   3.305   6.804   4.198
 7625TIP3    H222837   3.267   6.949   4.181
 7626TIP3   OH222838   3.523   6.488   2.836
 7626TIP3    H122839   3.534   6.397   2.809
 7626TIP3    H222840   3.508   6.483   2.931
 7627TIP3   OH222841   3.469   6.496   3.109
 7627TIP3    H122842   3.538   6.467   3.168
 7627TIP3    H222843   3.468   6.592   3.117
 7628TIP3   OH222844   3.199   6.187   3.315
 7628TIP3    H122845   3.135   6.234   3.368
 7628TIP3    H222846   3.220   6.248   3.244
 7629TIP3   OH222847   4.365   5.822   4.194
 7629TIP3    H122848   4.441   5.868   4.228
 7629TIP3    H222849   4.357   5.745   4.250
 7630TIP3   OH222850   4.252   5.570   3.380
 7630TIP3    H122851   4.233   5.587   3.288
 7630TIP3    H222852   4.295   5.649   3.411
 7631TIP3   OH222853   3.736   6.686   3.046
 7631TIP3    H122854   3.652   6.709   3.087
 7631TIP3    H222855   3.760   6.762   2.995
 7632TIP3   OH222856   3.906   5.766   3.473
 7632TIP3    H122857   3.969   5.833   3.447
 7632TIP3    H222858   3.928   5.747   3.564
 7633TIP3   OH222859   4.203   6.061   4.254
 7633TIP3    H122860   4.228   6.105   4.335
 7633TIP3    H222861   4.253   5.979   4.254
 7634TIP3   OH222862   4.066   5.468   3.561
 7634TIP3    H122863   4.045   5.546   3.613
 7634TIP3    H222864   4.134   5.496   3.501
 7635TIP3   OH222865   3.485   6.767   3.128
 7635TIP3    H122866   3.465   6.838   3.068
 7635TIP3    H222867   3.473   6.805   3.215
 7636TIP3   OH222868   3.580   5.488   3.380
 7636TIP3    H122869   3.576   5.583   3.396
 7636TIP3    H222870   3.674   5.468   3.378
 7637TIP3   OH222871   4.821   5.965   4.244
 7637TIP3    H122872   4.726   5.972   4.254
 7637TIP3    H222873   4.833   5.909   4.167
 7638TIP3   OH222874   4.483   6.163   3.629
 7638TIP3    H122875   4.406   6.108   3.641
 7638TIP3    H222876   4.551   6.123   3.683
 7639TIP3   OH222877   3.219   6.373   3.103
 7639TIP3    H122878   3.291   6.436   3.115
 7639TIP3    H222879   3.252   6.310   3.039
 7640TIP3   OH222880   3.132   5.661   3.247
 7640TIP3    H122881   3.136   5.756   3.243
 7640TIP3    H222882   3.073   5.636   3.176
 7641TIP3   OH222883   4.470   7.122   3.572
 7641TIP3    H122884   4.427   7.169   3.501
 7641TIP3    H222885   4.563   7.138   3.559
 7642TIP3   OH222886   3.544   5.353   4.104
 7642TIP3    H122887   3.488   5.341   4.027
 7642TIP3    H222888   3.603   5.278   4.102
 7643TIP3   OH222889   3.060   6.623   3.511
 7643TIP3    H122890   3.018   6.661   3.588
 7643TIP3    H222891   3.016   6.665   3.437
 7644TIP3   OH222892   3.235   7.153   4.582
 7644TIP3    H122893   3.321   7.158   4.624
 7644TIP3    H222894   3.216   7.059   4.578
 7645TIP3   OH222895   3.719   7.095   4.608
 7645TIP3    H122896   3.811   7.070   4.618
 7645TIP3    H222897   3.686   7.039   4.538
 7646TIP3   OH222898   3.684   6.686   2.731
 7646TIP3    H122899   3.636   6.617   2.775
 7646TIP3    H222900   3.759   6.642   2.690
 7647TIP3   OH222901   4.341   7.028   4.357
 7647TIP3    H122902   4.349   6.958   4.422
 7647TIP3    H222903   4.416   7.085   4.373
 7648TIP3   OH222904   4.126   6.723   2.651
 7648TIP3    H122905   4.156   6.658   2.714
 7648TIP3    H222906   4.186   6.714   2.577
 7649TIP3   OH222907   3.358   6.572   4.757
 7649TIP3    H122908   3.377   6.479   4.766
 7649TIP3    H222909   3.271   6.574   4.717
 7650TIP3   OH222910   3.345   6.183   2.954
 7650TIP3    H122911   3.396   6.158   3.032
 7650TIP3    H222912   3.411   6.196   2.886
 7651TIP3   OH222913   3.977   6.658   4.534
 7651TIP3    H122914   3.932   6.678   4.452
 7651TIP3    H222915   4.012   6.570   4.521
 7652TIP3   OH222916   3.899   6.405   2.782
 7652TIP3    H122917   3.883   6.416   2.875
 7652TIP3    H222918   3.889   6.311   2.767
 7653TIP3   OH222919   4.452   6.694   4.148
 7653TIP3    H122920   4.530   6.723   4.101
 7653TIP3    H222921   4.387   6.762   4.132
 7654TIP3   OH222922   3.473   6.314   4.758
 7654TIP3    H122923   3.552   6.295   4.707
 7654TIP3    H222924   3.506   6.335   4.845
 7655TIP3   OH222925   3.521   6.122   3.165
 7655TIP3    H122926   3.502   6.090   3.253
 7655TIP3    H222927   3.568   6.049   3.123
 7656TIP3   OH222928   3.824   6.191   4.413
 7656TIP3    H122929   3.744   6.243   4.424
 7656TIP3    H222930   3.863   6.224   4.332
 7657TIP3   OH222931   3.656   5.935   3.006
 7657TIP3    H122932   3.629   5.937   2.914
 7657TIP3    H222933   3.752   5.940   3.002
 7658TIP3   OH222934   4.334   6.577   4.512
 7658TIP3    H122935   4.405   6.540   4.460
 7658TIP3    H222936   4.330   6.522   4.590
 7659TIP3   OH222937   4.459   6.232   2.688
 7659TIP3    H122938   4.444   6.189   2.603
 7659TIP3    H222939   4.431   6.322   2.673
 7660TIP3   OH222940   3.937   5.970   4.530
 7660TIP3    H122941   3.943   5.898   4.468
 7660TIP3    H222942   3.900   6.043   4.480
 7661TIP3   OH222943   3.948   5.770   4.329
 7661TIP3    H122944   3.975   5.807   4.245
 7661TIP3    H222945   3.856   5.745   4.315
 7662TIP3   OH222946   3.957   6.299   4.203
 7662TIP3    H122947   4.046   6.328   4.186
 7662TIP3    H222948   3.902   6.360   4.155
 7663TIP3   OH222949   4.545   6.257   4.578
 7663TIP3    H122950   4.587   6.171   4.590
 7663TIP3    H222951   4.618   6.316   4.561
 7664TIP3   OH222952   4.579   6.521   4.315
 7664TIP3    H122953   4.525   6.581   4.264
 7664TIP3    H222954   4.668   6.537   4.283
 7665TIP3   OH222955   3.819   6.061   4.770
 7665TIP3    H122956   3.751   5.997   4.791
 7665TIP3    H222957   3.850   6.035   4.683
 7666TIP3   OH222958   4.072   5.536   4.423
 7666TIP3    H122959   4.031   5.617   4.392
 7666TIP3    H222960   4.005   5.469   4.411
 7667TIP3   OH222961   4.195   6.015   4.628
 7667TIP3    H122962   4.188   6.002   4.723
 7667TIP3    H222963   4.108   5.993   4.595
 7668TIP3   OH222964   4.438   5.967   4.495
 7668TIP3    H122965   4.361   5.968   4.551
 7668TIP3    H222966   4.510   5.941   4.553
 7669TIP3   OH222967   4.675   5.928   4.643
 7669TIP3    H122968   4.689   5.834   4.652
 7669TIP3    H222969   4.669   5.960   4.733
 7670TIP3   OH222970   3.655   5.838   4.834
 7670TIP3    H122971   3.662   5.749   4.801
 7670TIP3    H222972   3.693   5.834   4.921
 7671TIP3   OH222973   4.140   5.520   4.689
 7671TIP3    H122974   4.210   5.454   4.685
 7671TIP3    H222975   4.110   5.529   4.598
 7672TIP3   OH222976   4.229   5.737   4.833
 7672TIP3    H122977   4.201   5.664   4.778
 7672TIP3    H222978   4.155   5.798   4.833
 7673TIP3   OH222979   3.478   6.970   2.946
 7673TIP3    H122980   3.569   6.956   2.920
 7673TIP3    H222981   3.438   7.011   2.869
 7674TIP3   OH222982   2.946   6.368   3.127
 7674TIP3    H122983   3.041   6.382   3.123
 7674TIP3    H222984   2.932   6.282   3.088
 7675TIP3   OH222985   2.853   6.928   3.574
 7675TIP3    H122986   2.788   6.875   3.527
 7675TIP3    H222987   2.897   6.866   3.632
 7676TIP3   OH222988   2.998   6.775   3.752
 7676TIP3    H122989   2.992   6.711   3.822
 7676TIP3    H222990   3.045   6.849   3.790
 7677TIP3   OH222991   4.737   7.185   3.558
 7677TIP3    H122992   4.755   7.209   3.649
 7677TIP3    H222993   4.788   7.247   3.506
 7678TIP3   OH222994   4.753   7.210   3.836
 7678TIP3    H122995   4.705   7.128   3.833
 7678TIP3    H222996   4.822   7.196   3.901
 7679TIP3   OH222997   4.797   6.920   4.408
 7679TIP3    H122998   4.727   6.927   4.472
 7679TIP3    H222999   4.844   7.003   4.414
 7680TIP3   OH223000   4.624   6.434   3.021
 7680TIP3    H123001   4.684   6.503   2.992
 7680TIP3    H223002   4.667   6.395   3.097
 7681TIP3   OH223003   4.750   6.291   3.223
 7681TIP3    H123004   4.683   6.252   3.279
 7681TIP3    H223005   4.815   6.327   3.283
 7682TIP3   OH223006   4.799   6.693   3.654
 7682TIP3    H123007   4.852   6.625   3.614
 7682TIP3    H223008   4.800   6.766   3.592
 7683TIP3   OH223009   4.609   6.975   3.845
 7683TIP3    H123010   4.543   7.019   3.898
 7683TIP3    H223011   4.560   6.933   3.775
 7684TIP3   OH223012   4.665   6.208   2.868
 7684TIP3    H123013   4.593   6.208   2.804
 7684TIP3    H223014   4.648   6.285   2.923
 7685TIP3   OH223015   4.528   5.858   2.803
 7685TIP3    H123016   4.480   5.895   2.730
 7685TIP3    H223017   4.516   5.763   2.795
 7686TIP3   OH223018   4.549   6.151   3.360
 7686TIP3    H123019   4.555   6.056   3.347
 7686TIP3    H223020   4.531   6.162   3.453
 7687TIP3   OH223021   3.172   6.219   4.127
 7687TIP3    H123022   3.163   6.185   4.038
 7687TIP3    H223023   3.266   6.216   4.145
 7688TIP3   OH223024   4.836   6.571   4.220
 7688TIP3    H123025   4.902   6.503   4.205
 7688TIP3    H223026   4.853   6.637   4.153
 7689TIP3   OH223027   5.012   6.360   4.213
 7689TIP3    H123028   4.938   6.318   4.258
 7689TIP3    H223029   5.087   6.304   4.234
 7690TIP3   OH223030   4.482   5.587   2.777
 7690TIP3    H123031   4.545   5.561   2.844
 7690TIP3    H223032   4.399   5.548   2.806
 7691TIP3   OH223033   4.547   5.874   3.244
 7691TIP3    H123034   4.590   5.790   3.257
 7691TIP3    H223035   4.591   5.912   3.168
 7692TIP3   OH223036   4.699   6.040   3.765
 7692TIP3    H123037   4.780   6.058   3.718
 7692TIP3    H223038   4.713   6.078   3.852
 7693TIP3   OH223039   4.774   6.189   3.993
 7693TIP3    H123040   4.701   6.218   4.048
 7693TIP3    H223041   4.806   6.269   3.951
 7694TIP3   OH223042   3.391   5.895   4.775
 7694TIP3    H123043   3.485   5.894   4.794
 7694TIP3    H223044   3.358   5.814   4.814
 7695TIP3   OH223045   5.230   5.791   4.535
 7695TIP3    H123046   5.296   5.732   4.498
 7695TIP3    H223047   5.196   5.840   4.459
 7696TIP3   OH223048   4.658   5.623   3.295
 7696TIP3    H123049   4.703   5.608   3.378
 7696TIP3    H223050   4.595   5.551   3.288
 7697TIP3   OH223051   3.375   5.596   4.125
 7697TIP3    H123052   3.431   5.519   4.137
 7697TIP3    H223053   3.436   5.667   4.109
 7698TIP3   OH223054   3.149   5.865   4.185
 7698TIP3    H123055   3.200   5.863   4.104
 7698TIP3    H223056   3.173   5.948   4.226
 7699TIP3   OH223057   5.085   5.907   4.334
 7699TIP3    H123058   5.003   5.947   4.363
 7699TIP3    H223059   5.058   5.832   4.282
 7700TIP3   OH223060   4.711   5.541   2.934
 7700TIP3    H123061   4.757   5.479   2.878
 7700TIP3    H223062   4.768   5.618   2.937
 7701TIP3   OH223063   3.138   5.365   3.696
 7701TIP3    H123064   3.049   5.357   3.732
 7701TIP3    H223065   3.128   5.425   3.622
 7702TIP3   OH223066   4.283   7.095   3.189
 7702TIP3    H123067   4.347   7.085   3.118
 7702TIP3    H223068   4.326   7.155   3.251
 7703TIP3   OH223069   3.338   5.433   4.490
 7703TIP3    H123070   3.298   5.434   4.577
 7703TIP3    H223071   3.286   5.496   4.440
 7704TIP3   OH223072   3.394   6.884   4.581
 7704TIP3    H123073   3.300   6.866   4.571
 7704TIP3    H223074   3.410   6.878   4.675
 7705TIP3   OH223075   3.601   6.929   4.134
 7705TIP3    H123076   3.545   6.998   4.098
 7705TIP3    H223077   3.686   6.942   4.091
 7706TIP3   OH223078   4.004   7.167   4.270
 7706TIP3    H123079   4.043   7.162   4.358
 7706TIP3    H223080   4.066   7.218   4.219
 7707TIP3   OH223081   4.193   7.312   4.133
 7707TIP3    H123082   4.250   7.258   4.078
 7707TIP3    H223083   4.253   7.360   4.190
 7708TIP3   OH223084   4.995   5.661   4.228
 7708TIP3    H123085   4.907   5.653   4.192
 7708TIP3    H223086   5.031   5.572   4.224
 7709TIP3   OH223087   3.256   7.158   4.161
 7709TIP3    H123088   3.164   7.179   4.144
 7709TIP3    H223089   3.280   7.215   4.234
 7710TIP3   OH223090   3.487   7.146   4.017
 7710TIP3    H123091   3.403   7.155   4.062
 7710TIP3    H223092   3.469   7.171   3.927
 7711TIP3   OH223093   3.910   7.181   3.812
 7711TIP3    H123094   3.836   7.193   3.753
 7711TIP3    H223095   3.920   7.266   3.857
 7712TIP3   OH223096   4.170   7.118   3.876
 7712TIP3    H123097   4.080   7.139   3.851
 7712TIP3    H223098   4.223   7.183   3.829
 7713TIP3   OH223099   4.372   7.279   3.776
 7713TIP3    H123100   4.371   7.367   3.739
 7713TIP3    H223101   4.405   7.224   3.704
 7714TIP3   OH223102   3.171   6.962   3.894
 7714TIP3    H123103   3.193   6.936   3.984
 7714TIP3    H223104   3.243   6.927   3.841
 7715TIP3   OH223105   3.374   6.845   3.758
 7715TIP3    H123106   3.386   6.761   3.804
 7715TIP3    H223107   3.461   6.885   3.760
 7716TIP3   OH223108   3.642   6.931   3.778
 7716TIP3    H123109   3.661   6.838   3.764
 7716TIP3    H223110   3.695   6.954   3.855
 7717TIP3   OH223111   4.202   5.584   3.862
 7717TIP3    H123112   4.163   5.511   3.911
 7717TIP3    H223113   4.271   5.543   3.809
 7718TIP3   OH223114   4.707   5.490   3.753
 7718TIP3    H123115   4.742   5.540   3.680
 7718TIP3    H223116   4.613   5.510   3.753
 7719TIP3   OH223117   4.818   5.572   3.516
 7719TIP3    H123118   4.888   5.513   3.488
 7719TIP3    H223119   4.854   5.660   3.503
 7720TIP3   OH223120   3.398   5.285   3.882
 7720TIP3    H123121   3.324   5.278   3.821
 7720TIP3    H223122   3.438   5.198   3.881
 7721TIP3   OH223123   3.257   5.184   3.509
 7721TIP3    H123124   3.290   5.234   3.434
 7721TIP3    H223125   3.219   5.250   3.567
 7722TIP3   OH223126   3.912   5.327   3.759
 7722TIP3    H123127   3.959   5.368   3.686
 7722TIP3    H223128   3.960   5.356   3.837
 7723TIP3   OH223129   4.420   5.472   3.731
 7723TIP3    H123130   4.424   5.437   3.642
 7723TIP3    H223131   4.422   5.395   3.787
 7724TIP3   OH223132   4.472   5.413   3.299
 7724TIP3    H123133   4.391   5.459   3.322
 7724TIP3    H223134   4.460   5.325   3.336
 7725TIP3   OH223135   2.939   6.737   3.298
 7725TIP3    H123136   2.854   6.708   3.266
 7725TIP3    H223137   2.954   6.821   3.253
 7726TIP3   OH223138   3.372   5.320   3.286
 7726TIP3    H123139   3.418   5.255   3.233
 7726TIP3    H223140   3.442   5.373   3.325
 7727TIP3   OH223141   3.855   5.514   3.374
 7727TIP3    H123142   3.915   5.459   3.425
 7727TIP3    H223143   3.874   5.603   3.404
 7728TIP3   OH223144   3.737   6.912   2.874
 7728TIP3    H123145   3.821   6.939   2.838
 7728TIP3    H223146   3.709   6.840   2.818
 7729TIP3   OH223147   4.446   7.052   2.966
 7729TIP3    H123148   4.437   6.957   2.962
 7729TIP3    H223149   4.400   7.084   2.888
 7730TIP3   OH223150   3.662   5.565   4.746
 7730TIP3    H123151   3.628   5.498   4.805
 7730TIP3    H223152   3.755   5.572   4.769
 7731TIP3   OH223153   3.912   5.571   4.867
 7731TIP3    H123154   3.992   5.549   4.819
 7731TIP3    H223155   3.905   5.503   4.934
 7732TIP3   OH223156   3.036   6.751   2.923
 7732TIP3    H123157   3.032   6.779   3.014
 7732TIP3    H223158   3.121   6.708   2.916
 7733TIP3   OH223159   4.740   5.658   4.658
 7733TIP3    H123160   4.755   5.629   4.748
 7733TIP3    H223161   4.825   5.653   4.616
 7734TIP3   OH223162   4.661   7.189   4.159
 7734TIP3    H123163   4.585   7.158   4.110
 7734TIP3    H223164   4.648   7.284   4.165
 7735TIP3   OH223165   5.934   6.579   2.903
 7735TIP3    H123166   5.904   6.666   2.878
 7735TIP3    H223167   5.862   6.521   2.880
 7736TIP3   OH223168   5.930   6.567   3.323
 7736TIP3    H123169   5.980   6.553   3.403
 7736TIP3    H223170   5.886   6.484   3.306
 7737TIP3   OH223171   5.231   6.440   3.674
 7737TIP3    H123172   5.265   6.384   3.744
 7737TIP3    H223173   5.309   6.473   3.629
 7738TIP3   OH223174   6.199   6.873   2.998
 7738TIP3    H123175   6.184   6.808   3.067
 7738TIP3    H223176   6.220   6.954   3.044
 7739TIP3   OH223177   5.222   6.862   3.363
 7739TIP3    H123178   5.205   6.768   3.372
 7739TIP3    H223179   5.317   6.868   3.357
 7740TIP3   OH223180   4.908   6.069   3.145
 7740TIP3    H123181   4.868   6.152   3.170
 7740TIP3    H223182   4.836   6.018   3.107
 7741TIP3   OH223183   4.982   6.373   3.361
 7741TIP3    H123184   5.031   6.295   3.389
 7741TIP3    H223185   5.049   6.435   3.333
 7742TIP3   OH223186   5.846   7.311   3.014
 7742TIP3    H123187   5.879   7.241   2.958
 7742TIP3    H223188   5.844   7.273   3.102
 7743TIP3   OH223189   5.738   6.793   3.332
 7743TIP3    H123190   5.780   6.712   3.302
 7743TIP3    H223191   5.810   6.847   3.363
 7744TIP3   OH223192   6.765   6.117   3.345
 7744TIP3    H123193   6.785   6.200   3.389
 7744TIP3    H223194   6.794   6.131   3.255
 7745TIP3   OH223195   6.147   6.283   3.367
 7745TIP3    H123196   6.182   6.199   3.396
 7745TIP3    H223197   6.110   6.266   3.281
 7746TIP3   OH223198   5.499   5.943   3.327
 7746TIP3    H123199   5.477   6.017   3.269
 7746TIP3    H223200   5.444   5.872   3.297
 7747TIP3   OH223201   6.199   6.043   2.962
 7747TIP3    H123202   6.263   6.034   3.033
 7747TIP3    H223203   6.250   6.077   2.888
 7748TIP3   OH223204   5.124   6.155   3.455
 7748TIP3    H123205   5.207   6.137   3.500
 7748TIP3    H223206   5.129   6.103   3.375
 7749TIP3   OH223207   5.550   6.354   3.264
 7749TIP3    H123208   5.644   6.337   3.273
 7749TIP3    H223209   5.514   6.272   3.230
 7750TIP3   OH223210   6.827   6.334   3.514
 7750TIP3    H123211   6.737   6.366   3.511
 7750TIP3    H223212   6.861   6.368   3.597
 7751TIP3   OH223213   5.483   5.943   3.779
 7751TIP3    H123214   5.431   5.979   3.707
 7751TIP3    H223215   5.429   5.957   3.857
 7752TIP3   OH223216   5.833   6.796   2.761
 7752TIP3    H123217   5.794   6.769   2.679
 7752TIP3    H223218   5.780   6.871   2.790
 7753TIP3   OH223219   5.581   6.719   3.549
 7753TIP3    H123220   5.526   6.788   3.583
 7753TIP3    H223221   5.629   6.760   3.477
 7754TIP3   OH223222   6.364   6.059   3.179
 7754TIP3    H123223   6.320   6.040   3.261
 7754TIP3    H223224   6.419   6.135   3.198
 7755TIP3   OH223225   5.370   6.051   3.549
 7755TIP3    H123226   5.425   6.126   3.573
 7755TIP3    H223227   5.417   6.009   3.478
 7756TIP3   OH223228   5.419   6.918   3.651
 7756TIP3    H123229   5.404   7.007   3.621
 7756TIP3    H223230   5.342   6.898   3.705
 7757TIP3   OH223231   4.799   6.620   2.902
 7757TIP3    H123232   4.761   6.640   2.817
 7757TIP3    H223233   4.824   6.705   2.938
 7758TIP3   OH223234   6.236   7.125   3.127
 7758TIP3    H123235   6.151   7.115   3.169
 7758TIP3    H223236   6.231   7.209   3.081
 7759TIP3   OH223237   6.563   6.008   3.511
 7759TIP3    H123238   6.478   6.035   3.477
 7759TIP3    H223239   6.626   6.037   3.445
 7760TIP3   OH223240   5.822   5.636   3.505
 7760TIP3    H123241   5.816   5.545   3.534
 7760TIP3    H223242   5.746   5.679   3.546
 7761TIP3   OH223243   5.945   7.158   2.801
 7761TIP3    H123244   5.999   7.080   2.790
 7761TIP3    H223245   6.000   7.230   2.769
 7762TIP3   OH223246   6.083   6.928   2.754
 7762TIP3    H123247   6.010   6.866   2.751
 7762TIP3    H223248   6.134   6.903   2.831
 7763TIP3   OH223249   6.423   7.007   3.462
 7763TIP3    H123250   6.414   6.934   3.402
 7763TIP3    H223251   6.413   7.085   3.408
 7764TIP3   OH223252   5.760   6.418   2.755
 7764TIP3    H123253   5.679   6.464   2.734
 7764TIP3    H223254   5.809   6.416   2.672
 7765TIP3   OH223255   5.727   6.225   2.449
 7765TIP3    H123256   5.792   6.271   2.501
 7765TIP3    H223257   5.778   6.160   2.400
 7766TIP3   OH223258   6.656   6.673   3.346
 7766TIP3    H123259   6.570   6.714   3.345
 7766TIP3    H223260   6.688   6.681   3.256
 7767TIP3   OH223261   6.119   6.507   2.716
 7767TIP3    H123262   6.065   6.535   2.789
 7767TIP3    H223263   6.201   6.480   2.756
 7768TIP3   OH223264   6.347   6.535   3.653
 7768TIP3    H123265   6.344   6.617   3.701
 7768TIP3    H223266   6.263   6.532   3.605
 7769TIP3   OH223267   5.349   6.490   3.122
 7769TIP3    H123268   5.312   6.430   3.058
 7769TIP3    H223269   5.422   6.442   3.161
 7770TIP3   OH223270   5.485   6.910   3.263
 7770TIP3    H123271   5.464   6.892   3.171
 7770TIP3    H223272   5.572   6.872   3.276
 7771TIP3   OH223273   5.453   6.483   3.493
 7771TIP3    H123274   5.492   6.448   3.413
 7771TIP3    H223275   5.502   6.563   3.511
 7772TIP3   OH223276   6.005   7.105   3.266
 7772TIP3    H123277   5.983   7.186   3.312
 7772TIP3    H223278   5.990   7.035   3.330
 7773TIP3   OH223279   5.615   7.016   3.820
 7773TIP3    H123280   5.556   7.076   3.866
 7773TIP3    H223281   5.558   6.965   3.764
 7774TIP3   OH223282   5.949   6.367   2.551
 7774TIP3    H123283   6.010   6.424   2.599
 7774TIP3    H223284   5.976   6.375   2.459
 7775TIP3   OH223285   5.377   6.574   3.945
 7775TIP3    H123286   5.380   6.666   3.971
 7775TIP3    H223287   5.283   6.553   3.942
 7776TIP3   OH223288   5.697   7.035   2.805
 7776TIP3    H123289   5.779   7.085   2.815
 7776TIP3    H223290   5.636   7.097   2.765
 7777TIP3   OH223291   5.408   7.180   3.902
 7777TIP3    H123292   5.382   7.188   3.810
 7777TIP3    H223293   5.326   7.164   3.949
 7778TIP3   OH223294   6.464   5.597   2.602
 7778TIP3    H123295   6.385   5.616   2.653
 7778TIP3    H223296   6.477   5.675   2.548
 7779TIP3   OH223297   5.222   6.333   2.920
 7779TIP3    H123298   5.144   6.380   2.888
 7779TIP3    H223299   5.189   6.247   2.944
 7780TIP3   OH223300   6.277   6.960   2.154
 7780TIP3    H123301   6.265   7.052   2.130
 7780TIP3    H223302   6.365   6.939   2.124
 7781TIP3   OH223303   5.000   6.733   3.850
 7781TIP3    H123304   4.931   6.714   3.787
 7781TIP3    H223305   5.035   6.647   3.874
 7782TIP3   OH223306   4.848   6.926   3.497
 7782TIP3    H123307   4.941   6.942   3.510
 7782TIP3    H223308   4.805   7.004   3.532
 7783TIP3   OH223309   6.679   7.345   3.535
 7783TIP3    H123310   6.697   7.252   3.522
 7783TIP3    H223311   6.592   7.348   3.575
 7784TIP3   OH223312   5.799   7.156   3.674
 7784TIP3    H123313   5.796   7.246   3.708
 7784TIP3    H223314   5.733   7.109   3.725
 7785TIP3   OH223315   5.582   7.261   2.635
 7785TIP3    H123316   5.530   7.246   2.556
 7785TIP3    H223317   5.551   7.345   2.668
 7786TIP3   OH223318   5.027   7.112   3.010
 7786TIP3    H123319   5.070   7.106   3.096
 7786TIP3    H223320   4.976   7.031   3.003
 7787TIP3   OH223321   5.786   7.181   2.266
 7787TIP3    H123322   5.838   7.110   2.229
 7787TIP3    H223323   5.817   7.189   2.357
 7788TIP3   OH223324   5.833   7.217   2.535
 7788TIP3    H123325   5.747   7.224   2.578
 7788TIP3    H223326   5.891   7.183   2.603
 7789TIP3   OH223327   6.594   6.492   3.815
 7789TIP3    H123328   6.510   6.504   3.771
 7789TIP3    H223329   6.612   6.398   3.808
 7790TIP3   OH223330   5.202   6.918   3.822
 7790TIP3    H123331   5.252   6.906   3.903
 7790TIP3    H223332   5.130   6.856   3.829
 7791TIP3   OH223333   5.588   5.730   3.632
 7791TIP3    H123334   5.503   5.697   3.601
 7791TIP3    H223335   5.566   5.809   3.680
 7792TIP3   OH223336   6.138   5.840   3.838
 7792TIP3    H123337   6.208   5.815   3.898
 7792TIP3    H223338   6.057   5.825   3.887
 7793TIP3   OH223339   6.348   6.270   3.742
 7793TIP3    H123340   6.307   6.266   3.828
 7793TIP3    H223341   6.333   6.360   3.713
 7794TIP3   OH223342   6.027   6.365   2.290
 7794TIP3    H123343   5.990   6.357   2.202
 7794TIP3    H223344   6.110   6.411   2.276
 7795TIP3   OH223345   5.748   5.777   2.606
 7795TIP3    H123346   5.713   5.781   2.695
 7795TIP3    H223347   5.709   5.698   2.568
 7796TIP3   OH223348   5.526   6.260   3.641
 7796TIP3    H123349   5.480   6.268   3.725
 7796TIP3    H223350   5.504   6.341   3.594
 7797TIP3   OH223351   5.406   6.140   3.159
 7797TIP3    H123352   5.317   6.116   3.185
 7797TIP3    H223353   5.416   6.103   3.071
 7798TIP3   OH223354   5.889   6.214   2.888
 7798TIP3    H123355   5.842   6.286   2.848
 7798TIP3    H223356   5.949   6.183   2.820
 7799TIP3   OH223357   6.074   6.484   3.966
 7799TIP3    H123358   6.045   6.416   4.027
 7799TIP3    H223359   6.166   6.496   3.986
 7800TIP3   OH223360   6.055   6.229   3.115
 7800TIP3    H123361   5.986   6.252   3.052
 7800TIP3    H223362   6.101   6.156   3.075
 7801TIP3   OH223363   5.360   6.272   3.861
 7801TIP3    H123364   5.384   6.332   3.931
 7801TIP3    H223365   5.342   6.189   3.906
 7802TIP3   OH223366   5.411   5.751   2.575
 7802TIP3    H123367   5.401   5.753   2.670
 7802TIP3    H223368   5.332   5.794   2.541
 7803TIP3   OH223369   4.947   5.795   3.439
 7803TIP3    H123370   5.020   5.829   3.490
 7803TIP3    H223371   4.987   5.771   3.355
 7804TIP3   OH223372   4.870   5.773   2.947
 7804TIP3    H123373   4.915   5.808   2.870
 7804TIP3    H223374   4.807   5.841   2.971
 7805TIP3   OH223375   6.089   6.483   3.541
 7805TIP3    H123376   6.115   6.416   3.478
 7805TIP3    H223377   6.049   6.434   3.613
 7806TIP3   OH223378   5.764   5.936   3.212
 7806TIP3    H123379   5.686   5.936   3.268
 7806TIP3    H223380   5.837   5.926   3.274
 7807TIP3   OH223381   5.168   6.016   3.221
 7807TIP3    H123382   5.079   6.021   3.187
 7807TIP3    H223383   5.195   5.925   3.207
 7808TIP3   OH223384   5.423   6.011   2.917
 7808TIP3    H123385   5.517   6.026   2.905
 7808TIP3    H223386   5.385   6.031   2.831
 7809TIP3   OH223387   6.221   6.018   3.415
 7809TIP3    H123388   6.206   6.031   3.508
 7809TIP3    H223389   6.152   5.958   3.387
 7810TIP3   OH223390   5.304   6.039   2.672
 7810TIP3    H123391   5.240   5.989   2.621
 7810TIP3    H223392   5.357   6.085   2.607
 7811TIP3   OH223393   1.129   0.316   3.611
 7811TIP3    H123394   1.161   0.313   3.521
 7811TIP3    H223395   1.196   0.365   3.659
 7812TIP3   OH223396   5.360   6.834   4.054
 7812TIP3    H123397   5.440   6.854   4.102
 7812TIP3    H223398   5.291   6.839   4.120
 7813TIP3   OH223399   5.820   6.297   3.322
 7813TIP3    H123400   5.888   6.247   3.277
 7813TIP3    H223401   5.817   6.260   3.410
 7814TIP3   OH223402   5.313   5.767   3.209
 7814TIP3    H123403   5.284   5.692   3.261
 7814TIP3    H223404   5.339   5.729   3.125
 7815TIP3   OH223405   5.795   6.205   3.588
 7815TIP3    H123406   5.707   6.236   3.613
 7815TIP3    H223407   5.854   6.256   3.644
 7816TIP3   OH223408   5.528   6.560   2.694
 7816TIP3    H123409   5.454   6.503   2.673
 7816TIP3    H223410   5.505   6.600   2.778
 7817TIP3   OH223411   6.415   6.795   3.293
 7817TIP3    H123412   6.449   6.842   3.217
 7817TIP3    H223413   6.333   6.756   3.261
 7818TIP3   OH223414   5.996   5.885   2.577
 7818TIP3    H123415   5.903   5.863   2.587
 7818TIP3    H223416   6.002   5.977   2.602
 7819TIP3   OH223417   5.924   6.890   3.713
 7819TIP3    H123418   5.976   6.880   3.793
 7819TIP3    H223419   5.886   6.977   3.719
 7820TIP3   OH223420   6.056   6.137   2.673
 7820TIP3    H123421   6.151   6.142   2.685
 7820TIP3    H223422   6.034   6.216   2.623
 7821TIP3   OH223423   5.219   6.572   3.353
 7821TIP3    H123424   5.258   6.555   3.268
 7821TIP3    H223425   5.284   6.540   3.416
 7822TIP3   OH223426   5.681   6.720   2.533
 7822TIP3    H123427   5.633   6.803   2.534
 7822TIP3    H223428   5.628   6.661   2.587
 7823TIP3   OH223429   5.105   6.508   3.984
 7823TIP3    H123430   5.116   6.488   4.078
 7823TIP3    H223431   5.032   6.453   3.957
 7824TIP3   OH223432   5.838   6.636   4.001
 7824TIP3    H123433   5.772   6.574   3.971
 7824TIP3    H223434   5.922   6.596   3.975
 7825TIP3   OH223435   6.064   7.167   3.589
 7825TIP3    H123436   5.969   7.158   3.594
 7825TIP3    H223437   6.089   7.207   3.672
 7826TIP3   OH223438   6.473   6.225   2.496
 7826TIP3    H123439   6.416   6.180   2.434
 7826TIP3    H223440   6.478   6.315   2.463
 7827TIP3   OH223441   6.678   7.050   3.529
 7827TIP3    H123442   6.585   7.040   3.509
 7827TIP3    H223443   6.723   7.025   3.449
 7828TIP3   OH223444   6.190   7.022   2.418
 7828TIP3    H123445   6.169   6.951   2.478
 7828TIP3    H223446   6.214   6.979   2.336
 7829TIP3   OH223447   6.180   6.673   3.202
 7829TIP3    H123448   6.091   6.652   3.229
 7829TIP3    H223449   6.215   6.591   3.166
 7830TIP3   OH223450   5.339   6.910   3.013
 7830TIP3    H123451   5.335   6.987   2.956
 7830TIP3    H223452   5.251   6.901   3.048
 7831TIP3   OH223453   4.901   6.198   2.727
 7831TIP3    H123454   4.945   6.280   2.748
 7831TIP3    H223455   4.821   6.199   2.779
 7832TIP3   OH223456   5.435   6.667   2.924
 7832TIP3    H123457   5.413   6.756   2.952
 7832TIP3    H223458   5.409   6.612   2.998
 7833TIP3   OH223459   5.619   7.237   3.469
 7833TIP3    H123460   5.654   7.311   3.420
 7833TIP3    H223461   5.693   7.205   3.521
 7834TIP3   OH223462   5.255   7.136   2.860
 7834TIP3    H123463   5.170   7.138   2.904
 7834TIP3    H223464   5.287   7.226   2.867
 7835TIP3   OH223465   5.976   6.887   3.442
 7835TIP3    H123466   5.959   6.886   3.536
 7835TIP3    H223467   6.058   6.839   3.431
 7836TIP3   OH223468   5.960   6.772   2.322
 7836TIP3    H123469   6.020   6.748   2.393
 7836TIP3    H223470   5.875   6.742   2.352
 7837TIP3   OH223471   1.015   0.026   3.472
 7837TIP3    H123472   0.943  -0.036   3.487
 7837TIP3    H223473   0.984   0.083   3.401
 7838TIP3   OH223474   6.244   7.236   2.107
 7838TIP3    H123475   6.324   7.288   2.105
 7838TIP3    H223476   6.179   7.294   2.146
 7839TIP3   OH223477   5.312   6.020   3.986
 7839TIP3    H123478   5.217   6.027   3.994
 7839TIP3    H223479   5.339   5.972   4.065
 7840TIP3   OH223480   6.141   6.696   2.511
 7840TIP3    H123481   6.123   6.641   2.587
 7840TIP3    H223482   6.236   6.699   2.505
 7841TIP3   OH223483   5.051   7.122   3.630
 7841TIP3    H123484   5.101   7.060   3.683
 7841TIP3    H223485   5.068   7.207   3.670
 7842TIP3   OH223486   5.311   6.743   2.324
 7842TIP3    H123487   5.327   6.652   2.298
 7842TIP3    H223488   5.298   6.739   2.419
 7843TIP3   OH223489   5.262   6.759   2.596
 7843TIP3    H123490   5.327   6.730   2.660
 7843TIP3    H223491   5.263   6.854   2.603
 7844TIP3   OH223492   4.997   6.450   2.804
 7844TIP3    H123493   4.931   6.495   2.858
 7844TIP3    H223494   5.015   6.510   2.732
 7845TIP3   OH223495   6.170   6.065   3.678
 7845TIP3    H123496   6.241   6.118   3.714
 7845TIP3    H223497   6.160   5.992   3.739
 7846TIP3   OH223498   6.052   5.831   2.859
 7846TIP3    H123499   6.034   5.856   2.768
 7846TIP3    H223500   6.096   5.908   2.896
 7847TIP3   OH223501   5.533   6.947   2.534
 7847TIP3    H123502   5.449   6.969   2.573
 7847TIP3    H223503   5.557   7.024   2.482
 7848TIP3   OH223504   5.702   6.023   2.955
 7848TIP3    H123505   5.765   6.091   2.931
 7848TIP3    H223506   5.721   6.005   3.048
 7849TIP3   OH223507   6.001   6.319   3.745
 7849TIP3    H123508   6.022   6.368   3.824
 7849TIP3    H223509   6.049   6.236   3.754
 7850TIP3   OH223510   5.873   5.730   3.049
 7850TIP3    H123511   5.851   5.806   3.102
 7850TIP3    H223512   5.940   5.761   2.988
 7851TIP3   OH223513   5.282   7.031   2.609
 7851TIP3    H123514   5.259   7.102   2.549
 7851TIP3    H223515   5.271   7.069   2.697
 7852TIP3   OH223516   5.383   5.740   2.852
 7852TIP3    H123517   5.370   5.829   2.883
 7852TIP3    H223518   5.478   5.725   2.862
 7853TIP3   OH223519   6.613   6.221   3.723
 7853TIP3    H123520   6.518   6.227   3.735
 7853TIP3    H223521   6.624   6.156   3.653
 7854TIP3   OH223522   6.278   6.419   3.117
 7854TIP3    H123523   6.202   6.363   3.131
 7854TIP3    H223524   6.347   6.380   3.171
 7855TIP3   OH223525   5.014   6.632   2.590
 7855TIP3    H123526   5.085   6.695   2.601
 7855TIP3    H223527   5.048   6.568   2.527
 7856TIP3   OH223528   4.930   5.920   2.722
 7856TIP3    H123529   4.940   6.015   2.731
 7856TIP3    H223530   4.857   5.909   2.661
 7857TIP3   OH223531   1.065   0.038   3.037
 7857TIP3    H123532   1.021   0.090   2.970
 7857TIP3    H223533   1.158   0.049   3.019
 7858TIP3   OH223534   5.327   5.641   3.592
 7858TIP3    H123535   5.297   5.608   3.507
 7858TIP3    H223536   5.319   5.567   3.651
 7859TIP3   OH223537   4.852   6.889   2.983
 7859TIP3    H123538   4.806   6.924   3.060
 7859TIP3    H223539   4.811   6.933   2.908
 7860TIP3   OH223540   7.646   0.076   4.054
 7860TIP3    H123541   7.728   0.080   4.104
 7860TIP3    H223542   7.628  -0.017   4.045
 7861TIP3   OH223543   5.510   7.349   4.094
 7861TIP3    H123544   5.602   7.326   4.104
 7861TIP3    H223545   5.479   7.292   4.023
 7862TIP3   OH223546   5.480   6.932   2.217
 7862TIP3    H123547   5.425   6.869   2.264
 7862TIP3    H223548   5.559   6.883   2.195
 7863TIP3   OH223549   6.111   7.266   3.838
 7863TIP3    H123550   6.117   7.196   3.903
 7863TIP3    H223551   6.185   7.323   3.857
 7864TIP3   OH223552   5.921   6.979   2.146
 7864TIP3    H123553   5.953   6.914   2.208
 7864TIP3    H223554   5.983   6.975   2.073
 7865TIP3   OH223555   5.154   6.828   4.243
 7865TIP3    H123556   5.174   6.735   4.253
 7865TIP3    H223557   5.067   6.830   4.203
 7866TIP3   OH223558   5.144   6.441   2.445
 7866TIP3    H123559   5.194   6.417   2.522
 7866TIP3    H223560   5.210   6.453   2.376
 7867TIP3   OH223561   5.774   6.913   4.021
 7867TIP3    H123562   5.727   6.933   3.940
 7867TIP3    H223563   5.807   6.824   4.008
 7868TIP3   OH223564   5.668   6.668   2.263
 7868TIP3    H123565   5.664   6.679   2.358
 7868TIP3    H223566   5.667   6.573   2.250
 7869TIP3   OH223567   6.228   6.945   3.640
 7869TIP3    H123568   6.302   6.970   3.585
 7869TIP3    H223569   6.162   7.012   3.624
 7870TIP3   OH223570   5.272   6.571   4.244
 7870TIP3    H123571   5.351   6.548   4.196
 7870TIP3    H223572   5.303   6.592   4.332
 7871TIP3   OH223573   5.320   6.380   2.655
 7871TIP3    H123574   5.297   6.350   2.743
 7871TIP3    H223575   5.365   6.305   2.615
 7872TIP3   OH223576   5.625   6.452   3.901
 7872TIP3    H123577   5.543   6.500   3.910
 7872TIP3    H223578   5.661   6.482   3.818
 7873TIP3   OH223579   5.454   6.190   2.499
 7873TIP3    H123580   5.425   6.194   2.407
 7873TIP3    H223581   5.549   6.197   2.494
 7874TIP3   OH223582   6.121   6.828   4.003
 7874TIP3    H123583   6.187   6.788   3.946
 7874TIP3    H223584   6.119   6.771   4.080
 7875TIP3   OH223585   6.251   6.486   2.181
 7875TIP3    H123586   6.240   6.441   2.097
 7875TIP3    H223587   6.222   6.576   2.164
 7876TIP3   OH223588   5.732   6.227   4.017
 7876TIP3    H123589   5.738   6.154   3.955
 7876TIP3    H223590   5.696   6.300   3.966
 7877TIP3   OH223591   5.744   6.025   3.817
 7877TIP3    H123592   5.771   6.062   3.733
 7877TIP3    H223593   5.653   5.999   3.803
 7878TIP3   OH223594   5.754   6.554   3.685
 7878TIP3    H123595   5.842   6.588   3.673
 7878TIP3    H223596   5.697   6.616   3.639
 7879TIP3   OH223597   6.339   6.504   4.070
 7879TIP3    H123598   6.381   6.419   4.084
 7879TIP3    H223599   6.412   6.565   4.059
 7880TIP3   OH223600   6.368   6.774   3.797
 7880TIP3    H123601   6.310   6.835   3.750
 7880TIP3    H223602   6.455   6.790   3.761
 7881TIP3   OH223603   5.617   6.315   4.257
 7881TIP3    H123604   5.549   6.252   4.278
 7881TIP3    H223605   5.647   6.289   4.170
 7882TIP3   OH223606   5.869   5.788   3.912
 7882TIP3    H123607   5.827   5.869   3.883
 7882TIP3    H223608   5.801   5.721   3.902
 7883TIP3   OH223609   5.990   6.271   4.116
 7883TIP3    H123610   5.987   6.255   4.210
 7883TIP3    H223611   5.903   6.248   4.085
 7884TIP3   OH223612   6.229   6.220   3.978
 7884TIP3    H123613   6.152   6.221   4.035
 7884TIP3    H223614   6.301   6.195   4.036
 7885TIP3   OH223615   6.467   6.191   4.126
 7885TIP3    H123616   6.483   6.097   4.132
 7885TIP3    H223617   6.463   6.221   4.217
 7886TIP3   OH223618   5.453   6.093   4.320
 7886TIP3    H123619   5.460   6.005   4.284
 7886TIP3    H223620   5.491   6.087   4.407
 7887TIP3   OH223621   5.941   5.780   4.180
 7887TIP3    H123622   6.007   5.711   4.185
 7887TIP3    H223623   5.915   5.782   4.088
 7888TIP3   OH223624   6.038   5.988   4.334
 7888TIP3    H123625   6.011   5.915   4.280
 7888TIP3    H223626   5.962   6.047   4.336
 7889TIP3   OH223627   5.271   7.239   2.425
 7889TIP3    H123628   5.360   7.219   2.398
 7889TIP3    H223629   5.233   7.285   2.350
 7890TIP3   OH223630   4.741   6.621   2.608
 7890TIP3    H123631   4.836   6.634   2.606
 7890TIP3    H223632   4.727   6.534   2.571
 7891TIP3   OH223633   4.667   7.190   3.048
 7891TIP3    H123634   4.595   7.140   3.011
 7891TIP3    H223635   4.705   7.133   3.114
 7892TIP3   OH223636   4.795   7.039   3.237
 7892TIP3    H123637   4.784   6.971   3.304
 7892TIP3    H223638   4.845   7.108   3.280
 7893TIP3   OH223639   1.342   0.099   3.009
 7893TIP3    H123640   1.345   0.107   3.105
 7893TIP3    H223641   1.365   0.187   2.978
 7894TIP3   OH223642   1.345   0.117   3.281
 7894TIP3    H123643   1.303   0.036   3.310
 7894TIP3    H223644   1.436   0.110   3.312
 7895TIP3   OH223645   6.529   7.141   3.851
 7895TIP3    H123646   6.473   7.148   3.929
 7895TIP3    H223647   6.505   7.217   3.799
 7896TIP3   OH223648   6.417   6.687   2.509
 7896TIP3    H123649   6.481   6.753   2.482
 7896TIP3    H223650   6.457   6.644   2.585
 7897TIP3   OH223651   6.538   6.540   2.705
 7897TIP3    H123652   6.473   6.501   2.763
 7897TIP3    H223653   6.606   6.574   2.763
 7898TIP3   OH223654   6.582   6.935   3.122
 7898TIP3    H123655   6.634   6.870   3.074
 7898TIP3    H223656   6.583   7.013   3.066
 7899TIP3   OH223657   6.399   7.239   3.320
 7899TIP3    H123658   6.334   7.284   3.374
 7899TIP3    H223659   6.349   7.202   3.248
 7900TIP3   OH223660   6.459   6.463   2.356
 7900TIP3    H123661   6.387   6.462   2.293
 7900TIP3    H223662   6.442   6.539   2.411
 7901TIP3   OH223663   6.316   6.123   2.298
 7901TIP3    H123664   6.272   6.160   2.221
 7901TIP3    H223665   6.305   6.028   2.289
 7902TIP3   OH223666   6.342   6.406   2.849
 7902TIP3    H123667   6.350   6.311   2.838
 7902TIP3    H223668   6.325   6.419   2.942
 7903TIP3   OH223669   4.967   6.476   3.615
 7903TIP3    H123670   4.958   6.442   3.526
 7903TIP3    H223671   5.061   6.473   3.632
 7904TIP3   OH223672   6.620   6.817   3.688
 7904TIP3    H123673   6.689   6.753   3.674
 7904TIP3    H223674   6.643   6.890   3.630
 7905TIP3   OH223675   6.810   6.619   3.705
 7905TIP3    H123676   6.736   6.574   3.747
 7905TIP3    H223677   6.886   6.565   3.727
 7906TIP3   OH223678   6.277   5.853   2.275
 7906TIP3    H123679   6.347   5.825   2.334
 7906TIP3    H223680   6.202   5.799   2.300
 7907TIP3   OH223681   6.342   6.130   2.732
 7907TIP3    H123682   6.385   6.045   2.744
 7907TIP3    H223683   6.387   6.170   2.658
 7908TIP3   OH223684   6.493   6.296   3.252
 7908TIP3    H123685   6.575   6.314   3.205
 7908TIP3    H223686   6.506   6.334   3.339
 7909TIP3   OH223687   6.566   6.445   3.479
 7909TIP3    H123688   6.494   6.474   3.535
 7909TIP3    H223689   6.598   6.525   3.437
 7910TIP3   OH223690   5.189   6.153   4.261
 7910TIP3    H123691   5.283   6.151   4.279
 7910TIP3    H223692   5.155   6.072   4.299
 7911TIP3   OH223693   7.027   6.048   4.020
 7911TIP3    H123694   7.091   5.986   3.985
 7911TIP3    H223695   6.994   6.095   3.944
 7912TIP3   OH223696   6.449   5.876   2.781
 7912TIP3    H123697   6.496   5.862   2.863
 7912TIP3    H223698   6.387   5.803   2.776
 7913TIP3   OH223699   5.161   5.864   3.603
 7913TIP3    H123700   5.215   5.786   3.612
 7913TIP3    H223701   5.223   5.936   3.591
 7914TIP3   OH223702   4.944   6.127   3.672
 7914TIP3    H123703   4.996   6.122   3.591
 7914TIP3    H223704   4.973   6.208   3.713
 7915TIP3   OH223705   6.880   6.165   3.824
 7915TIP3    H123706   6.806   6.203   3.870
 7915TIP3    H223707   6.843   6.094   3.772
 7916TIP3   OH223708   6.510   5.800   2.422
 7916TIP3    H123709   6.554   5.738   2.364
 7916TIP3    H223710   6.567   5.876   2.424
 7917TIP3   OH223711   4.931   5.639   3.177
 7917TIP3    H123712   4.845   5.626   3.215
 7917TIP3    H223713   4.916   5.694   3.100
 7918TIP3   OH223714   0.877   0.008   2.681
 7918TIP3    H123715   0.929  -0.017   2.604
 7918TIP3    H223716   0.933   0.069   2.728
 7919TIP3   OH223717   5.151   5.692   3.991
 7919TIP3    H123718   5.104   5.690   4.074
 7919TIP3    H223719   5.095   5.743   3.933
 7920TIP3   OH223720   5.185   7.150   4.068
 7920TIP3    H123721   5.092   7.130   4.059
 7920TIP3    H223722   5.203   7.136   4.160
 7921TIP3   OH223723   5.392   7.192   3.618
 7921TIP3    H123724   5.339   7.264   3.584
 7921TIP3    H223725   5.478   7.202   3.576
 7922TIP3   OH223726   0.589   0.062   3.767
 7922TIP3    H123727   0.631   0.060   3.853
 7922TIP3    H223728   0.650   0.111   3.712
 7923TIP3   OH223729   0.775   0.204   3.628
 7923TIP3    H123730   0.845   0.166   3.574
 7923TIP3    H223731   0.821   0.257   3.693
 7924TIP3   OH223732   6.790   5.914   3.718
 7924TIP3    H123733   6.700   5.900   3.689
 7924TIP3    H223734   6.830   5.828   3.714
 7925TIP3   OH223735   7.662   0.072   3.664
 7925TIP3    H123736   7.571   0.091   3.642
 7925TIP3    H223737   7.685   0.136   3.731
 7926TIP3   OH223738   0.086   0.064   3.504
 7926TIP3    H123739   0.003   0.071   3.552
 7926TIP3    H223740   0.064   0.091   3.415
 7927TIP3   OH223741   0.494   0.091   3.300
 7927TIP3    H123742   0.422   0.106   3.239
 7927TIP3    H223743   0.508   0.176   3.342
 7928TIP3   OH223744   0.748   0.005   3.348
 7928TIP3    H123745   0.659   0.036   3.333
 7928TIP3    H223746   0.803   0.072   3.307
 7929TIP3   OH223747   0.942   0.173   3.250
 7929TIP3    H123748   0.946   0.267   3.231
 7929TIP3    H223749   0.985   0.132   3.174
 7930TIP3   OH223750   4.969   7.217   3.381
 7930TIP3    H123751   4.990   7.191   3.470
 7930TIP3    H223752   5.042   7.183   3.328
 7931TIP3   OH223753   5.172   7.101   3.243
 7931TIP3    H123754   5.182   7.018   3.289
 7931TIP3    H223755   5.258   7.142   3.247
 7932TIP3   OH223756   5.438   7.187   3.263
 7932TIP3    H123757   5.458   7.094   3.251
 7932TIP3    H223758   5.489   7.214   3.339
 7933TIP3   OH223759   5.992   5.839   3.344
 7933TIP3    H123760   5.956   5.769   3.399
 7933TIP3    H223761   6.062   5.797   3.294
 7934TIP3   OH223762   6.502   5.737   3.228
 7934TIP3    H123763   6.542   5.788   3.158
 7934TIP3    H223764   6.416   5.777   3.241
 7935TIP3   OH223765   6.614   5.829   2.997
 7935TIP3    H123766   6.685   5.769   2.971
 7935TIP3    H223767   6.652   5.917   2.984
 7936TIP3   OH223768   5.240   5.539   3.350
 7936TIP3    H123769   5.150   5.507   3.359
 7936TIP3    H223770   5.293   5.460   3.343
 7937TIP3   OH223771   5.058   5.448   3.006
 7937TIP3    H123772   5.080   5.500   2.929
 7937TIP3    H223773   5.020   5.511   3.068
 7938TIP3   OH223774   5.720   5.581   3.241
 7938TIP3    H123775   5.767   5.636   3.179
 7938TIP3    H223776   5.752   5.607   3.327
 7939TIP3   OH223777   6.207   5.722   3.216
 7939TIP3    H123778   6.237   5.687   3.132
 7939TIP3    H223779   6.211   5.648   3.276
 7940TIP3   OH223780   6.258   5.660   2.774
 7940TIP3    H123781   6.184   5.712   2.805
 7940TIP3    H223782   6.238   5.571   2.804
 7941TIP3   OH223783   4.739   7.010   2.763
 7941TIP3    H123784   4.654   6.976   2.735
 7941TIP3    H223785   4.739   7.101   2.733
 7942TIP3   OH223786   5.164   5.581   2.766
 7942TIP3    H123787   5.209   5.518   2.710
 7942TIP3    H223788   5.235   5.635   2.802
 7943TIP3   OH223789   5.660   5.767   2.869
 7943TIP3    H123790   5.723   5.723   2.926
 7943TIP3    H223791   5.667   5.859   2.891
 7944TIP3   OH223792   5.526   7.166   2.356
 7944TIP3    H123793   5.612   7.192   2.323
 7944TIP3    H223794   5.501   7.092   2.302
 7945TIP3   OH223795   6.218   7.291   2.451
 7945TIP3    H123796   6.213   7.196   2.443
 7945TIP3    H223797   6.178   7.324   2.370
 7946TIP3   OH223798   5.466   5.821   4.232
 7946TIP3    H123799   5.430   5.757   4.294
 7946TIP3    H223800   5.558   5.828   4.256
 7947TIP3   OH223801   5.715   5.825   4.352
 7947TIP3    H123802   5.795   5.811   4.301
 7947TIP3    H223803   5.716   5.754   4.417
 7948TIP3   OH223804   4.834   7.012   2.419
 7948TIP3    H123805   4.834   7.017   2.515
 7948TIP3    H223806   4.915   6.966   2.398
 7949TIP3   OH223807   6.535   5.924   4.138
 7949TIP3    H123808   6.550   5.898   4.229
 7949TIP3    H223809   6.621   5.915   4.096
 7950TIP3   OH223810   1.234   0.023   3.645
 7950TIP3    H123811   1.155   0.029   3.591
 7950TIP3    H223812   1.236   0.105   3.694
 7951TIP3   OH223813   7.028   6.696   3.158
 7951TIP3    H123814   7.055   6.622   3.213
 7951TIP3    H223815   7.081   6.770   3.189
 7952TIP3   OH223816   6.706   6.321   2.632
 7952TIP3    H123817   6.667   6.405   2.657
 7952TIP3    H223818   6.634   6.271   2.595
 7953TIP3   OH223819   6.760   6.608   2.848
 7953TIP3    H123820   6.807   6.529   2.875
 7953TIP3    H223821   6.829   6.673   2.832
 7954TIP3   OH223822   7.279   6.199   2.816
 7954TIP3    H123823   7.263   6.270   2.755
 7954TIP3    H223824   7.226   6.126   2.783
 7955TIP3   OH223825   6.912   6.398   2.938
 7955TIP3    H123826   6.995   6.384   2.983
 7955TIP3    H223827   6.922   6.352   2.855
 7956TIP3   OH223828   7.348   6.603   2.735
 7956TIP3    H123829   7.438   6.582   2.711
 7956TIP3    H223830   7.297   6.527   2.708
 7957TIP3   OH223831   7.259   6.191   3.266
 7957TIP3    H123832   7.208   6.231   3.196
 7957TIP3    H223833   7.206   6.204   3.345
 7958TIP3   OH223834   7.155   6.304   3.037
 7958TIP3    H123835   7.211   6.379   3.057
 7958TIP3    H223836   7.200   6.260   2.965
 7959TIP3   OH223837   6.590   6.868   2.382
 7959TIP3    H123838   6.525   6.888   2.315
 7959TIP3    H223839   6.605   6.951   2.428
 7960TIP3   OH223840   7.580   5.872   2.981
 7960TIP3    H123841   7.578   5.783   3.017
 7960TIP3    H223842   7.510   5.918   3.028
 7961TIP3   OH223843   7.130   6.751   2.632
 7961TIP3    H123844   7.087   6.702   2.562
 7961TIP3    H223845   7.212   6.704   2.647
 7962TIP3   OH223846   7.282   6.745   2.965
 7962TIP3    H123847   7.303   6.699   2.883
 7962TIP3    H223848   7.293   6.838   2.944
 7963TIP3   OH223849   7.168   6.758   3.425
 7963TIP3    H123850   7.171   6.852   3.410
 7963TIP3    H223851   7.081   6.743   3.462
 7964TIP3   OH223852   6.993   6.593   2.446
 7964TIP3    H123853   6.922   6.621   2.388
 7964TIP3    H223854   6.978   6.500   2.460
 7965TIP3   OH223855   6.804   6.956   3.305
 7965TIP3    H123856   6.734   6.932   3.244
 7965TIP3    H223857   6.836   6.872   3.338
 7966TIP3   OH223858   6.647   7.182   2.992
 7966TIP3    H123859   6.735   7.189   3.031
 7966TIP3    H223860   6.605   7.266   3.014
 7967TIP3   OH223861   6.896   7.209   3.259
 7967TIP3    H123862   6.957   7.216   3.332
 7967TIP3    H223863   6.863   7.120   3.264
 7968TIP3   OH223864   7.367   5.985   3.119
 7968TIP3    H123865   7.282   5.953   3.089
 7968TIP3    H223866   7.347   6.064   3.168
 7969TIP3   OH223867   0.085   6.129   3.338
 7969TIP3    H123868   0.085   6.218   3.373
 7969TIP3    H223869   0.003   6.091   3.369
 7970TIP3   OH223870   7.507   6.037   2.059
 7970TIP3    H123871   7.587   6.016   2.107
 7970TIP3    H223872   7.461   5.954   2.052
 7971TIP3   OH223873   7.316   6.515   3.111
 7971TIP3    H123874   7.265   6.517   3.192
 7971TIP3    H223875   7.297   6.598   3.069
 7972TIP3   OH223876   7.204   6.392   2.637
 7972TIP3    H123877   7.114   6.368   2.659
 7972TIP3    H223878   7.216   6.360   2.548
 7973TIP3   OH223879   7.147   6.500   3.327
 7973TIP3    H123880   7.158   6.571   3.390
 7973TIP3    H223881   7.131   6.422   3.381
 7974TIP3   OH223882   7.169   5.991   2.047
 7974TIP3    H123883   7.169   6.007   2.141
 7974TIP3    H223884   7.098   6.045   2.013
 7975TIP3   OH223885   6.746   6.052   2.923
 7975TIP3    H123886   6.812   6.089   2.982
 7975TIP3    H223887   6.793   6.034   2.842
 7976TIP3   OH223888   6.667   6.032   2.435
 7976TIP3    H123889   6.718   6.070   2.363
 7976TIP3    H223890   6.603   6.100   2.457
 7977TIP3   OH223891   7.554   6.195   2.765
 7977TIP3    H123892   7.461   6.188   2.787
 7977TIP3    H223893   7.593   6.233   2.844
 7978TIP3   OH223894   6.967   6.268   2.701
 7978TIP3    H123895   6.877   6.273   2.668
 7978TIP3    H223896   6.992   6.177   2.686
 7979TIP3   OH223897   7.229   6.281   2.386
 7979TIP3    H123898   7.314   6.286   2.342
 7979TIP3    H223899   7.165   6.296   2.316
 7980TIP3   OH223900   7.063   6.289   2.173
 7980TIP3    H123901   6.981   6.241   2.163
 7980TIP3    H223902   7.090   6.308   2.084
 7981TIP3   OH223903   7.248   7.063   3.633
 7981TIP3    H123904   7.245   7.159   3.630
 7981TIP3    H223905   7.172   7.038   3.686
 7982TIP3   OH223906   7.108   6.018   2.691
 7982TIP3    H123907   7.077   5.943   2.742
 7982TIP3    H223908   7.148   5.979   2.613
 7983TIP3   OH223909   7.569   6.408   3.091
 7983TIP3    H123910   7.481   6.447   3.089
 7983TIP3    H223911   7.627   6.482   3.106
 7984TIP3   OH223912   6.981   6.765   2.861
 7984TIP3    H123913   7.032   6.773   2.780
 7984TIP3    H223914   7.046   6.749   2.929
 7985TIP3   OH223915   6.895   6.739   3.473
 7985TIP3    H123916   6.894   6.713   3.565
 7985TIP3    H223917   6.816   6.699   3.436
 7986TIP3   OH223918   6.687   6.449   2.201
 7986TIP3    H123919   6.731   6.532   2.218
 7986TIP3    H223920   6.609   6.452   2.257
 7987TIP3   OH223921   7.101   6.266   3.479
 7987TIP3    H123922   7.007   6.276   3.490
 7987TIP3    H223923   7.130   6.218   3.556
 7988TIP3   OH223924   6.788   6.701   2.281
 7988TIP3    H123925   6.721   6.748   2.331
 7988TIP3    H223926   6.850   6.768   2.253
 7989TIP3   OH223927   7.656   6.041   2.562
 7989TIP3    H123928   7.629   6.104   2.629
 7989TIP3    H223929   7.746   6.018   2.585
 7990TIP3   OH223930   7.169   6.003   2.327
 7990TIP3    H123931   7.164   6.094   2.358
 7990TIP3    H223932   7.260   5.978   2.340
 7991TIP3   OH223933   6.756   6.182   2.220
 7991TIP3    H123934   6.740   6.276   2.220
 7991TIP3    H223935   6.719   6.151   2.137
 7992TIP3   OH223936   7.109   5.899   3.080
 7992TIP3    H123937   7.082   5.863   2.995
 7992TIP3    H223938   7.104   5.824   3.140
 7993TIP3   OH223939   6.623   7.124   2.484
 7993TIP3    H123940   6.589   7.163   2.564
 7993TIP3    H223941   6.685   7.188   2.449
 7994TIP3   OH223942   7.025   7.011   3.776
 7994TIP3    H123943   7.014   6.916   3.764
 7994TIP3    H223944   6.936   7.046   3.772
 7995TIP3   OH223945   7.112   6.743   3.743
 7995TIP3    H123946   7.196   6.704   3.718
 7995TIP3    H223947   7.129   6.782   3.829
 7996TIP3   OH223948   7.427   6.704   3.363
 7996TIP3    H123949   7.334   6.717   3.379
 7996TIP3    H223950   7.444   6.746   3.278
 7997TIP3   OH223951   7.485   6.478   3.510
 7997TIP3    H123952   7.493   6.401   3.455
 7997TIP3    H223953   7.475   6.551   3.448
 7998TIP3   OH223954   7.511   6.273   3.323
 7998TIP3    H123955   7.545   6.308   3.241
 7998TIP3    H223956   7.422   6.245   3.303
 7999TIP3   OH223957   7.365   6.590   3.732
 7999TIP3    H123958   7.317   6.517   3.769
 7999TIP3    H223959   7.402   6.556   3.650
 8000TIP3   OH223960   7.635   6.045   3.410
 8000TIP3    H123961   7.587   6.124   3.384
 8000TIP3    H223962   7.575   5.973   3.391
 8001TIP3   OH223963   7.769   6.443   3.522
 8001TIP3    H123964   7.809   6.470   3.605
 8001TIP3    H223965   7.675   6.449   3.537
 8002TIP3   OH223966   7.244   6.348   3.803
 8002TIP3    H123967   7.253   6.260   3.766
 8002TIP3    H223968   7.277   6.340   3.892
 8003TIP3   OH223969   7.727   6.035   3.665
 8003TIP3    H123970   7.792   5.966   3.653
 8003TIP3    H223971   7.686   6.044   3.579
 8004TIP3   OH223972   7.803   6.254   3.807
 8004TIP3    H123973   7.782   6.181   3.749
 8004TIP3    H223974   7.732   6.317   3.794
 8005TIP3   OH223975   6.530   6.851   2.090
 8005TIP3    H123976   6.617   6.835   2.126
 8005TIP3    H223977   6.506   6.768   2.049
 8006TIP3   OH223978   1.174   0.093   2.613
 8006TIP3    H123979   1.126   0.042   2.548
 8006TIP3    H223980   1.241   0.033   2.645
 8007TIP3   OH223981   6.574   7.289   2.735
 8007TIP3    H123982   6.595   7.219   2.798
 8007TIP3    H223983   6.573   7.369   2.788
 8008TIP3   OH223984   6.761   6.719   3.098
 8008TIP3    H123985   6.746   6.682   3.011
 8008TIP3    H223986   6.856   6.721   3.107
 8009TIP3   OH223987   6.982   6.408   3.748
 8009TIP3    H123988   7.076   6.402   3.760
 8009TIP3    H223989   6.947   6.327   3.785
 8010TIP3   OH223990   6.946   6.122   3.103
 8010TIP3    H123991   7.000   6.043   3.108
 8010TIP3    H223992   7.009   6.192   3.086
 8011TIP3   OH223993   6.737   6.383   3.157
 8011TIP3    H123994   6.787   6.375   3.076
 8011TIP3    H223995   6.773   6.461   3.200
 8012TIP3   OH223996   6.727   5.886   2.658
 8012TIP3    H123997   6.641   5.879   2.700
 8012TIP3    H223998   6.713   5.945   2.584
 8013TIP3   OH223999   6.943   5.954   3.482
 8013TIP3    H124000   6.895   5.948   3.564
 8013TIP3    H224001   6.886   6.003   3.423
 8014TIP3   OH224002   1.716   0.119   3.621
 8014TIP3    H124003   1.637   0.073   3.593
 8014TIP3    H224004   1.739   0.077   3.705
 8015TIP3   OH224005   7.031   5.794   2.836
 8015TIP3    H124006   6.942   5.760   2.844
 8015TIP3    H224007   7.086   5.715   2.828
 8016TIP3   OH224008   6.844   5.692   2.486
 8016TIP3    H124009   6.875   5.743   2.411
 8016TIP3    H224010   6.810   5.758   2.547
 8017TIP3   OH224011   7.505   5.840   2.716
 8017TIP3    H124012   7.538   5.913   2.663
 8017TIP3    H224013   7.535   5.860   2.805
 8018TIP3   OH224014   6.959   5.829   2.256
 8018TIP3    H124015   7.003   5.770   2.195
 8018TIP3    H224016   7.027   5.889   2.286
 8019TIP3   OH224017   7.434   5.976   2.384
 8019TIP3    H124018   7.493   5.901   2.392
 8019TIP3    H224019   7.484   6.050   2.421
 8020TIP3   OH224020   7.255   6.077   3.716
 8020TIP3    H124021   7.219   6.012   3.776
 8020TIP3    H224022   7.347   6.083   3.741
 8021TIP3   OH224023   7.502   6.080   3.841
 8021TIP3    H124024   7.583   6.059   3.793
 8021TIP3    H224025   7.495   6.011   3.907
 8022TIP3   OH224026   1.006   7.122   4.517
 8022TIP3    H124027   1.033   7.200   4.566
 8022TIP3    H224028   1.055   7.127   4.435
 8023TIP3   OH224029   3.704  -0.026   4.664
 8023TIP3    H124030   3.648   0.051   4.662
 8023TIP3    H224031   3.752  -0.019   4.746
 8024TIP3   OH224032   0.617   7.035   4.396
 8024TIP3    H124033   0.664   7.016   4.478
 8024TIP3    H224034   0.661   7.111   4.360
 8025TIP3   OH224035   0.767   7.044   4.627
 8025TIP3    H124036   0.745   7.131   4.662
 8025TIP3    H224037   0.853   7.056   4.585
 8026TIP3   OH224038   0.711   6.632   3.773
 8026TIP3    H124039   0.629   6.641   3.822
 8026TIP3    H224040   0.715   6.712   3.720
 8027TIP3   OH224041   3.538   0.103   5.059
 8027TIP3    H124042   3.457   0.084   5.011
 8027TIP3    H224043   3.530   0.053   5.140
 8028TIP3   OH224044   7.443   7.122   5.180
 8028TIP3    H124045   7.359   7.114   5.226
 8028TIP3    H224046   7.445   7.212   5.147
 8029TIP3   OH224047   0.841   7.211   4.925
 8029TIP3    H124048   0.760   7.232   4.972
 8029TIP3    H224049   0.824   7.241   4.835
 8030TIP3   OH224050   0.705   7.114   3.484
 8030TIP3    H124051   0.630   7.163   3.450
 8030TIP3    H224052   0.669   7.058   3.552
 8031TIP3   OH224053   0.474   6.867   3.556
 8031TIP3    H124054   0.566   6.856   3.580
 8031TIP3    H224055   0.437   6.779   3.561
 8032TIP3   OH224056   0.592   7.109   3.870
 8032TIP3    H124057   0.594   7.018   3.901
 8032TIP3    H224058   0.676   7.145   3.897
 8033TIP3   OH224059   0.766   7.272   4.375
 8033TIP3    H124060   0.828   7.338   4.344
 8033TIP3    H224061   0.765   7.282   4.470
 8034TIP3   OH224062   1.283   7.073   5.198
 8034TIP3    H124063   1.343   7.012   5.155
 8034TIP3    H224064   1.230   7.108   5.127
 8035TIP3   OH224065   0.698   6.870   3.974
 8035TIP3    H124066   0.735   6.866   4.062
 8035TIP3    H224067   0.628   6.805   3.975
 8036TIP3   OH224068   1.101   7.163   5.011
 8036TIP3    H124069   1.015   7.204   5.006
 8036TIP3    H224070   1.092   7.083   4.959
 8037TIP3   OH224071   0.754   6.842   3.589
 8037TIP3    H124072   0.788   6.776   3.528
 8037TIP3    H224073   0.831   6.872   3.638
 8038TIP3   OH224074   1.055   6.924   4.892
 8038TIP3    H124075   0.964   6.903   4.869
 8038TIP3    H224076   1.100   6.840   4.892
 8039TIP3   OH224077   0.747   6.768   4.408
 8039TIP3    H124078   0.794   6.817   4.341
 8039TIP3    H224079   0.661   6.811   4.413
 8040TIP3   OH224080   0.873   6.865   4.189
 8040TIP3    H124081   0.939   6.802   4.159
 8040TIP3    H224082   0.910   6.951   4.167
 8041TIP3   OH224083   0.497   6.690   3.940
 8041TIP3    H124084   0.408   6.716   3.918
 8041TIP3    H224085   0.486   6.612   3.994
 8042TIP3   OH224086   0.808   7.027   5.340
 8042TIP3    H124087   0.798   6.974   5.419
 8042TIP3    H224088   0.871   6.979   5.286
 8043TIP3   OH224089   5.400   0.014   4.013
 8043TIP3    H124090   5.424   0.094   4.059
 8043TIP3    H224091   5.432   0.027   3.924
 8044TIP3   OH224092   4.851   0.282   4.195
 8044TIP3    H124093   4.881   0.248   4.111
 8044TIP3    H224094   4.771   0.329   4.174
 8045TIP3   OH224095   1.578   7.195   4.013
 8045TIP3    H124096   1.543   7.153   3.935
 8045TIP3    H224097   1.570   7.128   4.081
 8046TIP3   OH224098   2.262   7.304   3.619
 8046TIP3    H124099   2.326   7.288   3.689
 8046TIP3    H224100   2.316   7.319   3.541
 8047TIP3   OH224101   3.752   0.027   4.134
 8047TIP3    H124102   3.810  -0.005   4.202
 8047TIP3    H224103   3.786  -0.012   4.053
 8048TIP3   OH224104   5.495   0.224   4.154
 8048TIP3    H124105   5.492   0.307   4.108
 8048TIP3    H224106   5.446   0.239   4.235
 8049TIP3   OH224107   1.555   7.202   4.445
 8049TIP3    H124108   1.492   7.241   4.384
 8049TIP3    H224109   1.509   7.199   4.528
 8050TIP3   OH224110   2.445   7.288   3.819
 8050TIP3    H124111   2.432   7.260   3.909
 8050TIP3    H224112   2.504   7.363   3.825
 8051TIP3   OH224113   3.973  -0.021   4.290
 8051TIP3    H124114   3.974   0.042   4.363
 8051TIP3    H224115   4.020   0.024   4.220
 8052TIP3   OH224116   2.611   7.283   4.198
 8052TIP3    H124117   2.526   7.327   4.187
 8052TIP3    H224118   2.662   7.310   4.122
 8053TIP3   OH224119   1.876   6.925   4.158
 8053TIP3    H124120   1.873   6.834   4.187
 8053TIP3    H224121   1.800   6.966   4.199
 8054TIP3   OH224122   2.499   6.883   3.255
 8054TIP3    H124123   2.421   6.897   3.308
 8054TIP3    H224124   2.516   6.967   3.214
 8055TIP3   OH224125   5.300   0.414   4.568
 8055TIP3    H124126   5.226   0.382   4.515
 8055TIP3    H224127   5.300   0.358   4.645
 8056TIP3   OH224128   1.637   7.011   4.270
 8056TIP3    H124129   1.548   6.976   4.260
 8056TIP3    H224130   1.627   7.084   4.331
 8057TIP3   OH224131   2.175   7.122   4.498
 8057TIP3    H124132   2.251   7.110   4.554
 8057TIP3    H224133   2.101   7.092   4.551
 8058TIP3   OH224134   5.010   0.119   4.335
 8058TIP3    H124135   5.006   0.146   4.427
 8058TIP3    H224136   4.952   0.180   4.290
 8059TIP3   OH224137   1.804   7.000   3.290
 8059TIP3    H124138   1.763   7.007   3.376
 8059TIP3    H224139   1.751   6.935   3.243
 8060TIP3   OH224140   3.931   0.131   3.760
 8060TIP3    H124141   3.853   0.158   3.711
 8060TIP3    H224142   3.984   0.083   3.696
 8061TIP3   OH224143   4.724   0.144   3.763
 8061TIP3    H124144   4.711   0.214   3.698
 8061TIP3    H224145   4.757   0.070   3.712
 8062TIP3   OH224146   3.966   0.117   4.521
 8062TIP3    H124147   4.052   0.154   4.543
 8062TIP3    H224148   3.958   0.039   4.575
 8063TIP3   OH224149   1.452   7.058   3.229
 8063TIP3    H124150   1.449   7.062   3.325
 8063TIP3    H224151   1.366   7.090   3.202
 8064TIP3   OH224152   1.030   7.071   4.101
 8064TIP3    H124153   1.077   7.106   4.177
 8064TIP3    H224154   1.097   7.027   4.049
 8065TIP3   OH224155   1.010   7.032   3.554
 8065TIP3    H124156   1.075   6.973   3.517
 8065TIP3    H224157   1.050   7.064   3.636
 8066TIP3   OH224158   1.829   7.176   3.896
 8066TIP3    H124159   1.757   7.197   3.955
 8066TIP3    H224160   1.907   7.181   3.951
 8067TIP3   OH224161   1.128   7.153   3.772
 8067TIP3    H124162   1.137   7.240   3.810
 8067TIP3    H224163   1.211   7.109   3.791
 8068TIP3   OH224164   1.462   7.290   3.605
 8068TIP3    H124165   1.552   7.284   3.637
 8068TIP3    H224166   1.472   7.312   3.512
 8069TIP3   OH224167   2.276   7.277   4.106
 8069TIP3    H124168   2.247   7.304   4.193
 8069TIP3    H224169   2.209   7.216   4.076
 8070TIP3   OH224170   4.615   0.221   4.031
 8070TIP3    H124171   4.646   0.201   3.942
 8070TIP3    H224172   4.627   0.140   4.080
 8071TIP3   OH224173   1.380   7.034   3.843
 8071TIP3    H124174   1.348   6.965   3.901
 8071TIP3    H224175   1.429   6.987   3.775
 8072TIP3   OH224176   4.444   0.121   4.281
 8072TIP3    H124177   4.363   0.163   4.310
 8072TIP3    H224178   4.507   0.142   4.349
 8073TIP3   OH224179   2.041   7.131   3.274
 8073TIP3    H124180   1.950   7.102   3.276
 8073TIP3    H224181   2.037   7.226   3.279
 8074TIP3   OH224182   4.731   0.039   3.342
 8074TIP3    H124183   4.817  -0.005   3.346
 8074TIP3    H224184   4.752   0.132   3.335
 8075TIP3   OH224185   5.144   0.186   3.237
 8075TIP3    H124186   5.131   0.115   3.174
 8075TIP3    H224187   5.234   0.215   3.223
 8076TIP3   OH224188   1.384   7.230   4.652
 8076TIP3    H124189   1.291   7.211   4.657
 8076TIP3    H224190   1.417   7.212   4.740
 8077TIP3   OH224191   2.163   7.349   4.353
 8077TIP3    H124192   2.247   7.389   4.374
 8077TIP3    H224193   2.160   7.268   4.404
 8078TIP3   OH224194   2.099   7.092   3.542
 8078TIP3    H124195   2.079   7.112   3.451
 8078TIP3    H224196   2.145   7.170   3.574
 8079TIP3   OH224197   1.730   7.256   3.655
 8079TIP3    H124198   1.805   7.296   3.611
 8079TIP3    H224199   1.760   7.243   3.746
 8080TIP3   OH224200   4.601   0.160   4.505
 8080TIP3    H124201   4.645   0.244   4.512
 8080TIP3    H224202   4.665   0.102   4.464
 8081TIP3   OH224203   1.911   6.988   3.713
 8081TIP3    H124204   1.893   7.061   3.772
 8081TIP3    H224205   1.980   7.021   3.655
 8082TIP3   OH224206   1.421   7.030   3.512
 8082TIP3    H124207   1.417   7.116   3.553
 8082TIP3    H224208   1.514   7.006   3.516
 8083TIP3   OH224209   5.300   0.138   4.386
 8083TIP3    H124210   5.214   0.165   4.417
 8083TIP3    H224211   5.283   0.066   4.325
 8084TIP3   OH224212   0.990   7.239   3.336
 8084TIP3    H124213   1.052   7.307   3.363
 8084TIP3    H224214   1.036   7.191   3.267
 8085TIP3   OH224215   1.376   6.928   4.254
 8085TIP3    H124216   1.345   6.893   4.170
 8085TIP3    H224217   1.370   6.853   4.314
 8086TIP3   OH224218   4.406   0.072   4.726
 8086TIP3    H124219   4.440   0.009   4.663
 8086TIP3    H224220   4.330   0.112   4.683
 8087TIP3   OH224221   1.815   7.269   4.485
 8087TIP3    H124222   1.840   7.327   4.413
 8087TIP3    H224223   1.721   7.255   4.473
 8088TIP3   OH224224   4.949   0.583   4.646
 8088TIP3    H124225   4.981   0.513   4.702
 8088TIP3    H224226   5.028   0.621   4.608
 8089TIP3   OH224227   4.253   0.233   4.943
 8089TIP3    H124228   4.183   0.275   4.992
 8089TIP3    H224229   4.219   0.146   4.921
 8090TIP3   OH224230   1.921   7.038   4.573
 8090TIP3    H124231   1.887   7.121   4.540
 8090TIP3    H224232   1.850   6.976   4.560
 8091TIP3   OH224233   4.682   0.147   4.783
 8091TIP3    H124234   4.619   0.137   4.854
 8091TIP3    H224235   4.629   0.144   4.703
 8092TIP3   OH224236   4.905   0.086   4.618
 8092TIP3    H124237   4.830   0.104   4.675
 8092TIP3    H224238   4.979   0.081   4.678
 8093TIP3   OH224239   5.118   0.088   4.818
 8093TIP3    H124240   5.138  -0.005   4.810
 8093TIP3    H224241   5.104   0.101   4.912
 8094TIP3   OH224242   1.511   7.349   4.986
 8094TIP3    H124243   1.535   7.262   4.954
 8094TIP3    H224244   1.549   7.353   5.074
 8095TIP3   OH224245   1.975   7.055   4.839
 8095TIP3    H124246   2.051   6.997   4.840
 8095TIP3    H224247   1.945   7.054   4.747
 8096TIP3   OH224248   2.043   7.264   4.999
 8096TIP3    H124249   2.018   7.199   4.933
 8096TIP3    H224250   1.980   7.335   4.987
 8097TIP3   OH224251   5.036   0.042   3.035
 8097TIP3    H124252   5.088   0.004   2.965
 8097TIP3    H224253   4.975  -0.028   3.060
 8098TIP3   OH224254   2.286   7.163   3.009
 8098TIP3    H124255   2.371   7.131   3.040
 8098TIP3    H224256   2.226   7.090   3.023
 8099TIP3   OH224257   2.394   7.338   3.373
 8099TIP3    H124258   2.442   7.258   3.393
 8099TIP3    H224259   2.462   7.403   3.357
 8100TIP3   OH224260   5.193   0.165   3.848
 8100TIP3    H124261   5.249   0.236   3.817
 8100TIP3    H224262   5.180   0.183   3.941
 8101TIP3   OH224263   1.261   7.342   4.885
 8101TIP3    H124264   1.347   7.352   4.927
 8101TIP3    H224265   1.215   7.280   4.941
 8102TIP3   OH224266   3.065   7.344   4.683
 8102TIP3    H124267   3.129   7.277   4.661
 8102TIP3    H224268   3.041   7.383   4.598
 8103TIP3   OH224269   2.502   7.112   3.472
 8103TIP3    H124270   2.548   7.101   3.556
 8103TIP3    H224271   2.437   7.041   3.471
 8104TIP3   OH224272   1.196   7.126   4.315
 8104TIP3    H124273   1.252   7.049   4.307
 8104TIP3    H224274   1.257   7.200   4.318
 8105TIP3   OH224275   5.561   0.064   4.443
 8105TIP3    H124276   5.482   0.118   4.446
 8105TIP3    H224277   5.532  -0.020   4.409
 8106TIP3   OH224278   2.541   7.098   3.081
 8106TIP3    H124279   2.579   7.032   3.024
 8106TIP3    H224280   2.609   7.164   3.092
 8107TIP3   OH224281   0.928   6.885   3.814
 8107TIP3    H124282   0.863   6.846   3.872
 8107TIP3    H224283   0.918   6.979   3.827
 8108TIP3   OH224284   1.196   6.985   4.660
 8108TIP3    H124285   1.151   6.967   4.743
 8108TIP3    H224286   1.128   7.020   4.603
 8109TIP3   OH224287   2.830   7.189   4.374
 8109TIP3    H124288   2.744   7.185   4.332
 8109TIP3    H224289   2.863   7.099   4.369
 8110TIP3   OH224290   2.061   7.117   4.025
 8110TIP3    H124291   2.019   7.041   4.065
 8110TIP3    H224292   2.125   7.080   3.964
 8111TIP3   OH224293   2.538   7.037   3.933
 8111TIP3    H124294   2.579   7.079   3.857
 8111TIP3    H224295   2.444   7.045   3.917
 8112TIP3   OH224296   2.665   7.084   3.693
 8112TIP3    H124297   2.734   7.031   3.654
 8112TIP3    H224298   2.700   7.173   3.692
 8113TIP3   OH224299   1.284   6.833   4.008
 8113TIP3    H124300   1.197   6.796   4.022
 8113TIP3    H224301   1.342   6.757   4.007
 8114TIP3   OH224302   1.076   6.710   3.661
 8114TIP3    H124303   1.120   6.763   3.594
 8114TIP3    H224304   1.035   6.775   3.718
 8115TIP3   OH224305   1.734   6.881   3.913
 8115TIP3    H124306   1.789   6.914   3.842
 8115TIP3    H224307   1.783   6.901   3.993
 8116TIP3   OH224308   2.262   7.011   3.869
 8116TIP3    H124309   2.286   6.975   3.784
 8116TIP3    H224310   2.260   6.934   3.927
 8117TIP3   OH224311   2.301   6.931   3.444
 8117TIP3    H124312   2.225   6.982   3.471
 8117TIP3    H224313   2.290   6.846   3.487
 8118TIP3   OH224314   1.215   6.858   3.461
 8118TIP3    H124315   1.256   6.784   3.416
 8118TIP3    H224316   1.288   6.917   3.479
 8119TIP3   OH224317   1.690   7.017   3.540
 8119TIP3    H124318   1.755   6.968   3.591
 8119TIP3    H224319   1.701   7.108   3.567
 8120TIP3   OH224320   1.520   7.087   4.888
 8120TIP3    H124321   1.482   7.024   4.949
 8120TIP3    H224322   1.611   7.095   4.914
 8121TIP3   OH224323   1.759   7.116   5.020
 8121TIP3    H124324   1.838   7.093   4.971
 8121TIP3    H224325   1.751   7.048   5.087
 8122TIP3   OH224326   2.588   7.177   4.808
 8122TIP3    H124327   2.606   7.152   4.898
 8122TIP3    H224328   2.674   7.179   4.765
 8123TIP3   OH224329   7.212   0.279   3.480
 8123TIP3    H124330   7.235   0.357   3.529
 8123TIP3    H224331   7.253   0.291   3.394
 8124TIP3   OH224332   6.695   0.522   3.563
 8124TIP3    H124333   6.713   0.495   3.653
 8124TIP3    H224334   6.600   0.511   3.553
 8125TIP3   OH224335   5.967   0.069   3.494
 8125TIP3    H124336   5.912   0.126   3.440
 8125TIP3    H224337   5.943  -0.019   3.467
 8126TIP3   OH224338   6.660   0.213   3.106
 8126TIP3    H124339   6.670   0.214   3.201
 8126TIP3    H224340   6.746   0.187   3.073
 8127TIP3   OH224341   5.582   0.320   3.631
 8127TIP3    H124342   5.664   0.290   3.671
 8127TIP3    H224343   5.553   0.246   3.578
 8128TIP3   OH224344   7.310   0.491   3.627
 8128TIP3    H124345   7.238   0.553   3.620
 8128TIP3    H224346   7.369   0.531   3.692
 8129TIP3   OH224347   5.936   0.098   3.945
 8129TIP3    H124348   5.854   0.069   3.905
 8129TIP3    H224349   5.912   0.120   4.035
 8130TIP3   OH224350   6.885   0.172   3.279
 8130TIP3    H124351   6.813   0.211   3.328
 8130TIP3    H224352   6.961   0.225   3.303
 8131TIP3   OH224353   5.821   0.239   3.728
 8131TIP3    H124354   5.821   0.285   3.812
 8131TIP3    H224355   5.905   0.193   3.726
 8132TIP3   OH224356   6.999   0.172   3.659
 8132TIP3    H124357   6.911   0.205   3.643
 8132TIP3    H224358   7.053   0.214   3.592
 8133TIP3   OH224359   3.677   7.186   3.655
 8133TIP3    H124360   3.667   7.094   3.679
 8133TIP3    H224361   3.600   7.229   3.693
 8134TIP3   OH224362   4.304   7.149   2.745
 8134TIP3    H124363   4.225   7.164   2.798
 8134TIP3    H224364   4.319   7.233   2.702
 8135TIP3   OH224365   7.169   0.656   4.026
 8135TIP3    H124366   7.092   0.659   3.969
 8135TIP3    H224367   7.144   0.596   4.096
 8136TIP3   OH224368   3.443   7.268   3.774
 8136TIP3    H124369   3.356   7.245   3.741
 8136TIP3    H224370   3.427   7.342   3.832
 8137TIP3   OH224371   6.572   0.034   3.985
 8137TIP3    H124372   6.648   0.016   4.040
 8137TIP3    H224373   6.497   0.000   4.034
 8138TIP3   OH224374   6.740   0.430   3.833
 8138TIP3    H124375   6.743   0.416   3.928
 8138TIP3    H224376   6.827   0.465   3.812
 8139TIP3   OH224377   3.609   7.259   2.776
 8139TIP3    H124378   3.567   7.268   2.861
 8139TIP3    H224379   3.559   7.191   2.731
 8140TIP3   OH224380   5.754   0.416   3.227
 8140TIP3    H124381   5.787   0.404   3.315
 8140TIP3    H224382   5.812   0.365   3.171
 8141TIP3   OH224383   6.505   0.457   3.228
 8141TIP3    H124384   6.480   0.523   3.163
 8141TIP3    H224385   6.549   0.389   3.178
 8142TIP3   OH224386   5.781   0.364   3.967
 8142TIP3    H124387   5.848   0.419   4.008
 8142TIP3    H224388   5.765   0.295   4.031
 8143TIP3   OH224389   3.267   7.310   2.725
 8143TIP3    H124390   3.260   7.312   2.820
 8143TIP3    H224391   3.184   7.347   2.694
 8144TIP3   OH224392   2.804   7.316   3.669
 8144TIP3    H124393   2.871   7.349   3.727
 8144TIP3    H224394   2.827   7.350   3.583
 8145TIP3   OH224395   2.754   7.295   3.084
 8145TIP3    H124396   2.810   7.290   3.006
 8145TIP3    H224397   2.757   7.387   3.110
 8146TIP3   OH224398   6.219   0.081   3.383
 8146TIP3    H124399   6.140   0.076   3.438
 8146TIP3    H224400   6.291   0.085   3.446
 8147TIP3   OH224401   5.504   0.126   3.455
 8147TIP3    H124402   5.469   0.202   3.408
 8147TIP3    H224403   5.584   0.104   3.407
 8148TIP3   OH224404   5.862   0.192   3.082
 8148TIP3    H124405   5.957   0.189   3.092
 8148TIP3    H224406   5.848   0.220   2.992
 8149TIP3   OH224407   6.671   0.172   3.619
 8149TIP3    H124408   6.629   0.209   3.696
 8149TIP3    H224409   6.608   0.108   3.586
 8150TIP3   OH224410   6.433   0.450   3.531
 8150TIP3    H124411   6.384   0.431   3.451
 8150TIP3    H224412   6.381   0.411   3.601
 8151TIP3   OH224413   3.251   7.216   3.358
 8151TIP3    H124414   3.185   7.172   3.411
 8151TIP3    H224415   3.210   7.227   3.272
 8152TIP3   OH224416   6.247   0.390   3.742
 8152TIP3    H124417   6.170   0.434   3.777
 8152TIP3    H224418   6.313   0.398   3.811
 8153TIP3   OH224419   6.441   0.045   2.770
 8153TIP3    H124420   6.353   0.008   2.767
 8153TIP3    H224421   6.428   0.139   2.761
 8154TIP3   OH224422   6.552   0.323   2.840
 8154TIP3    H124423   6.636   0.278   2.846
 8154TIP3    H224424   6.568   0.408   2.881
 8155TIP3   OH224425   7.044   0.416   2.672
 8155TIP3    H124426   6.977   0.402   2.605
 8155TIP3    H224427   7.019   0.499   2.713
 8156TIP3   OH224428   5.763   0.150   4.144
 8156TIP3    H124429   5.669   0.163   4.157
 8156TIP3    H224430   5.796   0.121   4.229
 8157TIP3   OH224431   6.529   0.261   3.841
 8157TIP3    H124432   6.607   0.316   3.847
 8157TIP3    H224433   6.549   0.184   3.895
 8158TIP3   OH224434   6.499  -0.002   3.033
 8158TIP3    H124435   6.474   0.015   2.943
 8158TIP3    H224436   6.539   0.079   3.063
 8159TIP3   OH224437   6.134   0.169   3.140
 8159TIP3    H124438   6.216   0.201   3.102
 8159TIP3    H224439   6.157   0.146   3.230
 8160TIP3   OH224440   6.374   0.424   3.992
 8160TIP3    H124441   6.422   0.506   4.003
 8160TIP3    H224442   6.437   0.364   3.954
 8161TIP3   OH224443   3.709   7.248   3.202
 8161TIP3    H124444   3.689   7.321   3.261
 8161TIP3    H224445   3.779   7.280   3.147
 8162TIP3   OH224446   3.221   7.281   3.004
 8162TIP3    H124447   3.215   7.369   3.041
 8162TIP3    H224448   3.313   7.256   3.014
 8163TIP3   OH224449   7.061   0.377   3.927
 8163TIP3    H124450   6.997   0.431   3.973
 8163TIP3    H224451   7.041   0.389   3.835
 8164TIP3   OH224452   5.394   0.082   2.816
 8164TIP3    H124453   5.394   0.176   2.835
 8164TIP3    H224454   5.304   0.054   2.831
 8165TIP3   OH224455   3.172   7.200   3.749
 8165TIP3    H124456   3.140   7.169   3.665
 8165TIP3    H224457   3.166   7.123   3.807
 8166TIP3   OH224458   6.205   0.340   4.230
 8166TIP3    H124459   6.232   0.257   4.189
 8166TIP3    H224460   6.143   0.378   4.168
 8167TIP3   OH224461   6.202   0.170   3.980
 8167TIP3    H124462   6.233   0.244   3.929
 8167TIP3    H224463   6.108   0.165   3.964
 8168TIP3   OH224464   6.776   0.835   4.117
 8168TIP3    H124465   6.772   0.758   4.174
 8168TIP3    H224466   6.866   0.867   4.126
 8169TIP3   OH224467   6.087   0.500   4.449
 8169TIP3    H124468   6.015   0.498   4.512
 8169TIP3    H224469   6.071   0.424   4.392
 8170TIP3   OH224470   3.719   7.293   4.055
 8170TIP3    H124471   3.681   7.376   4.024
 8170TIP3    H224472   3.649   7.229   4.044
 8171TIP3   OH224473   6.486   0.394   4.267
 8171TIP3    H124474   6.435   0.382   4.347
 8171TIP3    H224475   6.421   0.403   4.198
 8172TIP3   OH224476   6.708   0.360   4.102
 8172TIP3    H124477   6.631   0.369   4.158
 8172TIP3    H224478   6.780   0.342   4.162
 8173TIP3   OH224479   6.926   0.349   4.305
 8173TIP3    H124480   6.939   0.254   4.297
 8173TIP3    H224481   6.915   0.364   4.398
 8174TIP3   OH224482   5.997   0.240   4.439
 8174TIP3    H124483   6.054   0.167   4.415
 8174TIP3    H224484   6.005   0.247   4.534
 8175TIP3   OH224485   3.769   7.309   4.321
 8175TIP3    H124486   3.845   7.250   4.325
 8175TIP3    H224487   3.742   7.307   4.229
 8176TIP3   OH224488   6.464   0.157   4.478
 8176TIP3    H124489   6.429   0.093   4.415
 8176TIP3    H224490   6.401   0.229   4.476
 8177TIP3   OH224491   6.898   0.292   2.444
 8177TIP3    H124492   6.847   0.277   2.364
 8177TIP3    H224493   6.893   0.210   2.492
 8178TIP3   OH224494   6.717   0.036   2.452
 8178TIP3    H124495   6.789   0.009   2.510
 8178TIP3    H224496   6.643  -0.018   2.479
 8179TIP3   OH224497   6.829   0.280   2.857
 8179TIP3    H124498   6.863   0.193   2.875
 8179TIP3    H224499   6.890   0.340   2.901
 8180TIP3   OH224500   6.942   0.437   3.377
 8180TIP3    H124501   6.948   0.432   3.282
 8180TIP3    H224502   6.851   0.418   3.398
 8181TIP3   OH224503   5.736   0.273   4.396
 8181TIP3    H124504   5.831   0.269   4.409
 8181TIP3    H224505   5.705   0.184   4.413
 8182TIP3   OH224506   7.468   0.252   4.168
 8182TIP3    H124507   7.532   0.189   4.136
 8182TIP3    H224508   7.431   0.290   4.088
 8183TIP3   OH224509   6.919   0.041   2.948
 8183TIP3    H124510   6.964   0.029   3.032
 8183TIP3    H224511   6.853  -0.029   2.946
 8184TIP3   OH224512   5.611   0.055   3.816
 8184TIP3    H124513   5.665  -0.023   3.800
 8184TIP3    H224514   5.667   0.128   3.789
 8185TIP3   OH224515   7.331   0.358   3.959
 8185TIP3    H124516   7.240   0.388   3.962
 8185TIP3    H224517   7.329   0.279   3.906
 8186TIP3   OH224518   6.968   0.010   2.574
 8186TIP3    H124519   6.998  -0.062   2.518
 8186TIP3    H224520   7.043   0.070   2.577
 8187TIP3   OH224521   2.762   7.096   3.288
 8187TIP3    H124522   2.705   7.109   3.364
 8187TIP3    H224523   2.761   7.180   3.243
 8188TIP3   OH224524   2.993   7.224   4.144
 8188TIP3    H124525   2.946   7.218   4.227
 8188TIP3    H224526   2.934   7.272   4.086
 8189TIP3   OH224527   7.244   0.113   3.859
 8189TIP3    H124528   7.154   0.120   3.828
 8189TIP3    H224529   7.264   0.020   3.856
 8190TIP3   OH224530   3.852   7.379   3.518
 8190TIP3    H124531   3.814   7.302   3.560
 8190TIP3    H224532   3.914   7.343   3.455
 8191TIP3   OH224533   4.355   7.276   3.382
 8191TIP3    H124534   4.400   7.329   3.316
 8191TIP3    H224535   4.273   7.323   3.399
 8192TIP3   OH224536   7.094   0.013   3.159
 8192TIP3    H124537   7.164  -0.042   3.123
 8192TIP3    H224538   7.124   0.102   3.143
 8193TIP3   OH224539   3.075   7.082   3.519
 8193TIP3    H124540   2.985   7.051   3.523
 8193TIP3    H224541   3.128   7.003   3.513
 8194TIP3   OH224542   2.898   6.943   3.112
 8194TIP3    H124543   2.930   7.006   3.047
 8194TIP3    H224544   2.852   6.996   3.177
 8195TIP3   OH224545   3.569   7.112   3.405
 8195TIP3    H124546   3.610   7.161   3.333
 8195TIP3    H224547   3.607   7.150   3.484
 8196TIP3   OH224548   4.051   7.278   3.359
 8196TIP3    H124549   4.085   7.244   3.276
 8196TIP3    H224550   4.056   7.203   3.418
 8197TIP3   OH224551   4.115   7.209   2.937
 8197TIP3    H124552   4.036   7.255   2.964
 8197TIP3    H224553   4.107   7.122   2.977
 8198TIP3   OH224554   3.019   7.115   2.923
 8198TIP3    H124555   3.069   7.051   2.872
 8198TIP3    H224556   3.085   7.174   2.958
 8199TIP3   OH224557   3.492   7.281   3.023
 8199TIP3    H124558   3.548   7.229   3.082
 8199TIP3    H224559   3.502   7.371   3.053
 8200TIP3   OH224560   3.300   7.321   4.374
 8200TIP3    H124561   3.259   7.269   4.443
 8200TIP3    H224562   3.389   7.337   4.405
 8201TIP3   OH224563   3.552   7.362   4.490
 8201TIP3    H124564   3.632   7.337   4.443
 8201TIP3    H224565   3.543   7.295   4.558
 8202TIP3   OH224566   6.983   0.081   4.291
 8202TIP3    H124567   7.000   0.055   4.382
 8202TIP3    H224568   7.069   0.082   4.250
 8203TIP3   OH224569   0.598   0.753   2.992
 8203TIP3    H124570   0.632   0.671   3.029
 8203TIP3    H224571   0.551   0.726   2.913
 8204TIP3   OH224572   7.729   0.405   2.976
 8204TIP3    H124573   7.706   0.469   2.908
 8204TIP3    H224574   7.683   0.326   2.950
 8205TIP3   OH224575   0.596   0.481   2.623
 8205TIP3    H124576   0.680   0.471   2.669
 8205TIP3    H224577   0.620   0.521   2.540
 8206TIP3   OH224578   7.318   0.590   3.090
 8206TIP3    H124579   7.402   0.582   3.136
 8206TIP3    H224580   7.332   0.547   3.006
 8207TIP3   OH224581   7.721   0.387   3.391
 8207TIP3    H124582   7.668   0.436   3.329
 8207TIP3    H224583   7.674   0.395   3.474
 8208TIP3   OH224584   0.817   0.476   2.801
 8208TIP3    H124585   0.760   0.464   2.877
 8208TIP3    H224586   0.861   0.560   2.816
 8209TIP3   OH224587   7.583   0.518   3.188
 8209TIP3    H124588   7.622   0.603   3.207
 8209TIP3    H224589   7.637   0.482   3.118
 8210TIP3   OH224590   0.980   0.447   3.199
 8210TIP3    H124591   0.931   0.490   3.269
 8210TIP3    H224592   0.977   0.509   3.126
 8211TIP3   OH224593   0.263   0.092   3.134
 8211TIP3    H124594   0.259   0.000   3.162
 8211TIP3    H224595   0.187   0.133   3.175
 8212TIP3   OH224596   0.893   0.080   2.241
 8212TIP3    H124597   0.807   0.074   2.283
 8212TIP3    H224598   0.922   0.169   2.259
 8213TIP3   OH224599   7.828   0.175   3.256
 8213TIP3    H124600   7.742   0.143   3.228
 8213TIP3    H224601   7.811   0.259   3.297
 8214TIP3   OH224602   0.567   0.301   3.463
 8214TIP3    H124603   0.639   0.279   3.521
 8214TIP3    H224604   0.488   0.282   3.514
 8215TIP3   OH224605   0.813   0.680   3.337
 8215TIP3    H124606   0.777   0.676   3.426
 8215TIP3    H224607   0.820   0.774   3.319
 8216TIP3   OH224608   0.181   0.214   2.236
 8216TIP3    H124609   0.151   0.221   2.327
 8216TIP3    H224610   0.136   0.137   2.201
 8217TIP3   OH224611   7.619   0.546   2.772
 8217TIP3    H124612   7.527   0.532   2.795
 8217TIP3    H224613   7.624   0.523   2.680
 8218TIP3   OH224614   0.451   0.661   2.773
 8218TIP3    H124615   0.460   0.730   2.707
 8218TIP3    H224616   0.492   0.584   2.734
 8219TIP3   OH224617   7.629   0.693   3.543
 8219TIP3    H124618   7.588   0.745   3.613
 8219TIP3    H224619   7.612   0.602   3.569
 8220TIP3   OH224620   7.640   0.227   2.196
 8220TIP3    H124621   7.632   0.223   2.291
 8220TIP3    H224622   7.560   0.270   2.167
 8221TIP3   OH224623   7.191   0.256   3.069
 8221TIP3    H124624   7.266   0.283   3.122
 8221TIP3    H224625   7.229   0.210   2.994
 8222TIP3   OH224626   7.173   0.198   2.578
 8222TIP3    H124627   7.226   0.220   2.502
 8222TIP3    H224628   7.134   0.281   2.606
 8223TIP3   OH224629   0.196   0.385   2.854
 8223TIP3    H124630   0.122   0.395   2.914
 8223TIP3    H224631   0.273   0.384   2.912
 8224TIP3   OH224632   7.379   0.433   2.863
 8224TIP3    H124633   7.296   0.403   2.825
 8224TIP3    H224634   7.435   0.356   2.860
 8225TIP3   OH224635   7.678   0.471   2.510
 8225TIP3    H124636   7.769   0.476   2.539
 8225TIP3    H224637   7.672   0.536   2.440
 8226TIP3   OH224638   0.647   0.476   3.024
 8226TIP3    H124639   0.639   0.487   3.119
 8226TIP3    H224640   0.572   0.423   2.999
 8227TIP3   OH224641   0.311   0.693   3.025
 8227TIP3    H124642   0.331   0.673   2.933
 8227TIP3    H224643   0.390   0.736   3.057
 8228TIP3   OH224644   7.554   0.217   2.849
 8228TIP3    H124645   7.527   0.139   2.898
 8228TIP3    H224646   7.595   0.182   2.770
 8229TIP3   OH224647   0.201   0.653   3.279
 8229TIP3    H124648   0.219   0.663   3.186
 8229TIP3    H224649   0.275   0.695   3.323
 8230TIP3   OH224650   0.407   0.365   2.222
 8230TIP3    H124651   0.322   0.322   2.224
 8230TIP3    H224652   0.404   0.419   2.143
 8231TIP3   OH224653   0.614   0.571   2.366
 8231TIP3    H124654   0.686   0.523   2.325
 8231TIP3    H224655   0.547   0.576   2.299
 8232TIP3   OH224656   7.585   0.420   3.624
 8232TIP3    H124657   7.489   0.412   3.617
 8232TIP3    H224658   7.607   0.368   3.701
 8233TIP3   OH224659   0.594   0.517   3.290
 8233TIP3    H124660   0.673   0.563   3.319
 8233TIP3    H224661   0.582   0.447   3.354
 8234TIP3   OH224662   0.465   0.278   2.485
 8234TIP3    H124663   0.447   0.314   2.398
 8234TIP3    H224664   0.508   0.350   2.532
 8235TIP3   OH224665   0.141   0.474   2.601
 8235TIP3    H124666   0.203   0.546   2.588
 8235TIP3    H224667   0.152   0.449   2.693
 8236TIP3   OH224668   0.426   0.735   3.407
 8236TIP3    H124669   0.457   0.750   3.496
 8236TIP3    H224670   0.490   0.674   3.369
 8237TIP3   OH224671   0.302   0.176   2.689
 8237TIP3    H124672   0.286   0.251   2.746
 8237TIP3    H224673   0.364   0.208   2.624
 8238TIP3   OH224674   7.621   0.202   2.474
 8238TIP3    H124675   7.619   0.295   2.495
 8238TIP3    H224676   7.713   0.177   2.485
 8239TIP3   OH224677   7.172   0.398   2.343
 8239TIP3    H124678   7.233   0.398   2.269
 8239TIP3    H224679   7.100   0.342   2.315
 8240TIP3   OH224680   7.563   0.097   3.227
 8240TIP3    H124681   7.536   0.061   3.143
 8240TIP3    H224682   7.557   0.023   3.288
 8241TIP3   OH224683   0.144   0.677   3.632
 8241TIP3    H124684   0.155   0.588   3.599
 8241TIP3    H224685   0.107   0.726   3.559
 8242TIP3   OH224686   0.173   0.454   3.466
 8242TIP3    H124687   0.198   0.518   3.398
 8242TIP3    H224688   0.084   0.428   3.443
 8243TIP3   OH224689   0.844   1.077   3.685
 8243TIP3    H124690   0.799   1.009   3.634
 8243TIP3    H224691   0.937   1.060   3.671
 8244TIP3   OH224692   0.029   0.770   3.870
 8244TIP3    H124693  -0.021   0.691   3.891
 8244TIP3    H224694   0.067   0.752   3.784
 8245TIP3   OH224695   0.308   0.230   3.547
 8245TIP3    H124696   0.266   0.311   3.517
 8245TIP3    H224697   0.242   0.163   3.532
 8246TIP3   OH224698   0.412   0.685   3.711
 8246TIP3    H124699   0.412   0.681   3.807
 8246TIP3    H224700   0.320   0.681   3.687
 8247TIP3   OH224701   0.654   0.635   3.574
 8247TIP3    H124702   0.572   0.629   3.624
 8247TIP3    H224703   0.723   0.623   3.640
 8248TIP3   OH224704   0.867   0.594   3.739
 8248TIP3    H124705   0.891   0.510   3.778
 8248TIP3    H224706   0.891   0.659   3.805
 8249TIP3   OH224707   7.697   0.542   3.944
 8249TIP3    H124708   7.694   0.454   3.907
 8249TIP3    H224709   7.732   0.531   4.032
 8250TIP3   OH224710   0.366   0.226   3.814
 8250TIP3    H124711   0.436   0.161   3.814
 8250TIP3    H224712   0.339   0.233   3.722
 8251TIP3   OH224713   0.438   0.445   3.962
 8251TIP3    H124714   0.416   0.374   3.902
 8251TIP3    H224715   0.364   0.505   3.957
 8252TIP3   OH224716   0.669   0.347   1.942
 8252TIP3    H124717   0.735   0.309   2.001
 8252TIP3    H224718   0.594   0.288   1.948
 8253TIP3   OH224719   7.465   0.632   3.807
 8253TIP3    H124720   7.557   0.611   3.825
 8253TIP3    H224721   7.421   0.623   3.891
 8254TIP3   OH224722   0.829   0.334   2.416
 8254TIP3    H124723   0.872   0.339   2.501
 8254TIP3    H224724   0.773   0.256   2.422
 8255TIP3   OH224725   7.391   0.311   3.254
 8255TIP3    H124726   7.455   0.240   3.256
 8255TIP3    H224727   7.444   0.390   3.239
 8256TIP3   OH224728   7.183   0.092   2.832
 8256TIP3    H124729   7.095   0.069   2.860
 8256TIP3    H224730   7.172   0.136   2.748
 8257TIP3   OH224731   7.400   0.144   3.632
 8257TIP3    H124732   7.352   0.135   3.714
 8257TIP3    H224733   7.337   0.181   3.570
 8258TIP3   OH224734   1.205   0.363   3.352
 8258TIP3    H124735   1.138   0.378   3.285
 8258TIP3    H224736   1.259   0.293   3.316
 8259TIP3   OH224737   0.436   0.293   2.971
 8259TIP3    H124738   0.399   0.226   3.029
 8259TIP3    H224739   0.507   0.249   2.925
 8260TIP3   OH224740   0.935   0.212   2.867
 8260TIP3    H124741   0.952   0.299   2.830
 8260TIP3    H224742   0.840   0.208   2.879
 8261TIP3   OH224743   4.884   7.344   2.984
 8261TIP3    H124744   4.795   7.308   2.991
 8261TIP3    H224745   4.941   7.268   2.981
 8262TIP3   OH224746   4.689   7.253   2.639
 8262TIP3    H124747   4.717   7.307   2.565
 8262TIP3    H224748   4.666   7.316   2.708
 8263TIP3   OH224749   0.143   0.041   2.881
 8263TIP3    H124750   0.193   0.088   2.815
 8263TIP3    H224751   0.183   0.066   2.965
 8264TIP3   OH224752   0.655   0.170   2.849
 8264TIP3    H124753   0.677   0.126   2.766
 8264TIP3    H224754   0.651   0.098   2.912
 8265TIP3   OH224755   0.675   0.107   2.414
 8265TIP3    H124756   0.592   0.151   2.434
 8265TIP3    H224757   0.669   0.023   2.459
 8266TIP3   OH224758   7.405   0.039   2.405
 8266TIP3    H124759   7.448  -0.028   2.351
 8266TIP3    H224760   7.477   0.093   2.437
 8267TIP3   OH224761   0.097   0.220   2.500
 8267TIP3    H124762   0.153   0.168   2.558
 8267TIP3    H224763   0.112   0.311   2.528
 8268TIP3   OH224764   7.698   0.273   3.864
 8268TIP3    H124765   7.662   0.210   3.926
 8268TIP3    H224766   7.790   0.281   3.889
 8269TIP3   OH224767   0.144   0.280   3.990
 8269TIP3    H124768   0.223   0.259   3.940
 8269TIP3    H224769   0.141   0.213   4.058
 8270TIP3   OH224770   0.937   0.338   3.805
 8270TIP3    H124771   0.962   0.321   3.895
 8270TIP3    H224772   1.016   0.321   3.754
 8271TIP3   OH224773   5.012   4.873   0.070
 8271TIP3    H124774   5.013   4.968   0.081
 8271TIP3    H224775   5.104   4.847   0.079
 8272TIP3   OH224776   4.369   5.211   0.639
 8272TIP3    H124777   4.278   5.223   0.615
 8272TIP3    H224778   4.392   5.289   0.689
 8273TIP3   OH224779   4.640   5.154   0.289
 8273TIP3    H124780   4.696   5.105   0.230
 8273TIP3    H224781   4.664   5.123   0.377
 8274TIP3   OH224782   4.630   5.186   0.566
 8274TIP3    H124783   4.543   5.192   0.605
 8274TIP3    H224784   4.667   5.106   0.603
 8275TIP3   OH224785   4.747   4.322   0.242
 8275TIP3    H124786   4.728   4.298   0.151
 8275TIP3    H224787   4.842   4.332   0.244
 8276TIP3   OH224788   4.452   4.655   0.615
 8276TIP3    H124789   4.380   4.713   0.638
 8276TIP3    H224790   4.420   4.567   0.633
 8277TIP3   OH224791   5.217   4.072   0.494
 8277TIP3    H124792   5.200   4.107   0.406
 8277TIP3    H224793   5.282   4.131   0.532
 8278TIP3   OH224794   4.822   4.987   0.503
 8278TIP3    H124795   4.837   4.936   0.583
 8278TIP3    H224796   4.804   4.922   0.436
 8279TIP3   OH224797   4.666   4.553   0.442
 8279TIP3    H124798   4.692   4.625   0.500
 8279TIP3    H224799   4.591   4.587   0.394
 8280TIP3   OH224800   5.044   5.142   0.133
 8280TIP3    H124801   5.100   5.207   0.090
 8280TIP3    H224802   4.968   5.192   0.162
 8281TIP3   OH224803   4.824   4.711   0.612
 8281TIP3    H124804   4.811   4.665   0.695
 8281TIP3    H224805   4.914   4.690   0.587
 8282TIP3   OH224806   4.286   4.870   0.625
 8282TIP3    H124807   4.248   4.924   0.694
 8282TIP3    H224808   4.322   4.933   0.562
 8283TIP3   OH224809   4.229   4.834   0.192
 8283TIP3    H124810   4.207   4.780   0.268
 8283TIP3    H224811   4.324   4.844   0.195
 8284TIP3   OH224812   4.739   4.965   0.129
 8284TIP3    H124813   4.797   4.905   0.175
 8284TIP3    H224814   4.757   4.949   0.036
 8285TIP3   OH224815   4.427   4.653   0.326
 8285TIP3    H124816   4.374   4.615   0.396
 8285TIP3    H224817   4.421   4.589   0.254
 8286TIP3   OH224818   5.016   4.330   0.166
 8286TIP3    H124819   4.991   4.323   0.074
 8286TIP3    H224820   5.033   4.423   0.179
 8287TIP3   OH224821   4.013   5.022   0.421
 8287TIP3    H124822   4.095   5.047   0.379
 8287TIP3    H224823   3.957   5.099   0.413
 8288TIP3   OH224824   5.086   4.627   0.557
 8288TIP3    H124825   5.148   4.657   0.491
 8288TIP3    H224826   5.129   4.645   0.641
 8289TIP3   OH224827   5.205   4.343   0.372
 8289TIP3    H124828   5.135   4.324   0.310
 8289TIP3    H224829   5.161   4.346   0.457
 8290TIP3   OH224830   5.098   4.080   0.239
 8290TIP3    H124831   5.064   4.162   0.206
 8290TIP3    H224832   5.023   4.020   0.236
 8291TIP3   OH224833   4.868   5.239   0.752
 8291TIP3    H124834   4.881   5.249   0.658
 8291TIP3    H224835   4.791   5.293   0.772
 8292TIP3   OH224836   4.199   5.115   0.252
 8292TIP3    H124837   4.279   5.163   0.275
 8292TIP3    H224838   4.230   5.034   0.212
 8293TIP3   OH224839   5.107   5.112   0.453
 8293TIP3    H124840   5.102   5.047   0.524
 8293TIP3    H224841   5.025   5.161   0.459
 8294TIP3   OH224842   6.506   4.770   0.421
 8294TIP3    H124843   6.468   4.850   0.384
 8294TIP3    H224844   6.435   4.706   0.416
 8295TIP3   OH224845   6.478   4.742   0.880
 8295TIP3    H124846   6.543   4.746   0.810
 8295TIP3    H224847   6.399   4.706   0.839
 8296TIP3   OH224848   6.739   5.017   0.484
 8296TIP3    H124849   6.665   5.004   0.544
 8296TIP3    H224850   6.785   5.093   0.519
 8297TIP3   OH224851   6.384   5.484   0.509
 8297TIP3    H124852   6.424   5.418   0.453
 8297TIP3    H224853   6.416   5.463   0.597
 8298TIP3   OH224854   6.310   4.984   0.874
 8298TIP3    H124855   6.284   4.913   0.933
 8298TIP3    H224856   6.397   5.009   0.905
 8299TIP3   OH224857   6.633   4.324   0.895
 8299TIP3    H124858   6.670   4.394   0.949
 8299TIP3    H224859   6.642   4.356   0.805
 8300TIP3   OH224860   6.786   4.191   0.495
 8300TIP3    H124861   6.838   4.120   0.531
 8300TIP3    H224862   6.704   4.150   0.466
 8301TIP3   OH224863   6.137   4.552   0.891
 8301TIP3    H124864   6.215   4.496   0.884
 8301TIP3    H224865   6.064   4.490   0.900
 8302TIP3   OH224866   7.389   4.444   1.131
 8302TIP3    H124867   7.398   4.440   1.036
 8302TIP3    H224868   7.363   4.534   1.150
 8303TIP3   OH224869   6.375   4.972   0.286
 8303TIP3    H124870   6.336   4.942   0.204
 8303TIP3    H224871   6.315   5.040   0.317
 8304TIP3   OH224872   5.292   4.669   0.378
 8304TIP3    H124873   5.255   4.735   0.320
 8304TIP3    H224874   5.376   4.705   0.406
 8305TIP3   OH224875   6.820   5.272   0.580
 8305TIP3    H124876   6.735   5.268   0.625
 8305TIP3    H224877   6.817   5.353   0.530
 8306TIP3   OH224878   6.484   5.323   0.310
 8306TIP3    H124879   6.535   5.243   0.295
 8306TIP3    H224880   6.543   5.393   0.283
 8307TIP3   OH224881   6.622   5.098   0.250
 8307TIP3    H124882   6.547   5.038   0.248
 8307TIP3    H224883   6.679   5.062   0.318
 8308TIP3   OH224884   7.084   5.137   1.047
 8308TIP3    H124885   7.078   5.099   0.960
 8308TIP3    H224886   7.050   5.226   1.037
 8309TIP3   OH224887   6.322   4.593   0.281
 8309TIP3    H124888   6.237   4.633   0.264
 8309TIP3    H224889   6.363   4.585   0.195
 8310TIP3   OH224890   3.670   0.705   6.338
 8310TIP3    H124891   3.733   0.760   6.385
 8310TIP3    H224892   3.723   0.635   6.300
 8311TIP3   OH224893   7.271   4.845   0.859
 8311TIP3    H124894   7.187   4.887   0.873
 8311TIP3    H224895   7.287   4.855   0.765
 8312TIP3   OH224896   6.656   4.679   0.211
 8312TIP3    H124897   6.616   4.713   0.291
 8312TIP3    H224898   6.744   4.652   0.238
 8313TIP3   OH224899   5.887   4.651   0.624
 8313TIP3    H124900   5.897   4.600   0.543
 8313TIP3    H224901   5.976   4.679   0.645
 8314TIP3   OH224902   5.971   4.925   0.753
 8314TIP3    H124903   5.956   4.969   0.670
 8314TIP3    H224904   6.015   4.990   0.808
 8315TIP3   OH224905   6.602   5.246   0.736
 8315TIP3    H124906   6.605   5.338   0.763
 8315TIP3    H224907   6.591   5.197   0.818
 8316TIP3   OH224908   6.482   4.538   0.059
 8316TIP3    H124909   6.542   4.596   0.105
 8316TIP3    H224910   6.511   4.543  -0.033
 8317TIP3   OH224911   6.227   5.209   0.335
 8317TIP3    H124912   6.313   5.251   0.331
 8317TIP3    H224913   6.178   5.249   0.263
 8318TIP3   OH224914   5.809   4.512   0.380
 8318TIP3    H124915   5.716   4.501   0.362
 8318TIP3    H224916   5.827   4.451   0.451
 8319TIP3   OH224917   4.221   1.457   6.049
 8319TIP3    H124918   4.217   1.550   6.031
 8319TIP3    H224919   4.311   1.432   6.028
 8320TIP3   OH224920   7.309   5.551   1.090
 8320TIP3    H124921   7.324   5.457   1.080
 8320TIP3    H224922   7.248   5.558   1.163
 8321TIP3   OH224923   6.129   5.432   0.156
 8321TIP3    H124924   6.079   5.409   0.079
 8321TIP3    H224925   6.093   5.516   0.184
 8322TIP3   OH224926   5.476   5.326   0.410
 8322TIP3    H124927   5.456   5.353   0.500
 8322TIP3    H224928   5.445   5.235   0.406
 8323TIP3   OH224929   3.734   1.684   6.149
 8323TIP3    H124930   3.784   1.611   6.113
 8323TIP3    H224931   3.768   1.695   6.238
 8324TIP3   OH224932   6.381   5.404   0.051
 8324TIP3    H124933   6.294   5.410   0.091
 8324TIP3    H224934   6.436   5.365   0.119
 8325TIP3   OH224935   3.977   0.849   6.175
 8325TIP3    H124936   3.932   0.848   6.091
 8325TIP3    H224937   4.058   0.897   6.158
 8326TIP3   OH224938   5.884   4.359   0.596
 8326TIP3    H124939   5.840   4.334   0.677
 8326TIP3    H224940   5.885   4.279   0.543
 8327TIP3   OH224941   6.469   4.387   0.393
 8327TIP3    H124942   6.417   4.462   0.363
 8327TIP3    H224943   6.525   4.366   0.319
 8328TIP3   OH224944   6.631   4.382   0.621
 8328TIP3    H124945   6.572   4.402   0.548
 8328TIP3    H224946   6.689   4.314   0.586
 8329TIP3   OH224947   5.500   3.945   0.535
 8329TIP3    H124948   5.568   3.971   0.473
 8329TIP3    H224949   5.459   4.027   0.563
 8330TIP3   OH224950   6.293   4.030   0.750
 8330TIP3    H124951   6.214   4.002   0.704
 8330TIP3    H224952   6.321   4.109   0.703
 8331TIP3   OH224953   6.023   4.240   0.361
 8331TIP3    H124954   6.111   4.237   0.325
 8331TIP3    H224955   5.965   4.232   0.285
 8332TIP3   OH224956   5.818   4.204   0.172
 8332TIP3    H124957   5.759   4.156   0.114
 8332TIP3    H224958   5.877   4.251   0.113
 8333TIP3   OH224959   7.009   5.911   1.187
 8333TIP3    H124960   6.956   5.978   1.144
 8333TIP3    H224961   7.096   5.950   1.194
 8334TIP3   OH224962   6.381   4.427   0.836
 8334TIP3    H124963   6.373   4.357   0.771
 8334TIP3    H224964   6.449   4.396   0.896
 8335TIP3   OH224965   6.089   4.718   0.197
 8335TIP3    H124966   6.009   4.677   0.164
 8335TIP3    H224967   6.060   4.770   0.272
 8336TIP3   OH224968   7.037   4.975   0.825
 8336TIP3    H124969   7.056   5.039   0.756
 8336TIP3    H224970   6.943   4.986   0.842
 8337TIP3   OH224971   6.472   4.122   0.043
 8337TIP3    H124972   6.417   4.080   0.109
 8337TIP3    H224973   6.531   4.179   0.093
 8338TIP3   OH224974   6.619   4.314   0.173
 8338TIP3    H124975   6.714   4.312   0.184
 8338TIP3    H224976   6.603   4.391   0.118
 8339TIP3   OH224977   6.236   4.896   0.054
 8339TIP3    H124978   6.186   4.978   0.058
 8339TIP3    H224979   6.181   4.833   0.101
 8340TIP3   OH224980   6.801   5.316   1.165
 8340TIP3    H124981   6.768   5.227   1.173
 8340TIP3    H224982   6.754   5.365   1.233
 8341TIP3   OH224983   4.454   0.718   6.364
 8341TIP3    H124984   4.392   0.669   6.310
 8341TIP3    H224985   4.445   0.809   6.335
 8342TIP3   OH224986   7.321   5.279   1.085
 8342TIP3    H124987   7.240   5.244   1.122
 8342TIP3    H224988   7.332   5.233   1.002
 8343TIP3   OH224989   4.144   1.527   6.316
 8343TIP3    H124990   4.116   1.458   6.376
 8343TIP3    H224991   4.162   1.482   6.234
 8344TIP3   OH224992   6.752   4.959   0.789
 8344TIP3    H124993   6.671   4.956   0.738
 8344TIP3    H224994   6.797   4.877   0.768
 8345TIP3   OH224995   5.925   5.100   0.529
 8345TIP3    H124996   5.897   5.191   0.518
 8345TIP3    H224997   5.854   5.049   0.491
 8346TIP3   OH224998   5.371   4.414   0.165
 8346TIP3    H124999   5.444   4.469   0.194
 8346TIP3    H225000   5.328   4.385   0.245
 8347TIP3   OH225001   6.046   4.859   0.422
 8347TIP3    H125002   6.061   4.947   0.455
 8347TIP3    H225003   6.074   4.801   0.494
 8348TIP3   OH225004   6.159   5.402   0.982
 8348TIP3    H125005   6.179   5.496   0.985
 8348TIP3    H225006   6.149   5.376   1.073
 8349TIP3   OH225007   5.721   5.328   0.294
 8349TIP3    H125008   5.630   5.328   0.325
 8349TIP3    H225009   5.771   5.365   0.366
 8350TIP3   OH225010   6.587   5.093   0.964
 8350TIP3    H125011   6.571   5.049   1.048
 8350TIP3    H225012   6.650   5.036   0.920
 8351TIP3   OH225013   3.900   1.267   6.199
 8351TIP3    H125014   3.956   1.246   6.274
 8351TIP3    H225015   3.815   1.229   6.221
 8352TIP3   OH225016   6.792   5.530   0.994
 8352TIP3    H125017   6.787   5.443   1.035
 8352TIP3    H225018   6.881   5.560   1.014
 8353TIP3   OH225019   4.225   1.731   6.012
 8353TIP3    H125020   4.245   1.791   5.941
 8353TIP3    H225021   4.154   1.773   6.060
 8354TIP3   OH225022   6.682   4.874   0.019
 8354TIP3    H125023   6.666   4.812   0.089
 8354TIP3    H225024   6.778   4.880   0.013
 8355TIP3   OH225025   3.270   1.231   6.205
 8355TIP3    H125026   3.280   1.140   6.178
 8355TIP3    H225027   3.252   1.226   6.299
 8356TIP3   OH225028   5.803   4.920   0.098
 8356TIP3    H125029   5.811   4.882   0.186
 8356TIP3    H225030   5.815   5.014   0.112
 8357TIP3   OH225031   5.566   4.594   0.242
 8357TIP3    H125032   5.555   4.647   0.321
 8357TIP3    H225033   5.575   4.657   0.171
 8358TIP3   OH225034   6.095   5.128   0.067
 8358TIP3    H125035   6.003   5.137   0.091
 8358TIP3    H225036   6.110   5.197   0.002
 8359TIP3   OH225037   6.294   4.172   0.326
 8359TIP3    H125038   6.350   4.249   0.341
 8359TIP3    H225039   6.332   4.104   0.382
 8360TIP3   OH225040   5.830   5.191   0.094
 8360TIP3    H125041   5.812   5.252   0.023
 8360TIP3    H225042   5.791   5.232   0.171
 8361TIP3   OH225043   6.851   4.523   0.547
 8361TIP3    H125044   6.771   4.485   0.582
 8361TIP3    H225045   6.920   4.494   0.607
 8362TIP3   OH225046   5.546   4.822   0.076
 8362TIP3    H125047   5.617   4.885   0.086
 8362TIP3    H225048   5.577   4.760   0.010
 8363TIP3   OH225049   5.333   4.018   0.116
 8363TIP3    H125050   5.401   4.064   0.166
 8363TIP3    H225051   5.253   4.029   0.168
 8364TIP3   OH225052   6.801   5.551   0.524
 8364TIP3    H125053   6.752   5.615   0.473
 8364TIP3    H225054   6.893   5.576   0.513
 8365TIP3   OH225055   5.405   5.065   0.485
 8365TIP3    H125056   5.355   5.099   0.559
 8365TIP3    H225057   5.345   5.070   0.410
 8366TIP3   OH225058   3.423   1.435   6.108
 8366TIP3    H125059   3.374   1.363   6.148
 8366TIP3    H225060   3.497   1.391   6.064
 8367TIP3   OH225061   3.860   1.475   6.027
 8367TIP3    H125062   3.890   1.408   6.089
 8367TIP3    H225063   3.920   1.467   5.953
 8368TIP3   OH225064   3.081   0.945   6.316
 8368TIP3    H125065   3.133   0.917   6.391
 8368TIP3    H225066   3.144   0.958   6.246
 8369TIP3   OH225067   3.633   1.151   6.156
 8369TIP3    H125068   3.619   1.165   6.250
 8369TIP3    H225069   3.621   1.057   6.144
 8370TIP3   OH225070   6.869   4.967   1.065
 8370TIP3    H125071   6.939   5.032   1.071
 8370TIP3    H225072   6.878   4.914   1.144
 8371TIP3   OH225073   5.880   4.553   0.123
 8371TIP3    H125074   5.858   4.528   0.213
 8371TIP3    H225075   5.926   4.477   0.087
 8372TIP3   OH225076   3.402   0.656   6.385
 8372TIP3    H125077   3.372   0.666   6.295
 8372TIP3    H225078   3.497   0.668   6.380
 8373TIP3   OH225079   4.197   0.976   6.066
 8373TIP3    H125080   4.182   0.934   5.981
 8373TIP3    H225081   4.170   1.066   6.054
 8374TIP3   OH225082   3.218   1.730   6.293
 8374TIP3    H125083   3.312   1.717   6.275
 8374TIP3    H225084   3.185   1.776   6.216
 8375TIP3   OH225085   5.276   4.803   0.101
 8375TIP3    H125086   5.368   4.826   0.106
 8375TIP3    H225087   5.274   4.717   0.061
 8376TIP3   OH225088   5.157   5.378   0.379
 8376TIP3    H125089   5.141   5.284   0.391
 8376TIP3    H225090   5.194   5.407   0.463
 8377TIP3   OH225091   5.326   5.192   0.713
 8377TIP3    H125092   5.249   5.149   0.752
 8377TIP3    H225093   5.334   5.274   0.760
 8378TIP3   OH225094   7.056   5.647   0.511
 8378TIP3    H125095   7.091   5.652   0.600
 8378TIP3    H225096   7.126   5.681   0.455
 8379TIP3   OH225097   7.174   5.606   0.757
 8379TIP3    H125098   7.095   5.552   0.766
 8379TIP3    H225099   7.165   5.673   0.824
 8380TIP3   OH225100   6.958   4.871   0.016
 8380TIP3    H125101   7.016   4.940  -0.017
 8380TIP3    H225102   7.002   4.838   0.095
 8381TIP3   OH225103   7.092   4.753   0.219
 8381TIP3    H125104   7.027   4.701   0.265
 8381TIP3    H225105   7.157   4.775   0.286
 8382TIP3   OH225106   7.146   5.137   0.640
 8382TIP3    H125107   7.197   5.067   0.600
 8382TIP3    H225108   7.149   5.209   0.576
 8383TIP3   OH225109   6.959   5.446   0.753
 8383TIP3    H125110   6.961   5.403   0.838
 8383TIP3    H225111   6.926   5.380   0.693
 8384TIP3   OH225112   4.403   0.961   6.246
 8384TIP3    H125113   4.331   0.959   6.183
 8384TIP3    H225114   4.387   1.040   6.297
 8385TIP3   OH225115   4.262   0.611   6.199
 8385TIP3    H125116   4.206   0.653   6.134
 8385TIP3    H225117   4.245   0.517   6.188
 8386TIP3   OH225118   6.895   4.577   0.292
 8386TIP3    H125119   6.893   4.488   0.257
 8386TIP3    H225120   6.884   4.566   0.387
 8387TIP3   OH225121   7.233   4.956   1.193
 8387TIP3    H125122   7.176   4.942   1.269
 8387TIP3    H225123   7.191   5.027   1.144
 8388TIP3   OH225124   6.891   4.315   0.211
 8388TIP3    H125125   6.928   4.263   0.282
 8388TIP3    H225126   6.962   4.321   0.147
 8389TIP3   OH225127   7.041   4.485   0.731
 8389TIP3    H125128   7.124   4.496   0.686
 8389TIP3    H225129   7.056   4.519   0.820
 8390TIP3   OH225130   7.081   4.618   0.965
 8390TIP3    H125131   7.071   4.572   1.048
 8390TIP3    H225132   7.066   4.710   0.987
 8391TIP3   OH225133   6.631   5.525   0.213
 8391TIP3    H125134   6.685   5.510   0.135
 8391TIP3    H225135   6.672   5.600   0.256
 8392TIP3   OH225136   6.592   5.665   1.141
 8392TIP3    H125137   6.641   5.609   1.080
 8392TIP3    H225138   6.652   5.737   1.161
 8393TIP3   OH225139   5.723   5.449   0.893
 8393TIP3    H125140   5.737   5.413   0.981
 8393TIP3    H225141   5.780   5.526   0.891
 8394TIP3   OH225142   6.187   5.629   0.790
 8394TIP3    H125143   6.116   5.673   0.742
 8394TIP3    H225144   6.247   5.699   0.815
 8395TIP3   OH225145   6.459   5.628   0.883
 8395TIP3    H125146   6.398   5.555   0.876
 8395TIP3    H225147   6.541   5.594   0.847
 8396TIP3   OH225148   6.805   5.776   0.725
 8396TIP3    H125149   6.763   5.842   0.670
 8396TIP3    H225150   6.815   5.700   0.668
 8397TIP3   OH225151   5.539   5.235   0.987
 8397TIP3    H125152   5.463   5.275   0.944
 8397TIP3    H225153   5.589   5.196   0.916
 8398TIP3   OH225154   5.801   5.196   0.816
 8398TIP3    H125155   5.757   5.158   0.741
 8398TIP3    H225156   5.792   5.291   0.804
 8399TIP3   OH225157   5.982   5.423   0.764
 8399TIP3    H125158   6.046   5.389   0.702
 8399TIP3    H225159   6.031   5.437   0.845
 8400TIP3   OH225160   5.307   5.143   0.236
 8400TIP3    H125161   5.217   5.110   0.228
 8400TIP3    H225162   5.302   5.234   0.208
 8401TIP3   OH225163   3.479   1.660   6.249
 8401TIP3    H125164   3.563   1.687   6.211
 8401TIP3    H225165   3.450   1.588   6.194
 8402TIP3   OH225166   4.178   1.796   6.352
 8402TIP3    H125167   4.172   1.701   6.344
 8402TIP3    H225168   4.136   1.830   6.274
 8403TIP3   OH225169   2.779   1.492   6.300
 8403TIP3    H125170   2.776   1.498   6.396
 8403TIP3    H225171   2.862   1.448   6.282
 8404TIP3   OH225172   7.002   5.646   1.144
 8404TIP3    H125173   6.965   5.603   1.222
 8404TIP3    H225174   6.994   5.740   1.163
 8405TIP3   OH225175   5.671   1.339   6.283
 8405TIP3    H125176   5.633   1.424   6.261
 8405TIP3    H225177   5.602   1.276   6.264
 8406TIP3   OH225178   0.459   5.007   0.311
 8406TIP3    H125179   0.494   4.988   0.398
 8406TIP3    H225180   0.417   4.926   0.283
 8407TIP3   OH225181   7.569   4.888   0.675
 8407TIP3    H125182   7.597   4.828   0.744
 8407TIP3    H225183   7.647   4.898   0.620
 8408TIP3   OH225184   0.717   5.315  -0.028
 8408TIP3    H125185   0.709   5.245   0.037
 8408TIP3    H225186   0.750   5.390   0.023
 8409TIP3   OH225187   7.552   5.288   0.375
 8409TIP3    H125188   7.536   5.193   0.380
 8409TIP3    H225189   7.647   5.296   0.371
 8410TIP3   OH225190   7.242   4.525   0.174
 8410TIP3    H125191   7.198   4.609   0.182
 8410TIP3    H225192   7.182   4.471   0.121
 8411TIP3   OH225193   7.327   4.800   0.361
 8411TIP3    H125194   7.379   4.722   0.382
 8411TIP3    H225195   7.391   4.864   0.331
 8412TIP3   OH225196   0.383   5.747   0.025
 8412TIP3    H125197   0.425   5.681  -0.030
 8412TIP3    H225198   0.357   5.698   0.104
 8413TIP3   OH225199   0.267   5.219   0.341
 8413TIP3    H125200   0.309   5.141   0.305
 8413TIP3    H225201   0.339   5.273   0.374
 8414TIP3   OH225202   0.681   4.709   0.404
 8414TIP3    H125203   0.753   4.647   0.417
 8414TIP3    H225204   0.652   4.695   0.314
 8415TIP3   OH225205   7.825   4.391   0.352
 8415TIP3    H125206   7.794   4.463   0.297
 8415TIP3    H225207   7.766   4.319   0.332
 8416TIP3   OH225208   5.950   0.825   6.377
 8416TIP3    H125209   5.981   0.735   6.382
 8416TIP3    H225210   5.984   0.858   6.294
 8417TIP3   OH225211   7.483   4.584   0.437
 8417TIP3    H125212   7.558   4.565   0.493
 8417TIP3    H225213   7.492   4.525   0.363
 8418TIP3   OH225214   0.082   4.785   0.275
 8418TIP3    H125215   0.176   4.768   0.273
 8418TIP3    H225216   0.043   4.703   0.244
 8419TIP3   OH225217   5.551   1.552   6.147
 8419TIP3    H125218   5.504   1.515   6.072
 8419TIP3    H225219   5.499   1.629   6.171
 8420TIP3   OH225220   0.121   5.134   0.560
 8420TIP3    H125221   0.067   5.204   0.597
 8420TIP3    H225222   0.164   5.175   0.485
 8421TIP3   OH225223   7.705   4.505   0.577
 8421TIP3    H125224   7.766   4.562   0.623
 8421TIP3    H225225   7.759   4.455   0.516
 8422TIP3   OH225226   7.766   5.337   0.661
 8422TIP3    H125227   7.750   5.426   0.629
 8422TIP3    H225228   7.688   5.314   0.711
 8423TIP3   OH225229   4.539   1.372   6.274
 8423TIP3    H125230   4.504   1.393   6.187
 8423TIP3    H225231   4.563   1.456   6.311
 8424TIP3   OH225232   0.775   5.545   0.131
 8424TIP3    H125233   0.690   5.539   0.175
 8424TIP3    H225234   0.776   5.632   0.092
 8425TIP3   OH225235   5.693   1.907   6.201
 8425TIP3    H125236   5.746   1.829   6.183
 8425TIP3    H225237   5.725   1.973   6.139
 8426TIP3   OH225238   5.795   1.654   6.091
 8426TIP3    H125239   5.712   1.619   6.123
 8426TIP3    H225240   5.855   1.645   6.165
 8427TIP3   OH225241   0.982   5.433   0.490
 8427TIP3    H125242   0.986   5.354   0.436
 8427TIP3    H225243   0.979   5.505   0.426
 8428TIP3   OH225244   5.496   1.177   6.141
 8428TIP3    H125245   5.411   1.215   6.121
 8428TIP3    H225246   5.544   1.180   6.059
 8429TIP3   OH225247   5.438   1.002   5.868
 8429TIP3    H125248   5.505   1.051   5.915
 8429TIP3    H225249   5.486   0.945   5.809
 8430TIP3   OH225250   1.190   5.047   0.258
 8430TIP3    H125251   1.115   5.101   0.283
 8430TIP3    H225252   1.247   5.106   0.209
 8431TIP3   OH225253   5.858   1.252   6.104
 8431TIP3    H125254   5.802   1.283   6.176
 8431TIP3    H225255   5.940   1.228   6.147
 8432TIP3   OH225256   0.823   5.025   0.559
 8432TIP3    H125257   0.831   5.093   0.626
 8432TIP3    H225258   0.729   5.006   0.556
 8433TIP3   OH225259   7.682   4.919   0.134
 8433TIP3    H125260   7.642   4.858   0.071
 8433TIP3    H225261   7.753   4.869   0.173
 8434TIP3   OH225262   0.015   5.339   0.274
 8434TIP3    H125263  -0.010   5.320   0.184
 8434TIP3    H225264   0.100   5.297   0.284
 8435TIP3   OH225265  -0.012   4.901   0.508
 8435TIP3    H125266   0.024   4.864   0.427
 8435TIP3    H225267   0.038   4.981   0.522
 8436TIP3   OH225268   0.543   5.547   0.270
 8436TIP3    H125269   0.518   5.625   0.319
 8436TIP3    H225270   0.519   5.474   0.327
 8437TIP3   OH225271   0.172   5.446   0.823
 8437TIP3    H125272   0.115   5.515   0.856
 8437TIP3    H225273   0.116   5.394   0.765
 8438TIP3   OH225274   5.678   1.140   5.933
 8438TIP3    H125275   5.742   1.188   5.984
 8438TIP3    H225276   5.698   1.162   5.842
 8439TIP3   OH225277   7.726   5.019   0.954
 8439TIP3    H125278   7.724   5.115   0.950
 8439TIP3    H225279   7.634   4.993   0.955
 8440TIP3   OH225280   5.438   1.801   6.176
 8440TIP3    H125281   5.519   1.848   6.194
 8440TIP3    H225282   5.386   1.862   6.124
 8441TIP3   OH225283   7.768   5.620   0.888
 8441TIP3    H125284   7.728   5.611   0.802
 8441TIP3    H225285   7.698   5.597   0.949
 8442TIP3   OH225286   4.954   1.085   6.308
 8442TIP3    H125287   4.873   1.123   6.274
 8442TIP3    H225288   4.936   0.991   6.312
 8443TIP3   OH225289   6.029   1.725   5.554
 8443TIP3    H125290   6.026   1.815   5.521
 8443TIP3    H225291   6.114   1.693   5.525
 8444TIP3   OH225292   7.339   5.148   0.843
 8444TIP3    H125293   7.271   5.154   0.776
 8444TIP3    H225294   7.365   5.056   0.844
 8445TIP3   OH225295   7.204   5.358   0.488
 8445TIP3    H125296   7.299   5.366   0.491
 8445TIP3    H225297   7.171   5.432   0.539
 8446TIP3   OH225298   1.209   5.840   0.542
 8446TIP3    H125299   1.216   5.745   0.552
 8446TIP3    H225300   1.133   5.865   0.595
 8447TIP3   OH225301   5.333   2.010   6.012
 8447TIP3    H125302   5.306   1.999   5.921
 8447TIP3    H225303   5.296   2.095   6.038
 8448TIP3   OH225304   7.356   5.541   0.016
 8448TIP3    H125305   7.402   5.533   0.100
 8448TIP3    H225306   7.307   5.460   0.007
 8449TIP3   OH225307   7.526   5.351   0.806
 8449TIP3    H125308   7.585   5.347   0.881
 8449TIP3    H225309   7.462   5.282   0.822
 8450TIP3   OH225310   5.753   1.217   5.683
 8450TIP3    H125311   5.705   1.178   5.610
 8450TIP3    H225312   5.844   1.223   5.651
 8451TIP3   OH225313   0.072   4.697   0.684
 8451TIP3    H125314   0.016   4.708   0.761
 8451TIP3    H225315   0.049   4.771   0.628
 8452TIP3   OH225316   7.731   4.575   0.175
 8452TIP3    H125317   7.641   4.541   0.180
 8452TIP3    H225318   7.763   4.546   0.090
 8453TIP3   OH225319   5.635   0.981   6.277
 8453TIP3    H125320   5.579   1.047   6.237
 8453TIP3    H225321   5.690   0.949   6.205
 8454TIP3   OH225322   0.589   4.674   0.143
 8454TIP3    H125323   0.525   4.690   0.074
 8454TIP3    H225324   0.647   4.606   0.107
 8455TIP3   OH225325   7.663   4.716   0.873
 8455TIP3    H125326   7.640   4.771   0.947
 8455TIP3    H225327   7.612   4.636   0.884
 8456TIP3   OH225328   4.717   0.605   6.360
 8456TIP3    H125329   4.736   0.611   6.267
 8456TIP3    H225330   4.625   0.632   6.368
 8457TIP3   OH225331   0.567   4.910   0.548
 8457TIP3    H125332   0.607   4.846   0.489
 8457TIP3    H225333   0.551   4.861   0.629
 8458TIP3   OH225334   0.263   4.404   0.205
 8458TIP3    H125335   0.181   4.395   0.254
 8458TIP3    H225336   0.329   4.423   0.271
 8459TIP3   OH225337   7.494   4.430   0.202
 8459TIP3    H125338   7.406   4.468   0.195
 8459TIP3    H225339   7.488   4.349   0.151
 8460TIP3   OH225340   5.207   0.796   6.307
 8460TIP3    H125341   5.291   0.766   6.273
 8460TIP3    H225342   5.151   0.803   6.230
 8461TIP3   OH225343   5.030   0.831   6.098
 8461TIP3    H125344   4.951   0.782   6.076
 8461TIP3    H225345   5.072   0.849   6.014
 8462TIP3   OH225346   0.926   6.151   0.635
 8462TIP3    H125347   0.920   6.175   0.542
 8462TIP3    H225348   1.009   6.191   0.664
 8463TIP3   OH225349   7.732   5.292   0.989
 8463TIP3    H125350   7.815   5.320   1.027
 8463TIP3    H225351   7.670   5.291   1.062
 8464TIP3   OH225352   0.357   4.741   0.305
 8464TIP3    H125353   0.432   4.698   0.264
 8464TIP3    H225354   0.350   4.700   0.392
 8465TIP3   OH225355   0.320   4.646   0.562
 8465TIP3    H125356   0.233   4.646   0.603
 8465TIP3    H225357   0.375   4.696   0.622
 8466TIP3   OH225358   5.258   1.309   6.080
 8466TIP3    H125359   5.183   1.253   6.061
 8466TIP3    H225360   5.238   1.348   6.165
 8467TIP3   OH225361   0.968   5.222   0.301
 8467TIP3    H125362   0.996   5.277   0.227
 8467TIP3    H225363   0.881   5.192   0.277
 8468TIP3   OH225364   5.649   0.734   5.884
 8468TIP3    H125365   5.611   0.657   5.925
 8468TIP3    H225366   5.688   0.783   5.957
 8469TIP3   OH225367   5.791   0.910   6.053
 8469TIP3    H125368   5.882   0.920   6.080
 8469TIP3    H225369   5.772   0.990   6.004
 8470TIP3   OH225370   7.552   5.002   0.362
 8470TIP3    H125371   7.591   4.984   0.276
 8470TIP3    H225372   7.613   4.965   0.425
 8471TIP3   OH225373   5.408   1.469   5.920
 8471TIP3    H125374   5.359   1.552   5.916
 8471TIP3    H225375   5.351   1.411   5.970
 8472TIP3   OH225376   7.481   4.912   1.017
 8472TIP3    H125377   7.444   4.937   1.102
 8472TIP3    H225378   7.407   4.877   0.968
 8473TIP3   OH225379   0.400   5.074   1.002
 8473TIP3    H125380   0.316   5.029   0.988
 8473TIP3    H225381   0.464   5.003   1.010
 8474TIP3   OH225382   6.133   1.037   5.905
 8474TIP3    H125383   6.058   1.014   5.850
 8474TIP3    H225384   6.174   1.111   5.861
 8475TIP3   OH225385   1.199   5.574   0.604
 8475TIP3    H125386   1.138   5.521   0.553
 8475TIP3    H225387   1.253   5.511   0.651
 8476TIP3   OH225388   5.932   1.726   5.811
 8476TIP3    H125389   6.018   1.724   5.852
 8476TIP3    H225390   5.951   1.723   5.717
 8477TIP3   OH225391   0.710   5.114   0.204
 8477TIP3    H125392   0.620   5.085   0.222
 8477TIP3    H225393   0.756   5.034   0.177
 8478TIP3   OH225394   7.673   5.334   0.027
 8478TIP3    H125395   7.670   5.410  -0.030
 8478TIP3    H225396   7.583   5.321   0.056
 8479TIP3   OH225397   4.635   0.942   6.101
 8479TIP3    H125398   4.681   1.023   6.120
 8479TIP3    H225399   4.555   0.947   6.152
 8480TIP3   OH225400   5.181   1.417   6.313
 8480TIP3    H125401   5.154   1.506   6.339
 8480TIP3    H225402   5.149   1.361   6.384
 8481TIP3   OH225403   0.147   5.689   0.487
 8481TIP3    H125404   0.182   5.752   0.424
 8481TIP3    H225405   0.209   5.690   0.560
 8482TIP3   OH225406   4.993   1.882   6.245
 8482TIP3    H125407   4.905   1.888   6.283
 8482TIP3    H225408   5.026   1.971   6.248
 8483TIP3   OH225409   0.519   5.315   0.421
 8483TIP3    H125410   0.579   5.341   0.491
 8483TIP3    H225411   0.567   5.248   0.373
 8484TIP3   OH225412   5.679   1.533   5.760
 8484TIP3    H125413   5.720   1.448   5.742
 8484TIP3    H225414   5.587   1.519   5.740
 8485TIP3   OH225415   0.756   5.823   0.477
 8485TIP3    H125416   0.670   5.780   0.473
 8485TIP3    H225417   0.754   5.887   0.405
 8486TIP3   OH225418   6.025   1.995   5.501
 8486TIP3    H125419   6.055   2.050   5.430
 8486TIP3    H225420   5.951   2.043   5.539
 8487TIP3   OH225421   5.895   1.441   5.914
 8487TIP3    H125422   5.882   1.372   5.979
 8487TIP3    H225423   5.988   1.438   5.893
 8488TIP3   OH225424   7.397   5.528   0.623
 8488TIP3    H125425   7.455   5.475   0.678
 8488TIP3    H225426   7.331   5.562   0.684
 8489TIP3   OH225427   5.077   1.500   5.698
 8489TIP3    H125428   5.081   1.408   5.670
 8489TIP3    H225429   5.053   1.495   5.791
 8490TIP3   OH225430   5.001   1.502   5.966
 8490TIP3    H125431   5.062   1.469   6.032
 8490TIP3    H225432   5.002   1.597   5.978
 8491TIP3   OH225433   4.731   1.191   6.181
 8491TIP3    H125434   4.666   1.239   6.234
 8491TIP3    H225435   4.752   1.252   6.110
 8492TIP3   OH225436   5.273   1.702   5.909
 8492TIP3    H125437   5.188   1.721   5.950
 8492TIP3    H225438   5.298   1.784   5.867
 8493TIP3   OH225439   5.497   0.740   6.298
 8493TIP3    H125440   5.537   0.827   6.295
 8493TIP3    H225441   5.478   0.725   6.390
 8494TIP3   OH225442   0.519   4.734   0.750
 8494TIP3    H125443   0.455   4.745   0.820
 8494TIP3    H225444   0.529   4.639   0.741
 8495TIP3   OH225445   5.020   1.772   5.996
 8495TIP3    H125446   4.993   1.840   5.935
 8495TIP3    H225447   5.010   1.811   6.082
 8496TIP3   OH225448   0.811   4.860   0.136
 8496TIP3    H125449   0.735   4.802   0.144
 8496TIP3    H225450   0.881   4.813   0.181
 8497TIP3   OH225451   4.750   1.377   5.969
 8497TIP3    H125452   4.819   1.444   5.976
 8497TIP3    H225453   4.784   1.314   5.905
 8498TIP3   OH225454   4.701   0.676   6.085
 8498TIP3    H125455   4.674   0.767   6.098
 8498TIP3    H225456   4.622   0.631   6.054
 8499TIP3   OH225457   0.795   5.812   0.058
 8499TIP3    H125458   0.749   5.855  -0.014
 8499TIP3    H225459   0.887   5.832   0.043
 8500TIP3   OH225460   4.587   1.638   6.361
 8500TIP3    H125461   4.543   1.674   6.438
 8500TIP3    H225462   4.544   1.680   6.287
 8501TIP3   OH225463   7.402   5.828   1.050
 8501TIP3    H125464   7.481   5.842   1.101
 8501TIP3    H225465   7.395   5.732   1.041
 8502TIP3   OH225466   0.091   5.822   1.019
 8502TIP3    H125467   0.148   5.775   1.079
 8502TIP3    H225468   0.036   5.755   0.980
 8503TIP3   OH225469   5.236   1.704   5.593
 8503TIP3    H125470   5.188   1.634   5.638
 8503TIP3    H225471   5.307   1.658   5.547
 8504TIP3   OH225472   0.682   5.675   0.801
 8504TIP3    H125473   0.731   5.615   0.856
 8504TIP3    H225474   0.749   5.727   0.757
 8505TIP3   OH225475   7.573   5.272   1.198
 8505TIP3    H125476   7.586   5.194   1.252
 8505TIP3    H225477   7.478   5.283   1.195
 8506TIP3   OH225478   4.881   1.189   5.822
 8506TIP3    H125479   4.931   1.169   5.901
 8506TIP3    H225480   4.947   1.204   5.755
 8507TIP3   OH225481   0.325   5.341   1.020
 8507TIP3    H125482   0.279   5.370   0.941
 8507TIP3    H225483   0.352   5.251   1.001
 8508TIP3   OH225484   5.445   1.415   5.654
 8508TIP3    H125485   5.415   1.423   5.745
 8508TIP3    H225486   5.432   1.322   5.633
 8509TIP3   OH225487   0.721   5.386   0.593
 8509TIP3    H125488   0.805   5.418   0.559
 8509TIP3    H225489   0.745   5.328   0.664
 8510TIP3   OH225490   7.666   5.008   1.247
 8510TIP3    H125491   7.674   5.018   1.152
 8510TIP3    H225492   7.732   4.943   1.270
 8511TIP3   OH225493   5.044   1.140   6.044
 8511TIP3    H125494   5.025   1.109   6.132
 8511TIP3    H225495   5.087   1.066   6.001
 8512TIP3   OH225496   0.172   4.907   0.940
 8512TIP3    H125497   0.084   4.944   0.937
 8512TIP3    H225498   0.207   4.920   0.852
 8513TIP3   OH225499   5.169   0.956   5.887
 8513TIP3    H125500   5.148   0.956   5.794
 8513TIP3    H225501   5.264   0.969   5.891
 8514TIP3   OH225502   0.645   5.278   1.043
 8514TIP3    H125503   0.580   5.212   1.019
 8514TIP3    H225504   0.707   5.231   1.100
 8515TIP3   OH225505   5.992   1.246   5.543
 8515TIP3    H125506   5.970   1.204   5.460
 8515TIP3    H225507   5.963   1.337   5.532
 8516TIP3   OH225508   0.329   4.681   0.932
 8516TIP3    H125509   0.298   4.600   0.972
 8516TIP3    H225510   0.259   4.744   0.948
 8517TIP3   OH225511   0.294   4.971   0.699
 8517TIP3    H125512   0.376   4.980   0.651
 8517TIP3    H225513   0.234   5.031   0.655
 8518TIP3   OH225514   0.851   5.213   0.765
 8518TIP3    H125515   0.851   5.164   0.848
 8518TIP3    H225516   0.937   5.255   0.761
 8519TIP3   OH225517   0.065   4.819   1.203
 8519TIP3    H125518   0.118   4.742   1.222
 8519TIP3    H225519   0.099   4.850   1.119
 8520TIP3   OH225520   4.997   1.973   5.808
 8520TIP3    H125521   5.090   1.961   5.789
 8520TIP3    H225522   4.963   2.019   5.732
 8521TIP3   OH225523   4.477   1.369   5.989
 8521TIP3    H125524   4.572   1.381   5.984
 8521TIP3    H225525   4.462   1.282   5.952
 8522TIP3   OH225526   6.985   5.630   0.073
 8522TIP3    H125527   6.920   5.575   0.028
 8522TIP3    H225528   7.031   5.570   0.131
 8523TIP3   OH225529   7.133   5.467   0.239
 8523TIP3    H125530   7.128   5.400   0.307
 8523TIP3    H225531   7.184   5.538   0.278
 8524TIP3   OH225532   1.054   5.892   0.035
 8524TIP3    H125533   1.080   5.918   0.123
 8524TIP3    H225534   1.126   5.921  -0.021
 8525TIP3   OH225535   1.058   5.909   0.319
 8525TIP3    H125536   1.019   5.823   0.307
 8525TIP3    H225537   1.128   5.895   0.383
 8526TIP3   OH225538   0.979   5.581   0.826
 8526TIP3    H125539   1.038   5.521   0.781
 8526TIP3    H225540   1.013   5.668   0.805
 8527TIP3   OH225541   6.160   1.454   5.876
 8527TIP3    H125542   6.226   1.517   5.847
 8527TIP3    H225543   6.199   1.412   5.953
 8528TIP3   OH225544   6.264   1.310   6.080
 8528TIP3    H125545   6.203   1.264   6.138
 8528TIP3    H225546   6.338   1.334   6.137
 8529TIP3   OH225547   1.114   5.370   0.119
 8529TIP3    H125548   1.181   5.311   0.084
 8529TIP3    H225549   1.123   5.450   0.067
 8530TIP3   OH225550   0.937   5.658   0.331
 8530TIP3    H125551   0.866   5.696   0.381
 8530TIP3    H225552   0.894   5.615   0.257
 8531TIP3   OH225553   6.198   1.232   5.721
 8531TIP3    H125554   6.130   1.230   5.653
 8531TIP3    H225555   6.182   1.314   5.768
 8532TIP3   OH225556   5.955   0.897   5.735
 8532TIP3    H125557   5.914   0.901   5.649
 8532TIP3    H225558   6.042   0.859   5.719
 8533TIP3   OH225559   6.083   1.173   6.238
 8533TIP3    H125560   6.086   1.079   6.225
 8533TIP3    H225561   6.066   1.184   6.332
 8534TIP3   OH225562   7.311   4.921   0.602
 8534TIP3    H125563   7.300   4.877   0.518
 8534TIP3    H225564   7.405   4.920   0.618
 8535TIP3   OH225565   6.064   0.910   6.137
 8535TIP3    H125566   6.128   0.844   6.163
 8535TIP3    H225567   6.101   0.951   6.059
 8536TIP3   OH225568   1.020   4.719   0.248
 8536TIP3    H125569   1.094   4.734   0.189
 8536TIP3    H225570   1.060   4.694   0.331
 8537TIP3   OH225571   1.063   4.914   0.492
 8537TIP3    H125572   0.981   4.963   0.492
 8537TIP3    H225573   1.106   4.941   0.411
 8538TIP3   OH225574   7.278   4.528   0.615
 8538TIP3    H125575   7.339   4.546   0.544
 8538TIP3    H225576   7.330   4.538   0.695
 8539TIP3   OH225577   5.791   2.104   6.034
 8539TIP3    H125578   5.863   2.087   5.974
 8539TIP3    H225579   5.829   2.161   6.102
 8540TIP3   OH225580   7.582   5.572   1.079
 8540TIP3    H125581   7.490   5.551   1.090
 8540TIP3    H225582   7.623   5.544   1.161
 8541TIP3   OH225583   7.721   5.603   0.615
 8541TIP3    H125584   7.657   5.669   0.588
 8541TIP3    H225585   7.802   5.629   0.572
 8542TIP3   OH225586   0.394   5.780   0.747
 8542TIP3    H125587   0.344   5.836   0.807
 8542TIP3    H225588   0.433   5.841   0.685
 8543TIP3   OH225589   0.522   6.000   0.632
 8543TIP3    H125590   0.589   5.976   0.567
 8543TIP3    H225591   0.567   6.057   0.694
 8544TIP3   OH225592   7.406   5.891   0.659
 8544TIP3    H125593   7.316   5.903   0.628
 8544TIP3    H225594   7.413   5.950   0.734
 8545TIP3   OH225595   7.628   5.845   0.514
 8545TIP3    H125596   7.549   5.857   0.567
 8545TIP3    H225597   7.603   5.872   0.426
 8546TIP3   OH225598   0.241   5.875   0.306
 8546TIP3    H125599   0.168   5.886   0.245
 8546TIP3    H225600   0.251   5.961   0.347
 8547TIP3   OH225601   0.501   5.805   0.365
 8547TIP3    H125602   0.409   5.824   0.344
 8547TIP3    H225603   0.551   5.867   0.312
 8548TIP3   OH225604   0.704   5.978   0.258
 8548TIP3    H125605   0.703   6.066   0.220
 8548TIP3    H225606   0.734   5.921   0.187
 8549TIP3   OH225607   7.311   5.649   0.387
 8549TIP3    H125608   7.338   5.628   0.476
 8549TIP3    H225609   7.379   5.612   0.331
 8550TIP3   OH225610   7.506   5.524   0.246
 8550TIP3    H125611   7.515   5.442   0.295
 8550TIP3    H225612   7.593   5.564   0.251
 8551TIP3   OH225613   7.773   5.616   0.272
 8551TIP3    H125614   7.793   5.523   0.263
 8551TIP3    H225615   7.818   5.643   0.352
 8552TIP3   OH225616   4.470   1.760   6.145
 8552TIP3    H125617   4.386   1.727   6.113
 8552TIP3    H225618   4.474   1.850   6.114
 8553TIP3   OH225619   5.264   1.937   5.737
 8553TIP3    H125620   5.277   2.005   5.671
 8553TIP3    H225621   5.253   1.857   5.685
 8554TIP3   OH225622   5.970   2.039   5.830
 8554TIP3    H125623   5.953   1.947   5.811
 8554TIP3    H225624   5.934   2.087   5.755
 8555TIP3   OH225625   4.570   1.757   5.795
 8555TIP3    H125626   4.572   1.773   5.890
 8555TIP3    H225627   4.653   1.712   5.777
 8556TIP3   OH225628   0.957   5.881   0.655
 8556TIP3    H125629   0.895   5.849   0.589
 8556TIP3    H225630   0.948   5.976   0.651
 8557TIP3   OH225631   7.465   1.590   5.755
 8557TIP3    H125632   7.421   1.672   5.733
 8557TIP3    H225633   7.401   1.522   5.735
 8558TIP3   OH225634   6.692   1.857   6.266
 8558TIP3    H125635   6.705   1.763   6.253
 8558TIP3    H225636   6.759   1.882   6.330
 8559TIP3   OH225637   6.445   1.128   5.957
 8559TIP3    H125638   6.387   1.202   5.975
 8559TIP3    H225639   6.423   1.063   6.023
 8560TIP3   OH225640   6.505   1.367   6.199
 8560TIP3    H125641   6.552   1.291   6.233
 8560TIP3    H225642   6.567   1.406   6.136
 8561TIP3   OH225643   7.358   2.333   5.865
 8561TIP3    H125644   7.394   2.253   5.828
 8561TIP3    H225645   7.401   2.342   5.950
 8562TIP3   OH225646   6.652   1.162   6.301
 8562TIP3    H125647   6.720   1.145   6.366
 8562TIP3    H225648   6.683   1.119   6.221
 8563TIP3   OH225649   6.938   1.363   6.174
 8563TIP3    H125650   7.026   1.367   6.210
 8563TIP3    H225651   6.938   1.286   6.118
 8564TIP3   OH225652   7.337   1.802   5.644
 8564TIP3    H125653   7.311   1.780   5.554
 8564TIP3    H225654   7.287   1.881   5.664
 8565TIP3   OH225655   1.672   5.594   0.090
 8565TIP3    H125656   1.700   5.685   0.090
 8565TIP3    H225657   1.623   5.583   0.171
 8566TIP3   OH225658   6.333   1.634   5.766
 8566TIP3    H125659   6.306   1.649   5.675
 8566TIP3    H225660   6.360   1.720   5.798
 8567TIP3   OH225661   7.472   2.145   5.691
 8567TIP3    H125662   7.526   2.069   5.667
 8567TIP3    H225663   7.521   2.221   5.660
 8568TIP3   OH225664   7.606   1.921   5.609
 8568TIP3    H125665   7.600   1.868   5.529
 8568TIP3    H225666   7.564   1.867   5.676
 8569TIP3   OH225667   7.298   1.421   5.607
 8569TIP3    H125668   7.216   1.469   5.593
 8569TIP3    H225669   7.350   1.438   5.528
 8570TIP3   OH225670   7.251   1.237   5.334
 8570TIP3    H125671   7.301   1.278   5.405
 8570TIP3    H225672   7.318   1.195   5.280
 8571TIP3   OH225673   7.664   1.524   5.580
 8571TIP3    H125674   7.598   1.551   5.644
 8571TIP3    H225675   7.739   1.498   5.633
 8572TIP3   OH225676   6.826   1.520   5.978
 8572TIP3    H125677   6.798   1.459   5.909
 8572TIP3    H225678   6.875   1.465   6.039
 8573TIP3   OH225679   7.006   1.942   6.112
 8573TIP3    H125680   6.968   1.911   6.030
 8573TIP3    H225681   7.018   1.863   6.164
 8574TIP3   OH225682   7.495   1.393   5.404
 8574TIP3    H125683   7.555   1.450   5.451
 8574TIP3    H225684   7.515   1.408   5.311
 8575TIP3   OH225685   7.214   2.049   5.674
 8575TIP3    H125686   7.299   2.090   5.691
 8575TIP3    H225687   7.163   2.116   5.630
 8576TIP3   OH225688   1.714   5.867   0.378
 8576TIP3    H125689   1.716   5.862   0.282
 8576TIP3    H225690   1.624   5.847   0.401
 8577TIP3   OH225691   6.740   1.338   5.788
 8577TIP3    H125692   6.662   1.378   5.749
 8577TIP3    H225693   6.730   1.244   5.770
 8578TIP3   OH225694   1.294   5.414   0.332
 8578TIP3    H125695   1.224   5.395   0.269
 8578TIP3    H225696   1.330   5.328   0.353
 8579TIP3   OH225697   6.414   1.916   6.343
 8579TIP3    H125698   6.505   1.898   6.319
 8579TIP3    H225699   6.419   1.989   6.404
 8580TIP3   OH225700   7.113   2.265   5.504
 8580TIP3    H125701   7.068   2.248   5.421
 8580TIP3    H225702   7.081   2.351   5.532
 8581TIP3   OH225703   6.554   2.122   5.881
 8581TIP3    H125704   6.604   2.113   5.962
 8581TIP3    H225705   6.510   2.038   5.870
 8582TIP3   OH225706   7.313   2.194   5.136
 8582TIP3    H125707   7.364   2.123   5.095
 8582TIP3    H225708   7.347   2.200   5.225
 8583TIP3   OH225709   7.366   2.221   5.406
 8583TIP3    H125710   7.281   2.223   5.451
 8583TIP3    H225711   7.430   2.210   5.477
 8584TIP3   OH225712   1.500   5.591   0.305
 8584TIP3    H125713   1.557   5.561   0.375
 8584TIP3    H225714   1.422   5.537   0.312
 8585TIP3   OH225715   7.575   1.439   5.142
 8585TIP3    H125716   7.534   1.410   5.061
 8585TIP3    H225717   7.631   1.512   5.116
 8586TIP3   OH225718   6.945   1.155   5.993
 8586TIP3    H125719   6.856   1.119   5.998
 8586TIP3    H225720   6.973   1.136   5.903
 8587TIP3   OH225721   7.367   1.177   5.720
 8587TIP3    H125722   7.337   1.264   5.692
 8587TIP3    H225723   7.453   1.167   5.678
 8588TIP3   OH225724   6.508   0.891   5.824
 8588TIP3    H125725   6.470   0.894   5.736
 8588TIP3    H225726   6.486   0.975   5.863
 8589TIP3   OH225727   6.701   1.049   6.052
 8589TIP3    H125728   6.619   1.077   6.011
 8589TIP3    H225729   6.700   0.953   6.044
 8590TIP3   OH225730   7.036   1.079   5.737
 8590TIP3    H125731   7.129   1.100   5.745
 8590TIP3    H225732   7.023   1.056   5.645
 8591TIP3   OH225733   6.785   1.113   5.530
 8591TIP3    H125734   6.769   1.027   5.491
 8591TIP3    H225735   6.853   1.151   5.475
 8592TIP3   OH225736   7.064   1.569   5.570
 8592TIP3    H125737   6.986   1.517   5.550
 8592TIP3    H225738   7.047   1.607   5.656
 8593TIP3   OH225739   7.503   0.930   5.452
 8593TIP3    H125740   7.440   0.899   5.517
 8593TIP3    H225741   7.535   1.013   5.487
 8594TIP3   OH225742   7.592   1.174   5.544
 8594TIP3    H125743   7.687   1.179   5.534
 8594TIP3    H225744   7.558   1.246   5.491
 8595TIP3   OH225745   6.754   1.580   6.243
 8595TIP3    H125746   6.758   1.587   6.147
 8595TIP3    H225747   6.823   1.518   6.265
 8596TIP3   OH225748   7.211   1.723   5.402
 8596TIP3    H125749   7.163   1.806   5.400
 8596TIP3    H225750   7.158   1.666   5.458
 8597TIP3   OH225751   7.750   1.946   5.254
 8597TIP3    H125752   7.721   2.002   5.326
 8597TIP3    H225753   7.746   2.003   5.177
 8598TIP3   OH225754   6.863   1.910   5.872
 8598TIP3    H125755   6.869   1.990   5.820
 8598TIP3    H225756   6.770   1.892   5.878
 8599TIP3   OH225757   6.437   1.212   5.589
 8599TIP3    H125758   6.484   1.293   5.609
 8599TIP3    H225759   6.357   1.218   5.642
 8600TIP3   OH225760   6.984   1.671   5.806
 8600TIP3    H125761   6.961   1.763   5.823
 8600TIP3    H225762   6.934   1.621   5.870
 8601TIP3   OH225763   7.148   2.251   6.345
 8601TIP3    H125764   7.179   2.322   6.290
 8601TIP3    H225765   7.208   2.250   6.420
 8602TIP3   OH225766   6.784   2.141   5.728
 8602TIP3    H125767   6.699   2.149   5.771
 8602TIP3    H225768   6.821   2.229   5.731
 8603TIP3   OH225769   7.481   1.775   5.167
 8603TIP3    H125770   7.512   1.766   5.257
 8603TIP3    H225771   7.395   1.732   5.167
 8604TIP3   OH225772   7.743   2.153   5.052
 8604TIP3    H125773   7.777   2.172   4.964
 8604TIP3    H225774   7.679   2.222   5.068
 8605TIP3   OH225775   7.619   1.736   5.401
 8605TIP3    H125776   7.655   1.663   5.452
 8605TIP3    H225777   7.694   1.772   5.355
 8606TIP3   OH225778   1.366   5.803   0.130
 8606TIP3    H125779   1.414   5.739   0.183
 8606TIP3    H225780   1.392   5.888   0.167
 8607TIP3   OH225781   6.852   1.750   5.190
 8607TIP3    H125782   6.862   1.659   5.162
 8607TIP3    H225783   6.835   1.745   5.283
 8608TIP3   OH225784   6.793   1.762   5.461
 8608TIP3    H125785   6.866   1.732   5.516
 8608TIP3    H225786   6.795   1.857   5.468
 8609TIP3   OH225787   6.527   1.461   5.667
 8609TIP3    H125788   6.464   1.510   5.719
 8609TIP3    H225789   6.549   1.519   5.594
 8610TIP3   OH225790   7.062   1.948   5.400
 8610TIP3    H125791   6.979   1.973   5.440
 8610TIP3    H225792   7.087   2.023   5.346
 8611TIP3   OH225793   6.812   2.033   5.478
 8611TIP3    H125794   6.790   2.103   5.416
 8611TIP3    H225795   6.802   2.074   5.564
 8612TIP3   OH225796   6.544   1.641   5.453
 8612TIP3    H125797   6.616   1.703   5.463
 8612TIP3    H225798   6.576   1.577   5.389
 8613TIP3   OH225799   6.433   0.941   5.565
 8613TIP3    H125800   6.451   1.033   5.584
 8613TIP3    H225801   6.379   0.942   5.487
 8614TIP3   OH225802   7.788   2.442   5.960
 8614TIP3    H125803   7.751   2.489   5.885
 8614TIP3    H225804   7.809   2.355   5.926
 8615TIP3   OH225805   6.382   1.894   5.857
 8615TIP3    H125806   6.349   1.935   5.936
 8615TIP3    H225807   6.340   1.942   5.785
 8616TIP3   OH225808   1.369   6.086   0.535
 8616TIP3    H125809   1.449   6.042   0.565
 8616TIP3    H225810   1.306   6.014   0.523
 8617TIP3   OH225811   7.008   1.950   5.082
 8617TIP3    H125812   6.960   1.880   5.126
 8617TIP3    H225813   7.081   1.907   5.039
 8618TIP3   OH225814   7.441   1.991   5.008
 8618TIP3    H125815   7.472   1.922   5.066
 8618TIP3    H225816   7.500   1.986   4.932
 8619TIP3   OH225817   6.671   1.449   5.309
 8619TIP3    H125818   6.722   1.430   5.388
 8619TIP3    H225819   6.737   1.460   5.240
 8620TIP3   OH225820   7.228   1.667   5.135
 8620TIP3    H125821   7.210   1.679   5.229
 8620TIP3    H225822   7.217   1.573   5.121
 8621TIP3   OH225823   6.843   1.413   5.528
 8621TIP3    H125824   6.821   1.370   5.610
 8621TIP3    H225825   6.890   1.347   5.477
 8622TIP3   OH225826   6.973   1.239   5.367
 8622TIP3    H125827   6.952   1.232   5.274
 8622TIP3    H225828   7.068   1.226   5.371
 8623TIP3   OH225829   6.798   2.238   5.292
 8623TIP3    H125830   6.890   2.221   5.270
 8623TIP3    H225831   6.763   2.285   5.217
 8624TIP3   OH225832   6.274   1.617   5.485
 8624TIP3    H125833   6.367   1.635   5.471
 8624TIP3    H225834   6.259   1.532   5.444
 8625TIP3   OH225835   6.179   2.201   5.927
 8625TIP3    H125836   6.119   2.145   5.879
 8625TIP3    H225837   6.224   2.142   5.988
 8626TIP3   OH225838   6.326   2.038   6.098
 8626TIP3    H125839   6.323   1.974   6.170
 8626TIP3    H225840   6.376   2.111   6.134
 8627TIP3   OH225841   1.320   5.200   0.054
 8627TIP3    H125842   1.298   5.143  -0.020
 8627TIP3    H225843   1.404   5.238   0.030
 8628TIP3   OH225844   1.248   4.806   0.124
 8628TIP3    H125845   1.311   4.818   0.052
 8628TIP3    H225846   1.230   4.895   0.155
 8629TIP3   OH225847   7.588   2.350   5.563
 8629TIP3    H125848   7.646   2.321   5.492
 8629TIP3    H225849   7.641   2.414   5.611
 8630TIP3   OH225850   1.487   5.826   0.520
 8630TIP3    H125851   1.393   5.815   0.507
 8630TIP3    H225852   1.505   5.780   0.603
 8631TIP3   OH225853   1.715   5.866   0.100
 8631TIP3    H125854   1.667   5.942   0.067
 8631TIP3    H225855   1.801   5.871   0.058
 8632TIP3   OH225856   1.386   6.108   0.163
 8632TIP3    H125857   1.297   6.132   0.138
 8632TIP3    H225858   1.411   6.174   0.227
 8633TIP3   OH225859   6.813   2.425   6.374
 8633TIP3    H125860   6.729   2.431   6.419
 8633TIP3    H225861   6.795   2.454   6.284
 8634TIP3   OH225862   7.209   2.459   6.186
 8634TIP3    H125863   7.171   2.471   6.099
 8634TIP3    H225864   7.249   2.543   6.207
 8635TIP3   OH225865   7.489   2.373   6.101
 8635TIP3    H125866   7.456   2.352   6.189
 8635TIP3    H225867   7.554   2.442   6.116
 8636TIP3   OH225868   7.669   2.579   6.164
 8636TIP3    H125869   7.675   2.670   6.134
 8636TIP3    H225870   7.726   2.531   6.104
 8637TIP3   OH225871   6.499   2.219   6.245
 8637TIP3    H125872   6.521   2.194   6.334
 8637TIP3    H225873   6.571   2.186   6.192
 8638TIP3   OH225874   6.703   2.096   6.112
 8638TIP3    H125875   6.712   2.013   6.158
 8638TIP3    H225876   6.790   2.135   6.115
 8639TIP3   OH225877   6.966   2.211   6.128
 8639TIP3    H125878   6.990   2.120   6.109
 8639TIP3    H225879   7.021   2.236   6.202
 8640TIP3   OH225880   6.260   2.022   5.650
 8640TIP3    H125881   6.179   1.992   5.607
 8640TIP3    H225882   6.274   2.110   5.614
 8641TIP3   OH225883   7.058   2.174   5.231
 8641TIP3    H125884   7.142   2.202   5.196
 8641TIP3    H225885   7.030   2.103   5.173
 8642TIP3   OH225886   7.734   2.238   5.346
 8642TIP3    H125887   7.813   2.200   5.308
 8642TIP3    H225888   7.691   2.282   5.273
 8643TIP3   OH225889   6.368   2.014   5.283
 8643TIP3    H125890   6.380   2.044   5.373
 8643TIP3    H225891   6.450   1.968   5.262
 8644TIP3   OH225892   0.079   2.430   5.472
 8644TIP3    H125893   0.034   2.352   5.440
 8644TIP3    H225894   0.154   2.440   5.414
 8645TIP3   OH225895   4.272   6.324   0.726
 8645TIP3    H125896   4.287   6.419   0.721
 8645TIP3    H225897   4.179   6.314   0.708
 8646TIP3   OH225898   4.563   6.598   0.630
 8646TIP3    H125899   4.570   6.549   0.712
 8646TIP3    H225900   4.590   6.687   0.653
 8647TIP3   OH225901   4.140   7.029   0.567
 8647TIP3    H125902   4.205   6.978   0.518
 8647TIP3    H225903   4.169   7.024   0.658
 8648TIP3   OH225904   4.586   5.690   0.632
 8648TIP3    H125905   4.642   5.627   0.679
 8648TIP3    H225906   4.645   5.762   0.610
 8649TIP3   OH225907   4.260   6.515   0.370
 8649TIP3    H125908   4.222   6.488   0.286
 8649TIP3    H225909   4.214   6.596   0.392
 8650TIP3   OH225910   4.685   5.819   0.881
 8650TIP3    H125911   4.722   5.739   0.917
 8650TIP3    H225912   4.732   5.832   0.799
 8651TIP3   OH225913   3.166   6.303   0.554
 8651TIP3    H125914   3.142   6.290   0.462
 8651TIP3    H225915   3.232   6.373   0.552
 8652TIP3   OH225916   4.638   6.838   0.733
 8652TIP3    H125917   4.578   6.836   0.807
 8652TIP3    H225918   4.660   6.930   0.721
 8653TIP3   OH225919   4.359   6.880   0.429
 8653TIP3    H125920   4.416   6.808   0.402
 8653TIP3    H225921   4.412   6.959   0.413
 8654TIP3   OH225922   4.499   6.656   0.367
 8654TIP3    H125923   4.431   6.590   0.352
 8654TIP3    H225924   4.545   6.625   0.446
 8655TIP3   OH225925   4.105   6.135   0.355
 8655TIP3    H125926   4.047   6.210   0.346
 8655TIP3    H225927   4.170   6.146   0.286
 8656TIP3   OH225928   4.127   5.967   0.081
 8656TIP3    H125929   4.189   6.024   0.127
 8656TIP3    H225930   4.182   5.914   0.024
 8657TIP3   OH225931   5.085   6.465   0.981
 8657TIP3    H125932   5.008   6.422   1.019
 8657TIP3    H225933   5.085   6.439   0.889
 8658TIP3   OH225934   4.509   6.261   0.359
 8658TIP3    H125935   4.454   6.246   0.436
 8658TIP3    H225936   4.594   6.225   0.384
 8659TIP3   OH225937   4.488   6.839   0.964
 8659TIP3    H125938   4.441   6.922   0.970
 8659TIP3    H225939   4.422   6.773   0.988
 8660TIP3   OH225940   4.316   6.155   0.189
 8660TIP3    H125941   4.383   6.201   0.240
 8660TIP3    H225942   4.350   6.156   0.100
 8661TIP3   OH225943   4.129   6.741   0.428
 8661TIP3    H125944   4.201   6.804   0.424
 8661TIP3    H225945   4.051   6.794   0.411
 8662TIP3   OH225946   4.850   5.324   0.204
 8662TIP3    H125947   4.761   5.330   0.240
 8662TIP3    H225948   4.870   5.414   0.178
 8663TIP3   OH225949   3.622   5.996   0.565
 8663TIP3    H125950   3.538   6.035   0.542
 8663TIP3    H225951   3.652   6.047   0.641
 8664TIP3   OH225952   2.064   3.014   6.203
 8664TIP3    H125953   2.061   3.108   6.183
 8664TIP3    H225954   2.153   2.988   6.180
 8665TIP3   OH225955   3.984   7.016   0.269
 8665TIP3    H125956   3.936   7.003   0.187
 8665TIP3    H225957   3.945   7.094   0.308
 8666TIP3   OH225958   3.406   6.826   0.748
 8666TIP3    H125959   3.402   6.871   0.832
 8666TIP3    H225960   3.423   6.734   0.771
 8667TIP3   OH225961   1.573   3.241   6.292
 8667TIP3    H125962   1.624   3.169   6.255
 8667TIP3    H225963   1.611   3.255   6.379
 8668TIP3   OH225964   4.236   6.964   0.186
 8668TIP3    H125965   4.149   6.975   0.224
 8668TIP3    H225966   4.289   6.927   0.257
 8669TIP3   OH225967   1.818   2.427   6.317
 8669TIP3    H125968   1.772   2.412   6.234
 8669TIP3    H225969   1.901   2.467   6.292
 8670TIP3   OH225970   4.207   5.428   0.171
 8670TIP3    H125971   4.252   5.369   0.232
 8670TIP3    H225972   4.148   5.370   0.122
 8671TIP3   OH225973   4.267   5.878   0.429
 8671TIP3    H125974   4.275   5.956   0.483
 8671TIP3    H225975   4.340   5.884   0.367
 8672TIP3   OH225976   4.497   5.993   0.777
 8672TIP3    H125977   4.405   5.969   0.773
 8672TIP3    H225978   4.540   5.918   0.819
 8673TIP3   OH225979   3.765   5.373   0.128
 8673TIP3    H125980   3.795   5.431   0.198
 8673TIP3    H225981   3.721   5.431   0.066
 8674TIP3   OH225982   3.761   5.728   0.602
 8674TIP3    H125983   3.823   5.755   0.670
 8674TIP3    H225984   3.769   5.795   0.534
 8675TIP3   OH225985   3.534   5.774   0.372
 8675TIP3    H125986   3.543   5.686   0.335
 8675TIP3    H225987   3.519   5.830   0.295
 8676TIP3   OH225988   3.951   6.364   0.343
 8676TIP3    H125989   3.882   6.299   0.333
 8676TIP3    H225990   3.908   6.437   0.388
 8677TIP3   OH225991   4.761   6.436   1.037
 8677TIP3    H125992   4.791   6.526   1.053
 8677TIP3    H225993   4.685   6.446   0.981
 8678TIP3   OH225994   4.347   5.663   0.109
 8678TIP3    H125995   4.292   5.617   0.173
 8678TIP3    H225996   4.391   5.731   0.159
 8679TIP3   OH225997   4.452   5.895   0.221
 8679TIP3    H125998   4.544   5.898   0.245
 8679TIP3    H225999   4.436   5.979   0.177
 8680TIP3   OH226000   4.092   6.487   0.150
 8680TIP3    H126001   4.049   6.572   0.154
 8680TIP3    H226002   4.044   6.432   0.212
 8681TIP3   OH226003   4.906   5.952   0.121
 8681TIP3    H126004   4.847   5.910   0.059
 8681TIP3    H226005   4.900   6.046   0.101
 8682TIP3   OH226006   4.579   6.765   0.098
 8682TIP3    H126007   4.563   6.699   0.165
 8682TIP3    H226008   4.601   6.715   0.020
 8683TIP3   OH226009   4.522   6.498   0.893
 8683TIP3    H126010   4.444   6.530   0.940
 8683TIP3    H226011   4.512   6.403   0.893
 8684TIP3   OH226012   3.695   6.711   0.703
 8684TIP3    H126013   3.788   6.732   0.692
 8684TIP3    H226014   3.652   6.754   0.629
 8685TIP3   OH226015   3.188   5.958   0.410
 8685TIP3    H126016   3.193   6.047   0.377
 8685TIP3    H226017   3.095   5.944   0.427
 8686TIP3   OH226018   3.821   6.457   0.759
 8686TIP3    H126019   3.802   6.545   0.791
 8686TIP3    H226020   3.917   6.450   0.767
 8687TIP3   OH226021   3.555   6.825   0.495
 8687TIP3    H126022   3.468   6.824   0.535
 8687TIP3    H226023   3.567   6.915   0.466
 8688TIP3   OH226024   4.333   6.503  -0.016
 8688TIP3    H126025   4.400   6.482   0.049
 8688TIP3    H226026   4.250   6.491   0.031
 8689TIP3   OH226027   2.068   3.290   6.161
 8689TIP3    H126028   2.102   3.356   6.101
 8689TIP3    H226029   1.991   3.330   6.201
 8690TIP3   OH226030   4.531   6.438   0.156
 8690TIP3    H126031   4.515   6.385   0.234
 8690TIP3    H226032   4.626   6.441   0.148
 8691TIP3   OH226033   1.121   2.781   6.317
 8691TIP3    H126034   1.137   2.690   6.292
 8691TIP3    H226035   1.117   2.779   6.413
 8692TIP3   OH226036   3.695   6.489   0.212
 8692TIP3    H126037   3.711   6.462   0.302
 8692TIP3    H226038   3.665   6.580   0.219
 8693TIP3   OH226039   3.402   6.150   0.507
 8693TIP3    H126040   3.355   6.185   0.583
 8693TIP3    H226041   3.340   6.158   0.435
 8694TIP3   OH226042   4.429   5.482   0.556
 8694TIP3    H126043   4.360   5.503   0.494
 8694TIP3    H226044   4.484   5.560   0.558
 8695TIP3   OH226045   3.926   6.705   0.202
 8695TIP3    H126046   3.832   6.686   0.203
 8695TIP3    H226047   3.935   6.776   0.139
 8696TIP3   OH226048   4.119   5.723   0.637
 8696TIP3    H126049   4.104   5.806   0.591
 8696TIP3    H226050   4.208   5.731   0.672
 8697TIP3   OH226051   4.387   5.465   0.815
 8697TIP3    H126052   4.293   5.477   0.829
 8697TIP3    H226053   4.401   5.484   0.722
 8698TIP3   OH226054   3.651   6.751   0.250
 8698TIP3    H126055   3.636   6.826   0.192
 8698TIP3    H226056   3.607   6.775   0.331
 8699TIP3   OH226057   3.753   5.480   0.496
 8699TIP3    H126058   3.723   5.568   0.521
 8699TIP3    H226059   3.847   5.482   0.511
 8700TIP3   OH226060   4.715   6.141   0.704
 8700TIP3    H126061   4.638   6.090   0.730
 8700TIP3    H226062   4.763   6.156   0.786
 8701TIP3   OH226063   3.400   6.421   0.204
 8701TIP3    H126064   3.422   6.507   0.170
 8701TIP3    H226065   3.434   6.359   0.139
 8702TIP3   OH226066   3.311   5.627   0.202
 8702TIP3    H126067   3.304   5.670   0.287
 8702TIP3    H226068   3.264   5.544   0.212
 8703TIP3   OH226069   4.693   7.134   0.662
 8703TIP3    H126070   4.668   7.226   0.675
 8703TIP3    H226071   4.751   7.136   0.586
 8704TIP3   OH226072   3.158   6.602   0.694
 8704TIP3    H126073   3.135   6.692   0.715
 8704TIP3    H226074   3.243   6.608   0.649
 8705TIP3   OH226075   1.272   2.998   6.253
 8705TIP3    H126076   1.226   2.918   6.280
 8705TIP3    H226077   1.346   2.966   6.202
 8706TIP3   OH226078   1.705   3.034   6.176
 8706TIP3    H126079   1.733   2.965   6.237
 8706TIP3    H226080   1.764   3.025   6.101
 8707TIP3   OH226081   3.495   6.219   0.050
 8707TIP3    H126082   3.521   6.150   0.112
 8707TIP3    H226083   3.568   6.226  -0.010
 8708TIP3   OH226084   1.437   2.710   6.264
 8708TIP3    H126085   1.448   2.726   6.358
 8708TIP3    H226086   1.442   2.615   6.256
 8709TIP3   OH226087   3.799   6.147   0.349
 8709TIP3    H126088   3.775   6.148   0.441
 8709TIP3    H226089   3.828   6.057   0.332
 8710TIP3   OH226090   3.844   5.958   0.104
 8710TIP3    H126091   3.820   5.946   0.013
 8710TIP3    H226092   3.938   5.973   0.102
 8711TIP3   OH226093   2.040   2.539   6.205
 8711TIP3    H126094   2.026   2.497   6.121
 8711TIP3    H226095   2.011   2.629   6.193
 8712TIP3   OH226096   3.656   6.968   0.085
 8712TIP3    H126097   3.748   6.954   0.064
 8712TIP3    H226098   3.620   7.010   0.007
 8713TIP3   OH226099   3.127   6.430   0.140
 8713TIP3    H126100   3.206   6.461   0.183
 8713TIP3    H226101   3.072   6.396   0.211
 8714TIP3   OH226102   3.079   6.865   0.737
 8714TIP3    H126103   2.996   6.901   0.706
 8714TIP3    H226104   3.074   6.871   0.833
 8715TIP3   OH226105   4.919   7.232   0.525
 8715TIP3    H126106   4.911   7.285   0.605
 8715TIP3    H226107   5.013   7.229   0.507
 8716TIP3   OH226108   4.791   7.239   0.964
 8716TIP3    H126109   4.769   7.146   0.964
 8716TIP3    H226110   4.845   7.251   1.042
 8717TIP3   OH226111   4.806   6.419   0.169
 8717TIP3    H126112   4.862   6.490   0.137
 8717TIP3    H226113   4.862   6.370   0.229
 8718TIP3   OH226114   4.965   6.229   0.300
 8718TIP3    H126115   4.895   6.197   0.357
 8718TIP3    H226116   5.017   6.286   0.356
 8719TIP3   OH226117   4.942   6.772   0.831
 8719TIP3    H126118   4.969   6.718   0.757
 8719TIP3    H226119   4.908   6.852   0.791
 8720TIP3   OH226120   4.728   6.980   0.981
 8720TIP3    H126121   4.795   6.957   1.045
 8720TIP3    H226122   4.682   6.898   0.964
 8721TIP3   OH226123   4.850   6.197   0.008
 8721TIP3    H126124   4.777   6.197  -0.053
 8721TIP3    H226125   4.833   6.270   0.067
 8722TIP3   OH226126   2.125   2.165   6.321
 8722TIP3    H126127   2.063   2.205   6.260
 8722TIP3    H226128   2.105   2.072   6.319
 8723TIP3   OH226129   4.746   6.139   0.438
 8723TIP3    H126130   4.718   6.052   0.411
 8723TIP3    H226131   4.735   6.139   0.533
 8724TIP3   OH226132   2.068   1.900   6.306
 8724TIP3    H126133   2.115   1.853   6.376
 8724TIP3    H226134   1.983   1.856   6.301
 8725TIP3   OH226135   4.720   5.864   0.303
 8725TIP3    H126136   4.757   5.786   0.344
 8725TIP3    H226137   4.790   5.897   0.246
 8726TIP3   OH226138   4.793   6.144   0.972
 8726TIP3    H126139   4.834   6.059   0.982
 8726TIP3    H226140   4.821   6.194   1.048
 8727TIP3   OH226141   4.818   5.631   0.414
 8727TIP3    H126142   4.869   5.587   0.482
 8727TIP3    H226143   4.749   5.568   0.391
 8728TIP3   OH226144   4.942   5.554   0.080
 8728TIP3    H126145   4.967   5.480   0.026
 8728TIP3    H226146   4.949   5.630   0.022
 8729TIP3   OH226147   4.492   7.095   0.350
 8729TIP3    H126148   4.543   7.083   0.270
 8729TIP3    H226149   4.512   7.184   0.379
 8730TIP3   OH226150   4.108   7.303   1.058
 8730TIP3    H126151   4.117   7.275   0.967
 8730TIP3    H226152   4.043   7.374   1.054
 8731TIP3   OH226153   4.357   7.080   0.948
 8731TIP3    H126154   4.274   7.104   0.906
 8731TIP3    H226155   4.420   7.146   0.918
 8732TIP3   OH226156   4.528   7.281   0.875
 8732TIP3    H126157   4.545   7.342   0.804
 8732TIP3    H226158   4.611   7.274   0.921
 8733TIP3   OH226159   4.962   5.524   0.617
 8733TIP3    H126160   5.055   5.505   0.610
 8733TIP3    H226161   4.957   5.600   0.676
 8734TIP3   OH226162   4.660   5.413   0.405
 8734TIP3    H126163   4.585   5.472   0.403
 8734TIP3    H226164   4.627   5.334   0.449
 8735TIP3   OH226165   2.971   6.812   0.454
 8735TIP3    H126166   2.980   6.717   0.454
 8735TIP3    H226167   3.028   6.841   0.383
 8736TIP3   OH226168   3.533   5.333   0.454
 8736TIP3    H126169   3.564   5.243   0.445
 8736TIP3    H226170   3.614   5.384   0.466
 8737TIP3   OH226171   4.011   5.491   0.564
 8737TIP3    H126172   4.068   5.421   0.596
 8737TIP3    H226173   4.062   5.571   0.580
 8738TIP3   OH226174   1.315   3.231   6.383
 8738TIP3    H126175   1.400   3.256   6.348
 8738TIP3    H226176   1.287   3.158   6.329
 8739TIP3   OH226177   4.617   7.033   0.115
 8739TIP3    H126178   4.610   6.938   0.113
 8739TIP3    H226179   4.569   7.062   0.037
 8740TIP3   OH226180   3.244   6.748   0.026
 8740TIP3    H126181   3.218   6.738   0.117
 8740TIP3    H226182   3.325   6.698   0.018
 8741TIP3   OH226183   6.106   6.547   0.074
 8741TIP3    H126184   6.079   6.637   0.053
 8741TIP3    H226185   6.038   6.492   0.035
 8742TIP3   OH226186   6.128   6.572   0.439
 8742TIP3    H126187   6.117   6.538   0.528
 8742TIP3    H226188   6.099   6.500   0.383
 8743TIP3   OH226189   5.393   6.509   0.830
 8743TIP3    H126190   5.377   6.427   0.876
 8743TIP3    H226191   5.489   6.513   0.822
 8744TIP3   OH226192   6.377   6.856   0.157
 8744TIP3    H126193   6.371   6.791   0.228
 8744TIP3    H226194   6.399   6.938   0.202
 8745TIP3   OH226195   5.410   6.846   0.461
 8745TIP3    H126196   5.391   6.797   0.541
 8745TIP3    H226197   5.505   6.847   0.455
 8746TIP3   OH226198   5.148   6.009   0.301
 8746TIP3    H126199   5.187   6.060   0.372
 8746TIP3    H226200   5.072   6.060   0.273
 8747TIP3   OH226201   5.166   6.366   0.430
 8747TIP3    H126202   5.212   6.283   0.446
 8747TIP3    H226203   5.234   6.433   0.438
 8748TIP3   OH226204   6.032   7.290   0.166
 8748TIP3    H126205   6.059   7.227   0.100
 8748TIP3    H226206   6.039   7.243   0.249
 8749TIP3   OH226207   5.936   6.784   0.464
 8749TIP3    H126208   5.982   6.708   0.428
 8749TIP3    H226209   6.006   6.845   0.489
 8750TIP3   OH226210   6.957   6.114   0.473
 8750TIP3    H126211   6.976   6.196   0.517
 8750TIP3    H226212   6.993   6.124   0.385
 8751TIP3   OH226213   6.313   6.252   0.532
 8751TIP3    H126214   6.354   6.167   0.546
 8751TIP3    H226215   6.278   6.247   0.442
 8752TIP3   OH226216   5.703   5.947   0.460
 8752TIP3    H126217   5.659   5.999   0.393
 8752TIP3    H226218   5.652   5.866   0.465
 8753TIP3   OH226219   6.374   6.025   0.115
 8753TIP3    H126220   6.443   6.014   0.181
 8753TIP3    H226221   6.420   6.059   0.038
 8754TIP3   OH226222   5.270   6.127   0.513
 8754TIP3    H126223   5.359   6.114   0.546
 8754TIP3    H226224   5.214   6.108   0.587
 8755TIP3   OH226225   5.742   6.332   0.400
 8755TIP3    H126226   5.835   6.308   0.403
 8755TIP3    H226227   5.698   6.251   0.374
 8756TIP3   OH226228   7.018   6.332   0.654
 8756TIP3    H126229   6.935   6.375   0.633
 8756TIP3    H226230   7.059   6.390   0.718
 8757TIP3   OH226231   5.659   5.896   1.094
 8757TIP3    H126232   5.620   5.888   1.007
 8757TIP3    H226233   5.592   5.940   1.146
 8758TIP3   OH226234   3.383   3.084   6.317
 8758TIP3    H126235   3.359   3.069   6.225
 8758TIP3    H226236   3.344   3.168   6.339
 8759TIP3   OH226237   5.778   6.736   0.682
 8759TIP3    H126238   5.713   6.805   0.695
 8759TIP3    H226239   5.831   6.767   0.608
 8760TIP3   OH226240   6.548   6.041   0.323
 8760TIP3    H126241   6.499   6.022   0.402
 8760TIP3    H226242   6.601   6.117   0.344
 8761TIP3   OH226243   5.516   6.063   0.623
 8761TIP3    H126244   5.539   6.147   0.663
 8761TIP3    H226245   5.592   6.040   0.570
 8762TIP3   OH226246   5.591   6.917   0.767
 8762TIP3    H126247   5.578   7.009   0.747
 8762TIP3    H226248   5.509   6.875   0.743
 8763TIP3   OH226249   4.980   6.599   0.056
 8763TIP3    H126250   4.948   6.617  -0.033
 8763TIP3    H226251   5.003   6.686   0.090
 8764TIP3   OH226252   6.417   7.103   0.298
 8764TIP3    H126253   6.327   7.098   0.331
 8764TIP3    H226254   6.421   7.185   0.250
 8765TIP3   OH226255   6.736   6.013   0.598
 8765TIP3    H126256   6.662   6.034   0.541
 8765TIP3    H226257   6.813   6.041   0.551
 8766TIP3   OH226258   6.017   5.602   0.527
 8766TIP3    H126259   6.054   5.513   0.525
 8766TIP3    H226260   5.956   5.601   0.600
 8767TIP3   OH226261   3.522   3.456   6.325
 8767TIP3    H126262   3.572   3.376   6.312
 8767TIP3    H226263   3.582   3.526   6.297
 8768TIP3   OH226264   3.673   3.236   6.275
 8768TIP3    H126265   3.669   3.156   6.223
 8768TIP3    H226266   3.712   3.208   6.358
 8769TIP3   OH226267   6.648   7.000   0.646
 8769TIP3    H126268   6.638   6.925   0.586
 8769TIP3    H226269   6.632   7.076   0.591
 8770TIP3   OH226270   3.338   2.721   6.279
 8770TIP3    H126271   3.257   2.769   6.261
 8770TIP3    H226272   3.384   2.721   6.195
 8771TIP3   OH226273   3.309   2.520   5.980
 8771TIP3    H126274   3.374   2.571   6.028
 8771TIP3    H226275   3.360   2.455   5.931
 8772TIP3   OH226276   6.843   6.667   0.497
 8772TIP3    H126277   6.759   6.712   0.501
 8772TIP3    H226278   6.874   6.682   0.407
 8773TIP3   OH226279   3.693   2.809   6.247
 8773TIP3    H126280   3.639   2.835   6.322
 8773TIP3    H226281   3.777   2.785   6.286
 8774TIP3   OH226282   6.542   6.544   0.782
 8774TIP3    H126283   6.545   6.626   0.831
 8774TIP3    H226284   6.455   6.542   0.743
 8775TIP3   OH226285   5.534   6.466   0.268
 8775TIP3    H126286   5.495   6.402   0.208
 8775TIP3    H226287   5.610   6.421   0.304
 8776TIP3   OH226288   5.679   6.887   0.405
 8776TIP3    H126289   5.655   6.877   0.313
 8776TIP3    H226290   5.768   6.855   0.411
 8777TIP3   OH226291   5.640   6.515   0.592
 8777TIP3    H126292   5.689   6.470   0.523
 8777TIP3    H226293   5.695   6.590   0.615
 8778TIP3   OH226294   6.170   7.111   0.414
 8778TIP3    H126295   6.160   7.187   0.471
 8778TIP3    H226296   6.166   7.035   0.473
 8779TIP3   OH226297   5.888   7.059   0.989
 8779TIP3    H126298   5.816   7.120   0.973
 8779TIP3    H226299   5.890   7.003   0.912
 8780TIP3   OH226300   3.529   2.668   6.076
 8780TIP3    H126301   3.587   2.727   6.124
 8780TIP3    H226302   3.556   2.677   5.985
 8781TIP3   OH226303   5.554   6.602   1.259
 8781TIP3    H126304   5.608   6.615   1.182
 8781TIP3    H226305   5.491   6.535   1.233
 8782TIP3   OH226306   3.273   3.340   6.341
 8782TIP3    H126307   3.357   3.385   6.342
 8782TIP3    H226308   3.216   3.398   6.291
 8783TIP3   OH226309   5.668   7.214   0.987
 8783TIP3    H126310   5.649   7.219   0.893
 8783TIP3    H226311   5.584   7.199   1.029
 8784TIP3   OH226312   4.042   1.898   6.134
 8784TIP3    H126313   3.964   1.918   6.186
 8784TIP3    H226314   4.055   1.974   6.078
 8785TIP3   OH226315   5.388   6.288   0.101
 8785TIP3    H126316   5.327   6.354   0.068
 8785TIP3    H226317   5.345   6.204   0.085
 8786TIP3   OH226318   3.859   3.274   5.683
 8786TIP3    H126319   3.855   3.367   5.662
 8786TIP3    H226320   3.949   3.248   5.664
 8787TIP3   OH226321   5.077   6.753   1.069
 8787TIP3    H126322   5.016   6.743   0.996
 8787TIP3    H226323   5.105   6.663   1.089
 8788TIP3   OH226324   5.062   6.901   0.559
 8788TIP3    H126325   5.152   6.883   0.588
 8788TIP3    H226326   5.025   6.955   0.628
 8789TIP3   OH226327   6.886   7.357   0.710
 8789TIP3    H126328   6.889   7.262   0.724
 8789TIP3    H226329   6.805   7.384   0.753
 8790TIP3   OH226330   6.016   7.196   0.785
 8790TIP3    H126331   6.000   7.284   0.818
 8790TIP3    H226332   6.003   7.139   0.861
 8791TIP3   OH226333   3.166   3.566   6.162
 8791TIP3    H126334   3.124   3.547   6.078
 8791TIP3    H226335   3.131   3.651   6.188
 8792TIP3   OH226336   5.189   7.104   0.147
 8792TIP3    H126337   5.243   7.096   0.226
 8792TIP3    H226338   5.144   7.020   0.141
 8793TIP3   OH226339   3.366   3.497   5.787
 8793TIP3    H126340   3.416   3.424   5.750
 8793TIP3    H226341   3.403   3.511   5.874
 8794TIP3   OH226342   3.420   3.542   6.058
 8794TIP3    H126343   3.334   3.545   6.101
 8794TIP3    H226344   3.479   3.510   6.126
 8795TIP3   OH226345   6.817   6.525   1.002
 8795TIP3    H126346   6.725   6.532   1.030
 8795TIP3    H226347   6.821   6.443   0.954
 8796TIP3   OH226348   5.297   6.906   1.081
 8796TIP3    H126349   5.358   6.851   1.032
 8796TIP3    H226350   5.212   6.862   1.073
 8797TIP3   OH226351   5.767   5.678   0.692
 8797TIP3    H126352   5.689   5.672   0.637
 8797TIP3    H226353   5.735   5.705   0.777
 8798TIP3   OH226354   6.359   5.842   1.054
 8798TIP3    H126355   6.415   5.771   1.022
 8798TIP3    H226356   6.273   5.801   1.065
 8799TIP3   OH226357   6.578   6.280   0.814
 8799TIP3    H126358   6.526   6.256   0.891
 8799TIP3    H226359   6.545   6.365   0.788
 8800TIP3   OH226360   3.609   2.663   5.816
 8800TIP3    H126361   3.563   2.663   5.731
 8800TIP3    H226362   3.691   2.709   5.798
 8801TIP3   OH226363   3.318   2.075   6.124
 8801TIP3    H126364   3.281   2.079   6.212
 8801TIP3    H226365   3.281   1.995   6.086
 8802TIP3   OH226366   5.858   6.247   0.776
 8802TIP3    H126367   5.858   6.274   0.867
 8802TIP3    H226368   5.766   6.243   0.751
 8803TIP3   OH226369   5.576   6.131   0.295
 8803TIP3    H126370   5.494   6.180   0.284
 8803TIP3    H226371   5.587   6.082   0.214
 8804TIP3   OH226372   6.071   6.199   0.043
 8804TIP3    H126373   6.021   6.269   0.001
 8804TIP3    H226374   6.127   6.165  -0.026
 8805TIP3   OH226375   6.280   6.481   1.095
 8805TIP3    H126376   6.280   6.443   1.183
 8805TIP3    H226377   6.372   6.501   1.077
 8806TIP3   OH226378   6.234   6.216   0.265
 8806TIP3    H126379   6.175   6.239   0.193
 8806TIP3    H226380   6.282   6.139   0.233
 8807TIP3   OH226381   5.561   6.379   1.091
 8807TIP3    H126382   5.621   6.376   1.165
 8807TIP3    H226383   5.569   6.293   1.049
 8808TIP3   OH226384   2.984   2.054   6.090
 8808TIP3    H126385   2.973   2.047   6.185
 8808TIP3    H226386   2.905   2.099   6.060
 8809TIP3   OH226387   5.254   5.804   0.467
 8809TIP3    H126388   5.269   5.857   0.545
 8809TIP3    H226389   5.239   5.716   0.501
 8810TIP3   OH226390   5.147   5.820   0.093
 8810TIP3    H126391   5.161   5.828  -0.001
 8810TIP3    H226392   5.064   5.865   0.109
 8811TIP3   OH226393   6.296   6.468   0.699
 8811TIP3    H126394   6.307   6.400   0.633
 8811TIP3    H226395   6.207   6.454   0.733
 8812TIP3   OH226396   5.962   5.922   0.355
 8812TIP3    H126397   5.881   5.925   0.406
 8812TIP3    H226398   6.031   5.913   0.420
 8813TIP3   OH226399   5.605   5.981   0.069
 8813TIP3    H126400   5.698   5.999   0.059
 8813TIP3    H226401   5.566   6.008  -0.015
 8814TIP3   OH226402   6.406   5.995   0.553
 8814TIP3    H126403   6.449   5.952   0.627
 8814TIP3    H226404   6.330   5.941   0.534
 8815TIP3   OH226405   2.878   2.347   6.200
 8815TIP3    H126406   2.815   2.297   6.148
 8815TIP3    H226407   2.933   2.391   6.135
 8816TIP3   OH226408   1.397   0.351   0.799
 8816TIP3    H126409   1.390   0.370   0.705
 8816TIP3    H226410   1.475   0.399   0.827
 8817TIP3   OH226411   6.010   6.259   0.432
 8817TIP3    H126412   6.075   6.238   0.365
 8817TIP3    H226413   6.014   6.186   0.494
 8818TIP3   OH226414   5.426   5.825   0.238
 8818TIP3    H126415   5.442   5.732   0.252
 8818TIP3    H226416   5.501   5.855   0.187
 8819TIP3   OH226417   6.032   6.086   0.646
 8819TIP3    H126418   5.964   6.134   0.694
 8819TIP3    H226419   6.113   6.108   0.692
 8820TIP3   OH226420   3.103   2.860   6.223
 8820TIP3    H126421   3.028   2.805   6.204
 8820TIP3    H226422   3.081   2.903   6.305
 8821TIP3   OH226423   6.603   6.796   0.468
 8821TIP3    H126424   6.636   6.846   0.393
 8821TIP3    H226425   6.524   6.754   0.435
 8822TIP3   OH226426   3.571   2.176   6.126
 8822TIP3    H126427   3.477   2.155   6.122
 8822TIP3    H226428   3.574   2.271   6.137
 8823TIP3   OH226429   6.022   6.874   0.811
 8823TIP3    H126430   6.003   6.782   0.833
 8823TIP3    H226431   6.085   6.902   0.878
 8824TIP3   OH226432   3.632   2.439   6.198
 8824TIP3    H126433   3.727   2.444   6.206
 8824TIP3    H226434   3.609   2.516   6.146
 8825TIP3   OH226435   5.383   6.517   0.493
 8825TIP3    H126436   5.423   6.519   0.406
 8825TIP3    H226437   5.458   6.522   0.553
 8826TIP3   OH226438   3.258   3.022   6.068
 8826TIP3    H126439   3.212   3.106   6.066
 8826TIP3    H226440   3.203   2.964   6.120
 8827TIP3   OH226441   5.975   6.599   1.124
 8827TIP3    H126442   5.983   6.617   1.031
 8827TIP3    H226443   6.062   6.616   1.160
 8828TIP3   OH226444   6.286   7.159   0.763
 8828TIP3    H126445   6.191   7.163   0.750
 8828TIP3    H226446   6.299   7.190   0.853
 8829TIP3   OH226447   4.051   2.530   6.024
 8829TIP3    H126448   3.994   2.484   5.962
 8829TIP3    H226449   4.057   2.619   5.990
 8830TIP3   OH226450   6.897   7.072   0.734
 8830TIP3    H126451   6.802   7.065   0.726
 8830TIP3    H226452   6.930   7.047   0.647
 8831TIP3   OH226453   3.786   3.344   5.947
 8831TIP3    H126454   3.753   3.273   6.001
 8831TIP3    H226455   3.803   3.304   5.861
 8832TIP3   OH226456   6.383   6.661   0.365
 8832TIP3    H126457   6.292   6.645   0.391
 8832TIP3    H226458   6.412   6.578   0.328
 8833TIP3   OH226459   5.525   6.895   0.172
 8833TIP3    H126460   5.514   6.970   0.114
 8833TIP3    H226461   5.441   6.887   0.217
 8834TIP3   OH226462   2.493   2.505   6.252
 8834TIP3    H126463   2.535   2.588   6.274
 8834TIP3    H226464   2.409   2.508   6.298
 8835TIP3   OH226465   5.614   6.652   0.080
 8835TIP3    H126466   5.594   6.742   0.107
 8835TIP3    H226467   5.586   6.598   0.154
 8836TIP3   OH226468   5.830   7.219   0.583
 8836TIP3    H126469   5.860   7.296   0.535
 8836TIP3    H226470   5.903   7.197   0.641
 8837TIP3   OH226471   5.436   7.116   0.022
 8837TIP3    H126472   5.346   7.124   0.053
 8837TIP3    H226473   5.470   7.205   0.026
 8838TIP3   OH226474   6.168   6.889   0.579
 8838TIP3    H126475   6.122   6.888   0.663
 8838TIP3    H226476   6.250   6.842   0.595
 8839TIP3   OH226477   3.549   3.080   5.848
 8839TIP3    H126478   3.592   3.061   5.931
 8839TIP3    H226479   3.461   3.042   5.857
 8840TIP3   OH226480   1.214   0.033   0.640
 8840TIP3    H126481   1.144  -0.030   0.655
 8840TIP3    H226482   1.185   0.084   0.565
 8841TIP3   OH226483   3.859   3.548   5.642
 8841TIP3    H126484   3.868   3.604   5.565
 8841TIP3    H226485   3.791   3.589   5.695
 8842TIP3   OH226486   3.715   3.021   6.068
 8842TIP3    H126487   3.701   2.947   6.128
 8842TIP3    H226488   3.808   3.018   6.049
 8843TIP3   OH226489   5.320   7.103   0.711
 8843TIP3    H126490   5.277   7.027   0.750
 8843TIP3    H226491   5.301   7.175   0.771
 8844TIP3   OH226492   2.903   3.044   5.851
 8844TIP3    H126493   2.912   2.952   5.825
 8844TIP3    H226494   2.883   3.041   5.944
 8845TIP3   OH226495   2.842   3.060   6.122
 8845TIP3    H126496   2.913   3.035   6.182
 8845TIP3    H226497   2.839   3.156   6.127
 8846TIP3   OH226498   2.587   2.755   6.339
 8846TIP3    H126499   2.519   2.799   6.389
 8846TIP3    H226500   2.604   2.814   6.265
 8847TIP3   OH226501   6.340   6.156   0.844
 8847TIP3    H126502   6.415   6.171   0.786
 8847TIP3    H226503   6.311   6.067   0.822
 8848TIP3   OH226504   6.230   5.805   0.025
 8848TIP3    H126505   6.210   5.823  -0.067
 8848TIP3    H226506   6.271   5.886   0.056
 8849TIP3   OH226507   3.112   3.249   6.067
 8849TIP3    H126508   3.026   3.274   6.102
 8849TIP3    H226509   3.136   3.323   6.010
 8850TIP3   OH226510   5.881   6.009   0.107
 8850TIP3    H126511   5.943   6.076   0.080
 8850TIP3    H226512   5.909   5.985   0.195
 8851TIP3   OH226513   6.142   6.332   0.914
 8851TIP3    H126514   6.181   6.392   0.977
 8851TIP3    H226515   6.217   6.282   0.879
 8852TIP3   OH226516   6.041   5.699   0.194
 8852TIP3    H126517   6.024   5.769   0.256
 8852TIP3    H226518   6.112   5.732   0.139
 8853TIP3   OH226519   2.858   3.332   6.139
 8853TIP3    H126520   2.838   3.403   6.078
 8853TIP3    H226521   2.850   3.372   6.225
 8854TIP3   OH226522   5.561   5.715  -0.008
 8854TIP3    H126523   5.557   5.809   0.009
 8854TIP3    H226524   5.653   5.692   0.008
 8855TIP3   OH226525   6.845   6.288   0.871
 8855TIP3    H126526   6.757   6.266   0.841
 8855TIP3    H226527   6.902   6.267   0.798
 8856TIP3   OH226528   6.459   6.399   0.278
 8856TIP3    H126529   6.384   6.341   0.286
 8856TIP3    H226530   6.527   6.357   0.331
 8857TIP3   OH226531   2.593   2.934   6.121
 8857TIP3    H126532   2.662   2.999   6.129
 8857TIP3    H226533   2.625   2.871   6.056
 8858TIP3   OH226534   2.505   2.230   6.210
 8858TIP3    H126535   2.514   2.324   6.229
 8858TIP3    H226536   2.431   2.225   6.149
 8859TIP3   OH226537   1.239   0.013   0.215
 8859TIP3    H126538   1.195   0.064   0.147
 8859TIP3    H226539   1.332   0.028   0.199
 8860TIP3   OH226540   5.460   5.605   0.835
 8860TIP3    H126541   5.421   5.604   0.747
 8860TIP3    H226542   5.420   5.531   0.880
 8861TIP3   OH226543   5.028   6.865   0.132
 8861TIP3    H126544   4.984   6.906   0.207
 8861TIP3    H226545   4.989   6.907   0.056
 8862TIP3   OH226546   0.049   0.044   1.163
 8862TIP3    H126547   0.027   0.111   1.229
 8862TIP3    H226548  -0.002  -0.033   1.189
 8863TIP3   OH226549   0.531   0.048   1.183
 8863TIP3    H126550   0.609   0.104   1.191
 8863TIP3    H226551   0.546  -0.002   1.103
 8864TIP3   OH226552   3.056   3.249   5.747
 8864TIP3    H126553   3.010   3.176   5.789
 8864TIP3    H226554   3.131   3.208   5.703
 8865TIP3   OH226555   6.317   7.259   1.026
 8865TIP3    H126556   6.344   7.198   1.095
 8865TIP3    H226557   6.387   7.324   1.023
 8866TIP3   OH226558   3.496   3.286   5.667
 8866TIP3    H126559   3.534   3.222   5.727
 8866TIP3    H226560   3.554   3.285   5.591
 8867TIP3   OH226561   2.719   2.743   5.972
 8867TIP3    H126562   2.772   2.720   6.049
 8867TIP3    H226563   2.783   2.755   5.902
 8868TIP3   OH226564   5.876   6.834   1.229
 8868TIP3    H126565   5.823   6.855   1.152
 8868TIP3    H226566   5.930   6.760   1.201
 8869TIP3   OH226567   3.284   2.964   5.801
 8869TIP3    H126568   3.263   2.978   5.893
 8869TIP3    H226569   3.268   2.871   5.786
 8870TIP3   OH226570   6.422   6.918   0.779
 8870TIP3    H126571   6.500   6.949   0.733
 8870TIP3    H226572   6.362   6.992   0.775
 8871TIP3   OH226573   2.898   2.676   6.181
 8871TIP3    H126574   2.874   2.632   6.263
 8871TIP3    H226575   2.947   2.611   6.132
 8872TIP3   OH226576   5.861   6.367   1.018
 8872TIP3    H126577   5.822   6.387   1.103
 8872TIP3    H226578   5.923   6.437   1.003
 8873TIP3   OH226579   3.035   2.493   6.027
 8873TIP3    H126580   3.006   2.495   5.936
 8873TIP3    H226581   3.131   2.498   6.022
 8874TIP3   OH226582   6.410   6.846   1.163
 8874TIP3    H126583   6.465   6.822   1.088
 8874TIP3    H226584   6.449   6.799   1.237
 8875TIP3   OH226585   3.833   2.786   5.708
 8875TIP3    H126586   3.819   2.745   5.622
 8875TIP3    H226587   3.808   2.878   5.694
 8876TIP3   OH226588   6.002   6.214   1.205
 8876TIP3    H126589   5.930   6.154   1.227
 8876TIP3    H226590   5.965   6.272   1.139
 8877TIP3   OH226591   5.832   5.977   0.880
 8877TIP3    H126592   5.921   6.010   0.890
 8877TIP3    H226593   5.830   5.898   0.933
 8878TIP3   OH226594   5.942   6.606   0.850
 8878TIP3    H126595   5.986   6.547   0.789
 8878TIP3    H226596   5.880   6.654   0.796
 8879TIP3   OH226597   6.479   6.604   1.305
 8879TIP3    H126598   6.507   6.518   1.273
 8879TIP3    H226599   6.559   6.656   1.307
 8880TIP3   OH226600   6.574   6.771   0.948
 8880TIP3    H126601   6.515   6.822   0.892
 8880TIP3    H226602   6.661   6.790   0.915
 8881TIP3   OH226603   6.110   5.740   1.095
 8881TIP3    H126604   6.043   5.805   1.118
 8881TIP3    H226605   6.107   5.677   1.167
 8882TIP3   OH226606   6.568   6.193   1.148
 8882TIP3    H126607   6.484   6.148   1.142
 8882TIP3    H226608   6.583   6.204   1.242
 8883TIP3   OH226609   2.851   3.537   5.955
 8883TIP3    H126610   2.943   3.522   5.931
 8883TIP3    H226611   2.815   3.585   5.880
 8884TIP3   OH226612   2.319   2.922   6.142
 8884TIP3    H126613   2.414   2.936   6.135
 8884TIP3    H226614   2.305   2.836   6.101
 8885TIP3   OH226615   4.824   7.195   0.180
 8885TIP3    H126616   4.755   7.143   0.139
 8885TIP3    H226617   4.877   7.131   0.228
 8886TIP3   OH226618   4.947   7.022   0.349
 8886TIP3    H126619   4.990   6.961   0.409
 8886TIP3    H226620   4.923   7.097   0.403
 8887TIP3   OH226621   1.508   0.069   0.203
 8887TIP3    H126622   1.525   0.106   0.289
 8887TIP3    H226623   1.559   0.124   0.143
 8888TIP3   OH226624   1.518   0.108   0.485
 8888TIP3    H126625   1.474   0.023   0.479
 8888TIP3    H226626   1.593   0.093   0.542
 8889TIP3   OH226627   6.792   7.160   1.027
 8889TIP3    H126628   6.722   7.170   1.091
 8889TIP3    H226629   6.838   7.244   1.029
 8890TIP3   OH226630   3.992   2.993   6.038
 8890TIP3    H126631   4.050   3.063   6.006
 8890TIP3    H226632   4.040   2.954   6.112
 8891TIP3   OH226633   4.124   2.850   6.236
 8891TIP3    H126634   4.057   2.814   6.294
 8891TIP3    H226635   4.190   2.887   6.295
 8892TIP3   OH226636   6.776   6.932   0.298
 8892TIP3    H126637   6.829   6.866   0.252
 8892TIP3    H226638   6.775   7.007   0.240
 8893TIP3   OH226639   6.583   7.217   0.493
 8893TIP3    H126640   6.516   7.264   0.543
 8893TIP3    H226641   6.536   7.176   0.421
 8894TIP3   OH226642   4.042   2.768   5.885
 8894TIP3    H126643   3.971   2.766   5.820
 8894TIP3    H226644   4.023   2.846   5.938
 8895TIP3   OH226645   3.896   2.421   5.828
 8895TIP3    H126646   3.850   2.460   5.753
 8895TIP3    H226647   3.885   2.326   5.816
 8896TIP3   OH226648   6.522   6.391   0.008
 8896TIP3    H126649   6.530   6.296  -0.005
 8896TIP3    H226650   6.506   6.401   0.101
 8897TIP3   OH226651   5.193   6.367   0.703
 8897TIP3    H126652   5.161   6.374   0.614
 8897TIP3    H226653   5.246   6.446   0.715
 8898TIP3   OH226654   6.826   6.822   0.857
 8898TIP3    H126655   6.894   6.759   0.834
 8898TIP3    H226656   6.845   6.900   0.805
 8899TIP3   OH226657   7.013   6.620   0.843
 8899TIP3    H126658   6.944   6.592   0.903
 8899TIP3    H226659   7.089   6.567   0.866
 8900TIP3   OH226660   3.854   2.151   5.801
 8900TIP3    H126661   3.919   2.122   5.865
 8900TIP3    H226662   3.773   2.108   5.828
 8901TIP3   OH226663   3.920   2.436   6.259
 8901TIP3    H126664   3.964   2.352   6.272
 8901TIP3    H226665   3.964   2.476   6.184
 8902TIP3   OH226666   6.674   6.272   0.410
 8902TIP3    H126667   6.754   6.289   0.361
 8902TIP3    H226668   6.689   6.315   0.495
 8903TIP3   OH226669   6.759   6.441   0.620
 8903TIP3    H126670   6.689   6.472   0.677
 8903TIP3    H226671   6.789   6.519   0.574
 8904TIP3   OH226672   7.248   6.034   1.178
 8904TIP3    H126673   7.319   5.974   1.157
 8904TIP3    H226674   7.240   6.090   1.101
 8905TIP3   OH226675   4.032   2.186   6.308
 8905TIP3    H126676   4.079   2.170   6.390
 8905TIP3    H226677   3.970   2.113   6.302
 8906TIP3   OH226678   5.328   5.894   0.712
 8906TIP3    H126679   5.379   5.813   0.720
 8906TIP3    H226680   5.392   5.960   0.685
 8907TIP3   OH226681   5.084   6.100   0.718
 8907TIP3    H126682   5.062   6.193   0.718
 8907TIP3    H226683   5.086   6.076   0.811
 8908TIP3   OH226684   7.122   6.162   0.959
 8908TIP3    H126685   7.067   6.182   1.036
 8908TIP3    H226686   7.071   6.098   0.909
 8909TIP3   OH226687   4.086   2.100   5.953
 8909TIP3    H126688   4.132   2.039   5.895
 8909TIP3    H226689   4.141   2.178   5.954
 8910TIP3   OH226690   5.096   5.633   0.302
 8910TIP3    H126691   5.102   5.545   0.340
 8910TIP3    H226692   5.038   5.623   0.227
 8911TIP3   OH226693   3.670   3.654   6.219
 8911TIP3    H126694   3.723   3.645   6.141
 8911TIP3    H226695   3.709   3.728   6.267
 8912TIP3   OH226696   5.606   7.190   0.730
 8912TIP3    H126697   5.542   7.249   0.690
 8912TIP3    H226698   5.684   7.198   0.675
 8913TIP3   OH226699   0.784   0.085   0.910
 8913TIP3    H126700   0.822   0.066   0.996
 8913TIP3    H226701   0.852   0.132   0.863
 8914TIP3   OH226702   0.977   0.218   0.776
 8914TIP3    H126703   1.037   0.171   0.718
 8914TIP3    H226704   1.033   0.273   0.830
 8915TIP3   OH226705   6.993   5.962   0.816
 8915TIP3    H126706   6.918   5.910   0.785
 8915TIP3    H226707   7.044   5.900   0.870
 8916TIP3   OH226708   5.211   7.314   0.842
 8916TIP3    H126709   5.129   7.330   0.796
 8916TIP3    H226710   5.261   7.396   0.832
 8917TIP3   OH226711   0.279   0.053   0.622
 8917TIP3    H126712   0.219   0.101   0.679
 8917TIP3    H226713   0.253   0.077   0.533
 8918TIP3   OH226714   0.692   0.089   0.443
 8918TIP3    H126715   0.620   0.099   0.380
 8918TIP3    H226716   0.702   0.176   0.481
 8919TIP3   OH226717   0.947   0.013   0.518
 8919TIP3    H126718   0.858   0.035   0.490
 8919TIP3    H226719   1.003   0.074   0.470
 8920TIP3   OH226720   1.145   0.177   0.414
 8920TIP3    H126721   1.144   0.265   0.376
 8920TIP3    H226722   1.176   0.121   0.343
 8921TIP3   OH226723   5.189   7.234   0.509
 8921TIP3    H126724   5.231   7.203   0.590
 8921TIP3    H226725   5.236   7.188   0.440
 8922TIP3   OH226726   5.360   7.090   0.359
 8922TIP3    H126727   5.366   7.005   0.403
 8922TIP3    H226728   5.446   7.130   0.371
 8923TIP3   OH226729   5.626   7.166   0.403
 8923TIP3    H126730   5.641   7.073   0.391
 8923TIP3    H226731   5.692   7.193   0.467
 8924TIP3   OH226732   6.190   5.822   0.488
 8924TIP3    H126733   6.132   5.749   0.507
 8924TIP3    H226734   6.257   5.785   0.429
 8925TIP3   OH226735   6.670   5.747   0.392
 8925TIP3    H126736   6.711   5.794   0.319
 8925TIP3    H226737   6.577   5.767   0.384
 8926TIP3   OH226738   6.793   5.810   0.157
 8926TIP3    H126739   6.863   5.749   0.130
 8926TIP3    H226740   6.832   5.897   0.146
 8927TIP3   OH226741   5.401   5.568   0.315
 8927TIP3    H126742   5.327   5.557   0.373
 8927TIP3    H226743   5.446   5.483   0.316
 8928TIP3   OH226744   5.229   5.373   0.107
 8928TIP3    H126745   5.261   5.444   0.051
 8928TIP3    H226746   5.205   5.417   0.189
 8929TIP3   OH226747   5.790   5.636   0.367
 8929TIP3    H126748   5.829   5.635   0.280
 8929TIP3    H226749   5.862   5.613   0.425
 8930TIP3   OH226750   6.394   5.705   0.350
 8930TIP3    H126751   6.413   5.667   0.264
 8930TIP3    H226752   6.392   5.630   0.409
 8931TIP3   OH226753   3.848   1.974   6.316
 8931TIP3    H126754   3.768   2.021   6.337
 8931TIP3    H226755   3.835   1.886   6.353
 8932TIP3   OH226756   2.314   3.316   6.291
 8932TIP3    H126757   2.228   3.284   6.263
 8932TIP3    H226758   2.315   3.408   6.262
 8933TIP3   OH226759   2.743   1.879   6.290
 8933TIP3    H126760   2.789   1.817   6.233
 8933TIP3    H226761   2.812   1.933   6.327
 8934TIP3   OH226762   5.834   5.752   0.019
 8934TIP3    H126763   5.901   5.704   0.067
 8934TIP3    H226764   5.847   5.844   0.043
 8935TIP3   OH226765   3.112   3.473   5.893
 8935TIP3    H126766   3.194   3.503   5.854
 8935TIP3    H226767   3.083   3.402   5.836
 8936TIP3   OH226768   3.817   3.613   5.988
 8936TIP3    H126769   3.811   3.518   5.978
 8936TIP3    H226770   3.773   3.648   5.911
 8937TIP3   OH226771   2.410   3.316   5.944
 8937TIP3    H126772   2.414   3.332   6.039
 8937TIP3    H226773   2.492   3.271   5.924
 8938TIP3   OH226774   1.436   0.079   0.801
 8938TIP3    H126775   1.363   0.050   0.746
 8938TIP3    H226776   1.427   0.174   0.805
 8939TIP3   OH226777   5.308   3.133   5.923
 8939TIP3    H126778   5.280   3.221   5.898
 8939TIP3    H226779   5.237   3.076   5.895
 8940TIP3   OH226780   5.308   3.128   6.338
 8940TIP3    H126781   5.357   3.112   6.419
 8940TIP3    H226782   5.264   3.046   6.320
 8941TIP3   OH226783   7.207   6.676   0.317
 8941TIP3    H126784   7.242   6.622   0.388
 8941TIP3    H226785   7.285   6.705   0.269
 8942TIP3   OH226786   5.571   3.437   6.016
 8942TIP3    H126787   5.560   3.372   6.085
 8942TIP3    H226788   5.595   3.518   6.062
 8943TIP3   OH226789   7.196   7.098   0.015
 8943TIP3    H126790   7.179   7.004   0.021
 8943TIP3    H226791   7.291   7.105   0.002
 8944TIP3   OH226792   4.282   2.625   6.165
 8944TIP3    H126793   4.243   2.709   6.188
 8944TIP3    H226794   4.211   2.576   6.123
 8945TIP3   OH226795   6.958   6.607   0.002
 8945TIP3    H126796   7.008   6.530   0.030
 8945TIP3    H226797   7.024   6.669  -0.028
 8946TIP3   OH226798   5.230   3.872   6.031
 8946TIP3    H126799   5.260   3.809   5.966
 8946TIP3    H226800   5.227   3.822   6.113
 8947TIP3   OH226801   5.112   3.352   6.349
 8947TIP3    H126802   5.155   3.274   6.315
 8947TIP3    H226803   5.184   3.408   6.380
 8948TIP3   OH226804   6.144   2.675   6.360
 8948TIP3    H126805   6.160   2.760   6.401
 8948TIP3    H226806   6.173   2.686   6.270
 8949TIP3   OH226807   5.522   2.842   6.384
 8949TIP3    H126808   5.557   2.756   6.410
 8949TIP3    H226809   5.485   2.828   6.297
 8950TIP3   OH226810   4.875   2.501   6.342
 8950TIP3    H126811   4.854   2.574   6.285
 8950TIP3    H226812   4.820   2.429   6.311
 8951TIP3   OH226813   5.573   2.602   5.978
 8951TIP3    H126814   5.638   2.595   6.048
 8951TIP3    H226815   5.620   2.639   5.904
 8952TIP3   OH226816   7.100   6.390   0.101
 8952TIP3    H126817   7.183   6.374   0.145
 8952TIP3    H226818   7.105   6.339   0.020
 8953TIP3   OH226819   4.924   2.912   6.283
 8953TIP3    H126820   5.018   2.896   6.290
 8953TIP3    H226821   4.888   2.831   6.247
 8954TIP3   OH226822   0.999   6.570   0.164
 8954TIP3    H126823   0.914   6.612   0.152
 8954TIP3    H226824   1.036   6.611   0.242
 8955TIP3   OH226825   7.461   6.180   0.425
 8955TIP3    H126826   7.408   6.214   0.354
 8955TIP3    H226827   7.407   6.192   0.503
 8956TIP3   OH226828   5.205   3.351   5.784
 8956TIP3    H126829   5.164   3.327   5.701
 8956TIP3    H226830   5.158   3.428   5.813
 8957TIP3   OH226831   7.553   6.955   0.195
 8957TIP3    H126832   7.498   7.026   0.229
 8957TIP3    H226833   7.601   6.995   0.122
 8958TIP3   OH226834   5.740   2.617   6.194
 8958TIP3    H126835   5.695   2.598   6.276
 8958TIP3    H226836   5.795   2.693   6.213
 8959TIP3   OH226837   7.346   6.287   0.195
 8959TIP3    H126838   7.402   6.362   0.219
 8959TIP3    H226839   7.393   6.245   0.124
 8960TIP3   OH226840   7.395   7.157   0.299
 8960TIP3    H126841   7.381   7.246   0.266
 8960TIP3    H226842   7.318   7.138   0.352
 8961TIP3   OH226843   4.168   3.178   5.919
 8961TIP3    H126844   4.133   3.195   5.832
 8961TIP3    H226845   4.191   3.265   5.953
 8962TIP3   OH226846   5.612   3.686   6.154
 8962TIP3    H126847   5.526   3.678   6.194
 8962TIP3    H226848   5.610   3.770   6.107
 8963TIP3   OH226849   0.743   6.235   0.152
 8963TIP3    H126850   0.657   6.264   0.122
 8963TIP3    H226851   0.805   6.267   0.086
 8964TIP3   OH226852   7.799   5.877   0.150
 8964TIP3    H126853   7.790   5.785   0.174
 8964TIP3    H226854   7.723   5.920   0.190
 8965TIP3   OH226855   5.322   3.726   5.811
 8965TIP3    H126856   5.378   3.649   5.799
 8965TIP3    H226857   5.376   3.799   5.781
 8966TIP3   OH226858   5.466   3.498   5.767
 8966TIP3    H126859   5.405   3.426   5.749
 8966TIP3    H226860   5.511   3.472   5.847
 8967TIP3   OH226861   0.650   7.246   0.137
 8967TIP3    H126862   0.632   7.173   0.078
 8967TIP3    H226863   0.632   7.324   0.085
 8968TIP3   OH226864   5.135   2.976   5.770
 8968TIP3    H126865   5.054   3.023   5.752
 8968TIP3    H226866   5.182   2.976   5.686
 8969TIP3   OH226867   5.103   2.779   5.467
 8969TIP3    H126868   5.168   2.829   5.516
 8969TIP3    H226869   5.154   2.715   5.416
 8970TIP3   OH226870   6.030   3.230   6.364
 8970TIP3    H126871   5.946   3.277   6.364
 8970TIP3    H226872   6.066   3.247   6.277
 8971TIP3   OH226873   5.491   3.066   5.732
 8971TIP3    H126874   5.437   3.093   5.806
 8971TIP3    H226875   5.575   3.043   5.770
 8972TIP3   OH226876   0.520   6.773   0.301
 8972TIP3    H126877   0.518   6.856   0.349
 8972TIP3    H226878   0.438   6.771   0.253
 8973TIP3   OH226879   4.720   3.047   6.141
 8973TIP3    H126880   4.683   2.989   6.075
 8973TIP3    H226881   4.794   2.999   6.177
 8974TIP3   OH226882   4.855   3.468   6.279
 8974TIP3    H126883   4.833   3.455   6.187
 8974TIP3    H226884   4.943   3.431   6.288
 8975TIP3   OH226885   7.427   6.718   0.142
 8975TIP3    H126886   7.465   6.683   0.061
 8975TIP3    H226887   7.475   6.799   0.158
 8976TIP3   OH226888   5.376   3.676   6.288
 8976TIP3    H126889   5.362   3.756   6.337
 8976TIP3    H226890   5.360   3.605   6.351
 8977TIP3   OH226891   7.593   7.255   0.466
 8977TIP3    H126892   7.534   7.315   0.512
 8977TIP3    H226893   7.536   7.205   0.408
 8978TIP3   OH226894   5.325   2.924   5.564
 8978TIP3    H126895   5.384   2.982   5.612
 8978TIP3    H226896   5.352   2.932   5.472
 8979TIP3   OH226897   7.355   6.805   0.598
 8979TIP3    H126898   7.360   6.898   0.621
 8979TIP3    H226899   7.262   6.787   0.587
 8980TIP3   OH226900   5.078   3.595   5.828
 8980TIP3    H126901   5.159   3.647   5.830
 8980TIP3    H226902   5.014   3.653   5.787
 8981TIP3   OH226903   2.187   0.064   0.550
 8981TIP3    H126904   2.162   0.075   0.458
 8981TIP3    H226905   2.104   0.048   0.595
 8982TIP3   OH226906   5.833   2.155   5.620
 8982TIP3    H126907   5.758   2.178   5.676
 8982TIP3    H226908   5.846   2.232   5.564
 8983TIP3   OH226909   4.594   2.893   5.938
 8983TIP3    H126910   4.519   2.943   5.904
 8983TIP3    H226911   4.558   2.806   5.955
 8984TIP3   OH226912   5.660   3.536   5.172
 8984TIP3    H126913   5.662   3.630   5.153
 8984TIP3    H226914   5.748   3.506   5.150
 8985TIP3   OH226915   6.974   6.976   0.493
 8985TIP3    H126916   6.906   6.958   0.428
 8985TIP3    H226917   7.014   6.890   0.511
 8986TIP3   OH226918   6.819   7.167   0.149
 8986TIP3    H126919   6.912   7.187   0.158
 8986TIP3    H226920   6.774   7.246   0.178
 8987TIP3   OH226921   3.485   0.271   0.196
 8987TIP3    H126922   3.490   0.176   0.206
 8987TIP3    H226923   3.402   0.295   0.237
 8988TIP3   OH226924   2.582   0.041   0.325
 8988TIP3    H126925   2.576   0.132   0.351
 8988TIP3    H226926   2.514  -0.004   0.375
 8989TIP3   OH226927   4.954   3.832   5.654
 8989TIP3    H126928   4.897   3.814   5.579
 8989TIP3    H226929   4.927   3.918   5.684
 8990TIP3   OH226930   4.395   3.676   6.024
 8990TIP3    H126931   4.438   3.668   6.110
 8990TIP3    H226932   4.344   3.596   6.016
 8991TIP3   OH226933   5.187   3.776   5.280
 8991TIP3    H126934   5.215   3.696   5.234
 8991TIP3    H226935   5.196   3.754   5.373
 8992TIP3   OH226936   5.202   3.787   5.552
 8992TIP3    H126937   5.117   3.795   5.595
 8992TIP3    H226938   5.262   3.760   5.622
 8993TIP3   OH226939   0.762   6.744   0.472
 8993TIP3    H126940   0.684   6.738   0.417
 8993TIP3    H226941   0.782   6.654   0.495
 8994TIP3   OH226942   7.180   7.156   0.469
 8994TIP3    H126943   7.229   7.142   0.550
 8994TIP3    H226944   7.105   7.097   0.475
 8995TIP3   OH226945   7.564   5.968   0.275
 8995TIP3    H126946   7.479   5.936   0.244
 8995TIP3    H226947   7.542   6.046   0.326
 8996TIP3   OH226948   0.301   6.084   0.479
 8996TIP3    H126949   0.368   6.060   0.543
 8996TIP3    H226950   0.218   6.069   0.524
 8997TIP3   OH226951   0.529   6.510   0.393
 8997TIP3    H126952   0.482   6.505   0.476
 8997TIP3    H226953   0.509   6.598   0.359
 8998TIP3   OH226954   5.405   2.917   5.301
 8998TIP3    H126955   5.360   2.919   5.217
 8998TIP3    H226956   5.486   2.966   5.286
 8999TIP3   OH226957   5.122   2.316   5.621
 8999TIP3    H126958   5.083   2.328   5.708
 8999TIP3    H226959   5.075   2.242   5.583
 9000TIP3   OH226960   7.501   6.496   0.290
 9000TIP3    H126961   7.454   6.505   0.373
 9000TIP3    H226962   7.480   6.576   0.242
 9001TIP3   OH226963   4.783   2.698   6.176
 9001TIP3    H126964   4.693   2.675   6.201
 9001TIP3    H226965   4.792   2.664   6.087
 9002TIP3   OH226966   5.265   2.772   5.903
 9002TIP3    H126967   5.216   2.845   5.863
 9002TIP3    H226968   5.323   2.741   5.834
 9003TIP3   OH226969   0.249   6.722   0.613
 9003TIP3    H126970   0.222   6.654   0.675
 9003TIP3    H226971   0.342   6.736   0.632
 9004TIP3   OH226972   5.429   2.791   6.131
 9004TIP3    H126973   5.362   2.816   6.068
 9004TIP3    H226974   5.474   2.717   6.090
 9005TIP3   OH226975   7.335   6.512   0.510
 9005TIP3    H126976   7.351   6.577   0.579
 9005TIP3    H226977   7.322   6.430   0.557
 9006TIP3   OH226978   4.784   2.311   5.591
 9006TIP3    H126979   4.772   2.314   5.686
 9006TIP3    H226980   4.706   2.353   5.556
 9007TIP3   OH226981   6.926   6.034   0.088
 9007TIP3    H126982   6.999   6.069   0.138
 9007TIP3    H226983   6.962   6.016   0.002
 9008TIP3   OH226984   4.241   2.334   5.963
 9008TIP3    H126985   4.285   2.369   5.885
 9008TIP3    H226986   4.178   2.402   5.987
 9009TIP3   OH226987   0.265   6.719   0.189
 9009TIP3    H126988   0.290   6.652   0.126
 9009TIP3    H226989   0.221   6.670   0.260
 9010TIP3   OH226990   5.140   2.490   6.229
 9010TIP3    H126991   5.061   2.491   6.282
 9010TIP3    H226992   5.212   2.485   6.292
 9011TIP3   OH226993   4.544   2.574   6.238
 9011TIP3    H126994   4.455   2.578   6.203
 9011TIP3    H226995   4.572   2.484   6.221
 9012TIP3   OH226996   4.799   2.573   5.932
 9012TIP3    H126997   4.893   2.585   5.919
 9012TIP3    H226998   4.760   2.591   5.847
 9013TIP3   OH226999   0.398   6.255   0.064
 9013TIP3    H127000   0.381   6.272   0.156
 9013TIP3    H227001   0.328   6.197   0.036
 9014TIP3   OH227002   4.678   2.597   5.688
 9014TIP3    H127003   4.615   2.548   5.636
 9014TIP3    H227004   4.731   2.644   5.624
 9015TIP3   OH227005   3.189   0.597   0.283
 9015TIP3    H127006   3.176   0.617   0.190
 9015TIP3    H227007   3.271   0.640   0.306
 9016TIP3   OH227008   7.335   7.069   0.701
 9016TIP3    H127009   7.415   7.090   0.748
 9016TIP3    H227010   7.266   7.075   0.767
 9017TIP3   OH227011   5.195   2.855   6.338
 9017TIP3    H127012   5.263   2.807   6.290
 9017TIP3    H227013   5.194   2.815   6.424
 9018TIP3   OH227014   4.688   2.326   6.223
 9018TIP3    H127015   4.659   2.250   6.274
 9018TIP3    H227016   4.713   2.289   6.138
 9019TIP3   OH227017   7.769   6.438   0.238
 9019TIP3    H127018   7.680   6.469   0.259
 9019TIP3    H227019   7.827   6.492   0.291
 9020TIP3   OH227020   4.901   3.118   5.716
 9020TIP3    H127021   4.826   3.062   5.693
 9020TIP3    H227022   4.876   3.158   5.799
 9021TIP3   OH227023   5.794   3.368   6.326
 9021TIP3    H127024   5.829   3.419   6.253
 9021TIP3    H227025   5.713   3.330   6.293
 9022TIP3   OH227026   5.372   2.427   5.617
 9022TIP3    H127027   5.279   2.406   5.614
 9022TIP3    H227028   5.375   2.522   5.627
 9023TIP3   OH227029   0.102   7.128   0.362
 9023TIP3    H127030   0.152   7.125   0.443
 9023TIP3    H227031   0.062   7.215   0.361
 9024TIP3   OH227032   5.428   2.693   5.686
 9024TIP3    H127033   5.523   2.701   5.696
 9024TIP3    H227034   5.403   2.770   5.635
 9025TIP3   OH227035   4.592   3.131   6.372
 9025TIP3    H127036   4.629   3.115   6.285
 9025TIP3    H227037   4.659   3.100   6.433
 9026TIP3   OH227038   5.051   3.280   5.555
 9026TIP3    H127039   5.005   3.364   5.554
 9026TIP3    H227040   4.996   3.223   5.609
 9027TIP3   OH227041   7.084   6.745   0.610
 9027TIP3    H127042   7.083   6.718   0.702
 9027TIP3    H227043   7.009   6.700   0.572
 9028TIP3   OH227044   0.012   6.870   0.653
 9028TIP3    H127045  -0.056   6.811   0.622
 9028TIP3    H227046   0.094   6.831   0.622
 9029TIP3   OH227047   2.855   0.050   0.252
 9029TIP3    H127048   2.759   0.043   0.256
 9029TIP3    H227049   2.879   0.097   0.333
 9030TIP3   OH227050   5.846   2.787   5.512
 9030TIP3    H127051   5.789   2.741   5.450
 9030TIP3    H227052   5.852   2.876   5.478
 9031TIP3   OH227053   0.894   7.345   0.219
 9031TIP3    H127054   0.800   7.327   0.219
 9031TIP3    H227055   0.926   7.310   0.136
 9032TIP3   OH227056   5.562   3.610   5.430
 9032TIP3    H127057   5.547   3.540   5.494
 9032TIP3    H227058   5.591   3.564   5.351
 9033TIP3   OH227059   5.562   3.237   6.225
 9033TIP3    H127060   5.472   3.215   6.248
 9033TIP3    H227061   5.597   3.157   6.186
 9034TIP3   OH227062   4.713   3.471   6.031
 9034TIP3    H127063   4.712   3.548   5.974
 9034TIP3    H227064   4.622   3.460   6.058
 9035TIP3   OH227065   4.279   2.760   5.742
 9035TIP3    H127066   4.321   2.844   5.762
 9035TIP3    H227067   4.198   2.760   5.793
 9036TIP3   OH227068   4.808   3.226   5.945
 9036TIP3    H127069   4.787   3.316   5.971
 9036TIP3    H227070   4.779   3.173   6.019
 9037TIP3   OH227071   2.395   0.117   0.118
 9037TIP3    H127072   2.430   0.191   0.067
 9037TIP3    H227073   2.471   0.085   0.167
 9038TIP3   OH227074   4.630   3.696   5.880
 9038TIP3    H127075   4.543   3.703   5.919
 9038TIP3    H227076   4.665   3.786   5.883
 9039TIP3   OH227077   0.149   7.129   0.089
 9039TIP3    H127078   0.136   7.124   0.184
 9039TIP3    H227079   0.230   7.081   0.073
 9040TIP3   OH227080   5.337   3.343   5.331
 9040TIP3    H127081   5.388   3.318   5.408
 9040TIP3    H227082   5.253   3.300   5.343
 9041TIP3   OH227083   3.007   0.277   0.126
 9041TIP3    H127084   2.929   0.222   0.135
 9041TIP3    H227085   2.985   0.338   0.055
 9042TIP3   OH227086   5.674   3.813   5.135
 9042TIP3    H127087   5.726   3.889   5.108
 9042TIP3    H227088   5.584   3.845   5.140
 9043TIP3   OH227089   7.294   6.257   0.635
 9043TIP3    H127090   7.198   6.259   0.634
 9043TIP3    H227091   7.316   6.208   0.714
 9044TIP3   OH227092   5.508   3.259   5.531
 9044TIP3    H127093   5.493   3.200   5.604
 9044TIP3    H227094   5.603   3.264   5.523
 9045TIP3   OH227095   1.824   0.013   0.277
 9045TIP3    H127096   1.879  -0.046   0.329
 9045TIP3    H227097   1.840   0.099   0.314
 9046TIP3   OH227098   4.698   3.303   5.338
 9046TIP3    H127099   4.706   3.211   5.312
 9046TIP3    H227100   4.679   3.299   5.432
 9047TIP3   OH227101   4.636   3.318   5.609
 9047TIP3    H127102   4.703   3.292   5.673
 9047TIP3    H227103   4.634   3.414   5.615
 9048TIP3   OH227104   4.371   3.012   5.822
 9048TIP3    H127105   4.305   3.057   5.874
 9048TIP3    H227106   4.389   3.071   5.748
 9049TIP3   OH227107   0.344   6.310   0.325
 9049TIP3    H127108   0.416   6.359   0.363
 9049TIP3    H227109   0.330   6.237   0.384
 9050TIP3   OH227110   5.430   2.381   5.888
 9050TIP3    H127111   5.409   2.398   5.796
 9050TIP3    H227112   5.470   2.462   5.919
 9051TIP3   OH227113   4.908   3.511   5.554
 9051TIP3    H127114   4.822   3.532   5.590
 9051TIP3    H227115   4.931   3.586   5.500
 9052TIP3   OH227116   5.080   2.580   5.972
 9052TIP3    H127117   5.142   2.648   5.947
 9052TIP3    H227118   5.099   2.563   6.064
 9053TIP3   OH227119   0.172   6.557   0.393
 9053TIP3    H127120   0.195   6.607   0.471
 9053TIP3    H227121   0.222   6.475   0.400
 9054TIP3   OH227122   5.240   2.282   6.066
 9054TIP3    H127123   5.214   2.358   6.117
 9054TIP3    H227124   5.308   2.314   6.006
 9055TIP3   OH227125   4.655   3.590   5.628
 9055TIP3    H127126   4.634   3.660   5.566
 9055TIP3    H227127   4.643   3.630   5.714
 9056TIP3   OH227128   4.752   2.300   5.869
 9056TIP3    H127129   4.741   2.391   5.898
 9056TIP3    H227130   4.846   2.284   5.877
 9057TIP3   OH227131   0.794   6.461   0.379
 9057TIP3    H127132   0.700   6.467   0.390
 9057TIP3    H227133   0.807   6.439   0.287
 9058TIP3   OH227134   5.655   2.979   6.134
 9058TIP3    H127135   5.577   2.924   6.145
 9058TIP3    H227136   5.722   2.937   6.188
 9059TIP3   OH227137   4.387   3.191   5.606
 9059TIP3    H127138   4.456   3.257   5.614
 9059TIP3    H227139   4.421   3.128   5.542
 9060TIP3   OH227140   4.304   2.482   5.740
 9060TIP3    H127141   4.317   2.576   5.749
 9060TIP3    H227142   4.246   2.472   5.665
 9061TIP3   OH227143   5.644   3.957   6.065
 9061TIP3    H127144   5.605   4.010   5.995
 9061TIP3    H227145   5.737   3.957   6.045
 9062TIP3   OH227146   7.302   5.884   0.235
 9062TIP3    H127147   7.272   5.849   0.152
 9062TIP3    H227148   7.297   5.811   0.296
 9063TIP3   OH227149   4.219   3.450   5.997
 9063TIP3    H127150   4.175   3.487   6.073
 9063TIP3    H227151   4.178   3.492   5.922
 9064TIP3   OH227152   1.818   0.311   0.697
 9064TIP3    H127153   1.900   0.316   0.745
 9064TIP3    H227154   1.804   0.218   0.684
 9065TIP3   OH227155   2.283   0.230   0.749
 9065TIP3    H127156   2.378   0.222   0.751
 9065TIP3    H227157   2.255   0.175   0.677
 9066TIP3   OH227158   4.858   3.500   5.230
 9066TIP3    H127159   4.808   3.432   5.275
 9066TIP3    H227160   4.930   3.453   5.188
 9067TIP3   OH227161   2.908   0.167   0.495
 9067TIP3    H127162   2.921   0.098   0.560
 9067TIP3    H227163   2.983   0.226   0.507
 9068TIP3   OH227164   5.285   3.552   5.159
 9068TIP3    H127165   5.319   3.488   5.221
 9068TIP3    H227166   5.344   3.546   5.083
 9069TIP3   OH227167   7.128   7.068   0.891
 9069TIP3    H127168   7.152   6.976   0.898
 9069TIP3    H227169   7.042   7.067   0.849
 9070TIP3   OH227170   4.518   3.001   5.460
 9070TIP3    H127171   4.570   2.978   5.537
 9070TIP3    H227172   4.582   3.013   5.390
 9071TIP3   OH227173   7.746   7.147   0.668
 9071TIP3    H127174   7.702   7.169   0.586
 9071TIP3    H227175   7.779   7.058   0.653
 9072TIP3   OH227176   5.075   3.222   5.288
 9072TIP3    H127177   5.055   3.235   5.380
 9072TIP3    H227178   5.061   3.128   5.273
 9073TIP3   OH227179   0.422   7.181   0.283
 9073TIP3    H127180   0.500   7.212   0.236
 9073TIP3    H227181   0.357   7.251   0.269
 9074TIP3   OH227182   7.255   6.821   0.892
 9074TIP3    H127183   7.328   6.791   0.838
 9074TIP3    H227184   7.292   6.834   0.979
 9075TIP3   OH227185   4.694   2.938   5.670
 9075TIP3    H127186   4.672   2.906   5.758
 9075TIP3    H227187   4.740   2.865   5.629
 9076TIP3   OH227188   7.608   6.693   0.551
 9076TIP3    H127189   7.523   6.736   0.560
 9076TIP3    H227190   7.642   6.723   0.466
 9077TIP3   OH227191   4.829   2.748   5.516
 9077TIP3    H127192   4.799   2.753   5.425
 9077TIP3    H227193   4.925   2.755   5.510
 9078TIP3   OH227194   0.305   7.071   0.650
 9078TIP3    H127195   0.370   7.030   0.592
 9078TIP3    H227196   0.300   7.012   0.725
 9079TIP3   OH227197   5.626   3.048   5.194
 9079TIP3    H127198   5.612   3.007   5.108
 9079TIP3    H227199   5.601   3.139   5.182
 9080TIP3   OH227200   7.712   6.464   0.659
 9080TIP3    H127201   7.713   6.391   0.596
 9080TIP3    H227202   7.676   6.537   0.609
 9081TIP3   OH227203   7.721   6.259   0.462
 9081TIP3    H127204   7.747   6.298   0.379
 9081TIP3    H227205   7.630   6.233   0.449
 9082TIP3   OH227206   7.730   6.796   0.332
 9082TIP3    H127207   7.817   6.833   0.317
 9082TIP3    H227208   7.671   6.855   0.285
 9083TIP3   OH227209   0.518   6.750   0.710
 9083TIP3    H127210   0.565   6.668   0.723
 9083TIP3    H227211   0.586   6.812   0.681
 9084TIP3   OH227212   0.543   7.011   0.455
 9084TIP3    H127213   0.490   7.071   0.403
 9084TIP3    H227214   0.633   7.026   0.424
 9085TIP3   OH227215   7.595   6.557   0.898
 9085TIP3    H127216   7.527   6.494   0.921
 9085TIP3    H227217   7.623   6.532   0.810
 9086TIP3   OH227218   0.040   6.021   0.560
 9086TIP3    H127219  -0.001   6.103   0.530
 9086TIP3    H227220  -0.026   5.954   0.544
 9087TIP3   OH227221   0.165   6.508   0.762
 9087TIP3    H127222   0.152   6.495   0.856
 9087TIP3    H227223   0.080   6.487   0.723
 9088TIP3   OH227224   0.398   6.454   0.621
 9088TIP3    H127225   0.321   6.459   0.678
 9088TIP3    H227226   0.470   6.432   0.680
 9089TIP3   OH227227   0.629   6.417   0.772
 9089TIP3    H127228   0.644   6.323   0.783
 9089TIP3    H227229   0.628   6.452   0.862
 9090TIP3   OH227230   7.439   6.333   0.961
 9090TIP3    H127231   7.435   6.243   0.930
 9090TIP3    H227232   7.473   6.326   1.051
 9091TIP3   OH227233   0.148   6.007   0.814
 9091TIP3    H127234   0.119   5.929   0.862
 9091TIP3    H227235   0.102   6.002   0.730
 9092TIP3   OH227236   0.202   6.229   0.965
 9092TIP3    H127237   0.186   6.158   0.902
 9092TIP3    H227238   0.127   6.287   0.956
 9093TIP3   OH227239   4.653   3.794   5.441
 9093TIP3    H127240   4.742   3.776   5.411
 9093TIP3    H227241   4.613   3.842   5.368
 9094TIP3   OH227242   4.114   3.176   5.632
 9094TIP3    H127243   4.208   3.191   5.624
 9094TIP3    H227244   4.100   3.091   5.591
 9095TIP3   OH227245   4.026   3.765   6.079
 9095TIP3    H127246   3.960   3.713   6.033
 9095TIP3    H227247   4.069   3.704   6.137
 9096TIP3   OH227248   4.166   3.597   6.249
 9096TIP3    H127249   4.155   3.531   6.318
 9096TIP3    H227250   4.217   3.667   6.290
 9097TIP3   OH227251   5.904   4.040   6.346
 9097TIP3    H127252   5.865   3.953   6.333
 9097TIP3    H227253   5.987   4.023   6.391
 9098TIP3   OH227254   3.371   0.041   0.546
 9098TIP3    H127255   3.298   0.055   0.606
 9098TIP3    H227256   3.414   0.126   0.540
 9099TIP3   OH227257   5.786   3.243   5.528
 9099TIP3    H127258   5.844   3.310   5.492
 9099TIP3    H227259   5.834   3.207   5.602
 9100TIP3   OH227260   5.924   3.104   5.725
 9100TIP3    H127261   5.856   3.070   5.783
 9100TIP3    H227262   5.988   3.144   5.785
 9101TIP3   OH227263   5.972   3.507   6.162
 9101TIP3    H127264   6.023   3.439   6.118
 9101TIP3    H227265   5.982   3.585   6.107
 9102TIP3   OH227266   5.779   3.787   6.354
 9102TIP3    H127267   5.713   3.836   6.402
 9102TIP3    H227268   5.732   3.749   6.280
 9103TIP3   OH227269   5.836   3.024   5.370
 9103TIP3    H127270   5.765   3.024   5.306
 9103TIP3    H227271   5.818   3.100   5.425
 9104TIP3   OH227272   5.692   2.679   5.314
 9104TIP3    H127273   5.649   2.721   5.240
 9104TIP3    H227274   5.679   2.586   5.300
 9105TIP3   OH227275   5.720   2.972   5.864
 9105TIP3    H127276   5.724   2.878   5.851
 9105TIP3    H227277   5.701   2.982   5.957
 9106TIP3   OH227278   6.946   6.715   0.252
 9106TIP3    H127279   6.937   6.682   0.163
 9106TIP3    H227280   7.040   6.712   0.269
 9107TIP3   OH227281   0.796   7.064   0.354
 9107TIP3    H127282   0.864   7.001   0.331
 9107TIP3    H227283   0.795   7.126   0.281
 9108TIP3   OH227284   0.976   6.857   0.344
 9108TIP3    H127285   0.902   6.818   0.390
 9108TIP3    H227286   1.051   6.802   0.368
 9109TIP3   OH227287   5.649   2.410   5.285
 9109TIP3    H127288   5.714   2.381   5.349
 9109TIP3    H227289   5.568   2.366   5.313
 9110TIP3   OH227290   5.716   2.695   5.750
 9110TIP3    H127291   5.762   2.612   5.761
 9110TIP3    H227292   5.759   2.736   5.674
 9111TIP3   OH227293   5.870   2.853   6.270
 9111TIP3    H127294   5.951   2.872   6.222
 9111TIP3    H227295   5.883   2.894   6.355
 9112TIP3   OH227296   0.741   6.681   0.129
 9112TIP3    H127297   0.667   6.712   0.181
 9112TIP3    H227298   0.773   6.760   0.084
 9113TIP3   OH227299   7.187   6.420   0.895
 9113TIP3    H127300   7.281   6.415   0.913
 9113TIP3    H227301   7.154   6.334   0.922
 9114TIP3   OH227302   1.186   6.254   0.649
 9114TIP3    H127303   1.262   6.208   0.614
 9114TIP3    H227304   1.158   6.312   0.579
 9115TIP3   OH227305   5.831   2.445   5.797
 9115TIP3    H127306   5.878   2.430   5.879
 9115TIP3    H227307   5.767   2.374   5.793
 9116TIP3   OH227308   7.138   6.106   0.254
 9116TIP3    H127309   7.191   6.027   0.259
 9116TIP3    H227310   7.201   6.176   0.237
 9117TIP3   OH227311   6.915   6.375   0.313
 9117TIP3    H127312   6.968   6.363   0.234
 9117TIP3    H227313   6.935   6.463   0.342
 9118TIP3   OH227314   1.049   6.401   0.463
 9118TIP3    H127315   0.964   6.444   0.471
 9118TIP3    H227316   1.033   6.325   0.408
 9119TIP3   OH227317   5.879   2.356   5.438
 9119TIP3    H127318   5.924   2.297   5.378
 9119TIP3    H227319   5.934   2.434   5.440
 9120TIP3   OH227320   4.306   2.198   6.191
 9120TIP3    H127321   4.219   2.186   6.228
 9120TIP3    H227322   4.291   2.253   6.113
 9121TIP3   OH227323   5.444   3.942   5.697
 9121TIP3    H127324   5.488   3.928   5.613
 9121TIP3    H227325   5.503   4.000   5.745
 9122TIP3   OH227326   7.149   5.953   0.592
 9122TIP3    H127327   7.099   5.956   0.673
 9122TIP3    H227328   7.092   5.994   0.527
 9123TIP3   OH227329   1.961   0.032   0.712
 9123TIP3    H127330   1.868   0.012   0.703
 9123TIP3    H227331   1.979   0.026   0.806
 9124TIP3   OH227332   2.168   0.079   0.267
 9124TIP3    H127333   2.115   0.152   0.234
 9124TIP3    H227334   2.252   0.089   0.223
 9125TIP3   OH227335   2.568   0.307   0.401
 9125TIP3    H127336   2.606   0.303   0.489
 9125TIP3    H227337   2.630   0.360   0.351
 9126TIP3   OH227338   2.756   0.459   0.272
 9126TIP3    H127339   2.815   0.413   0.212
 9126TIP3    H227340   2.814   0.512   0.327
 9127TIP3   OH227341   0.954   6.165   0.347
 9127TIP3    H127342   0.873   6.175   0.297
 9127TIP3    H227343   0.979   6.073   0.337
 9128TIP3   OH227344   1.827   0.314   0.315
 9128TIP3    H127345   1.737   0.332   0.288
 9128TIP3    H227346   1.849   0.384   0.376
 9129TIP3   OH227347   2.056   0.306   0.160
 9129TIP3    H127348   1.973   0.313   0.207
 9129TIP3    H227349   2.036   0.335   0.071
 9130TIP3   OH227350   5.077   4.001   6.322
 9130TIP3    H127351   5.009   4.015   6.256
 9130TIP3    H227352   5.089   4.087   6.362
 9131TIP3   OH227353   5.342   3.937   6.375
 9131TIP3    H127354   5.250   3.958   6.355
 9131TIP3    H227355   5.392   4.002   6.326
 9132TIP3   OH227356   5.541   4.109   6.273
 9132TIP3    H127357   5.538   4.198   6.238
 9132TIP3    H227358   5.575   4.056   6.201
 9133TIP3   OH227359   1.737   0.101   0.026
 9133TIP3    H127360   1.762   0.077   0.116
 9133TIP3    H227361   1.809   0.068  -0.028
 9134TIP3   OH227362   4.541   3.659   6.259
 9134TIP3    H127363   4.553   3.577   6.306
 9134TIP3    H227364   4.627   3.701   6.262
 9135TIP3   OH227365   4.808   3.747   6.282
 9135TIP3    H127366   4.828   3.654   6.269
 9135TIP3    H227367   4.861   3.773   6.357
 9136TIP3   OH227368   0.166   6.083   0.004
 9136TIP3    H127369   0.124   6.011   0.052
 9136TIP3    H227370   0.234   6.041  -0.048
 9137TIP3   OH227371   5.866   2.283   6.235
 9137TIP3    H127372   5.911   2.338   6.170
 9137TIP3    H227373   5.781   2.326   6.248
 9138TIP3   OH227374   5.991   2.384   6.014
 9138TIP3    H127375   6.060   2.324   5.986
 9138TIP3    H227376   6.030   2.471   6.005
 9139TIP3   OH227377   4.612   2.100   6.366
 9139TIP3    H127378   4.522   2.068   6.373
 9139TIP3    H227379   4.665   2.021   6.357
 9140TIP3   OH227380   4.432   2.004   6.022
 9140TIP3    H127381   4.456   2.054   5.944
 9140TIP3    H227382   4.395   2.069   6.081
 9141TIP3   OH227383   5.085   2.140   6.258
 9141TIP3    H127384   5.135   2.185   6.190
 9141TIP3    H227385   5.122   2.172   6.341
 9142TIP3   OH227386   5.578   2.292   6.240
 9142TIP3    H127387   5.574   2.254   6.152
 9142TIP3    H227388   5.584   2.216   6.298
 9143TIP3   OH227389   5.653   2.226   5.817
 9143TIP3    H127390   5.568   2.266   5.839
 9143TIP3    H227391   5.675   2.174   5.894
 9144TIP3   OH227392   4.104   3.574   5.780
 9144TIP3    H127393   4.020   3.546   5.744
 9144TIP3    H227394   4.113   3.665   5.753
 9145TIP3   OH227395   4.537   2.135   5.783
 9145TIP3    H127396   4.582   2.075   5.724
 9145TIP3    H227397   4.607   2.192   5.817
 9146TIP3   OH227398   5.028   2.326   5.881
 9146TIP3    H127399   5.086   2.277   5.939
 9146TIP3    H227400   5.041   2.418   5.906
 9147TIP3   OH227401   4.911   3.727   5.372
 9147TIP3    H127402   4.986   3.767   5.328
 9147TIP3    H227403   4.888   3.653   5.316
 9148TIP3   OH227404   5.560   3.886   5.442
 9148TIP3    H127405   5.565   3.790   5.441
 9148TIP3    H227406   5.646   3.915   5.471
 9149TIP3   OH227407   7.445   6.057   0.889
 9149TIP3    H127408   7.415   5.979   0.935
 9149TIP3    H227409   7.538   6.065   0.912
 9150TIP3   OH227410   7.694   6.060   1.016
 9150TIP3    H127411   7.780   6.035   0.984
 9150TIP3    H227412   7.674   5.994   1.083
 9151TIP3   OH227413   4.206   3.567   5.431
 9151TIP3    H127414   4.206   3.588   5.524
 9151TIP3    H227415   4.290   3.524   5.416
 9152TIP3   OH227416   0.697   6.149   0.791
 9152TIP3    H127417   0.719   6.125   0.881
 9152TIP3    H227418   0.781   6.150   0.745
 9153TIP3   OH227419   3.230   0.325   0.292
 9153TIP3    H127420   3.157   0.295   0.238
 9153TIP3    H227421   3.218   0.420   0.297
 9154TIP3   OH227422   7.093   3.391   5.417
 9154TIP3    H127423   7.065   3.479   5.392
 9154TIP3    H227424   7.024   3.333   5.385
 9155TIP3   OH227425   7.091   3.387   5.824
 9155TIP3    H127426   7.143   3.369   5.903
 9155TIP3    H227427   7.052   3.302   5.802
 9156TIP3   OH227428   6.404   3.257   6.173
 9156TIP3    H127429   6.440   3.202   6.242
 9156TIP3    H227430   6.480   3.281   6.119
 9157TIP3   OH227431   7.366   3.688   5.502
 9157TIP3    H127432   7.353   3.624   5.572
 9157TIP3    H227433   7.390   3.769   5.546
 9158TIP3   OH227434   6.389   3.673   5.873
 9158TIP3    H127435   6.376   3.579   5.875
 9158TIP3    H227436   6.484   3.683   5.858
 9159TIP3   OH227437   6.077   2.877   5.655
 9159TIP3    H127438   6.040   2.962   5.678
 9159TIP3    H227439   6.006   2.831   5.611
 9160TIP3   OH227440   6.154   3.189   5.864
 9160TIP3    H127441   6.204   3.112   5.890
 9160TIP3    H227442   6.219   3.252   5.835
 9161TIP3   OH227443   7.022   4.127   5.514
 9161TIP3    H127444   7.051   4.064   5.448
 9161TIP3    H227445   7.027   4.077   5.596
 9162TIP3   OH227446   6.906   3.609   5.836
 9162TIP3    H127447   6.949   3.529   5.806
 9162TIP3    H227448   6.977   3.666   5.864
 9163TIP3   OH227449   0.068   2.918   5.858
 9163TIP3    H127450   0.120   2.998   5.857
 9163TIP3    H227451   0.055   2.896   5.766
 9164TIP3   OH227452   7.313   3.096   5.875
 9164TIP3    H127453   7.356   3.014   5.899
 9164TIP3    H227454   7.275   3.078   5.788
 9165TIP3   OH227455   6.667   2.759   5.833
 9165TIP3    H127456   6.650   2.832   5.774
 9165TIP3    H227457   6.614   2.687   5.798
 9166TIP3   OH227458   7.348   2.856   5.474
 9166TIP3    H127459   7.417   2.851   5.540
 9166TIP3    H227460   7.391   2.892   5.397
 9167TIP3   OH227461   6.294   2.968   5.959
 9167TIP3    H127462   6.377   2.952   6.002
 9167TIP3    H227463   6.300   2.918   5.877
 9168TIP3   OH227464   6.719   3.168   5.773
 9168TIP3    H127465   6.814   3.152   5.779
 9168TIP3    H227466   6.684   3.088   5.736
 9169TIP3   OH227467   0.156   3.157   6.062
 9169TIP3    H127468   0.069   3.183   6.031
 9169TIP3    H227469   0.138   3.092   6.131
 9170TIP3   OH227470   6.649   2.760   6.283
 9170TIP3    H127471   6.601   2.796   6.208
 9170TIP3    H227472   6.592   2.779   6.358
 9171TIP3   OH227473   6.986   3.604   5.277
 9171TIP3    H127474   6.952   3.584   5.190
 9171TIP3    H227475   6.941   3.684   5.303
 9172TIP3   OH227476   6.748   3.534   6.051
 9172TIP3    H127477   6.694   3.606   6.084
 9172TIP3    H227478   6.797   3.573   5.978
 9173TIP3   OH227479   7.529   2.888   5.674
 9173TIP3    H127480   7.496   2.861   5.760
 9173TIP3    H227481   7.588   2.962   5.692
 9174TIP3   OH227482   6.539   2.867   6.053
 9174TIP3    H127483   6.594   2.942   6.076
 9174TIP3    H227484   6.584   2.824   5.981
 9175TIP3   OH227485   6.589   3.736   6.155
 9175TIP3    H127486   6.576   3.825   6.122
 9175TIP3    H227487   6.510   3.716   6.204
 9176TIP3   OH227488   5.958   3.416   5.398
 9176TIP3    H127489   5.926   3.438   5.311
 9176TIP3    H227490   5.978   3.501   5.439
 9177TIP3   OH227491   7.400   3.931   5.642
 9177TIP3    H127492   7.311   3.927   5.678
 9177TIP3    H227493   7.402   4.014   5.594
 9178TIP3   OH227494   7.683   2.830   6.039
 9178TIP3    H127495   7.602   2.831   5.989
 9178TIP3    H227496   7.752   2.852   5.976
 9179TIP3   OH227497   6.987   2.461   5.992
 9179TIP3    H127498   6.987   2.371   6.025
 9179TIP3    H227499   6.914   2.503   6.038
 9180TIP3   OH227500   7.113   3.973   5.302
 9180TIP3    H127501   7.165   3.893   5.290
 9180TIP3    H227502   7.170   4.043   5.272
 9181TIP3   OH227503   7.261   3.750   5.254
 9181TIP3    H127504   7.217   3.670   5.225
 9181TIP3    H227505   7.305   3.725   5.335
 9182TIP3   OH227506   7.613   3.828   5.999
 9182TIP3    H127507   7.609   3.753   5.939
 9182TIP3    H227508   7.610   3.905   5.941
 9183TIP3   OH227509   6.927   3.235   5.255
 9183TIP3    H127510   6.847   3.284   5.236
 9183TIP3    H227511   6.976   3.234   5.173
 9184TIP3   OH227512   6.899   3.035   4.952
 9184TIP3    H127513   6.962   3.088   5.000
 9184TIP3    H227514   6.951   2.971   4.905
 9185TIP3   OH227515   0.013   3.490   5.866
 9185TIP3    H127516  -0.068   3.541   5.860
 9185TIP3    H227517   0.048   3.490   5.777
 9186TIP3   OH227518   7.274   3.327   5.221
 9186TIP3    H127519   7.219   3.354   5.295
 9186TIP3    H227520   7.353   3.293   5.262
 9187TIP3   OH227521   7.502   3.356   6.153
 9187TIP3    H127522   7.500   3.437   6.204
 9187TIP3    H227523   7.419   3.356   6.106
 9188TIP3   OH227524   6.517   3.303   5.628
 9188TIP3    H127525   6.482   3.245   5.561
 9188TIP3    H227526   6.592   3.256   5.664
 9189TIP3   OH227527   6.649   3.724   5.767
 9189TIP3    H127528   6.626   3.710   5.675
 9189TIP3    H227529   6.737   3.686   5.775
 9190TIP3   OH227530   6.620   3.298   5.998
 9190TIP3    H127531   6.659   3.262   5.918
 9190TIP3    H227532   6.669   3.379   6.014
 9191TIP3   OH227533   7.158   3.933   5.770
 9191TIP3    H127534   7.152   4.011   5.824
 9191TIP3    H227535   7.150   3.860   5.832
 9192TIP3   OH227536   6.787   3.834   6.322
 9192TIP3    H127537   6.727   3.894   6.365
 9192TIP3    H227538   6.731   3.783   6.263
 9193TIP3   OH227539   7.113   3.188   5.047
 9193TIP3    H127540   7.172   3.244   5.098
 9193TIP3    H227541   7.145   3.195   4.957
 9194TIP3   OH227542   1.343   7.057   0.094
 9194TIP3    H127543   1.348   7.151   0.109
 9194TIP3    H227544   1.249   7.038   0.084
 9195TIP3   OH227545   6.865   3.854   5.311
 9195TIP3    H127546   6.949   3.899   5.316
 9195TIP3    H227547   6.808   3.914   5.263
 9196TIP3   OH227548   3.980   0.318   0.037
 9196TIP3    H127549   3.954   0.328  -0.054
 9196TIP3    H227550   3.899   0.296   0.083
 9197TIP3   OH227551   7.607   2.376   5.139
 9197TIP3    H127552   7.533   2.401   5.192
 9197TIP3    H227553   7.611   2.442   5.070
 9198TIP3   OH227554   6.393   3.149   5.424
 9198TIP3    H127555   6.318   3.198   5.390
 9198TIP3    H227556   6.358   3.061   5.439
 9199TIP3   OH227557   7.418   3.795   4.650
 9199TIP3    H127558   7.416   3.890   4.638
 9199TIP3    H227559   7.504   3.769   4.615
 9200TIP3   OH227560   6.172   3.548   6.356
 9200TIP3    H127561   6.103   3.532   6.292
 9200TIP3    H227562   6.207   3.462   6.376
 9201TIP3   OH227563   6.066   3.727   6.014
 9201TIP3    H127564   6.134   3.710   5.949
 9201TIP3    H227565   6.098   3.800   6.065
 9202TIP3   OH227566   0.054   4.208   6.060
 9202TIP3    H127567   0.064   4.113   6.066
 9202TIP3    H227568  -0.027   4.227   6.107
 9203TIP3   OH227569   6.976   3.970   6.178
 9203TIP3    H127570   6.970   4.060   6.208
 9203TIP3    H227571   6.909   3.923   6.227
 9204TIP3   OH227572   6.758   4.079   5.137
 9204TIP3    H127573   6.712   4.061   5.055
 9204TIP3    H227574   6.723   4.164   5.165
 9205TIP3   OH227575   6.184   3.955   5.539
 9205TIP3    H127576   6.244   3.949   5.613
 9205TIP3    H227577   6.103   3.913   5.569
 9206TIP3   OH227578   6.956   4.011   4.763
 9206TIP3    H127579   7.006   3.937   4.729
 9206TIP3    H227580   6.992   4.026   4.851
 9207TIP3   OH227581   7.011   4.056   5.031
 9207TIP3    H127582   6.926   4.058   5.076
 9207TIP3    H227583   7.072   4.022   5.096
 9208TIP3   OH227584   7.766   3.273   6.344
 9208TIP3    H127585   7.720   3.316   6.271
 9208TIP3    H227586   7.781   3.184   6.313
 9209TIP3   OH227587   6.368   3.738   6.321
 9209TIP3    H127588   6.418   3.727   6.402
 9209TIP3    H227589   6.297   3.674   6.328
 9210TIP3   OH227590   6.755   2.548   6.134
 9210TIP3    H127591   6.671   2.516   6.100
 9210TIP3    H227592   6.733   2.628   6.181
 9211TIP3   OH227593   2.080   6.364  -0.033
 9211TIP3    H127594   2.145   6.343   0.034
 9211TIP3    H227595   1.997   6.333   0.004
 9212TIP3   OH227596   7.510   3.102   6.261
 9212TIP3    H127597   7.443   3.097   6.329
 9212TIP3    H227598   7.499   3.188   6.221
 9213TIP3   OH227599   7.204   3.190   4.791
 9213TIP3    H127600   7.162   3.184   4.706
 9213TIP3    H227601   7.287   3.234   4.774
 9214TIP3   OH227602   6.905   2.585   5.103
 9214TIP3    H127603   6.870   2.592   5.192
 9214TIP3    H227604   6.869   2.504   5.069
 9215TIP3   OH227605   6.696   3.075   6.145
 9215TIP3    H127606   6.649   3.085   6.229
 9215TIP3    H227607   6.677   3.156   6.097
 9216TIP3   OH227608   6.578   2.955   5.664
 9216TIP3    H127609   6.489   2.932   5.688
 9216TIP3    H227610   6.589   2.921   5.575
 9217TIP3   OH227611   7.053   3.033   5.393
 9217TIP3    H127612   7.005   3.106   5.353
 9217TIP3    H227613   7.108   2.999   5.322
 9218TIP3   OH227614   2.047   6.984   0.088
 9218TIP3    H127615   2.018   6.926   0.159
 9218TIP3    H227616   2.140   6.996   0.103
 9219TIP3   OH227617   7.212   3.048   5.624
 9219TIP3    H127618   7.150   3.075   5.556
 9219TIP3    H227619   7.258   2.973   5.586
 9220TIP3   OH227620   1.329   6.770  -0.004
 9220TIP3    H127621   1.343   6.835   0.065
 9220TIP3    H227622   1.311   6.689   0.043
 9221TIP3   OH227623   6.571   2.566   5.077
 9221TIP3    H127624   6.563   2.571   5.173
 9221TIP3    H227625   6.494   2.612   5.044
 9222TIP3   OH227626   6.124   2.610   5.952
 9222TIP3    H127627   6.191   2.648   6.008
 9222TIP3    H227628   6.162   2.611   5.864
 9223TIP3   OH227629   6.034   2.590   5.450
 9223TIP3    H127630   6.079   2.625   5.373
 9223TIP3    H227631   5.972   2.658   5.475
 9224TIP3   OH227632   7.248   3.300   6.040
 9224TIP3    H127633   7.279   3.233   5.978
 9224TIP3    H227634   7.208   3.250   6.111
 9225TIP3   OH227635   6.934   2.749   5.716
 9225TIP3    H127636   6.858   2.749   5.774
 9225TIP3    H227637   7.009   2.741   5.775
 9226TIP3   OH227638   6.340   2.829   5.726
 9226TIP3    H127639   6.251   2.833   5.689
 9226TIP3    H227640   6.370   2.741   5.706
 9227TIP3   OH227641   6.592   2.829   5.420
 9227TIP3    H127642   6.686   2.841   5.409
 9227TIP3    H227643   6.555   2.848   5.334
 9228TIP3   OH227644   7.404   2.832   5.918
 9228TIP3    H127645   7.379   2.850   6.009
 9228TIP3    H227646   7.337   2.770   5.887
 9229TIP3   OH227647   6.474   2.854   5.174
 9229TIP3    H127648   6.409   2.807   5.121
 9229TIP3    H227649   6.528   2.901   5.111
 9230TIP3   OH227650   7.514   4.553   6.105
 9230TIP3    H127651   7.532   4.538   6.012
 9230TIP3    H227652   7.523   4.647   6.116
 9231TIP3   OH227653   1.327   7.322   0.183
 9231TIP3    H127654   1.404   7.355   0.229
 9231TIP3    H227655   1.256   7.329   0.246
 9232TIP3   OH227656   6.991   3.109   5.819
 9232TIP3    H127657   7.059   3.069   5.765
 9232TIP3    H227658   6.996   3.062   5.902
 9233TIP3   OH227659   6.484   2.583   5.708
 9233TIP3    H127660   6.456   2.507   5.758
 9233TIP3    H227661   6.516   2.547   5.625
 9234TIP3   OH227662   6.961   3.005   6.094
 9234TIP3    H127663   6.873   3.040   6.112
 9234TIP3    H227664   7.020   3.062   6.142
 9235TIP3   OH227665   6.695   3.379   5.199
 9235TIP3    H127666   6.621   3.322   5.178
 9235TIP3    H227667   6.671   3.419   5.283
 9236TIP3   OH227668   7.577   3.622   5.818
 9236TIP3    H127669   7.611   3.672   5.744
 9236TIP3    H227670   7.496   3.583   5.787
 9237TIP3   OH227671   7.156   2.690   5.100
 9237TIP3    H127672   7.063   2.668   5.098
 9237TIP3    H227673   7.159   2.785   5.111
 9238TIP3   OH227674   7.098   3.703   6.213
 9238TIP3    H127675   7.164   3.701   6.282
 9238TIP3    H227676   7.063   3.792   6.215
 9239TIP3   OH227677   7.201   2.953   5.170
 9239TIP3    H127678   7.296   2.959   5.186
 9239TIP3    H227679   7.181   3.030   5.117
 9240TIP3   OH227680   6.386   3.386   5.856
 9240TIP3    H127681   6.423   3.370   5.770
 9240TIP3    H227682   6.454   3.357   5.917
 9241TIP3   OH227683   6.849   3.536   5.036
 9241TIP3    H127684   6.802   3.619   5.036
 9241TIP3    H227685   6.796   3.478   5.090
 9242TIP3   OH227686   1.071   6.992   0.114
 9242TIP3    H127687   1.073   6.968   0.207
 9242TIP3    H227688   0.996   6.944   0.079
 9243TIP3   OH227689   1.806   7.124   0.134
 9243TIP3    H127690   1.741   7.067   0.094
 9243TIP3    H227691   1.889   7.095   0.099
 9244TIP3   OH227692   7.241   3.984   6.090
 9244TIP3    H127693   7.146   3.974   6.098
 9244TIP3    H227694   7.267   4.031   6.169
 9245TIP3   OH227695   7.589   3.049   5.024
 9245TIP3    H127696   7.536   3.021   4.949
 9245TIP3    H227697   7.620   3.136   5.000
 9246TIP3   OH227698   0.057   3.926   6.081
 9246TIP3    H127699  -0.037   3.909   6.087
 9246TIP3    H227700   0.083   3.891   5.996
 9247TIP3   OH227701   7.357   3.854   4.920
 9247TIP3    H127702   7.343   3.781   4.980
 9247TIP3    H227703   7.378   3.813   4.836
 9248TIP3   OH227704   7.344   3.498   5.719
 9248TIP3    H127705   7.253   3.476   5.735
 9248TIP3    H227706   7.382   3.418   5.682
 9249TIP3   OH227707   6.503   3.728   5.520
 9249TIP3    H127708   6.503   3.804   5.462
 9249TIP3    H227709   6.412   3.716   5.544
 9250TIP3   OH227710   6.074   3.015   5.228
 9250TIP3    H127711   6.117   3.098   5.247
 9250TIP3    H227712   5.993   3.017   5.279
 9251TIP3   OH227713   6.600   3.484   5.430
 9251TIP3    H127714   6.580   3.573   5.457
 9251TIP3    H227715   6.574   3.430   5.505
 9252TIP3   OH227716   6.791   4.053   5.974
 9252TIP3    H127717   6.827   4.126   5.923
 9252TIP3    H227718   6.867   4.017   6.020
 9253TIP3   OH227719   6.408   3.952   5.370
 9253TIP3    H127720   6.323   3.959   5.413
 9253TIP3    H227721   6.444   4.041   5.373
 9254TIP3   OH227722   7.146   3.707   5.939
 9254TIP3    H127723   7.135   3.698   6.034
 9254TIP3    H227724   7.226   3.658   5.919
 9255TIP3   OH227725   7.132   3.591   4.833
 9255TIP3    H127726   7.188   3.570   4.908
 9255TIP3    H227727   7.045   3.560   4.858
 9256TIP3   OH227728   7.396   4.211   5.976
 9256TIP3    H127729   7.322   4.150   5.983
 9256TIP3    H227730   7.373   4.269   5.904
 9257TIP3   OH227731   7.447   4.067   4.625
 9257TIP3    H127732   7.488   4.135   4.571
 9257TIP3    H227733   7.372   4.111   4.665
 9258TIP3   OH227734   1.274   6.518   0.118
 9258TIP3    H127735   1.179   6.526   0.121
 9258TIP3    H227736   1.295   6.460   0.191
 9259TIP3   OH227737   7.310   3.524   5.032
 9259TIP3    H127738   7.295   3.457   5.098
 9259TIP3    H227739   7.406   3.532   5.027
 9260TIP3   OH227740   6.210   3.931   6.148
 9260TIP3    H127741   6.269   3.876   6.200
 9260TIP3    H227742   6.224   4.019   6.181
 9261TIP3   OH227743   6.489   3.560   4.825
 9261TIP3    H127744   6.502   3.468   4.799
 9261TIP3    H227745   6.473   3.556   4.919
 9262TIP3   OH227746   6.433   3.576   5.097
 9262TIP3    H127747   6.503   3.548   5.156
 9262TIP3    H227748   6.432   3.671   5.104
 9263TIP3   OH227749   6.170   3.265   5.306
 9263TIP3    H127750   6.101   3.307   5.356
 9263TIP3    H227751   6.189   3.326   5.234
 9264TIP3   OH227752   7.333   2.899   6.171
 9264TIP3    H127753   7.406   2.945   6.212
 9264TIP3    H227754   7.312   2.828   6.231
 9265TIP3   OH227755   7.204   2.642   5.371
 9265TIP3    H127756   7.189   2.664   5.279
 9265TIP3    H227757   7.248   2.720   5.407
 9266TIP3   OH227758   6.702   3.763   5.040
 9266TIP3    H127759   6.618   3.787   5.078
 9266TIP3    H227760   6.726   3.838   4.985
 9267TIP3   OH227761   6.870   2.839   5.461
 9267TIP3    H127762   6.932   2.908   5.436
 9267TIP3    H227763   6.892   2.820   5.552
 9268TIP3   OH227764   7.159   3.136   6.242
 9268TIP3    H127765   7.186   3.186   6.319
 9268TIP3    H227766   7.210   3.055   6.247
 9269TIP3   OH227767   7.029   2.537   5.553
 9269TIP3    H127768   7.006   2.614   5.606
 9269TIP3    H227769   7.096   2.569   5.493
 9270TIP3   OH227770   6.450   3.848   5.117
 9270TIP3    H127771   6.429   3.918   5.056
 9270TIP3    H227772   6.433   3.886   5.204
 9271TIP3   OH227773   6.547   2.557   5.357
 9271TIP3    H127774   6.536   2.648   5.385
 9271TIP3    H227775   6.641   2.542   5.362
 9272TIP3   OH227776   7.767   3.019   6.232
 9272TIP3    H127777   7.674   3.042   6.232
 9272TIP3    H227778   7.772   2.940   6.179
 9273TIP3   OH227779   7.433   3.247   5.632
 9273TIP3    H127780   7.360   3.187   5.644
 9273TIP3    H227781   7.506   3.206   5.679
 9274TIP3   OH227782   6.184   3.448   5.092
 9274TIP3    H127783   6.253   3.513   5.102
 9274TIP3    H227784   6.219   3.385   5.029
 9275TIP3   OH227785   6.098   2.737   5.228
 9275TIP3    H127786   6.111   2.831   5.236
 9275TIP3    H227787   6.041   2.727   5.152
 9276TIP3   OH227788   7.416   4.195   5.557
 9276TIP3    H127789   7.373   4.248   5.489
 9276TIP3    H227790   7.509   4.216   5.549
 9277TIP3   OH227791   6.492   2.461   6.095
 9277TIP3    H127792   6.464   2.429   6.009
 9277TIP3    H227793   6.487   2.384   6.152
 9278TIP3   OH227794   6.001   3.672   5.485
 9278TIP3    H127795   5.981   3.730   5.558
 9278TIP3    H227796   5.987   3.725   5.407
 9279TIP3   OH227797   3.603   0.541   0.164
 9279TIP3    H127798   3.686   0.536   0.210
 9279TIP3    H227799   3.568   0.452   0.166
 9280TIP3   OH227800   4.087   0.472   0.237
 9280TIP3    H127801   4.182   0.472   0.226
 9280TIP3    H227802   4.055   0.419   0.165
 9281TIP3   OH227803   6.649   3.759   4.719
 9281TIP3    H127804   6.601   3.689   4.763
 9281TIP3    H227805   6.724   3.716   4.679
 9282TIP3   OH227806   7.288   4.100   6.333
 9282TIP3    H127807   7.288   4.022   6.388
 9282TIP3    H227808   7.371   4.143   6.353
 9283TIP3   OH227809   7.084   3.797   4.653
 9283TIP3    H127810   7.121   3.734   4.715
 9283TIP3    H227811   7.142   3.795   4.578
 9284TIP3   OH227812   1.123   7.308   0.369
 9284TIP3    H127813   1.136   7.213   0.378
 9284TIP3    H227814   1.036   7.317   0.329
 9285TIP3   OH227815   6.313   3.256   4.946
 9285TIP3    H127816   6.365   3.234   5.023
 9285TIP3    H227817   6.378   3.269   4.877
 9286TIP3   OH227818   4.335   0.041   0.154
 9286TIP3    H127819   4.294   0.066   0.071
 9286TIP3    H227820   4.373  -0.045   0.136
 9287TIP3   OH227821   6.847   3.477   4.766
 9287TIP3    H127822   6.838   3.489   4.861
 9287TIP3    H227823   6.843   3.382   4.754
 9288TIP3   OH227824   7.401   3.762   6.153
 9288TIP3    H127825   7.480   3.784   6.103
 9288TIP3    H227826   7.337   3.829   6.128
 9289TIP3   OH227827   1.236   7.051   0.379
 9289TIP3    H127828   1.311   7.043   0.319
 9289TIP3    H227829   1.274   7.081   0.461
 9290TIP3   OH227830   6.490   3.196   5.156
 9290TIP3    H127831   6.471   3.164   5.244
 9290TIP3    H227832   6.537   3.123   5.115
 9291TIP3   OH227833   1.595   6.946   0.036
 9291TIP3    H127834   1.511   6.991   0.046
 9291TIP3    H227835   1.630   6.979  -0.047
 9292TIP3   OH227836   6.626   3.005   5.003
 9292TIP3    H127837   6.596   3.010   4.911
 9292TIP3    H227838   6.721   3.012   4.998
 9293TIP3   OH227839   2.106   7.310   0.136
 9293TIP3    H127840   2.176   7.284   0.076
 9293TIP3    H227841   2.113   7.248   0.210
 9294TIP3   OH227842   7.433   3.310   4.683
 9294TIP3    H127843   7.414   3.266   4.600
 9294TIP3    H227844   7.400   3.399   4.671
 9295TIP3   OH227845   1.695   6.718   0.146
 9295TIP3    H127846   1.701   6.645   0.084
 9295TIP3    H227847   1.660   6.790   0.093
 9296TIP3   OH227848   6.911   2.835   6.322
 9296TIP3    H127849   6.941   2.872   6.239
 9296TIP3    H227850   6.820   2.811   6.305
 9297TIP3   OH227851   6.924   3.380   6.195
 9297TIP3    H127852   7.013   3.406   6.171
 9297TIP3    H227853   6.867   3.439   6.145
 9298TIP3   OH227854   2.336   6.983   0.145
 9298TIP3    H127855   2.411   6.993   0.086
 9298TIP3    H227856   2.347   7.052   0.210
 9299TIP3   OH227857   7.530   3.590   6.318
 9299TIP3    H127858   7.478   3.651   6.266
 9299TIP3    H227859   7.620   3.602   6.286
 9300TIP3   OH227860   1.573   6.820   0.379
 9300TIP3    H127861   1.502   6.759   0.399
 9300TIP3    H227862   1.602   6.796   0.292
 9301TIP3   OH227863   1.828   6.279   0.056
 9301TIP3    H127864   1.788   6.358   0.021
 9301TIP3    H227865   1.766   6.209   0.033
 9302TIP3   OH227866   1.935   6.789   0.256
 9302TIP3    H127867   1.909   6.793   0.348
 9302TIP3    H227868   1.855   6.766   0.209
 9303TIP3   OH227869   2.131   6.696   0.085
 9303TIP3    H127870   2.064   6.716   0.151
 9303TIP3    H227871   2.209   6.673   0.137
 9304TIP3   OH227872   1.416   6.587   0.428
 9304TIP3    H127873   1.419   6.497   0.394
 9304TIP3    H227874   1.462   6.582   0.512
 9305TIP3   OH227875   1.911   6.289   0.314
 9305TIP3    H127876   1.953   6.207   0.343
 9305TIP3    H227877   1.889   6.273   0.222
 9306TIP3   OH227878   2.014   6.523   0.407
 9306TIP3    H127879   1.982   6.444   0.362
 9306TIP3    H227880   1.958   6.593   0.374
 9307TIP3   OH227881   6.443   4.051   4.928
 9307TIP3    H127882   6.533   4.033   4.903
 9307TIP3    H227883   6.407   4.100   4.853
 9308TIP3   OH227884   5.910   3.434   5.111
 9308TIP3    H127885   6.005   3.449   5.107
 9308TIP3    H227886   5.898   3.348   5.072
 9309TIP3   OH227887   5.952   3.876   5.671
 9309TIP3    H127888   5.952   3.864   5.765
 9309TIP3    H227889   5.887   3.944   5.655
 9310TIP3   OH227890   7.673   4.282   5.551
 9310TIP3    H127891   7.711   4.297   5.638
 9310TIP3    H227892   7.733   4.327   5.491
 9311TIP3   OH227893   7.704   4.290   5.836
 9311TIP3    H127894   7.673   4.202   5.817
 9311TIP3    H227895   7.779   4.278   5.894
 9312TIP3   OH227896   5.141   0.370   0.006
 9312TIP3    H127897   5.117   0.327   0.088
 9312TIP3    H227898   5.232   0.396   0.018
 9313TIP3   OH227899   7.673   3.321   5.189
 9313TIP3    H127900   7.603   3.305   5.252
 9313TIP3    H227901   7.714   3.402   5.219
 9314TIP3   OH227902   7.711   3.761   5.626
 9314TIP3    H127903   7.750   3.703   5.561
 9314TIP3    H227904   7.699   3.844   5.580
 9315TIP3   OH227905   7.571   4.042   5.832
 9315TIP3    H127906   7.505   4.093   5.879
 9315TIP3    H227907   7.524   4.001   5.760
 9316TIP3   OH227908   7.632   3.279   4.876
 9316TIP3    H127909   7.561   3.293   4.812
 9316TIP3    H227910   7.651   3.367   4.910
 9317TIP3   OH227911   7.445   2.942   4.820
 9317TIP3    H127912   7.405   2.984   4.744
 9317TIP3    H227913   7.440   2.848   4.800
 9318TIP3   OH227914   7.484   3.225   5.364
 9318TIP3    H127915   7.504   3.131   5.360
 9318TIP3    H227916   7.473   3.243   5.457
 9319TIP3   OH227917   6.139   3.284   6.121
 9319TIP3    H127918   6.129   3.256   6.030
 9319TIP3    H227919   6.233   3.286   6.135
 9320TIP3   OH227920  -0.013   3.622   6.225
 9320TIP3    H127921   0.059   3.559   6.225
 9320TIP3    H227922   0.009   3.683   6.154
 9321TIP3   OH227923   0.184   3.419   6.238
 9321TIP3    H127924   0.127   3.362   6.291
 9321TIP3    H227925   0.262   3.366   6.222
 9322TIP3   OH227926   7.408   2.668   4.777
 9322TIP3    H127927   7.470   2.630   4.840
 9322TIP3    H227928   7.325   2.626   4.798
 9323TIP3   OH227929   7.474   2.941   5.243
 9323TIP3    H127930   7.501   2.850   5.233
 9323TIP3    H227931   7.516   2.987   5.170
 9324TIP3   OH227932   7.657   3.126   5.740
 9324TIP3    H127933   7.726   3.153   5.680
 9324TIP3    H227934   7.686   3.157   5.826
 9325TIP3   OH227935   7.714   3.264   5.985
 9325TIP3    H127936   7.635   3.292   6.030
 9325TIP3    H227937   7.749   3.344   5.945
 9326TIP3   OH227938   1.151   6.652   0.397
 9326TIP3    H127939   1.247   6.647   0.404
 9326TIP3    H227940   1.120   6.571   0.437
 9327TIP3   OH227941   7.574   2.691   5.283
 9327TIP3    H127942   7.622   2.678   5.365
 9327TIP3    H227943   7.518   2.614   5.275
 9328TIP3   OH227944   6.329   2.684   6.125
 9328TIP3    H127945   6.383   2.605   6.125
 9328TIP3    H227946   6.389   2.755   6.105
 9329TIP3   OH227947   6.112   2.950   6.175
 9329TIP3    H127948   6.165   2.939   6.096
 9329TIP3    H227949   6.129   3.040   6.202
 9330TIP3   OH227950   7.612   2.561   4.941
 9330TIP3    H127951   7.651   2.522   4.863
 9330TIP3    H227952   7.646   2.651   4.943
 9331TIP3   OH227953   6.098   2.443   5.671
 9331TIP3    H127954   6.013   2.440   5.714
 9331TIP3    H227955   6.086   2.503   5.597
 9332TIP3   OH227956   7.250   4.175   5.191
 9332TIP3    H127957   7.302   4.161   5.112
 9332TIP3    H227958   7.299   4.240   5.241
 9333TIP3   OH227959   1.131   6.200   0.130
 9333TIP3    H127960   1.076   6.192   0.208
 9333TIP3    H227961   1.075   6.244   0.065
 9334TIP3   OH227962   3.764   0.265   0.204
 9334TIP3    H127963   3.670   0.260   0.188
 9334TIP3    H227964   3.771   0.280   0.298
 9335TIP3   OH227965   6.564   4.012   6.124
 9335TIP3    H127966   6.510   4.083   6.090
 9335TIP3    H227967   6.648   4.022   6.079
 9336TIP3   OH227968   6.962   4.233   6.263
 9336TIP3    H127969   7.006   4.229   6.348
 9336TIP3    H227970   7.021   4.284   6.208
 9337TIP3   OH227971   7.139   4.385   6.120
 9337TIP3    H127972   7.201   4.337   6.065
 9337TIP3    H227973   7.195   4.436   6.180
 9338TIP3   OH227974   6.226   4.238   6.176
 9338TIP3    H127975   6.139   4.264   6.147
 9338TIP3    H227976   6.249   4.303   6.243
 9339TIP3   OH227977   6.452   4.238   6.015
 9339TIP3    H127978   6.368   4.240   6.062
 9339TIP3    H227979   6.429   4.262   5.926
 9340TIP3   OH227980   6.869   4.261   5.807
 9340TIP3    H127981   6.801   4.268   5.740
 9340TIP3    H227982   6.880   4.350   5.840
 9341TIP3   OH227983   7.131   4.194   5.862
 9341TIP3    H127984   7.040   4.213   5.838
 9341TIP3    H227985   7.183   4.256   5.811
 9342TIP3   OH227986   7.327   4.363   5.754
 9342TIP3    H127987   7.319   4.448   5.711
 9342TIP3    H227988   7.358   4.304   5.686
 9343TIP3   OH227989   6.152   4.058   5.898
 9343TIP3    H127990   6.160   4.020   5.986
 9343TIP3    H227991   6.217   4.011   5.846
 9344TIP3   OH227992   6.344   3.920   5.759
 9344TIP3    H127993   6.355   3.834   5.800
 9344TIP3    H227994   6.432   3.958   5.759
 9345TIP3   OH227995   6.611   4.004   5.767
 9345TIP3    H127996   6.631   3.912   5.751
 9345TIP3    H227997   6.664   4.028   5.843
 9346TIP3   OH227998   7.160   2.658   5.852
 9346TIP3    H127999   7.118   2.585   5.897
 9346TIP3    H228000   7.227   2.618   5.796
 9347TIP3   OH228001   7.652   2.558   5.749
 9347TIP3    H128002   7.681   2.613   5.676
 9347TIP3    H228003   7.559   2.580   5.759
 9348TIP3   OH228004   7.728   2.675   5.510
 9348TIP3    H128005   7.799   2.613   5.497
 9348TIP3    H228006   7.770   2.754   5.541
 9349TIP3   OH228007   6.407   2.357   5.853
 9349TIP3    H128008   6.317   2.324   5.857
 9349TIP3    H228009   6.461   2.278   5.848
 9350TIP3   OH228010   6.231   2.256   5.504
 9350TIP3    H128011   6.257   2.305   5.427
 9350TIP3    H228012   6.191   2.320   5.563
 9351TIP3   OH228013   6.876   2.396   5.742
 9351TIP3    H128014   6.926   2.443   5.675
 9351TIP3    H228015   6.916   2.424   5.824
 9352TIP3   OH228016   7.369   2.550   5.708
 9352TIP3    H128017   7.400   2.519   5.623
 9352TIP3    H228018   7.365   2.472   5.763
 9353TIP3   OH228019   7.408   2.470   5.300
 9353TIP3    H128020   7.330   2.521   5.322
 9353TIP3    H228021   7.393   2.385   5.342
 9354TIP3   OH228022   5.924   3.820   5.266
 9354TIP3    H128023   5.838   3.789   5.239
 9354TIP3    H228024   5.926   3.912   5.239
 9355TIP3   OH228025   6.337   2.388   5.270
 9355TIP3    H128026   6.382   2.330   5.208
 9355TIP3    H228027   6.405   2.446   5.304
 9356TIP3   OH228028   6.822   2.586   5.367
 9356TIP3    H128029   6.882   2.536   5.422
 9356TIP3    H228030   6.836   2.678   5.392
 9357TIP3   OH228031   6.702   3.984   4.865
 9357TIP3    H128032   6.786   4.013   4.828
 9357TIP3    H228033   6.674   3.912   4.808
 9358TIP3   OH228034   7.385   4.122   4.955
 9358TIP3    H128035   7.379   4.026   4.947
 9358TIP3    H228036   7.345   4.155   4.875
 9359TIP3   OH228037   1.432   6.305   0.372
 9359TIP3    H128038   1.400   6.234   0.427
 9359TIP3    H228039   1.524   6.314   0.395
 9360TIP3   OH228040   1.690   6.315   0.472
 9360TIP3    H128041   1.761   6.335   0.411
 9360TIP3    H228042   1.710   6.227   0.503
 9361TIP3   OH228043   6.005   3.828   4.918
 9361TIP3    H128044   6.006   3.841   5.013
 9361TIP3    H228045   6.088   3.783   4.899
 9362TIP3   OH228046   7.597   4.284   6.155
 9362TIP3    H128047   7.535   4.244   6.094
 9362TIP3    H228048   7.584   4.378   6.145
 9363TIP3   OH228049   0.498   3.688   5.612
 9363TIP3    H128050   0.485   3.614   5.552
 9363TIP3    H228051   0.542   3.649   5.688
 9364TIP3   OH228052   0.393   3.947   5.374
 9364TIP3    H128053   0.406   3.858   5.341
 9364TIP3    H228054   0.481   3.981   5.387
 9365TIP3   OH228055   0.061   3.133   5.147
 9365TIP3    H128056   0.003   3.209   5.153
 9365TIP3    H228057   0.003   3.058   5.148
 9366TIP3   OH228058   0.095   3.466   5.288
 9366TIP3    H128059   0.141   3.388   5.319
 9366TIP3    H228060   0.127   3.480   5.199
 9367TIP3   OH228061   0.230   3.237   5.354
 9367TIP3    H128062   0.292   3.175   5.392
 9367TIP3    H228063   0.201   3.195   5.273
 9368TIP3   OH228064   0.460   3.660   5.944
 9368TIP3    H128065   0.481   3.753   5.956
 9368TIP3    H228066   0.379   3.648   5.993
 9369TIP3   OH228067   0.091   3.810   5.837
 9369TIP3    H128068   0.026   3.816   5.767
 9369TIP3    H228069   0.148   3.737   5.811
 9370TIP3   OH228070   7.743   4.005   5.501
 9370TIP3    H128071   7.835   3.985   5.487
 9370TIP3    H228072   7.743   4.079   5.561
 9371TIP3   OH228073   0.126   4.207   5.017
 9371TIP3    H128074   0.195   4.182   5.079
 9371TIP3    H228075   0.087   4.123   4.992
 9372TIP3   OH228076   0.361   3.932   5.816
 9372TIP3    H128077   0.343   3.921   5.909
 9372TIP3    H228078   0.278   3.908   5.773
 9373TIP3   OH228079   0.058   2.918   5.580
 9373TIP3    H128080   0.151   2.941   5.584
 9373TIP3    H228081   0.031   2.949   5.493
 9374TIP3   OH228082   0.204   2.889   4.985
 9374TIP3    H128083   0.276   2.883   4.922
 9374TIP3    H228084   0.138   2.943   4.941
 9375TIP3   OH228085   0.439   3.927   6.083
 9375TIP3    H128086   0.533   3.942   6.080
 9375TIP3    H228087   0.401   4.013   6.103
 9376TIP3   OH228088   0.213   3.599   6.035
 9376TIP3    H128089   0.213   3.539   6.110
 9376TIP3    H228090   0.150   3.561   5.974
 9377TIP3   OH228091   0.091   3.277   4.778
 9377TIP3    H128092   0.145   3.347   4.813
 9377TIP3    H228093   0.008   3.285   4.825
 9378TIP3   OH228094   0.547   4.283   4.917
 9378TIP3    H128095   0.459   4.319   4.926
 9378TIP3    H228096   0.590   4.339   4.852
 9379TIP3   OH228097   0.113   4.130   5.700
 9379TIP3    H128098   0.152   4.051   5.663
 9379TIP3    H228099   0.188   4.187   5.718
 9380TIP3   OH228100   0.124   3.770   4.596
 9380TIP3    H128101   0.196   3.831   4.611
 9380TIP3    H228102   0.126   3.711   4.671
 9381TIP3   OH228103   0.033   3.005   4.803
 9381TIP3    H128104   0.054   3.098   4.793
 9381TIP3    H228105   0.021   2.973   4.713
 9382TIP3   OH228106   7.829   3.955   4.936
 9382TIP3    H128107   7.763   3.899   4.977
 9382TIP3    H228108   7.786   3.991   4.859
 9383TIP3   OH228109   0.242   3.874   6.276
 9383TIP3    H128110   0.318   3.877   6.218
 9383TIP3    H228111   0.168   3.902   6.221
 9384TIP3   OH228112   7.659   3.728   4.541
 9384TIP3    H128113   7.746   3.755   4.572
 9384TIP3    H228114   7.667   3.634   4.527
 9385TIP3   OH228115   7.581   4.284   5.049
 9385TIP3    H128116   7.522   4.222   5.008
 9385TIP3    H228117   7.629   4.233   5.115
 9386TIP3   OH228118   7.706   4.142   5.250
 9386TIP3    H128119   7.768   4.072   5.232
 9386TIP3    H228120   7.674   4.125   5.339
 9387TIP3   OH228121   0.080   3.511   5.582
 9387TIP3    H128122   0.096   3.527   5.489
 9387TIP3    H228123   0.155   3.549   5.627
 9388TIP3   OH228124   0.206   3.141   5.754
 9388TIP3    H128125   0.152   3.168   5.680
 9388TIP3    H228126   0.241   3.223   5.789
 9389TIP3   OH228127   0.077   2.710   5.152
 9389TIP3    H128128  -0.014   2.726   5.126
 9389TIP3    H228129   0.128   2.773   5.100
 9390TIP3   OH228130   0.323   4.162   6.147
 9390TIP3    H128131   0.248   4.207   6.109
 9390TIP3    H228132   0.395   4.225   6.140
 9391TIP3   OH228133   0.635   4.250   5.601
 9391TIP3    H128134   0.590   4.326   5.564
 9391TIP3    H228135   0.726   4.279   5.612
 9392TIP3   OH228136   0.190   4.555   5.662
 9392TIP3    H128137   0.108   4.565   5.613
 9392TIP3    H228138   0.161   4.537   5.751
 9393TIP3   OH228139   0.479   4.409   5.435
 9393TIP3    H128140   0.432   4.493   5.434
 9393TIP3    H228141   0.511   4.399   5.346
 9394TIP3   OH228142   0.080   4.331   5.361
 9394TIP3    H128143   0.153   4.286   5.405
 9394TIP3    H228144   0.040   4.263   5.307
 9395TIP3   OH228145   0.348   4.159   5.161
 9395TIP3    H128146   0.368   4.067   5.175
 9395TIP3    H228147   0.430   4.205   5.181
 9396TIP3   OH228148   7.708   4.072   4.722
 9396TIP3    H128149   7.621   4.036   4.704
 9396TIP3    H228150   7.698   4.167   4.708
 9397TIP3   OH228151  -0.008   4.094   4.422
 9397TIP3    H128152  -0.015   4.095   4.517
 9397TIP3    H228153   0.062   4.031   4.404
 9398TIP3   OH228154   6.555   0.765   0.218
 9398TIP3    H128155   6.527   0.852   0.191
 9398TIP3    H228156   6.486   0.706   0.188
 9399TIP3   OH228157   6.550   0.760   0.625
 9399TIP3    H128158   6.600   0.738   0.703
 9399TIP3    H228159   6.510   0.677   0.598
 9400TIP3   OH228160   5.848   0.673   0.895
 9400TIP3    H128161   5.833   0.735   0.966
 9400TIP3    H228162   5.943   0.670   0.885
 9401TIP3   OH228163   6.816   1.056   0.309
 9401TIP3    H128164   6.805   0.991   0.378
 9401TIP3    H228165   6.839   1.137   0.356
 9402TIP3   OH228166   5.925   0.994   0.800
 9402TIP3    H128167   5.877   0.932   0.744
 9402TIP3    H228168   5.975   1.047   0.739
 9403TIP3   OH228169   6.482   1.505   0.311
 9403TIP3    H128170   6.506   1.430   0.256
 9403TIP3    H228171   6.457   1.466   0.395
 9404TIP3   OH228172   6.352   0.972   0.652
 9404TIP3    H128173   6.392   0.892   0.617
 9404TIP3    H228174   6.427   1.030   0.668
 9405TIP3   OH228175   7.374   0.319   0.634
 9405TIP3    H128176   7.386   0.402   0.680
 9405TIP3    H228177   7.411   0.334   0.547
 9406TIP3   OH228178   6.763   0.468   0.686
 9406TIP3    H128179   6.798   0.382   0.709
 9406TIP3    H228180   6.723   0.455   0.600
 9407TIP3   OH228181   6.080   0.162   0.652
 9407TIP3    H128182   6.082   0.243   0.601
 9407TIP3    H228183   6.050   0.096   0.590
 9408TIP3   OH228184   6.820   0.227   0.271
 9408TIP3    H128185   6.887   0.219   0.339
 9408TIP3    H228186   6.867   0.262   0.196
 9409TIP3   OH228187   5.757   0.258   0.794
 9409TIP3    H128188   5.843   0.244   0.833
 9409TIP3    H228189   5.771   0.248   0.700
 9410TIP3   OH228190   6.178   0.547   0.566
 9410TIP3    H128191   6.272   0.530   0.563
 9410TIP3    H228192   6.137   0.470   0.528
 9411TIP3   OH228193   7.439   0.523   0.809
 9411TIP3    H128194   7.353   0.566   0.817
 9411TIP3    H228195   7.490   0.558   0.882
 9412TIP3   OH228196   6.455   0.981   0.076
 9412TIP3    H128197   6.414   0.952  -0.005
 9412TIP3    H228198   6.401   1.054   0.106
 9413TIP3   OH228199   6.234   0.885   0.889
 9413TIP3    H128200   6.158   0.934   0.918
 9413TIP3    H228201   6.263   0.928   0.809
 9414TIP3   OH228202   6.979   0.238   0.498
 9414TIP3    H128203   6.932   0.233   0.581
 9414TIP3    H228204   7.034   0.316   0.507
 9415TIP3   OH228205   6.047   0.160   0.918
 9415TIP3    H128206   6.081   0.246   0.942
 9415TIP3    H228207   6.052   0.158   0.822
 9416TIP3   OH228208   6.013   1.030   1.057
 9416TIP3    H128209   6.047   1.109   1.015
 9416TIP3    H228210   5.951   0.994   0.993
 9417TIP3   OH228211   6.853   1.302   0.446
 9417TIP3    H128212   6.763   1.301   0.479
 9417TIP3    H228213   6.858   1.381   0.391
 9418TIP3   OH228214   7.123   0.284   0.818
 9418TIP3    H128215   7.037   0.262   0.781
 9418TIP3    H228216   7.177   0.303   0.742
 9419TIP3   OH228217   3.892   7.184   0.719
 9419TIP3    H128218   3.889   7.107   0.662
 9419TIP3    H228219   3.809   7.182   0.767
 9420TIP3   OH228220   6.567   1.343   0.101
 9420TIP3    H128221   6.618   1.262   0.092
 9420TIP3    H228222   6.628   1.412   0.075
 9421TIP3   OH228223   6.704   1.112   0.062
 9421TIP3    H128224   6.632   1.050   0.057
 9421TIP3    H228225   6.753   1.085   0.140
 9422TIP3   OH228226   7.087   1.196   0.796
 9422TIP3    H128227   7.076   1.121   0.739
 9422TIP3    H228228   7.067   1.272   0.740
 9423TIP3   OH228229   6.387   0.605   0.064
 9423TIP3    H128230   6.304   0.649   0.048
 9423TIP3    H228231   6.429   0.601  -0.022
 9424TIP3   OH228232   1.151   4.077   6.129
 9424TIP3    H128233   1.216   4.129   6.176
 9424TIP3    H228234   1.201   4.012   6.081
 9425TIP3   OH228235   7.278   0.858   0.657
 9425TIP3    H128236   7.194   0.903   0.658
 9425TIP3    H228237   7.313   0.873   0.569
 9426TIP3   OH228238   6.737   0.692   0.026
 9426TIP3    H128239   6.683   0.721   0.099
 9426TIP3    H228240   6.821   0.668   0.065
 9427TIP3   OH228241   6.965   0.715   0.931
 9427TIP3    H128242   6.979   0.793   0.983
 9427TIP3    H228243   6.883   0.732   0.884
 9428TIP3   OH228244   5.971   0.682   0.435
 9428TIP3    H128245   5.929   0.618   0.377
 9428TIP3    H228246   6.044   0.634   0.475
 9429TIP3   OH228247   6.094   1.084   0.585
 9429TIP3    H128248   6.064   1.062   0.496
 9429TIP3    H228249   6.181   1.043   0.591
 9430TIP3   OH228250   6.122   0.642   0.821
 9430TIP3    H128251   6.136   0.621   0.729
 9430TIP3    H228252   6.168   0.725   0.834
 9431TIP3   OH228253   6.611   1.306   0.574
 9431TIP3    H128254   6.624   1.368   0.646
 9431TIP3    H228255   6.602   1.221   0.618
 9432TIP3   OH228256   6.318   1.169   1.035
 9432TIP3    H128257   6.269   1.201   1.111
 9432TIP3    H228258   6.251   1.155   0.968
 9433TIP3   OH228259   1.372   4.226   6.226
 9433TIP3    H128260   1.430   4.285   6.273
 9433TIP3    H228261   1.399   4.234   6.134
 9434TIP3   OH228262   6.319   1.219   0.124
 9434TIP3    H128263   6.399   1.272   0.122
 9434TIP3    H228264   6.259   1.264   0.065
 9435TIP3   OH228265   1.874   3.455   6.272
 9435TIP3    H128266   1.799   3.480   6.326
 9435TIP3    H228267   1.890   3.532   6.218
 9436TIP3   OH228268   5.833   0.530   0.245
 9436TIP3    H128269   5.807   0.589   0.175
 9436TIP3    H228270   5.771   0.457   0.239
 9437TIP3   OH228271   1.703   4.828   5.837
 9437TIP3    H128272   1.700   4.922   5.816
 9437TIP3    H228273   1.792   4.802   5.817
 9438TIP3   OH228274   7.337   1.561   0.847
 9438TIP3    H128275   7.333   1.467   0.863
 9438TIP3    H228276   7.255   1.595   0.885
 9439TIP3   OH228277   6.480   1.351   0.914
 9439TIP3    H128278   6.456   1.426   0.970
 9439TIP3    H228279   6.430   1.278   0.950
 9440TIP3   OH228280   1.011   5.119   6.308
 9440TIP3    H128281   0.960   5.099   6.229
 9440TIP3    H228282   0.981   5.206   6.334
 9441TIP3   OH228283   1.210   5.055   5.940
 9441TIP3    H128284   1.259   4.981   5.904
 9441TIP3    H228285   1.244   5.064   6.029
 9442TIP3   OH228286   1.264   5.094   6.210
 9442TIP3    H128287   1.176   5.098   6.246
 9442TIP3    H228288   1.316   5.051   6.278
 9443TIP3   OH228289   7.225   0.698   1.113
 9443TIP3    H128290   7.133   0.721   1.122
 9443TIP3    H228291   7.225   0.604   1.092
 9444TIP3   OH228292   3.635   7.283   0.831
 9444TIP3    H128293   3.602   7.194   0.815
 9444TIP3    H228294   3.558   7.333   0.856
 9445TIP3   OH228295   6.942   0.482   1.073
 9445TIP3    H128296   6.871   0.511   1.130
 9445TIP3    H228297   6.956   0.555   1.012
 9446TIP3   OH228298   1.453   4.220   5.966
 9446TIP3    H128299   1.408   4.219   5.882
 9446TIP3    H228300   1.535   4.267   5.949
 9447TIP3   OH228301   1.176   3.622   6.285
 9447TIP3    H128302   1.128   3.629   6.368
 9447TIP3    H228303   1.139   3.544   6.243
 9448TIP3   OH228304   6.166   0.413   0.962
 9448TIP3    H128305   6.142   0.444   1.049
 9448TIP3    H228306   6.148   0.487   0.904
 9449TIP3   OH228307   6.024   0.348   0.460
 9449TIP3    H128308   5.933   0.327   0.481
 9449TIP3    H228309   6.040   0.303   0.377
 9450TIP3   OH228310   6.524   0.409   0.195
 9450TIP3    H128311   6.473   0.479   0.155
 9450TIP3    H228312   6.579   0.376   0.124
 9451TIP3   OH228313   6.681   0.416   0.424
 9451TIP3    H128314   6.616   0.444   0.359
 9451TIP3    H228315   6.724   0.340   0.385
 9452TIP3   OH228316   0.860   3.611   6.268
 9452TIP3    H128317   0.841   3.617   6.361
 9452TIP3    H228318   0.790   3.661   6.225
 9453TIP3   OH228319   6.693   0.675   0.846
 9453TIP3    H128320   6.720   0.602   0.790
 9453TIP3    H228321   6.693   0.637   0.935
 9454TIP3   OH228322   6.419   0.198   0.518
 9454TIP3    H128323   6.352   0.134   0.543
 9454TIP3    H228324   6.494   0.176   0.572
 9455TIP3   OH228325   5.795   0.192   0.521
 9455TIP3    H128326   5.712   0.167   0.480
 9455TIP3    H228327   5.855   0.121   0.497
 9456TIP3   OH228328   6.067   0.202   0.233
 9456TIP3    H128329   6.161   0.217   0.217
 9456TIP3    H228330   6.025   0.232   0.153
 9457TIP3   OH228331   6.846   0.210   0.744
 9457TIP3    H128332   6.833   0.214   0.839
 9457TIP3    H228333   6.772   0.158   0.712
 9458TIP3   OH228334   0.721   3.925   6.384
 9458TIP3    H128335   0.636   3.882   6.376
 9458TIP3    H228336   0.750   3.936   6.293
 9459TIP3   OH228337   7.054   1.943   0.931
 9459TIP3    H128338   7.052   1.933   0.836
 9459TIP3    H228339   7.142   1.974   0.951
 9460TIP3   OH228340   6.450   0.494   0.604
 9460TIP3    H128341   6.494   0.436   0.542
 9460TIP3    H228342   6.440   0.441   0.683
 9461TIP3   OH228343   3.373   7.349   0.453
 9461TIP3    H128344   3.383   7.267   0.501
 9461TIP3    H228345   3.380   7.324   0.361
 9462TIP3   OH228346   6.411   0.343   0.838
 9462TIP3    H128347   6.321   0.360   0.866
 9462TIP3    H228348   6.460   0.331   0.919
 9463TIP3   OH228349   6.153   0.741   0.015
 9463TIP3    H128350   6.082   0.681  -0.005
 9463TIP3    H228351   6.126   0.783   0.097
 9464TIP3   OH228352   7.040   0.993   0.617
 9464TIP3    H128353   7.074   1.042   0.542
 9464TIP3    H228354   6.959   0.954   0.586
 9465TIP3   OH228355   1.421   3.733   6.276
 9465TIP3    H128356   1.329   3.709   6.276
 9465TIP3    H228357   1.421   3.828   6.287
 9466TIP3   OH228358   6.569   1.064   1.000
 9466TIP3    H128359   6.586   0.991   1.059
 9466TIP3    H228360   6.478   1.088   1.018
 9467TIP3   OH228361   1.476   3.998   6.348
 9467TIP3    H128362   1.572   4.004   6.355
 9467TIP3    H228363   1.452   4.073   6.294
 9468TIP3   OH228364   5.825   0.798   0.641
 9468TIP3    H128365   5.870   0.754   0.569
 9468TIP3    H228366   5.818   0.731   0.710
 9469TIP3   OH228367   1.099   4.582   6.222
 9469TIP3    H128368   1.052   4.666   6.221
 9469TIP3    H228369   1.043   4.524   6.273
 9470TIP3   OH228370   6.745   1.349   0.835
 9470TIP3    H128371   6.651   1.345   0.854
 9470TIP3    H228372   6.788   1.335   0.919
 9471TIP3   OH228373   1.890   4.086   6.173
 9471TIP3    H128374   1.836   4.039   6.110
 9471TIP3    H228375   1.895   4.176   6.139
 9472TIP3   OH228376   7.332   1.287   0.875
 9472TIP3    H128377   7.238   1.266   0.871
 9472TIP3    H228378   7.367   1.257   0.791
 9473TIP3   OH228379   1.626   4.898   6.103
 9473TIP3    H128380   1.596   4.828   6.161
 9473TIP3    H228381   1.643   4.854   6.020
 9474TIP3   OH228382   6.804   0.861   0.520
 9474TIP3    H128383   6.712   0.839   0.536
 9474TIP3    H228384   6.842   0.782   0.482
 9475TIP3   OH228385   5.954   1.100   0.330
 9475TIP3    H128386   5.946   1.175   0.272
 9475TIP3    H228387   5.864   1.069   0.343
 9476TIP3   OH228388   6.058   0.858   0.239
 9476TIP3    H128389   6.039   0.948   0.268
 9476TIP3    H228390   6.030   0.803   0.312
 9477TIP3   OH228391   6.244   1.430   0.765
 9477TIP3    H128392   6.270   1.487   0.693
 9477TIP3    H228393   6.326   1.399   0.803
 9478TIP3   OH228394   5.858   1.318   0.169
 9478TIP3    H128395   5.765   1.340   0.172
 9478TIP3    H228396   5.903   1.402   0.167
 9479TIP3   OH228397   6.604   1.071   0.726
 9479TIP3    H128398   6.596   1.067   0.821
 9479TIP3    H228399   6.674   1.009   0.705
 9480TIP3   OH228400   1.385   4.637   5.991
 9480TIP3    H128401   1.434   4.609   6.068
 9480TIP3    H228402   1.300   4.594   6.000
 9481TIP3   OH228403   6.862   1.597   0.817
 9481TIP3    H128404   6.800   1.525   0.824
 9481TIP3    H228405   6.845   1.635   0.731
 9482TIP3   OH228406   1.708   5.102   5.798
 9482TIP3    H128407   1.734   5.166   5.731
 9482TIP3    H228408   1.634   5.144   5.843
 9483TIP3   OH228409   1.559   4.554   6.186
 9483TIP3    H128410   1.543   4.500   6.263
 9483TIP3    H228411   1.654   4.561   6.180
 9484TIP3   OH228412   0.752   4.602   5.997
 9484TIP3    H128413   0.746   4.513   5.963
 9484TIP3    H228414   0.737   4.593   6.091
 9485TIP3   OH228415   0.716   4.609   6.269
 9485TIP3    H128416   0.770   4.591   6.346
 9485TIP3    H228417   0.697   4.703   6.275
 9486TIP3   OH228418   6.803   0.251   1.015
 9486TIP3    H128419   6.855   0.332   1.021
 9486TIP3    H228420   6.805   0.216   1.104
 9487TIP3   OH228421   6.671   0.012   0.177
 9487TIP3    H128422   6.651   0.029   0.085
 9487TIP3    H228423   6.713   0.093   0.207
 9488TIP3   OH228424   0.964   4.817   6.223
 9488TIP3    H128425   0.873   4.830   6.250
 9488TIP3    H228426   0.980   4.886   6.157
 9489TIP3   OH228427   6.345   0.210   0.254
 9489TIP3    H128428   6.403   0.277   0.219
 9489TIP3    H228429   6.362   0.211   0.349
 9490TIP3   OH228430   6.663   0.576   1.104
 9490TIP3    H128431   6.591   0.639   1.105
 9490TIP3    H228432   6.622   0.492   1.126
 9491TIP3   OH228433   3.884   7.263   0.351
 9491TIP3    H128434   3.860   7.334   0.412
 9491TIP3    H228435   3.954   7.301   0.298
 9492TIP3   OH228436   0.705   4.886   6.284
 9492TIP3    H128437   0.680   4.954   6.221
 9492TIP3    H228438   0.689   4.927   6.369
 9493TIP3   OH228439   3.406   7.289   0.174
 9493TIP3    H128440   3.392   7.384   0.182
 9493TIP3    H228441   3.501   7.279   0.177
 9494TIP3   OH228442   7.214   0.435   1.038
 9494TIP3    H128443   7.123   0.427   1.067
 9494TIP3    H228444   7.214   0.398   0.950
 9495TIP3   OH228445   6.897   0.606   0.429
 9495TIP3    H128446   6.821   0.549   0.437
 9495TIP3    H228447   6.965   0.564   0.482
 9496TIP3   OH228448   5.675   0.117   0.039
 9496TIP3    H128449   5.590   0.158   0.022
 9496TIP3    H228450   5.673   0.035  -0.012
 9497TIP3   OH228451   6.886   1.557   0.340
 9497TIP3    H128452   6.843   1.622   0.285
 9497TIP3    H228453   6.979   1.576   0.331
 9498TIP3   OH228454   0.914   4.801   5.899
 9498TIP3    H128455   0.860   4.732   5.939
 9498TIP3    H228456   0.985   4.754   5.856
 9499TIP3   OH228457   6.846   1.321   1.081
 9499TIP3    H128458   6.829   1.261   1.154
 9499TIP3    H228459   6.852   1.407   1.122
 9500TIP3   OH228460   1.341   4.847   5.820
 9500TIP3    H128461   1.371   4.780   5.882
 9500TIP3    H228462   1.401   4.839   5.746
 9501TIP3   OH228463   0.561   4.303   6.150
 9501TIP3    H128464   0.631   4.305   6.216
 9501TIP3    H228465   0.607   4.305   6.067
 9502TIP3   OH228466   1.127   4.524   5.954
 9502TIP3    H128467   1.102   4.538   6.045
 9502TIP3    H228468   1.110   4.432   5.937
 9503TIP3   OH228469   6.870   1.067   0.919
 9503TIP3    H128470   6.940   1.123   0.883
 9503TIP3    H228471   6.791   1.120   0.911
 9504TIP3   OH228472   0.763   4.224   6.347
 9504TIP3    H128473   0.743   4.166   6.421
 9504TIP3    H228474   0.799   4.166   6.280
 9505TIP3   OH228475   0.876   4.044   6.174
 9505TIP3    H128476   0.847   4.048   6.082
 9505TIP3    H228477   0.971   4.050   6.169
 9506TIP3   OH228478   1.675   4.347   5.856
 9506TIP3    H128479   1.662   4.304   5.771
 9506TIP3    H228480   1.648   4.437   5.841
 9507TIP3   OH228481   6.454   0.745   1.013
 9507TIP3    H128482   6.502   0.742   0.930
 9507TIP3    H228483   6.371   0.788   0.992
 9508TIP3   OH228484   7.025   0.930   1.094
 9508TIP3    H128485   6.962   0.983   1.045
 9508TIP3    H228486   7.110   0.963   1.066
 9509TIP3   OH228487   0.701   5.114   6.113
 9509TIP3    H128488   0.786   5.088   6.080
 9509TIP3    H228489   0.653   5.144   6.035
 9510TIP3   OH228490   7.148   1.633   0.343
 9510TIP3    H128491   7.173   1.654   0.433
 9510TIP3    H228492   7.212   1.680   0.290
 9511TIP3   OH228493   7.182   1.632   0.620
 9511TIP3    H128494   7.128   1.553   0.622
 9511TIP3    H228495   7.256   1.611   0.677
 9512TIP3   OH228496   7.213   1.353   1.206
 9512TIP3    H128497   7.121   1.376   1.193
 9512TIP3    H228498   7.257   1.437   1.219
 9513TIP3   OH228499   1.839   4.551   6.186
 9513TIP3    H128500   1.897   4.621   6.156
 9513TIP3    H228501   1.883   4.513   6.262
 9514TIP3   OH228502   7.165   0.731   0.019
 9514TIP3    H128503   7.098   0.694   0.076
 9514TIP3    H228504   7.230   0.768   0.079
 9515TIP3   OH228505   7.213   1.133   0.449
 9515TIP3    H128506   7.265   1.063   0.410
 9515TIP3    H228507   7.216   1.204   0.385
 9516TIP3   OH228508   7.014   1.411   0.643
 9516TIP3    H128509   6.940   1.437   0.699
 9516TIP3    H228510   6.973   1.369   0.568
 9517TIP3   OH228511   1.881   4.325   6.035
 9517TIP3    H128512   1.810   4.324   5.970
 9517TIP3    H228513   1.864   4.403   6.088
 9518TIP3   OH228514   1.742   3.976   5.972
 9518TIP3    H128515   1.696   4.015   5.898
 9518TIP3    H228516   1.730   3.881   5.960
 9519TIP3   OH228517   6.964   0.596   0.158
 9519TIP3    H128518   6.969   0.501   0.144
 9519TIP3    H228519   6.945   0.605   0.252
 9520TIP3   OH228520   7.266   1.026   1.007
 9520TIP3    H128521   7.330   0.956   0.995
 9520TIP3    H228522   7.281   1.086   0.934
 9521TIP3   OH228523   7.438   0.819   1.004
 9521TIP3    H128524   7.364   0.780   1.050
 9521TIP3    H228525   7.509   0.755   1.016
 9522TIP3   OH228526   1.698   3.706   5.943
 9522TIP3    H128527   1.762   3.679   6.009
 9522TIP3    H228528   1.616   3.666   5.971
 9523TIP3   OH228529   6.963   0.320   0.043
 9523TIP3    H128530   7.006   0.236   0.054
 9523TIP3    H228531   7.005   0.360  -0.033
 9524TIP3   OH228532   7.110   0.475   0.560
 9524TIP3    H128533   7.190   0.493   0.510
 9524TIP3    H228534   7.123   0.520   0.643
 9525TIP3   OH228535   7.183   0.629   0.780
 9525TIP3    H128536   7.112   0.658   0.837
 9525TIP3    H228537   7.217   0.710   0.742
 9526TIP3   OH228538   7.075   0.071   0.091
 9526TIP3    H128539   7.126   0.050   0.169
 9526TIP3    H228540   7.013  -0.002   0.083
 9527TIP3   OH228541   7.453   0.431   1.182
 9527TIP3    H128542   7.370   0.424   1.135
 9527TIP3    H228543   7.492   0.344   1.174
 9528TIP3   OH228544   1.927   3.661   6.100
 9528TIP3    H128545   1.972   3.600   6.041
 9528TIP3    H228546   1.984   3.738   6.102
 9529TIP3   OH228547   1.521   5.218   6.368
 9529TIP3    H128548   1.565   5.197   6.286
 9529TIP3    H228549   1.580   5.279   6.412
 9530TIP3   OH228550   6.097   1.234   0.889
 9530TIP3    H128551   6.028   1.285   0.932
 9530TIP3    H228552   6.139   1.296   0.829
 9531TIP3   OH228553   6.399   1.551   1.077
 9531TIP3    H128554   6.359   1.563   1.163
 9531TIP3    H228555   6.345   1.604   1.018
 9532TIP3   OH228556   6.660   1.820   0.825
 9532TIP3    H128557   6.654   1.731   0.790
 9532TIP3    H228558   6.732   1.816   0.888
 9533TIP3   OH228559   7.438   0.186   1.002
 9533TIP3    H128560   7.344   0.179   1.018
 9533TIP3    H228561   7.477   0.118   1.058
 9534TIP3   OH228562   6.347   1.589   0.572
 9534TIP3    H128563   6.286   1.600   0.499
 9534TIP3    H228564   6.354   1.676   0.611
 9535TIP3   OH228565   6.599   1.576   0.687
 9535TIP3    H128566   6.514   1.567   0.644
 9535TIP3    H228567   6.658   1.606   0.618
 9536TIP3   OH228568   6.819   1.693   0.565
 9536TIP3    H128569   6.807   1.780   0.526
 9536TIP3    H228570   6.844   1.637   0.492
 9537TIP3   OH228571   6.092   1.363   0.521
 9537TIP3    H128572   6.063   1.273   0.503
 9537TIP3    H228573   6.139   1.358   0.604
 9538TIP3   OH228574   6.623   0.064   0.651
 9538TIP3    H128575   6.568  -0.010   0.678
 9538TIP3    H228576   6.678   0.028   0.581
 9539TIP3   OH228577   7.076  -0.020   0.500
 9539TIP3    H128578   7.153  -0.002   0.447
 9539TIP3    H228579   7.031   0.064   0.507
 9540TIP3   OH228580   7.250   0.014   0.298
 9540TIP3    H128581   7.317  -0.044   0.262
 9540TIP3    H228582   7.287   0.102   0.288
 9541TIP3   OH228583   3.209   7.107   0.740
 9541TIP3    H128584   3.127   7.153   0.722
 9541TIP3    H228585   3.184   7.015   0.743
 9542TIP3   OH228586   3.099   7.008   0.302
 9542TIP3    H128587   3.133   7.038   0.217
 9542TIP3    H228588   3.015   7.052   0.310
 9543TIP3   OH228589   3.720   7.058   0.473
 9543TIP3    H128590   3.757   7.141   0.443
 9543TIP3    H228591   3.679   7.079   0.557
 9544TIP3   OH228592   4.182   7.283   0.482
 9544TIP3    H128593   4.244   7.283   0.409
 9544TIP3    H228594   4.162   7.191   0.498
 9545TIP3   OH228595   4.292   7.215   0.095
 9545TIP3    H128596   4.209   7.259   0.116
 9545TIP3    H228597   4.281   7.126   0.128
 9546TIP3   OH228598   3.219   7.108   0.077
 9546TIP3    H128599   3.261   7.061   0.005
 9546TIP3    H228600   3.283   7.174   0.103
 9547TIP3   OH228601   3.675   7.311   0.175
 9547TIP3    H128602   3.739   7.260   0.226
 9547TIP3    H228603   3.695   7.402   0.195
 9548TIP3   OH228604   0.952   5.031   6.036
 9548TIP3    H128605   1.036   5.058   5.999
 9548TIP3    H228606   0.925   4.957   5.982
 9549TIP3   OH228607   1.659   5.166   6.135
 9549TIP3    H128608   1.653   5.071   6.127
 9549TIP3    H228609   1.616   5.199   6.056
 9550TIP3   OH228610   7.095   1.663   0.935
 9550TIP3    H128611   7.017   1.626   0.894
 9550TIP3    H228612   7.082   1.757   0.932
 9551TIP3   OH228613   3.147   4.689   6.075
 9551TIP3    H128614   3.114   4.777   6.056
 9551TIP3    H228615   3.079   4.630   6.044
 9552TIP3   OH228616   0.540   1.013   0.123
 9552TIP3    H128617   0.593   0.993   0.200
 9552TIP3    H228618   0.500   0.929   0.099
 9553TIP3   OH228619   7.645   0.890   0.462
 9553TIP3    H128620   7.681   0.836   0.533
 9553TIP3    H228621   7.722   0.914   0.410
 9554TIP3   OH228622   3.403   4.999   6.163
 9554TIP3    H128623   3.400   4.930   6.229
 9554TIP3    H228624   3.437   5.076   6.209
 9555TIP3   OH228625   7.635   1.306   0.170
 9555TIP3    H128626   7.619   1.212   0.171
 9555TIP3    H228627   7.729   1.315   0.155
 9556TIP3   OH228628   2.121   4.182   6.315
 9556TIP3    H128629   2.082   4.266   6.337
 9556TIP3    H228630   2.050   4.133   6.272
 9557TIP3   OH228631   7.394   0.813   0.158
 9557TIP3    H128632   7.443   0.736   0.185
 9557TIP3    H228633   7.460   0.873   0.124
 9558TIP3   OH228634   3.072   5.424   6.179
 9558TIP3    H128635   3.096   5.362   6.110
 9558TIP3    H228636   3.081   5.374   6.260
 9559TIP3   OH228637   0.351   1.236   0.132
 9559TIP3    H128638   0.393   1.156   0.101
 9559TIP3    H228639   0.424   1.293   0.156
 9560TIP3   OH228640   1.384   0.549   0.142
 9560TIP3    H128641   1.402   0.634   0.184
 9560TIP3    H228642   1.410   0.562   0.051
 9561TIP3   OH228643   0.758   0.723   0.165
 9561TIP3    H128644   0.797   0.639   0.189
 9561TIP3    H228645   0.723   0.709   0.077
 9562TIP3   OH228646   0.115   0.384   0.126
 9562TIP3    H128647   0.098   0.457   0.066
 9562TIP3    H228648   0.062   0.312   0.091
 9563TIP3   OH228649   3.415   4.158   6.137
 9563TIP3    H128650   3.479   4.148   6.207
 9563TIP3    H228651   3.466   4.191   6.062
 9564TIP3   OH228652   7.534   0.594   0.250
 9564TIP3    H128653   7.619   0.582   0.292
 9564TIP3    H228654   7.539   0.544   0.169
 9565TIP3   OH228655   0.164   0.793   0.067
 9565TIP3    H128656   0.259   0.778   0.072
 9565TIP3    H228657   0.129   0.713   0.030
 9566TIP3   OH228658   1.439   0.763   0.317
 9566TIP3    H128659   1.359   0.813   0.301
 9566TIP3    H228660   1.480   0.807   0.392
 9567TIP3   OH228661   0.103   0.394   0.561
 9567TIP3    H128662   0.046   0.428   0.493
 9567TIP3    H228663   0.058   0.414   0.643
 9568TIP3   OH228664   3.009   4.899   5.959
 9568TIP3    H128665   2.994   4.885   5.866
 9568TIP3    H228666   2.968   4.984   5.978
 9569TIP3   OH228667   0.196   1.160   0.347
 9569TIP3    H128668   0.141   1.230   0.380
 9569TIP3    H228669   0.244   1.199   0.274
 9570TIP3   OH228670   0.984   0.496  -0.018
 9570TIP3    H128671   0.940   0.479   0.066
 9570TIP3    H228672   1.039   0.572  -0.002
 9571TIP3   OH228673  -0.019   0.501   0.339
 9571TIP3    H128674   0.038   0.574   0.362
 9571TIP3    H228675   0.027   0.455   0.269
 9572TIP3   OH228676   0.036   1.361   0.449
 9572TIP3    H128677   0.019   1.450   0.416
 9572TIP3    H228678  -0.042   1.340   0.501
 9573TIP3   OH228679   2.014   4.737   6.069
 9573TIP3    H128680   1.980   4.753   5.981
 9573TIP3    H228681   2.039   4.823   6.102
 9574TIP3   OH228682   3.447   5.248   6.310
 9574TIP3    H128683   3.356   5.241   6.339
 9574TIP3    H228684   3.450   5.331   6.262
 9575TIP3   OH228685   1.183   0.433   0.306
 9575TIP3    H128686   1.097   0.461   0.274
 9575TIP3    H228687   1.245   0.465   0.241
 9576TIP3   OH228688   0.447   0.084   0.292
 9576TIP3    H128689   0.436  -0.008   0.316
 9576TIP3    H228690   0.368   0.127   0.326
 9577TIP3   OH228691   3.155   5.272   5.960
 9577TIP3    H128692   3.205   5.191   5.948
 9577TIP3    H228693   3.215   5.341   5.931
 9578TIP3   OH228694   3.308   5.054   5.907
 9578TIP3    H128695   3.317   4.976   5.851
 9578TIP3    H228696   3.343   5.026   5.992
 9579TIP3   OH228697   1.092   1.454   0.278
 9579TIP3    H128698   1.076   1.379   0.220
 9579TIP3    H228699   1.078   1.531   0.222
 9580TIP3   OH228700   2.968   4.538   5.924
 9580TIP3    H128701   2.890   4.590   5.902
 9580TIP3    H228702   3.018   4.537   5.842
 9581TIP3   OH228703   2.945   4.337   5.614
 9581TIP3    H128704   3.006   4.394   5.661
 9581TIP3    H228705   3.000   4.270   5.574
 9582TIP3   OH228706   1.273   1.114   0.150
 9582TIP3    H128707   1.189   1.160   0.150
 9582TIP3    H228708   1.311   1.133   0.064
 9583TIP3   OH228709   3.330   4.628   5.878
 9583TIP3    H128710   3.277   4.651   5.954
 9583TIP3    H228711   3.412   4.596   5.915
 9584TIP3   OH228712   0.958   0.977   0.451
 9584TIP3    H128713   0.957   1.060   0.497
 9584TIP3    H228714   0.876   0.976   0.401
 9585TIP3   OH228715   2.560   4.605   6.294
 9585TIP3    H128716   2.525   4.547   6.227
 9585TIP3    H228717   2.635   4.558   6.330
 9586TIP3   OH228718   0.094   1.352   0.063
 9586TIP3    H128719   0.070   1.337  -0.028
 9586TIP3    H228720   0.181   1.314   0.072
 9587TIP3   OH228721   0.065   0.926   0.289
 9587TIP3    H128722   0.103   0.890   0.210
 9587TIP3    H228723   0.116   1.005   0.307
 9588TIP3   OH228724   0.599   1.567   0.061
 9588TIP3    H128725   0.598   1.642   0.120
 9588TIP3    H228726   0.594   1.491   0.118
 9589TIP3   OH228727   0.233   1.462   0.614
 9589TIP3    H128728   0.172   1.520   0.660
 9589TIP3    H228729   0.178   1.410   0.556
 9590TIP3   OH228730   3.135   4.516   5.708
 9590TIP3    H128731   3.212   4.543   5.760
 9590TIP3    H228732   3.166   4.520   5.617
 9591TIP3   OH228733   7.793   1.011   0.738
 9591TIP3    H128734   7.802   1.100   0.772
 9591TIP3    H228735   7.699   0.995   0.736
 9592TIP3   OH228736   2.903   5.160   5.977
 9592TIP3    H128737   2.990   5.199   5.979
 9592TIP3    H228738   2.851   5.219   5.924
 9593TIP3   OH228739   7.831   1.629   0.702
 9593TIP3    H128740   7.806   1.636   0.610
 9593TIP3    H228741   7.750   1.608   0.748
 9594TIP3   OH228742   3.679   3.713   5.771
 9594TIP3    H128743   3.600   3.737   5.820
 9594TIP3    H228744   3.699   3.790   5.718
 9595TIP3   OH228745   2.436   4.450   6.092
 9595TIP3    H128746   2.361   4.497   6.055
 9595TIP3    H228747   2.405   4.360   6.103
 9596TIP3   OH228748   3.494   5.086   5.319
 9596TIP3    H128749   3.494   5.180   5.301
 9596TIP3    H228750   3.584   5.058   5.300
 9597TIP3   OH228751   7.415   1.176   0.643
 9597TIP3    H128752   7.348   1.156   0.577
 9597TIP3    H228753   7.453   1.092   0.665
 9598TIP3   OH228754   7.274   1.356   0.288
 9598TIP3    H128755   7.369   1.359   0.279
 9598TIP3    H228756   7.251   1.438   0.333
 9599TIP3   OH228757   1.317   1.811   0.338
 9599TIP3    H128758   1.324   1.715   0.339
 9599TIP3    H228759   1.239   1.829   0.390
 9600TIP3   OH228760   0.427   1.601   0.479
 9600TIP3    H128761   0.419   1.692   0.507
 9600TIP3    H228762   0.358   1.555   0.526
 9601TIP3   OH228763   2.801   5.381   5.798
 9601TIP3    H128764   2.756   5.362   5.715
 9601TIP3    H228765   2.766   5.466   5.825
 9602TIP3   OH228766   2.236   5.236   6.178
 9602TIP3    H128767   2.282   5.227   6.261
 9602TIP3    H228768   2.189   5.153   6.167
 9603TIP3   OH228769   3.004   5.305   5.424
 9603TIP3    H128770   3.055   5.231   5.390
 9603TIP3    H228771   3.039   5.319   5.512
 9604TIP3   OH228772   3.055   5.353   5.694
 9604TIP3    H128773   2.969   5.357   5.737
 9604TIP3    H228774   3.113   5.315   5.759
 9605TIP3   OH228775   1.175   0.921   0.631
 9605TIP3    H128776   1.108   0.934   0.564
 9605TIP3    H228777   1.202   0.829   0.620
 9606TIP3   OH228778   7.618   1.361   0.620
 9606TIP3    H128779   7.671   1.343   0.698
 9606TIP3    H228780   7.547   1.297   0.625
 9607TIP3   OH228781   0.206   0.187   0.398
 9607TIP3    H128782   0.121   0.160   0.363
 9607TIP3    H228783   0.187   0.264   0.451
 9608TIP3   OH228784   0.754   0.295   0.619
 9608TIP3    H128785   0.822   0.268   0.680
 9608TIP3    H228786   0.672   0.270   0.663
 9609TIP3   OH228787   0.968   0.708   0.530
 9609TIP3    H128788   0.931   0.706   0.618
 9609TIP3    H228789   0.953   0.797   0.499
 9610TIP3   OH228790   3.221   4.513   5.448
 9610TIP3    H128791   3.201   4.482   5.360
 9610TIP3    H228792   3.315   4.495   5.459
 9611TIP3   OH228793   2.941   3.898   5.760
 9611TIP3    H128794   2.911   3.899   5.851
 9611TIP3    H228795   2.915   3.812   5.727
 9612TIP3   OH228796   0.143   0.704   0.435
 9612TIP3    H128797   0.096   0.714   0.517
 9612TIP3    H228798   0.124   0.784   0.386
 9613TIP3   OH228799   2.623   4.257   6.327
 9613TIP3    H128800   2.533   4.233   6.350
 9613TIP3    H228801   2.634   4.224   6.238
 9614TIP3   OH228802   3.105   4.333   6.047
 9614TIP3    H128803   3.054   4.404   6.009
 9614TIP3    H228804   3.166   4.307   5.977
 9615TIP3   OH228805   0.694   0.930   0.762
 9615TIP3    H128806   0.668   0.858   0.819
 9615TIP3    H228807   0.788   0.941   0.779
 9616TIP3   OH228808   3.267   4.348   6.279
 9616TIP3    H128809   3.203   4.374   6.212
 9616TIP3    H228810   3.313   4.274   6.240
 9617TIP3   OH228811   7.776   0.733   0.650
 9617TIP3    H128812   7.795   0.802   0.714
 9617TIP3    H228813   7.767   0.653   0.703
 9618TIP3   OH228814   2.611   3.864   5.741
 9618TIP3    H128815   2.605   3.871   5.836
 9618TIP3    H228816   2.536   3.915   5.708
 9619TIP3   OH228817   7.370   0.247   0.239
 9619TIP3    H128818   7.440   0.285   0.293
 9619TIP3    H228819   7.410   0.237   0.153
 9620TIP3   OH228820   2.083   3.893   6.112
 9620TIP3    H128821   2.125   3.927   6.033
 9620TIP3    H228822   2.019   3.960   6.137
 9621TIP3   OH228823   0.700   0.923   0.338
 9621TIP3    H128824   0.726   0.857   0.274
 9621TIP3    H228825   0.660   0.873   0.409
 9622TIP3   OH228826   0.384   0.372   0.010
 9622TIP3    H128827   0.307   0.374   0.067
 9622TIP3    H228828   0.458   0.367   0.070
 9623TIP3   OH228829   7.583   0.455   0.019
 9623TIP3    H128830   7.496   0.458  -0.019
 9623TIP3    H228831   7.615   0.367  -0.002
 9624TIP3   OH228832   2.640   4.133   6.082
 9624TIP3    H128833   2.734   4.144   6.071
 9624TIP3    H228834   2.603   4.152   5.995
 9625TIP3   OH228835   0.839   0.462   0.220
 9625TIP3    H128836   0.814   0.481   0.310
 9625TIP3    H228837   0.773   0.400   0.189
 9626TIP3   OH228838   2.521   4.160   5.836
 9626TIP3    H128839   2.456   4.113   5.784
 9626TIP3    H228840   2.576   4.205   5.772
 9627TIP3   OH228841   1.023   2.157   0.436
 9627TIP3    H128842   1.020   2.170   0.342
 9627TIP3    H228843   1.103   2.203   0.464
 9628TIP3   OH228844   7.778   1.275   0.845
 9628TIP3    H128845   7.857   1.293   0.895
 9628TIP3    H228846   7.708   1.273   0.910
 9629TIP3   OH228847   0.436   0.736   0.113
 9629TIP3    H128848   0.503   0.692   0.061
 9629TIP3    H228849   0.440   0.692   0.198
 9630TIP3   OH228850   2.532   3.890   6.365
 9630TIP3    H128851   2.502   3.813   6.414
 9630TIP3    H228852   2.562   3.855   6.281
 9631TIP3   OH228853   0.409   0.639   0.385
 9631TIP3    H128854   0.322   0.673   0.403
 9631TIP3    H228855   0.468   0.694   0.437
 9632TIP3   OH228856   2.734   4.686   5.858
 9632TIP3    H128857   2.664   4.624   5.839
 9632TIP3    H228858   2.713   4.721   5.944
 9633TIP3   OH228859   1.032   1.245   0.108
 9633TIP3    H128860   1.066   1.292   0.032
 9633TIP3    H228861   0.951   1.204   0.076
 9634TIP3   OH228862   3.204   3.984   5.776
 9634TIP3    H128863   3.111   3.973   5.760
 9634TIP3    H228864   3.221   4.077   5.759
 9635TIP3   OH228865   0.543   1.330   0.499
 9635TIP3    H128866   0.598   1.322   0.577
 9635TIP3    H228867   0.508   1.419   0.503
 9636TIP3   OH228868   3.284   4.261   5.846
 9636TIP3    H128869   3.373   4.252   5.881
 9636TIP3    H228870   3.297   4.273   5.752
 9637TIP3   OH228871   7.633   1.022   0.151
 9637TIP3    H128872   7.669   1.001   0.065
 9637TIP3    H228873   7.698   0.989   0.213
 9638TIP3   OH228874   2.896   4.839   5.698
 9638TIP3    H128875   2.849   4.923   5.701
 9638TIP3    H228876   2.844   4.780   5.753
 9639TIP3   OH228877   7.519   0.953   0.774
 9639TIP3    H128878   7.526   0.932   0.867
 9639TIP3    H228879   7.448   0.898   0.742
 9640TIP3   OH228880   0.454   1.070   0.804
 9640TIP3    H128881   0.387   1.010   0.773
 9640TIP3    H228882   0.536   1.033   0.772
 9641TIP3   OH228883   0.699   1.618   0.404
 9641TIP3    H128884   0.604   1.607   0.409
 9641TIP3    H228885   0.723   1.659   0.487
 9642TIP3   OH228886   3.684   4.334   5.652
 9642TIP3    H128887   3.604   4.294   5.620
 9642TIP3    H228888   3.686   4.421   5.611
 9643TIP3   OH228889   1.347   1.534   0.348
 9643TIP3    H128890   1.254   1.512   0.335
 9643TIP3    H228891   1.394   1.457   0.315
 9644TIP3   OH228892   3.418   5.157   5.583
 9644TIP3    H128893   3.394   5.086   5.642
 9644TIP3    H228894   3.437   5.114   5.500
 9645TIP3   OH228895   0.800   1.115   0.005
 9645TIP3    H128896   0.709   1.092   0.022
 9645TIP3    H228897   0.837   1.036  -0.034
 9646TIP3   OH228898   2.557   5.031   6.184
 9646TIP3    H128899   2.560   5.107   6.126
 9646TIP3    H228900   2.464   5.008   6.190
 9647TIP3   OH228901   2.117   4.317   5.891
 9647TIP3    H128902   2.161   4.399   5.912
 9647TIP3    H228903   2.037   4.318   5.944
 9648TIP3   OH228904   2.644   4.782   6.094
 9648TIP3    H128905   2.633   4.872   6.124
 9648TIP3    H228906   2.619   4.729   6.169
 9649TIP3   OH228907   0.236   1.675   0.270
 9649TIP3    H128908   0.272   1.747   0.217
 9649TIP3    H228909   0.313   1.637   0.313
 9650TIP3   OH228910   2.469   5.256   6.030
 9650TIP3    H128911   2.383   5.261   6.071
 9650TIP3    H228912   2.502   5.346   6.033
 9651TIP3   OH228913   0.594   1.339   0.226
 9651TIP3    H128914   0.583   1.329   0.321
 9651TIP3    H228915   0.668   1.283   0.204
 9652TIP3   OH228916   3.187   4.892   5.493
 9652TIP3    H128917   3.241   4.877   5.571
 9652TIP3    H228918   3.106   4.844   5.510
 9653TIP3   OH228919   0.849   1.842   0.279
 9653TIP3    H128920   0.774   1.783   0.288
 9653TIP3    H228921   0.825   1.901   0.207
 9654TIP3   OH228922   3.505   5.362   5.289
 9654TIP3    H128923   3.542   5.434   5.238
 9654TIP3    H228924   3.428   5.401   5.332
 9655TIP3   OH228925   7.766   0.491   0.790
 9655TIP3    H128926   7.691   0.432   0.791
 9655TIP3    H228927   7.779   0.515   0.882
 9656TIP3   OH228928   3.359   4.848   5.710
 9656TIP3    H128929   3.338   4.771   5.763
 9656TIP3    H228930   3.453   4.838   5.690
 9657TIP3   OH228931   7.462   1.564   0.432
 9657TIP3    H128932   7.515   1.502   0.480
 9657TIP3    H228933   7.483   1.649   0.470
 9658TIP3   OH228934   2.530   4.862   5.490
 9658TIP3    H128935   2.544   4.771   5.463
 9658TIP3    H228936   2.516   4.857   5.584
 9659TIP3   OH228937   2.480   4.876   5.763
 9659TIP3    H128938   2.556   4.846   5.814
 9659TIP3    H228939   2.482   4.971   5.771
 9660TIP3   OH228940   2.213   4.566   5.972
 9660TIP3    H128941   2.148   4.613   6.023
 9660TIP3    H228942   2.234   4.626   5.899
 9661TIP3   OH228943   0.768   0.527   0.477
 9661TIP3    H128944   0.849   0.572   0.503
 9661TIP3    H228945   0.765   0.449   0.532
 9662TIP3   OH228946   3.264   3.942   6.040
 9662TIP3    H128947   3.241   3.959   5.949
 9662TIP3    H228948   3.308   4.022   6.070
 9663TIP3   OH228949   2.748   5.066   5.704
 9663TIP3    H128950   2.663   5.090   5.741
 9663TIP3    H228951   2.771   5.139   5.647
 9664TIP3   OH228952   2.919   4.141   6.122
 9664TIP3    H128953   2.982   4.207   6.092
 9664TIP3    H228954   2.944   4.124   6.213
 9665TIP3   OH228955   0.611   0.757   0.540
 9665TIP3    H128956   0.643   0.799   0.620
 9665TIP3    H228957   0.662   0.676   0.533
 9666TIP3   OH228958   3.078   3.838   6.214
 9666TIP3    H128959   3.054   3.916   6.265
 9666TIP3    H228960   3.147   3.869   6.155
 9667TIP3   OH228961   2.496   5.150   5.778
 9667TIP3    H128962   2.475   5.220   5.717
 9667TIP3    H228963   2.485   5.189   5.864
 9668TIP3   OH228964   2.594   3.861   6.022
 9668TIP3    H128965   2.584   3.952   6.049
 9668TIP3    H228966   2.688   3.845   6.025
 9669TIP3   OH228967   1.237   0.665   0.533
 9669TIP3    H128968   1.142   0.658   0.529
 9669TIP3    H228969   1.266   0.651   0.443
 9670TIP3   OH228970   3.495   4.536   6.281
 9670TIP3    H128971   3.419   4.478   6.289
 9670TIP3    H228972   3.563   4.494   6.334
 9671TIP3   OH228973   2.232   4.749   5.758
 9671TIP3    H128974   2.304   4.811   5.768
 9671TIP3    H228975   2.265   4.685   5.694
 9672TIP3   OH228976   2.135   4.039   5.888
 9672TIP3    H128977   2.153   4.133   5.895
 9672TIP3    H228978   2.068   4.033   5.820
 9673TIP3   OH228979   3.474   5.515   6.225
 9673TIP3    H128980   3.430   5.563   6.155
 9673TIP3    H228981   3.567   5.533   6.212
 9674TIP3   OH228982   7.741   0.109   0.367
 9674TIP3    H128983   7.709   0.071   0.286
 9674TIP3    H228984   7.753   0.034   0.426
 9675TIP3   OH228985   2.067   5.009   6.148
 9675TIP3    H128986   2.017   5.042   6.223
 9675TIP3    H228987   2.026   5.051   6.073
 9676TIP3   OH228988   7.473   1.852   0.842
 9676TIP3    H128989   7.552   1.858   0.894
 9676TIP3    H228990   7.461   1.758   0.827
 9677TIP3   OH228991   0.118   1.796   0.905
 9677TIP3    H128992   0.212   1.814   0.894
 9677TIP3    H228993   0.097   1.735   0.833
 9678TIP3   OH228994   2.693   5.058   5.384
 9678TIP3    H128995   2.645   4.989   5.428
 9678TIP3    H228996   2.769   5.014   5.346
 9679TIP3   OH228997   0.752   1.724   0.656
 9679TIP3    H128998   0.767   1.653   0.719
 9679TIP3    H228999   0.830   1.779   0.663
 9680TIP3   OH229000   3.138   5.093   5.309
 9680TIP3    H129001   3.166   5.030   5.375
 9680TIP3    H229002   3.203   5.085   5.239
 9681TIP3   OH229003   7.565   1.268   1.024
 9681TIP3    H129004   7.587   1.175   1.034
 9681TIP3    H229005   7.478   1.268   0.984
 9682TIP3   OH229006   2.357   4.556   5.610
 9682TIP3    H129007   2.409   4.531   5.686
 9682TIP3    H229008   2.421   4.569   5.540
 9683TIP3   OH229009   0.385   1.342   0.811
 9683TIP3    H129010   0.341   1.364   0.729
 9683TIP3    H229011   0.415   1.252   0.799
 9684TIP3   OH229012   2.894   4.780   5.430
 9684TIP3    H129013   2.889   4.793   5.525
 9684TIP3    H229014   2.891   4.685   5.418
 9685TIP3   OH229015   0.872   1.397   0.438
 9685TIP3    H129016   0.950   1.418   0.388
 9685TIP3    H229017   0.809   1.466   0.416
 9686TIP3   OH229018   7.679   1.021   1.044
 9686TIP3    H129019   7.713   0.931   1.037
 9686TIP3    H229020   7.715   1.053   1.127
 9687TIP3   OH229021   2.536   4.494   5.818
 9687TIP3    H129022   2.519   4.460   5.906
 9687TIP3    H229023   2.584   4.424   5.774
 9688TIP3   OH229024   0.248   0.898   0.700
 9688TIP3    H129025   0.164   0.944   0.707
 9688TIP3    H229026   0.284   0.926   0.616
 9689TIP3   OH229027   2.671   4.308   5.659
 9689TIP3    H129028   2.644   4.311   5.568
 9689TIP3    H229029   2.766   4.313   5.656
 9690TIP3   OH229030   0.759   1.278   0.800
 9690TIP3    H129031   0.825   1.243   0.740
 9690TIP3    H229032   0.755   1.213   0.871
 9691TIP3   OH229033   3.485   4.612   5.338
 9691TIP3    H129034   3.455   4.558   5.265
 9691TIP3    H229035   3.444   4.697   5.323
 9692TIP3   OH229036   0.348   0.665   0.805
 9692TIP3    H129037   0.351   0.595   0.740
 9692TIP3    H229038   0.314   0.740   0.757
 9693TIP3   OH229039   0.363   0.465   0.604
 9693TIP3    H129040   0.390   0.507   0.523
 9693TIP3    H229041   0.271   0.441   0.589
 9694TIP3   OH229042   0.371   0.995   0.480
 9694TIP3    H129043   0.461   1.021   0.457
 9694TIP3    H229044   0.315   1.057   0.434
 9695TIP3   OH229045   0.966   0.950   0.857
 9695TIP3    H129046   0.998   0.862   0.873
 9695TIP3    H229047   1.035   0.993   0.807
 9696TIP3   OH229048   0.981   1.219   0.611
 9696TIP3    H129049   0.933   1.281   0.556
 9696TIP3    H229050   1.072   1.226   0.582
 9697TIP3   OH229051   0.252   0.777   1.050
 9697TIP3    H129052   0.160   0.757   1.070
 9697TIP3    H229053   0.264   0.744   0.961
 9698TIP3   OH229054   0.487   0.232   0.684
 9698TIP3    H129055   0.445   0.312   0.654
 9698TIP3    H229056   0.427   0.162   0.658
 9699TIP3   OH229057   0.607   0.709   0.898
 9699TIP3    H129058   0.595   0.701   0.993
 9699TIP3    H229059   0.521   0.690   0.861
 9700TIP3   OH229060   0.855   0.670   0.772
 9700TIP3    H129061   0.777   0.668   0.827
 9700TIP3    H229062   0.926   0.643   0.831
 9701TIP3   OH229063   1.087   0.625   0.922
 9701TIP3    H129064   1.103   0.531   0.932
 9701TIP3    H229065   1.083   0.659   1.012
 9702TIP3   OH229066   0.059   0.560   1.091
 9702TIP3    H129067   0.065   0.466   1.074
 9702TIP3    H229068   0.113   0.573   1.169
 9703TIP3   OH229069   0.560   0.236   0.942
 9703TIP3    H129070   0.638   0.180   0.936
 9703TIP3    H229071   0.532   0.246   0.851
 9704TIP3   OH229072   0.651   0.441   1.100
 9704TIP3    H129073   0.623   0.381   1.031
 9704TIP3    H229074   0.581   0.506   1.106
 9705TIP3   OH229075   2.491   5.359   5.593
 9705TIP3    H129076   2.581   5.337   5.567
 9705TIP3    H229077   2.455   5.404   5.517
 9706TIP3   OH229078   1.959   4.736   5.782
 9706TIP3    H129079   2.053   4.750   5.775
 9706TIP3    H229080   1.944   4.650   5.742
 9707TIP3   OH229081   1.862   5.324   6.230
 9707TIP3    H129082   1.800   5.268   6.184
 9707TIP3    H229083   1.908   5.264   6.289
 9708TIP3   OH229084   7.202   1.484   0.035
 9708TIP3    H129085   7.192   1.415   0.101
 9708TIP3    H229086   7.256   1.551   0.078
 9709TIP3   OH229087   3.734   5.600   6.206
 9709TIP3    H129088   3.766   5.612   6.296
 9709TIP3    H229089   3.810   5.616   6.151
 9710TIP3   OH229090   1.166   1.915   0.121
 9710TIP3    H129091   1.120   1.832   0.112
 9710TIP3    H229092   1.238   1.897   0.182
 9711TIP3   OH229093   1.216   1.617   0.697
 9711TIP3    H129094   1.143   1.627   0.758
 9711TIP3    H229095   1.257   1.703   0.696
 9712TIP3   OH229096   3.633   4.809   5.675
 9712TIP3    H129097   3.695   4.876   5.644
 9712TIP3    H229098   3.678   4.767   5.748
 9713TIP3   OH229099   3.761   4.664   5.871
 9713TIP3    H129100   3.695   4.626   5.928
 9713TIP3    H229101   3.827   4.699   5.931
 9714TIP3   OH229102   3.772   5.056   6.286
 9714TIP3    H129103   3.844   4.994   6.272
 9714TIP3    H229104   3.794   5.131   6.231
 9715TIP3   OH229105   1.022   1.677   0.131
 9715TIP3    H129106   0.954   1.721   0.182
 9715TIP3    H229107   0.974   1.635   0.059
 9716TIP3   OH229108   3.680   4.580   5.523
 9716TIP3    H129109   3.611   4.581   5.457
 9716TIP3    H229110   3.660   4.655   5.580
 9717TIP3   OH229111   3.559   4.526   6.009
 9717TIP3    H129112   3.565   4.432   5.995
 9717TIP3    H229113   3.541   4.536   6.103
 9718TIP3   OH229114   7.381   0.917   0.411
 9718TIP3    H129115   7.371   0.883   0.322
 9718TIP3    H229116   7.475   0.917   0.426
 9719TIP3   OH229117   1.237   1.250   0.518
 9719TIP3    H129118   1.305   1.184   0.534
 9719TIP3    H229119   1.267   1.294   0.438
 9720TIP3   OH229120   1.410   1.055   0.598
 9720TIP3    H129121   1.333   0.999   0.605
 9720TIP3    H229122   1.481   0.995   0.574
 9721TIP3   OH229123   3.510   3.933   5.457
 9721TIP3    H129124   3.579   3.936   5.524
 9721TIP3    H229125   3.456   4.010   5.475
 9722TIP3   OH229126   3.562   4.247   5.914
 9722TIP3    H129127   3.610   4.165   5.922
 9722TIP3    H229128   3.586   4.280   5.828
 9723TIP3   OH229129   1.110   0.735   0.052
 9723TIP3    H129130   1.190   0.755   0.003
 9723TIP3    H229131   1.125   0.776   0.138
 9724TIP3   OH229132   1.188   0.888   0.281
 9724TIP3    H129133   1.111   0.921   0.329
 9724TIP3    H229134   1.221   0.965   0.234
 9725TIP3   OH229135   7.599   0.604   1.031
 9725TIP3    H129136   7.689   0.605   1.063
 9725TIP3    H229137   7.552   0.550   1.095
 9726TIP3   OH229138   1.648   0.486   0.819
 9726TIP3    H129139   1.709   0.428   0.774
 9726TIP3    H229140   1.608   0.537   0.749
 9727TIP3   OH229141   3.678   3.995   5.952
 9727TIP3    H129142   3.721   3.976   6.035
 9727TIP3    H229143   3.612   3.927   5.942
 9728TIP3   OH229144   7.573   0.321   0.418
 9728TIP3    H129145   7.626   0.242   0.412
 9728TIP3    H229146   7.632   0.392   0.395
 9729TIP3   OH229147   7.351   0.571   0.463
 9729TIP3    H129148   7.404   0.566   0.383
 9729TIP3    H229149   7.383   0.649   0.508
 9730TIP3   OH229150   1.494   0.601   0.628
 9730TIP3    H129151   1.412   0.644   0.652
 9730TIP3    H229152   1.467   0.530   0.570
 9731TIP3   OH229153   3.750   3.915   5.601
 9731TIP3    H129154   3.793   3.857   5.538
 9731TIP3    H229155   3.800   3.996   5.597
 9732TIP3   OH229156   2.148   3.758   6.338
 9732TIP3    H129157   2.061   3.747   6.375
 9732TIP3    H229158   2.135   3.812   6.261
 9733TIP3   OH229159   3.301   5.473   5.854
 9733TIP3    H129160   3.358   5.460   5.778
 9733TIP3    H229161   3.347   5.538   5.907
 9734TIP3   OH229162   7.597   0.269   0.799
 9734TIP3    H129163   7.545   0.266   0.880
 9734TIP3    H229164   7.534   0.292   0.731
 9735TIP3   OH229165   7.610   1.586   0.865
 9735TIP3    H129166   7.519   1.562   0.849
 9735TIP3    H229167   7.626   1.560   0.956
 9736TIP3   OH229168   0.009   1.639   0.420
 9736TIP3    H129169  -0.042   1.712   0.386
 9736TIP3    H229170   0.094   1.645   0.376
 9737TIP3   OH229171   0.418   1.867   0.568
 9737TIP3    H129172   0.460   1.864   0.654
 9737TIP3    H229173   0.477   1.918   0.513
 9738TIP3   OH229174   0.598   2.019   0.426
 9738TIP3    H129175   0.657   1.970   0.368
 9738TIP3    H229176   0.657   2.073   0.478
 9739TIP3   OH229177   1.402   0.364   0.509
 9739TIP3    H129178   1.319   0.368   0.461
 9739TIP3    H229179   1.430   0.273   0.500
 9740TIP3   OH229180   7.474   1.868   0.463
 9740TIP3    H129181   7.381   1.886   0.446
 9740TIP3    H229182   7.501   1.936   0.525
 9741TIP3   OH229183   7.703   1.867   0.309
 9741TIP3    H129184   7.618   1.870   0.354
 9741TIP3    H229185   7.683   1.890   0.218
 9742TIP3   OH229186   0.318   1.883   0.105
 9742TIP3    H129187   0.253   1.894   0.036
 9742TIP3    H229188   0.329   1.970   0.142
 9743TIP3   OH229189   0.585   1.828   0.163
 9743TIP3    H129190   0.494   1.842   0.137
 9743TIP3    H229191   0.634   1.890   0.109
 9744TIP3   OH229192   0.787   2.003   0.057
 9744TIP3    H129193   0.780   2.089   0.016
 9744TIP3    H229194   0.818   1.945  -0.012
 9745TIP3   OH229195   7.382   1.658   0.182
 9745TIP3    H129196   7.408   1.633   0.271
 9745TIP3    H229197   7.452   1.625   0.127
 9746TIP3   OH229198   7.583   1.543   0.043
 9746TIP3    H129199   7.595   1.459   0.087
 9746TIP3    H229200   7.670   1.583   0.042
 9747TIP3   OH229201   0.051   1.630   0.062
 9747TIP3    H129202   0.071   1.538   0.046
 9747TIP3    H229203   0.104   1.653   0.138
 9748TIP3   OH229204   0.613   0.285   0.150
 9748TIP3    H129205   0.570   0.212   0.193
 9748TIP3    H229206   0.682   0.245   0.097
 9749TIP3   OH229207   1.116   0.186   0.043
 9749TIP3    H129208   1.155   0.234  -0.030
 9749TIP3    H229209   1.024   0.214   0.042
 9750TIP3   OH229210   3.832   3.937   6.176
 9750TIP3    H129211   3.902   3.880   6.143
 9750TIP3    H229212   3.866   4.026   6.164
 9751TIP3   OH229213   5.053   7.343   0.136
 9751TIP3    H129214   4.962   7.313   0.135
 9751TIP3    H229215   5.105   7.263   0.128
 9752TIP3   OH229216   2.264   3.558   6.168
 9752TIP3    H129217   2.296   3.608   6.093
 9752TIP3    H229218   2.232   3.624   6.229
 9753TIP3   OH229219   0.326   0.021   0.038
 9753TIP3    H129220   0.372   0.065  -0.033
 9753TIP3    H229221   0.371   0.051   0.118
 9754TIP3   OH229222   0.826   0.168   0.021
 9754TIP3    H129223   0.838   0.138  -0.069
 9754TIP3    H229224   0.831   0.089   0.074
 9755TIP3   OH229225   3.486   3.790   5.954
 9755TIP3    H129226   3.405   3.838   5.972
 9755TIP3    H229227   3.472   3.704   5.991
 9756TIP3   OH229228   1.950   5.134   5.934
 9756TIP3    H129229   1.867   5.098   5.902
 9756TIP3    H229230   1.952   5.224   5.902
 9757TIP3   OH229231   2.384   3.690   5.940
 9757TIP3    H129232   2.429   3.631   5.879
 9757TIP3    H229233   2.453   3.747   5.974
 9758TIP3   OH229234   2.868   3.888   6.029
 9758TIP3    H129235   2.931   3.838   6.081
 9758TIP3    H229236   2.885   3.979   6.053
 9759TIP3   OH229237   2.748   5.286   5.526
 9759TIP3    H129238   2.832   5.311   5.489
 9759TIP3    H229239   2.719   5.213   5.471
 9760TIP3   OH229240   3.454   5.425   5.625
 9760TIP3    H129241   3.447   5.330   5.617
 9760TIP3    H229242   3.411   5.459   5.547
 9761TIP3   OH229243   0.083   0.297   1.051
 9761TIP3    H129244   0.048   0.208   1.060
 9761TIP3    H229245   0.176   0.288   1.075
 9762TIP3   OH229246   0.383   0.298   1.210
 9762TIP3    H129247   0.437   0.307   1.132
 9762TIP3    H229248   0.418   0.222   1.256
 9763TIP3   OH229249   2.053   5.129   5.584
 9763TIP3    H129250   2.056   5.137   5.679
 9763TIP3    H229251   2.134   5.083   5.561
 9764TIP3   OH229252   1.156   0.355   0.937
 9764TIP3    H129253   1.172   0.327   1.027
 9764TIP3    H229254   1.241   0.351   0.895
 9765TIP3   OH229255   1.069   1.884   0.448
 9765TIP3    H129256   0.997   1.855   0.392
 9765TIP3    H229257   1.060   1.979   0.451
 9766TIP3   OH229258   4.950   4.952   5.554
 9766TIP3    H129259   4.919   5.040   5.530
 9766TIP3    H229260   4.876   4.895   5.535
 9767TIP3   OH229261   4.944   4.941   5.973
 9767TIP3    H129262   4.990   4.926   6.055
 9767TIP3    H229263   4.898   4.859   5.956
 9768TIP3   OH229264   4.228   4.858   6.300
 9768TIP3    H129265   4.290   4.812   6.356
 9768TIP3    H229266   4.253   4.950   6.306
 9769TIP3   OH229267   5.209   5.249   5.651
 9769TIP3    H129268   5.196   5.183   5.719
 9769TIP3    H229269   5.230   5.329   5.698
 9770TIP3   OH229270   4.184   5.224   6.033
 9770TIP3    H129271   4.182   5.131   6.009
 9770TIP3    H229272   4.233   5.227   6.115
 9771TIP3   OH229273   3.913   4.436   5.796
 9771TIP3    H129274   3.874   4.520   5.819
 9771TIP3    H229275   3.842   4.387   5.754
 9772TIP3   OH229276   3.986   4.742   6.015
 9772TIP3    H129277   4.037   4.666   6.044
 9772TIP3    H229278   4.052   4.809   5.994
 9773TIP3   OH229279   4.862   5.695   5.664
 9773TIP3    H129280   4.892   5.625   5.607
 9773TIP3    H229281   4.852   5.655   5.750
 9774TIP3   OH229282   4.745   5.165   5.988
 9774TIP3    H129283   4.786   5.083   5.960
 9774TIP3    H229284   4.818   5.218   6.021
 9775TIP3   OH229285   5.779   4.482   6.000
 9775TIP3    H129286   5.791   4.570   6.035
 9775TIP3    H229287   5.813   4.486   5.911
 9776TIP3   OH229288   5.161   4.656   6.023
 9776TIP3    H129289   5.194   4.570   6.048
 9776TIP3    H229290   5.123   4.643   5.936
 9777TIP3   OH229291   4.512   4.315   5.982
 9777TIP3    H129292   4.490   4.390   5.926
 9777TIP3    H229293   4.456   4.244   5.950
 9778TIP3   OH229294   5.228   4.422   5.639
 9778TIP3    H129295   5.296   4.397   5.701
 9778TIP3    H229296   5.275   4.447   5.560
 9779TIP3   OH229297   4.130   4.524   6.110
 9779TIP3    H129298   4.215   4.512   6.152
 9779TIP3    H229299   4.137   4.475   6.028
 9780TIP3   OH229300   4.576   4.727   5.887
 9780TIP3    H129301   4.667   4.705   5.907
 9780TIP3    H229302   4.535   4.644   5.865
 9781TIP3   OH229303   5.830   4.711   6.154
 9781TIP3    H129304   5.742   4.746   6.151
 9781TIP3    H229305   5.864   4.739   6.239
 9782TIP3   OH229306   1.892   0.641   0.065
 9782TIP3    H129307   1.843   0.678  -0.008
 9782TIP3    H229308   1.839   0.661   0.143
 9783TIP3   OH229309   4.846   5.170   5.414
 9783TIP3    H129310   4.805   5.142   5.332
 9783TIP3    H229311   4.793   5.244   5.443
 9784TIP3   OH229312   4.581   5.083   6.212
 9784TIP3    H129313   4.498   5.120   6.243
 9784TIP3    H229314   4.609   5.144   6.143
 9785TIP3   OH229315   5.412   4.396   5.852
 9785TIP3    H129316   5.347   4.391   5.922
 9785TIP3    H229317   5.450   4.484   5.861
 9786TIP3   OH229318   4.379   4.424   6.203
 9786TIP3    H129319   4.433   4.499   6.228
 9786TIP3    H229320   4.427   4.383   6.131
 9787TIP3   OH229321   3.810   4.994   5.556
 9787TIP3    H129322   3.773   5.014   5.470
 9787TIP3    H229323   3.836   5.079   5.591
 9788TIP3   OH229324   5.246   5.495   5.787
 9788TIP3    H129325   5.159   5.485   5.826
 9788TIP3    H229326   5.243   5.580   5.743
 9789TIP3   OH229327   5.583   4.372   6.169
 9789TIP3    H129328   5.497   4.399   6.137
 9789TIP3    H229329   5.644   4.400   6.100
 9790TIP3   OH229330   4.836   4.012   6.158
 9790TIP3    H129331   4.826   3.920   6.182
 9790TIP3    H229332   4.761   4.056   6.198
 9791TIP3   OH229333   4.956   5.533   5.455
 9791TIP3    H129334   5.007   5.453   5.445
 9791TIP3    H229335   5.012   5.603   5.422
 9792TIP3   OH229336   5.093   5.302   5.406
 9792TIP3    H129337   5.019   5.241   5.404
 9792TIP3    H229338   5.143   5.277   5.483
 9793TIP3   OH229339   5.464   5.397   6.132
 9793TIP3    H129340   5.450   5.322   6.074
 9793TIP3    H229341   5.451   5.474   6.076
 9794TIP3   OH229342   4.775   4.789   5.407
 9794TIP3    H129343   4.692   4.835   5.389
 9794TIP3    H229344   4.822   4.792   5.323
 9795TIP3   OH229345   4.730   4.598   5.110
 9795TIP3    H129346   4.797   4.637   5.167
 9795TIP3    H229347   4.779   4.534   5.058
 9796TIP3   OH229348   5.666   5.048   5.999
 9796TIP3    H129349   5.582   5.094   6.003
 9796TIP3    H229350   5.697   5.062   5.910
 9797TIP3   OH229351   5.130   4.873   5.366
 9797TIP3    H129352   5.075   4.905   5.437
 9797TIP3    H229353   5.213   4.849   5.407
 9798TIP3   OH229354   5.352   4.901   6.297
 9798TIP3    H129355   5.348   4.982   6.347
 9798TIP3    H229356   5.268   4.897   6.251
 9799TIP3   OH229357   4.362   4.866   5.780
 9799TIP3    H129358   4.324   4.807   5.714
 9799TIP3    H229359   4.440   4.820   5.811
 9800TIP3   OH229360   4.519   5.309   5.900
 9800TIP3    H129361   4.484   5.263   5.823
 9800TIP3    H229362   4.596   5.259   5.925
 9801TIP3   OH229363   4.499   4.832   6.134
 9801TIP3    H129364   4.529   4.816   6.044
 9801TIP3    H229365   4.529   4.920   6.154
 9802TIP3   OH229366   5.009   5.481   5.917
 9802TIP3    H129367   4.997   5.561   5.968
 9802TIP3    H229368   4.996   5.410   5.981
 9803TIP3   OH229369   2.006   1.709   0.094
 9803TIP3    H129370   1.951   1.772   0.140
 9803TIP3    H229371   1.945   1.650   0.051
 9804TIP3   OH229372   4.971   4.717   5.204
 9804TIP3    H129373   5.028   4.776   5.253
 9804TIP3    H229374   4.998   4.728   5.113
 9805TIP3   OH229375   1.792   1.283   0.183
 9805TIP3    H129376   1.800   1.341   0.258
 9805TIP3    H229377   1.761   1.339   0.112
 9806TIP3   OH229378   4.710   5.408   5.457
 9806TIP3    H129379   4.790   5.459   5.467
 9806TIP3    H229380   4.648   5.469   5.417
 9807TIP3   OH229381   1.816   1.887   0.193
 9807TIP3    H129382   1.794   1.899   0.101
 9807TIP3    H229383   1.733   1.869   0.236
 9808TIP3   OH229384   5.432   3.988   5.223
 9808TIP3    H129385   5.492   3.968   5.295
 9808TIP3    H229386   5.471   4.062   5.178
 9809TIP3   OH229387   4.234   4.710   5.575
 9809TIP3    H129388   4.157   4.757   5.543
 9809TIP3    H229389   4.199   4.625   5.604
 9810TIP3   OH229390   5.288   5.343   4.808
 9810TIP3    H129391   5.288   5.437   4.791
 9810TIP3    H229392   5.379   5.316   4.791
 9811TIP3   OH229393   3.893   5.270   6.133
 9811TIP3    H129394   3.977   5.243   6.097
 9811TIP3    H229395   3.915   5.335   6.201
 9812TIP3   OH229396   5.708   5.800   6.157
 9812TIP3    H129397   5.746   5.737   6.219
 9812TIP3    H229398   5.618   5.811   6.189
 9813TIP3   OH229399   4.807   5.516   6.318
 9813TIP3    H129400   4.807   5.607   6.349
 9813TIP3    H229401   4.737   5.474   6.369
 9814TIP3   OH229402   4.597   5.642   5.284
 9814TIP3    H129403   4.547   5.622   5.205
 9814TIP3    H229404   4.562   5.725   5.315
 9815TIP3   OH229405   4.031   5.493   5.665
 9815TIP3    H129406   4.078   5.485   5.748
 9815TIP3    H229407   3.985   5.410   5.655
 9816TIP3   OH229408   4.799   5.565   4.912
 9816TIP3    H129409   4.851   5.493   4.877
 9816TIP3    H229410   4.832   5.578   5.001
 9817TIP3   OH229411   4.850   5.609   5.182
 9817TIP3    H129412   4.764   5.613   5.224
 9817TIP3    H229413   4.907   5.572   5.249
 9818TIP3   OH229414   3.002   1.201   0.089
 9818TIP3    H129415   2.916   1.208   0.047
 9818TIP3    H229416   3.016   1.106   0.099
 9819TIP3   OH229417   4.600   4.104   6.287
 9819TIP3    H129418   4.516   4.073   6.253
 9819TIP3    H229419   4.578   4.186   6.333
 9820TIP3   OH229420   2.538   0.541   0.115
 9820TIP3    H129421   2.606   0.520   0.179
 9820TIP3    H229422   2.455   0.528   0.162
 9821TIP3   OH229423   2.770   0.970   0.034
 9821TIP3    H129424   2.717   0.964   0.114
 9821TIP3    H229425   2.749   1.055  -0.003
 9822TIP3   OH229426   5.044   4.713   4.934
 9822TIP3    H129427   4.999   4.723   4.850
 9822TIP3    H229428   5.121   4.769   4.927
 9823TIP3   OH229429   4.811   4.079   5.245
 9823TIP3    H129430   4.778   4.117   5.326
 9823TIP3    H229431   4.744   4.015   5.219
 9824TIP3   OH229432   4.540   4.625   6.301
 9824TIP3    H129433   4.488   4.643   6.380
 9824TIP3    H229434   4.526   4.701   6.245
 9825TIP3   OH229435   4.418   4.508   5.814
 9825TIP3    H129436   4.328   4.489   5.839
 9825TIP3    H229437   4.426   4.471   5.726
 9826TIP3   OH229438   4.902   4.589   5.547
 9826TIP3    H129439   4.855   4.660   5.504
 9826TIP3    H229440   4.962   4.556   5.480
 9827TIP3   OH229441   2.478   1.178   0.244
 9827TIP3    H129442   2.456   1.114   0.311
 9827TIP3    H229443   2.568   1.204   0.264
 9828TIP3   OH229444   5.068   4.606   5.771
 9828TIP3    H129445   4.999   4.625   5.708
 9828TIP3    H229446   5.118   4.535   5.732
 9829TIP3   OH229447   1.766   0.992   0.139
 9829TIP3    H129448   1.767   1.073   0.191
 9829TIP3    H229449   1.752   0.922   0.203
 9830TIP3   OH229450   4.422   4.128   5.223
 9830TIP3    H129451   4.415   4.130   5.318
 9830TIP3    H229452   4.341   4.170   5.193
 9831TIP3   OH229453   3.956   4.165   6.106
 9831TIP3    H129454   4.030   4.204   6.153
 9831TIP3    H229455   3.987   4.156   6.016
 9832TIP3   OH229456   3.889   4.154   5.601
 9832TIP3    H129457   3.933   4.192   5.524
 9832TIP3    H229458   3.817   4.215   5.620
 9833TIP3   OH229459   5.096   4.856   6.193
 9833TIP3    H129460   5.123   4.787   6.131
 9833TIP3    H229461   5.053   4.809   6.264
 9834TIP3   OH229462   4.773   4.304   5.864
 9834TIP3    H129463   4.696   4.307   5.920
 9834TIP3    H229464   4.847   4.300   5.925
 9835TIP3   OH229465   4.175   4.389   5.874
 9835TIP3    H129466   4.086   4.394   5.838
 9835TIP3    H229467   4.203   4.300   5.857
 9836TIP3   OH229468   4.436   4.381   5.571
 9836TIP3    H129469   4.529   4.397   5.558
 9836TIP3    H229470   4.396   4.402   5.487
 9837TIP3   OH229471   5.229   4.389   6.060
 9837TIP3    H129472   5.219   4.403   6.155
 9837TIP3    H229473   5.156   4.333   6.036
 9838TIP3   OH229474   4.312   4.408   5.329
 9838TIP3    H129475   4.247   4.361   5.278
 9838TIP3    H229476   4.363   4.456   5.263
 9839TIP3   OH229477   5.402   6.141   6.240
 9839TIP3    H129478   5.404   6.115   6.148
 9839TIP3    H229479   5.493   6.156   6.264
 9840TIP3   OH229480   1.807   1.458   0.393
 9840TIP3    H129481   1.882   1.504   0.432
 9840TIP3    H229482   1.732   1.513   0.412
 9841TIP3   OH229483   4.834   4.666   5.975
 9841TIP3    H129484   4.907   4.619   5.933
 9841TIP3    H229485   4.830   4.629   6.064
 9842TIP3   OH229486   4.326   4.142   5.860
 9842TIP3    H129487   4.296   4.066   5.911
 9842TIP3    H229488   4.350   4.105   5.775
 9843TIP3   OH229489   4.807   4.575   6.244
 9843TIP3    H129490   4.720   4.606   6.266
 9843TIP3    H229491   4.866   4.629   6.296
 9844TIP3   OH229492   4.540   4.930   5.350
 9844TIP3    H129493   4.465   4.874   5.329
 9844TIP3    H229494   4.517   4.971   5.433
 9845TIP3   OH229495   5.429   5.186   5.957
 9845TIP3    H129496   5.463   5.233   5.881
 9845TIP3    H229497   5.348   5.145   5.926
 9846TIP3   OH229498   2.343   1.582  -0.004
 9846TIP3    H129499   2.399   1.571   0.073
 9846TIP3    H229500   2.305   1.669   0.007
 9847TIP3   OH229501   5.072   4.490   5.349
 9847TIP3    H129502   5.168   4.495   5.353
 9847TIP3    H229503   5.047   4.557   5.286
 9848TIP3   OH229504   4.201   4.925   6.004
 9848TIP3    H129505   4.262   4.910   5.932
 9848TIP3    H229506   4.250   4.901   6.082
 9849TIP3   OH229507   4.691   5.093   5.190
 9849TIP3    H129508   4.643   5.176   5.190
 9849TIP3    H229509   4.637   5.034   5.243
 9850TIP3   OH229510   1.452   1.278   0.331
 9850TIP3    H129511   1.529   1.243   0.375
 9850TIP3    H229512   1.431   1.214   0.263
 9851TIP3   OH229513   2.244   1.333   0.284
 9851TIP3    H129514   2.178   1.273   0.250
 9851TIP3    H229515   2.327   1.296   0.254
 9852TIP3   OH229516   5.071   5.533   6.211
 9852TIP3    H129517   4.978   5.511   6.218
 9852TIP3    H229518   5.091   5.580   6.292
 9853TIP3   OH229519   5.488   4.593   5.157
 9853TIP3    H129520   5.433   4.546   5.095
 9853TIP3    H229521   5.491   4.683   5.123
 9854TIP3   OH229522   5.724   5.404   6.218
 9854TIP3    H129523   5.632   5.431   6.221
 9854TIP3    H229524   5.745   5.400   6.125
 9855TIP3   OH229525   5.214   5.416   5.077
 9855TIP3    H129526   5.189   5.348   5.139
 9855TIP3    H229527   5.231   5.368   4.995
 9856TIP3   OH229528   5.197   5.051   5.859
 9856TIP3    H129529   5.107   5.029   5.884
 9856TIP3    H229530   5.232   4.970   5.822
 9857TIP3   OH229531   4.341   5.280   5.658
 9857TIP3    H129532   4.335   5.360   5.604
 9857TIP3    H229533   4.259   5.278   5.706
 9858TIP3   OH229534   3.915   4.575   5.381
 9858TIP3    H129535   3.958   4.658   5.403
 9858TIP3    H229536   3.835   4.575   5.434
 9859TIP3   OH229537   4.448   5.041   5.578
 9859TIP3    H129538   4.422   5.130   5.602
 9859TIP3    H229539   4.423   4.987   5.653
 9860TIP3   OH229540   4.617   5.612   6.128
 9860TIP3    H129541   4.659   5.681   6.077
 9860TIP3    H229542   4.688   5.569   6.175
 9861TIP3   OH229543   4.261   5.513   5.513
 9861TIP3    H129544   4.176   5.517   5.556
 9861TIP3    H229545   4.296   5.602   5.519
 9862TIP3   OH229546   4.986   5.259   6.093
 9862TIP3    H129547   4.971   5.256   6.188
 9862TIP3    H229548   5.066   5.208   6.080
 9863TIP3   OH229549   4.975   5.149   4.970
 9863TIP3    H129550   5.031   5.120   5.042
 9863TIP3    H229551   4.888   5.116   4.993
 9864TIP3   OH229552   5.222   5.767   6.131
 9864TIP3    H129553   5.154   5.700   6.134
 9864TIP3    H229554   5.197   5.823   6.058
 9865TIP3   OH229555   5.299   5.618   4.777
 9865TIP3    H129556   5.338   5.687   4.723
 9865TIP3    H229557   5.223   5.659   4.818
 9866TIP3   OH229558   1.725   0.715   0.276
 9866TIP3    H129559   1.630   0.720   0.279
 9866TIP3    H229560   1.748   0.662   0.353
 9867TIP3   OH229561   5.154   5.054   5.153
 9867TIP3    H129562   5.138   5.002   5.232
 9867TIP3    H229563   5.249   5.065   5.150
 9868TIP3   OH229564   4.089   5.438   6.272
 9868TIP3    H129565   4.133   5.354   6.288
 9868TIP3    H229566   4.148   5.503   6.310
 9869TIP3   OH229567   4.329   5.117   4.977
 9869TIP3    H129568   4.341   5.026   4.952
 9869TIP3    H229569   4.314   5.114   5.072
 9870TIP3   OH229570   4.273   5.134   5.249
 9870TIP3    H129571   4.334   5.104   5.317
 9870TIP3    H229572   4.274   5.229   5.256
 9871TIP3   OH229573   4.010   4.826   5.459
 9871TIP3    H129574   3.944   4.871   5.512
 9871TIP3    H229575   4.027   4.886   5.386
 9872TIP3   OH229576   5.196   4.436   6.324
 9872TIP3    H129577   5.259   4.492   6.370
 9872TIP3    H229578   5.175   4.368   6.387
 9873TIP3   OH229579   5.048   4.246   5.521
 9873TIP3    H129580   5.021   4.302   5.448
 9873TIP3    H229581   5.104   4.303   5.574
 9874TIP3   OH229582   4.545   5.321   5.187
 9874TIP3    H129583   4.461   5.343   5.226
 9874TIP3    H229584   4.568   5.397   5.134
 9875TIP3   OH229585   4.715   4.394   5.605
 9875TIP3    H129586   4.777   4.464   5.585
 9875TIP3    H229587   4.732   4.374   5.697
 9876TIP3   OH229588   2.410   1.015   0.030
 9876TIP3    H129589   2.427   1.074   0.104
 9876TIP3    H229590   2.462   0.937   0.048
 9877TIP3   OH229591   4.874   4.105   5.696
 9877TIP3    H129592   4.845   4.177   5.752
 9877TIP3    H229593   4.941   4.144   5.640
 9878TIP3   OH229594   4.294   5.406   5.263
 9878TIP3    H129595   4.272   5.477   5.202
 9878TIP3    H229596   4.281   5.444   5.350
 9879TIP3   OH229597   4.402   4.111   5.501
 9879TIP3    H129598   4.390   4.200   5.534
 9879TIP3    H229599   4.497   4.098   5.502
 9880TIP3   OH229600   5.632   4.594   6.375
 9880TIP3    H129601   5.538   4.605   6.392
 9880TIP3    H229602   5.636   4.543   6.294
 9881TIP3   OH229603   5.291   4.794   5.770
 9881TIP3    H129604   5.212   4.742   5.782
 9881TIP3    H229605   5.357   4.751   5.824
 9882TIP3   OH229606   4.025   5.006   5.242
 9882TIP3    H129607   4.096   5.069   5.252
 9882TIP3    H229608   4.058   4.942   5.180
 9883TIP3   OH229609   3.941   4.299   5.372
 9883TIP3    H129610   3.952   4.393   5.382
 9883TIP3    H229611   3.858   4.289   5.324
 9884TIP3   OH229612   5.272   5.762   5.708
 9884TIP3    H129613   5.228   5.813   5.640
 9884TIP3    H229614   5.366   5.772   5.687
 9885TIP3   OH229615   4.339   4.017   6.244
 9885TIP3    H129616   4.310   3.987   6.158
 9885TIP3    H229617   4.328   3.941   6.301
 9886TIP3   OH229618   3.863   5.265   5.638
 9886TIP3    H129619   3.815   5.298   5.713
 9886TIP3    H229620   3.822   5.308   5.562
 9887TIP3   OH229621   1.459   2.126   0.340
 9887TIP3    H129622   1.540   2.133   0.391
 9887TIP3    H229623   1.449   2.032   0.324
 9888TIP3   OH229624   1.930   2.036   0.393
 9888TIP3    H129625   2.017   1.997   0.399
 9888TIP3    H229626   1.888   1.992   0.319
 9889TIP3   OH229627   4.490   5.314   4.868
 9889TIP3    H129628   4.441   5.246   4.914
 9889TIP3    H229629   4.566   5.269   4.831
 9890TIP3   OH229630   2.504   1.976   0.077
 9890TIP3    H129631   2.493   1.905   0.140
 9890TIP3    H229632   2.593   2.008   0.092
 9891TIP3   OH229633   4.932   5.356   4.794
 9891TIP3    H129634   4.962   5.292   4.858
 9891TIP3    H229635   4.995   5.351   4.722
 9892TIP3   OH229636   1.562   1.525   0.523
 9892TIP3    H129637   1.572   1.430   0.533
 9892TIP3    H229638   1.483   1.536   0.470
 9893TIP3   OH229639   4.155   4.816   5.097
 9893TIP3    H129640   4.205   4.791   5.175
 9893TIP3    H229641   4.221   4.828   5.029
 9894TIP3   OH229642   2.170   1.604   0.298
 9894TIP3    H129643   2.126   1.624   0.215
 9894TIP3    H229644   2.208   1.517   0.285
 9895TIP3   OH229645   4.697   5.040   4.920
 9895TIP3    H129646   4.683   5.052   5.014
 9895TIP3    H229647   4.688   4.945   4.907
 9896TIP3   OH229648   5.248   5.322   6.285
 9896TIP3    H129649   5.325   5.355   6.239
 9896TIP3    H229650   5.178   5.383   6.261
 9897TIP3   OH229651   1.680   1.253   0.523
 9897TIP3    H129652   1.742   1.302   0.469
 9897TIP3    H229653   1.705   1.273   0.613
 9898TIP3   OH229654   4.328   4.754   5.309
 9898TIP3    H129655   4.306   4.726   5.398
 9898TIP3    H229656   4.372   4.678   5.270
 9899TIP3   OH229657   2.044   1.158   0.183
 9899TIP3    H129658   1.958   1.199   0.182
 9899TIP3    H229659   2.084   1.183   0.099
 9900TIP3   OH229660   4.458   4.561   5.155
 9900TIP3    H129661   4.429   4.566   5.063
 9900TIP3    H229662   4.553   4.571   5.150
 9901TIP3   OH229663   2.534   1.508   0.275
 9901TIP3    H129664   2.629   1.505   0.267
 9901TIP3    H229665   2.515   1.453   0.351
 9902TIP3   OH229666   5.260   4.854   4.835
 9902TIP3    H129667   5.247   4.817   4.748
 9902TIP3    H229668   5.236   4.946   4.826
 9903TIP3   OH229669   2.144   0.929   0.298
 9903TIP3    H129670   2.148   0.858   0.234
 9903TIP3    H229671   2.111   1.004   0.248
 9904TIP3   OH229672   2.153   0.723   0.098
 9904TIP3    H129673   2.180   0.764   0.016
 9904TIP3    H229674   2.061   0.701   0.085
 9905TIP3   OH229675   4.774   4.937   6.337
 9905TIP3    H129676   4.855   4.987   6.324
 9905TIP3    H229677   4.707   4.989   6.292
 9906TIP3   OH229678   2.747   1.213   0.333
 9906TIP3    H129679   2.818   1.151   0.348
 9906TIP3    H229680   2.790   1.299   0.335
 9907TIP3   OH229681   2.779   1.461   0.067
 9907TIP3    H129682   2.718   1.523   0.027
 9907TIP3    H229683   2.859   1.469   0.014
 9908TIP3   OH229684   2.024   1.007   0.540
 9908TIP3    H129685   1.953   0.944   0.553
 9908TIP3    H229686   2.054   0.991   0.450
 9909TIP3   OH229687   2.272   0.489   0.195
 9909TIP3    H129688   2.233   0.570   0.162
 9909TIP3    H229689   2.205   0.423   0.180
 9910TIP3   OH229690   2.400   0.966   0.402
 9910TIP3    H129691   2.391   0.956   0.497
 9910TIP3    H229692   2.313   0.949   0.367
 9911TIP3   OH229693   2.621   0.899   0.247
 9911TIP3    H129694   2.549   0.915   0.308
 9911TIP3    H229695   2.695   0.875   0.304
 9912TIP3   OH229696   2.849   0.842   0.395
 9912TIP3    H129697   2.876   0.751   0.407
 9912TIP3    H229698   2.847   0.879   0.484
 9913TIP3   OH229699   1.852   0.793   0.604
 9913TIP3    H129700   1.861   0.705   0.567
 9913TIP3    H229701   1.891   0.786   0.691
 9914TIP3   OH229702   2.339   0.462   0.459
 9914TIP3    H129703   2.410   0.399   0.450
 9914TIP3    H229704   2.308   0.476   0.369
 9915TIP3   OH229705   2.423   0.677   0.608
 9915TIP3    H129706   2.395   0.607   0.548
 9915TIP3    H229707   2.352   0.741   0.605
 9916TIP3   OH229708   4.286   5.615   5.078
 9916TIP3    H129709   4.376   5.593   5.052
 9916TIP3    H229710   4.250   5.661   5.003
 9917TIP3   OH229711   3.751   4.995   5.265
 9917TIP3    H129712   3.846   5.009   5.261
 9917TIP3    H229713   3.738   4.908   5.227
 9918TIP3   OH229714   3.658   5.580   5.724
 9918TIP3    H129715   3.595   5.525   5.679
 9918TIP3    H229716   3.703   5.521   5.785
 9919TIP3   OH229717   3.800   5.417   5.897
 9919TIP3    H129718   3.792   5.346   5.962
 9919TIP3    H229719   3.854   5.482   5.941
 9920TIP3   OH229720   5.541   5.814   5.670
 9920TIP3    H129721   5.554   5.840   5.761
 9920TIP3    H229722   5.600   5.871   5.621
 9921TIP3   OH229723   5.547   5.849   5.939
 9921TIP3    H129724   5.496   5.769   5.947
 9921TIP3    H229725   5.618   5.839   6.003
 9922TIP3   OH229726   2.975   1.878   0.091
 9922TIP3    H129727   2.883   1.894   0.107
 9922TIP3    H229728   3.015   1.965   0.087
 9923TIP3   OH229729   5.433   5.062   5.157
 9923TIP3    H129730   5.491   5.132   5.128
 9923TIP3    H229731   5.474   5.027   5.236
 9924TIP3   OH229732   5.552   4.925   5.364
 9924TIP3    H129733   5.485   4.884   5.420
 9924TIP3    H229734   5.618   4.957   5.426
 9925TIP3   OH229735   5.600   5.319   5.782
 9925TIP3    H129736   5.651   5.252   5.738
 9925TIP3    H229737   5.602   5.394   5.722
 9926TIP3   OH229738   5.406   5.617   5.978
 9926TIP3    H129739   5.339   5.656   6.033
 9926TIP3    H229740   5.357   5.572   5.909
 9927TIP3   OH229741   5.469   4.831   5.013
 9927TIP3    H129742   5.397   4.834   4.950
 9927TIP3    H229743   5.458   4.910   5.066
 9928TIP3   OH229744   5.331   4.504   4.949
 9928TIP3    H129745   5.284   4.574   4.904
 9928TIP3    H229746   5.311   4.425   4.898
 9929TIP3   OH229747   5.356   4.780   5.501
 9929TIP3    H129748   5.363   4.685   5.491
 9929TIP3    H229749   5.337   4.794   5.594
 9930TIP3   OH229750   3.960   4.847   6.267
 9930TIP3    H129751   3.949   4.815   6.177
 9930TIP3    H229752   4.055   4.859   6.276
 9931TIP3   OH229753   5.616   5.163   6.304
 9931TIP3    H129754   5.692   5.107   6.313
 9931TIP3    H229755   5.647   5.239   6.254
 9932TIP3   OH229756   3.228   1.325  -0.000
 9932TIP3    H129757   3.150   1.284   0.037
 9932TIP3    H229758   3.296   1.258   0.006
 9933TIP3   OH229759   5.362   4.496   5.398
 9933TIP3    H129760   5.411   4.417   5.422
 9933TIP3    H229761   5.408   4.530   5.322
 9934TIP3   OH229762   5.503   4.660   5.904
 9934TIP3    H129763   5.583   4.683   5.856
 9934TIP3    H229764   5.513   4.703   5.989
 9935TIP3   OH229765   5.572   4.819   6.127
 9935TIP3    H129766   5.499   4.846   6.183
 9935TIP3    H229767   5.603   4.900   6.086
 9936TIP3   OH229768   1.586   0.847   0.542
 9936TIP3    H129769   1.681   0.850   0.555
 9936TIP3    H229770   1.559   0.765   0.583
 9937TIP3   OH229771   3.437   0.725   0.278
 9937TIP3    H129772   3.500   0.661   0.244
 9937TIP3    H229773   3.410   0.776   0.201
 9938TIP3   OH229774   5.474   4.257   5.490
 9938TIP3    H129775   5.558   4.240   5.535
 9938TIP3    H229776   5.436   4.170   5.477
 9939TIP3   OH229777   4.171   4.239   6.270
 9939TIP3    H129778   4.228   4.162   6.270
 9939TIP3    H229779   4.229   4.312   6.251
 9940TIP3   OH229780   3.952   4.509   6.328
 9940TIP3    H129781   4.005   4.498   6.249
 9940TIP3    H229782   3.967   4.600   6.354
 9941TIP3   OH229783   3.281   0.856   0.099
 9941TIP3    H129784   3.195   0.899   0.101
 9941TIP3    H229785   3.266   0.775   0.050
 9942TIP3   OH229786   5.523   4.188   5.066
 9942TIP3    H129787   5.563   4.128   5.003
 9942TIP3    H229788   5.587   4.258   5.075
 9943TIP3   OH229789   3.947   4.021   5.833
 9943TIP3    H129790   3.859   4.006   5.866
 9943TIP3    H229791   3.934   4.076   5.756
 9944TIP3   OH229792   5.095   5.730   5.336
 9944TIP3    H129793   5.152   5.717   5.261
 9944TIP3    H229794   5.143   5.791   5.392
 9945TIP3   OH229795   1.565   0.385   0.275
 9945TIP3    H129796   1.517   0.389   0.358
 9945TIP3    H229797   1.511   0.435   0.214
 9946TIP3   OH229798   1.590   1.850   0.350
 9946TIP3    H129799   1.498   1.825   0.336
 9946TIP3    H229800   1.608   1.825   0.440
 9947TIP3   OH229801   4.384   5.591   6.292
 9947TIP3    H129802   4.348   5.667   6.247
 9947TIP3    H229803   4.465   5.571   6.244
 9948TIP3   OH229804   2.203   2.111   0.022
 9948TIP3    H129805   2.241   2.095   0.109
 9948TIP3    H229806   2.271   2.159  -0.025
 9949TIP3   OH229807   4.997   5.938   6.261
 9949TIP3    H129808   5.059   5.873   6.227
 9949TIP3    H229809   5.053   6.002   6.307
 9950TIP3   OH229810   5.799   4.293   6.359
 9950TIP3    H129811   5.716   4.296   6.312
 9950TIP3    H229812   5.827   4.201   6.353
 9951TIP3   OH229813   4.068   5.845   6.301
 9951TIP3    H129814   3.974   5.857   6.286
 9951TIP3    H229815   4.087   5.898   6.379
 9952TIP3   OH229816   4.294   5.809   6.156
 9952TIP3    H129817   4.212   5.820   6.204
 9952TIP3    H229818   4.271   5.829   6.065
 9953TIP3   OH229819   4.708   5.814   5.953
 9953TIP3    H129820   4.635   5.825   5.892
 9953TIP3    H229821   4.719   5.899   5.994
 9954TIP3   OH229822   4.972   5.747   5.993
 9954TIP3    H129823   4.879   5.768   5.979
 9954TIP3    H229824   5.019   5.820   5.952
 9955TIP3   OH229825   5.173   5.927   5.906
 9955TIP3    H129826   5.164   6.012   5.862
 9955TIP3    H229827   5.207   5.869   5.837
 9956TIP3   OH229828   3.981   5.583   6.048
 9956TIP3    H129829   4.008   5.549   6.133
 9956TIP3    H229830   4.050   5.553   5.988
 9957TIP3   OH229831   4.180   5.469   5.896
 9957TIP3    H129832   4.189   5.386   5.943
 9957TIP3    H229833   4.267   5.509   5.901
 9958TIP3   OH229834   4.443   5.571   5.915
 9958TIP3    H129835   4.470   5.481   5.896
 9958TIP3    H229836   4.488   5.593   5.997
 9959TIP3   OH229837   5.008   4.216   5.996
 9959TIP3    H129838   4.970   4.146   6.049
 9959TIP3    H229839   5.071   4.172   5.939
 9960TIP3   OH229840   5.562   4.137   5.869
 9960TIP3    H129841   5.630   4.143   5.802
 9960TIP3    H229842   5.515   4.220   5.863
 9961TIP3   OH229843   4.252   3.915   6.003
 9961TIP3    H129844   4.161   3.884   6.009
 9961TIP3    H229845   4.303   3.835   5.994
 9962TIP3   OH229846   4.084   3.825   5.668
 9962TIP3    H129847   4.102   3.873   5.587
 9962TIP3    H229848   4.041   3.889   5.725
 9963TIP3   OH229849   4.727   3.953   5.895
 9963TIP3    H129850   4.770   4.004   5.827
 9963TIP3    H229851   4.764   3.985   5.977
 9964TIP3   OH229852   5.205   4.083   5.857
 9964TIP3    H129853   5.280   4.069   5.799
 9964TIP3    H229854   5.213   4.014   5.923
 9965TIP3   OH229855   5.205   4.039   5.427
 9965TIP3    H129856   5.152   4.110   5.462
 9965TIP3    H229857   5.212   3.976   5.498
 9966TIP3   OH229858   3.750   5.388   5.420
 9966TIP3    H129859   3.666   5.351   5.392
 9966TIP3    H229860   3.748   5.478   5.389
 9967TIP3   OH229861   4.180   3.951   5.420
 9967TIP3    H129862   4.222   3.890   5.361
 9967TIP3    H229863   4.251   4.006   5.453
 9968TIP3   OH229864   4.682   4.145   5.493
 9968TIP3    H129865   4.736   4.098   5.557
 9968TIP3    H229866   4.689   4.237   5.518
 9969TIP3   OH229867   4.542   5.542   5.011
 9969TIP3    H129868   4.626   5.569   4.975
 9969TIP3    H229869   4.515   5.469   4.955
 9970TIP3   OH229870   5.249   5.684   5.111
 9970TIP3    H129871   5.243   5.589   5.104
 9970TIP3    H229872   5.206   5.717   5.032
 9971TIP3   OH229873   1.868   0.520   0.516
 9971TIP3    H129874   1.835   0.452   0.575
 9971TIP3    H229875   1.961   0.528   0.539
 9972TIP3   OH229876   2.119   0.523   0.634
 9972TIP3    H129877   2.196   0.501   0.583
 9972TIP3    H229878   2.114   0.453   0.700
 9973TIP3   OH229879   3.846   5.387   5.071
 9973TIP3    H129880   3.847   5.392   5.166
 9973TIP3    H229881   3.927   5.342   5.048
 9974TIP3   OH229882   2.948   0.589   0.422
 9974TIP3    H129883   2.964   0.563   0.513
 9974TIP3    H229884   3.035   0.590   0.382
 9975TIP3   OH229885   5.462   5.855   6.239
 9975TIP3    H129886   5.377   5.815   6.218
 9975TIP3    H229887   5.441   5.921   6.305
 9976TIP3   OH229888   6.739   5.203   5.046
 9976TIP3    H129889   6.708   5.293   5.032
 9976TIP3    H229890   6.666   5.148   5.018
 9977TIP3   OH229891   6.722   5.201   5.463
 9977TIP3    H129892   6.774   5.183   5.541
 9977TIP3    H229893   6.682   5.117   5.440
 9978TIP3   OH229894   6.039   5.068   5.802
 9978TIP3    H129895   6.070   5.005   5.867
 9978TIP3    H229896   6.117   5.092   5.752
 9979TIP3   OH229897   6.964   5.490   5.134
 9979TIP3    H129898   6.976   5.422   5.200
 9979TIP3    H229899   6.970   5.572   5.182
 9980TIP3   OH229900   6.026   5.496   5.521
 9980TIP3    H129901   6.009   5.401   5.518
 9980TIP3    H229902   6.122   5.503   5.519
 9981TIP3   OH229903   5.719   4.711   5.286
 9981TIP3    H129904   5.673   4.792   5.308
 9981TIP3    H229905   5.649   4.651   5.260
 9982TIP3   OH229906   5.784   4.993   5.502
 9982TIP3    H129907   5.834   4.916   5.530
 9982TIP3    H229908   5.849   5.050   5.461
 9983TIP3   OH229909   6.688   5.901   5.192
 9983TIP3    H129910   6.672   5.842   5.118
 9983TIP3    H229911   6.781   5.922   5.186
 9984TIP3   OH229912   6.544   5.431   5.470
 9984TIP3    H129913   6.586   5.350   5.441
 9984TIP3    H229914   6.617   5.488   5.494
 9985TIP3   OH229915   7.538   4.711   5.447
 9985TIP3    H129916   7.538   4.792   5.498
 9985TIP3    H229917   7.581   4.734   5.365
 9986TIP3   OH229918   6.950   4.912   5.510
 9986TIP3    H129919   6.993   4.830   5.533
 9986TIP3    H229920   6.915   4.898   5.422
 9987TIP3   OH229921   6.312   4.575   5.468
 9987TIP3    H129922   6.290   4.649   5.410
 9987TIP3    H229923   6.259   4.503   5.436
 9988TIP3   OH229924   6.999   4.673   5.098
 9988TIP3    H129925   7.063   4.663   5.168
 9988TIP3    H229926   7.050   4.706   5.024
 9989TIP3   OH229927   5.929   4.778   5.599
 9989TIP3    H129928   6.013   4.759   5.641
 9989TIP3    H229929   5.933   4.728   5.517
 9990TIP3   OH229930   6.355   4.982   5.409
 9990TIP3    H129931   6.449   4.965   5.412
 9990TIP3    H229932   6.317   4.902   5.372
 9991TIP3   OH229933   7.541   4.921   5.625
 9991TIP3    H129934   7.475   4.988   5.609
 9991TIP3    H229935   7.624   4.970   5.628
 9992TIP3   OH229936   6.288   4.573   5.920
 9992TIP3    H129937   6.236   4.599   5.844
 9992TIP3    H229938   6.231   4.589   5.995
 9993TIP3   OH229939   6.605   5.422   4.941
 9993TIP3    H129940   6.579   5.407   4.850
 9993TIP3    H229941   6.560   5.502   4.966
 9994TIP3   OH229942   6.395   5.345   5.687
 9994TIP3    H129943   6.340   5.415   5.722
 9994TIP3    H229944   6.442   5.385   5.614
 9995TIP3   OH229945   7.162   4.685   5.315
 9995TIP3    H129946   7.125   4.664   5.401
 9995TIP3    H229947   7.221   4.758   5.331
 9996TIP3   OH229948   6.173   4.672   5.689
 9996TIP3    H129949   6.229   4.746   5.711
 9996TIP3    H229950   6.217   4.629   5.616
 9997TIP3   OH229951   6.233   5.545   5.784
 9997TIP3    H129952   6.223   5.636   5.755
 9997TIP3    H229953   6.148   5.523   5.823
 9998TIP3   OH229954   5.608   5.249   5.043
 9998TIP3    H129955   5.574   5.267   4.956
 9998TIP3    H229956   5.633   5.334   5.078
 9999TIP3   OH229957   6.987   5.725   5.294
 9999TIP3    H129958   7.075   5.707   5.326
 9999TIP3    H229959   6.996   5.805   5.242
10000TIP3   OH229960   7.345   4.608   5.630
10000TIP3    H129961   7.261   4.642   5.602
10000TIP3    H229962   7.407   4.634   5.562
10001TIP3   OH229963   6.630   4.267   5.643
10001TIP3    H129964   6.622   4.174   5.667
10001TIP3    H229965   6.554   4.309   5.683
10002TIP3   OH229966   6.737   5.786   4.937
10002TIP3    H129967   6.786   5.705   4.925
10002TIP3    H229968   6.795   5.854   4.904
10003TIP3   OH229969   6.887   5.567   4.879
10003TIP3    H129970   6.884   5.489   4.824
10003TIP3    H229971   6.921   5.536   4.963
10004TIP3   OH229972   6.563   5.049   4.891
10004TIP3    H129973   6.484   5.100   4.875
10004TIP3    H229974   6.611   5.053   4.808
10005TIP3   OH229975   6.532   4.852   4.589
10005TIP3    H129976   6.595   4.900   4.641
10005TIP3    H229977   6.584   4.786   4.542
10006TIP3   OH229978   7.457   5.291   5.445
10006TIP3    H129979   7.385   5.351   5.464
10006TIP3    H229980   7.509   5.335   5.378
10007TIP3   OH229981   6.921   5.139   4.853
10007TIP3    H129982   6.866   5.166   4.926
10007TIP3    H229983   7.003   5.111   4.893
10008TIP3   OH229984   7.125   5.197   5.758
10008TIP3    H129985   7.127   5.293   5.764
10008TIP3    H229986   7.036   5.177   5.727
10009TIP3   OH229987   6.152   5.120   5.268
10009TIP3    H129988   6.116   5.064   5.200
10009TIP3    H229989   6.227   5.071   5.303
10010TIP3   OH229990   6.293   5.564   5.405
10010TIP3    H129991   6.259   5.540   5.319
10010TIP3    H229992   6.375   5.515   5.412
10011TIP3   OH229993   6.262   5.110   5.637
10011TIP3    H129994   6.297   5.074   5.555
10011TIP3    H229995   6.312   5.190   5.652
10012TIP3   OH229996   6.429   5.630   5.975
10012TIP3    H129997   6.371   5.693   6.016
10012TIP3    H229998   6.372   5.578   5.917
10013TIP3   OH229999   6.757   4.994   4.685
10013TIP3    H130000   6.815   5.054   4.732
10013TIP3    H230001   6.783   5.003   4.593
10014TIP3   OH230002   6.180   5.173   6.068
10014TIP3    H130003   6.194   5.267   6.058
10014TIP3    H230004   6.085   5.163   6.066
10015TIP3   OH230005   6.484   5.682   4.958
10015TIP3    H130006   6.572   5.718   4.947
10015TIP3    H230007   6.430   5.735   4.900
10016TIP3   OH230008   6.227   5.805   6.025
10016TIP3    H130009   6.206   5.808   5.932
10016TIP3    H230010   6.142   5.807   6.069
10017TIP3   OH230011   7.256   4.230   4.734
10017TIP3    H130012   7.181   4.253   4.790
10017TIP3    H230013   7.271   4.309   4.682
10018TIP3   OH230014   6.027   4.965   5.067
10018TIP3    H130015   5.952   5.010   5.028
10018TIP3    H230016   5.994   4.878   5.089
10019TIP3   OH230017   7.083   5.602   4.286
10019TIP3    H130018   7.083   5.696   4.271
10019TIP3    H230019   7.172   5.574   4.265
10020TIP3   OH230020   5.808   5.353   5.965
10020TIP3    H130021   5.736   5.338   5.904
10020TIP3    H230022   5.845   5.266   5.981
10021TIP3   OH230023   5.656   5.554   5.633
10021TIP3    H130024   5.749   5.572   5.647
10021TIP3    H230025   5.612   5.634   5.663
10022TIP3   OH230026   6.623   5.784   5.851
10022TIP3    H130027   6.614   5.871   5.890
10022TIP3    H230028   6.553   5.732   5.892
10023TIP3   OH230029   6.370   5.883   4.768
10023TIP3    H130030   6.304   5.858   4.704
10023TIP3    H230031   6.346   5.972   4.794
10024TIP3   OH230032   5.823   5.750   5.144
10024TIP3    H130033   5.865   5.737   5.229
10024TIP3    H230034   5.777   5.667   5.127
10025TIP3   OH230035   6.618   5.846   4.384
10025TIP3    H130036   6.660   5.764   4.360
10025TIP3    H230037   6.617   5.845   4.480
10026TIP3   OH230038   6.627   5.867   4.665
10026TIP3    H130039   6.538   5.864   4.699
10026TIP3    H230040   6.680   5.825   4.732
10027TIP3   OH230041   7.383   5.143   5.918
10027TIP3    H130042   7.316   5.156   5.851
10027TIP3    H230043   7.411   5.052   5.907
10028TIP3   OH230044   5.983   5.561   5.926
10028TIP3    H130045   6.049   5.540   5.991
10028TIP3    H230046   5.917   5.493   5.935
10029TIP3   OH230047   6.394   4.358   5.773
10029TIP3    H130048   6.310   4.326   5.742
10029TIP3    H230049   6.374   4.438   5.820
10030TIP3   OH230050   6.931   4.485   5.965
10030TIP3    H130051   7.000   4.451   6.022
10030TIP3    H230052   6.849   4.461   6.010
10031TIP3   OH230053   7.155   4.918   5.865
10031TIP3    H130054   7.138   4.932   5.958
10031TIP3    H230055   7.144   5.004   5.825
10032TIP3   OH230056   6.830   4.981   4.419
10032TIP3    H130057   6.793   4.979   4.331
10032TIP3    H230058   6.912   5.030   4.408
10033TIP3   OH230059   6.541   4.404   4.738
10033TIP3    H130060   6.509   4.410   4.828
10033TIP3    H230061   6.507   4.321   4.705
10034TIP3   OH230062   6.332   4.881   5.776
10034TIP3    H130063   6.284   4.887   5.859
10034TIP3    H230064   6.311   4.962   5.730
10035TIP3   OH230065   6.215   4.769   5.300
10035TIP3    H130066   6.126   4.743   5.325
10035TIP3    H230067   6.225   4.734   5.211
10036TIP3   OH230068   6.694   4.848   5.028
10036TIP3    H130069   6.646   4.919   4.986
10036TIP3    H230070   6.752   4.815   4.959
10037TIP3   OH230071   6.897   5.157   6.085
10037TIP3    H130072   6.868   5.089   6.146
10037TIP3    H230073   6.983   5.127   6.054
10038TIP3   OH230074   6.858   4.860   5.256
10038TIP3    H130075   6.792   4.886   5.191
10038TIP3    H230076   6.903   4.786   5.216
10039TIP3   OH230077   6.157   4.891   5.989
10039TIP3    H130078   6.160   4.960   6.056
10039TIP3    H230079   6.139   4.811   6.038
10040TIP3   OH230080   6.205   4.381   4.712
10040TIP3    H130081   6.199   4.383   4.808
10040TIP3    H230082   6.130   4.432   4.682
10041TIP3   OH230083   5.778   4.416   5.551
10041TIP3    H130084   5.822   4.462   5.623
10041TIP3    H230085   5.771   4.325   5.581
10042TIP3   OH230086   5.691   4.411   5.095
10042TIP3    H130087   5.733   4.450   5.018
10042TIP3    H230088   5.627   4.477   5.124
10043TIP3   OH230089   6.870   5.107   5.681
10043TIP3    H130090   6.903   5.043   5.618
10043TIP3    H230091   6.836   5.053   5.753
10044TIP3   OH230092   6.577   4.561   5.353
10044TIP3    H130093   6.498   4.564   5.408
10044TIP3    H230094   6.649   4.555   5.415
10045TIP3   OH230095   5.976   4.647   5.363
10045TIP3    H130096   5.887   4.653   5.329
10045TIP3    H230097   5.998   4.554   5.356
10046TIP3   OH230098   6.232   4.643   5.056
10046TIP3    H130099   6.326   4.656   5.043
10046TIP3    H230100   6.193   4.662   4.970
10047TIP3   OH230101   7.031   4.649   5.563
10047TIP3    H130102   7.006   4.670   5.653
10047TIP3    H230103   6.964   4.588   5.533
10048TIP3   OH230104   6.110   4.668   4.811
10048TIP3    H130105   6.043   4.624   4.758
10048TIP3    H230106   6.162   4.716   4.747
10049TIP3   OH230107   6.186   5.452   6.089
10049TIP3    H130108   6.247   5.510   6.134
10049TIP3    H230109   6.116   5.436   6.152
10050TIP3   OH230110   6.627   4.925   5.455
10050TIP3    H130111   6.694   4.880   5.405
10050TIP3    H230112   6.625   4.879   5.539
10051TIP3   OH230113   6.130   4.399   5.354
10051TIP3    H130114   6.092   4.330   5.408
10051TIP3    H230115   6.153   4.355   5.272
10052TIP3   OH230116   6.595   4.819   5.719
10052TIP3    H130117   6.506   4.848   5.739
10052TIP3    H230118   6.651   4.873   5.774
10053TIP3   OH230119   6.333   5.198   4.834
10053TIP3    H130120   6.255   5.146   4.812
10053TIP3    H230121   6.312   5.239   4.917
10054TIP3   OH230122   7.209   5.435   5.470
10054TIP3    H130123   7.251   5.488   5.402
10054TIP3    H230124   7.137   5.390   5.424
10055TIP3   OH230125   6.795   4.506   4.732
10055TIP3    H130126   6.702   4.486   4.732
10055TIP3    H230127   6.800   4.600   4.750
10056TIP3   OH230128   6.731   5.529   5.831
10056TIP3    H130129   6.709   5.495   5.918
10056TIP3    H230130   6.697   5.619   5.831
10057TIP3   OH230131   6.858   4.766   4.812
10057TIP3    H130132   6.953   4.770   4.823
10057TIP3    H230133   6.835   4.844   4.761
10058TIP3   OH230134   6.030   5.215   5.496
10058TIP3    H130135   6.065   5.192   5.410
10058TIP3    H230136   6.092   5.175   5.558
10059TIP3   OH230137   6.491   5.378   4.691
10059TIP3    H130138   6.435   5.432   4.635
10059TIP3    H230139   6.431   5.315   4.731
10060TIP3   OH230140   5.909   5.119   6.117
10060TIP3    H130141   5.912   5.097   6.210
10060TIP3    H230142   5.829   5.078   6.085
10061TIP3   OH230143   6.624   5.202   6.148
10061TIP3    H130144   6.552   5.160   6.101
10061TIP3    H230145   6.697   5.200   6.086
10062TIP3   OH230146   6.883   5.776   5.686
10062TIP3    H130147   6.846   5.704   5.636
10062TIP3    H230148   6.825   5.786   5.761
10063TIP3   OH230149   7.271   4.853   4.630
10063TIP3    H130150   7.217   4.806   4.567
10063TIP3    H230151   7.275   4.943   4.596
10064TIP3   OH230152   7.018   5.668   4.555
10064TIP3    H130153   6.987   5.598   4.613
10064TIP3    H230154   7.029   5.625   4.470
10065TIP3   OH230155   6.989   5.299   5.349
10065TIP3    H130156   6.897   5.278   5.366
10065TIP3    H230157   7.025   5.219   5.310
10066TIP3   OH230158   6.146   5.542   5.163
10066TIP3    H130159   6.148   5.618   5.105
10066TIP3    H230160   6.063   5.499   5.143
10067TIP3   OH230161   5.697   4.831   4.856
10067TIP3    H130162   5.744   4.911   4.877
10067TIP3    H230163   5.622   4.830   4.915
10068TIP3   OH230164   6.261   5.296   5.079
10068TIP3    H130165   6.241   5.387   5.102
10068TIP3    H230166   6.223   5.244   5.150
10069TIP3   OH230167   6.070   5.771   5.019
10069TIP3    H130168   5.979   5.774   5.048
10069TIP3    H230169   6.096   5.862   5.011
10070TIP3   OH230170   6.783   5.542   5.566
10070TIP3    H130171   6.772   5.517   5.658
10070TIP3    H230172   6.860   5.494   5.537
10071TIP3   OH230173   6.763   5.399   4.456
10071TIP3    H130174   6.808   5.385   4.539
10071TIP3    H230175   6.672   5.373   4.473
10072TIP3   OH230176   7.101   5.878   4.265
10072TIP3    H130177   7.143   5.953   4.223
10072TIP3    H230178   7.022   5.914   4.305
10073TIP3   OH230179   6.098   4.641   6.113
10073TIP3    H130180   6.006   4.668   6.116
10073TIP3    H230181   6.100   4.558   6.161
10074TIP3   OH230182   6.936   5.353   4.675
10074TIP3    H130183   6.922   5.281   4.737
10074TIP3    H230184   7.029   5.350   4.655
10075TIP3   OH230185   5.853   5.756   5.764
10075TIP3    H130186   5.901   5.692   5.817
10075TIP3    H230187   5.865   5.839   5.811
10076TIP3   OH230188   6.044   5.401   4.771
10076TIP3    H130189   6.125   5.382   4.723
10076TIP3    H230190   6.033   5.495   4.765
10077TIP3   OH230191   5.803   5.075   4.943
10077TIP3    H130192   5.740   5.123   4.996
10077TIP3    H230193   5.825   5.134   4.871
10078TIP3   OH230194   6.960   4.720   5.823
10078TIP3    H130195   7.042   4.763   5.847
10078TIP3    H230196   6.958   4.640   5.876
10079TIP3   OH230197   6.851   4.456   5.005
10079TIP3    H130198   6.833   4.474   4.913
10079TIP3    H230199   6.894   4.535   5.037
10080TIP3   OH230200   6.512   4.652   5.097
10080TIP3    H130201   6.573   4.722   5.072
10080TIP3    H230202   6.533   4.633   5.188
10081TIP3   OH230203   6.792   4.933   5.880
10081TIP3    H130204   6.815   4.955   5.970
10081TIP3    H230205   6.845   4.855   5.860
10082TIP3   OH230206   6.670   4.351   5.189
10082TIP3    H130207   6.647   4.428   5.241
10082TIP3    H230208   6.738   4.382   5.129
10083TIP3   OH230209   6.026   5.673   4.761
10083TIP3    H130210   6.069   5.727   4.694
10083TIP3    H230211   6.054   5.711   4.844
10084TIP3   OH230212   6.185   4.371   4.990
10084TIP3    H130213   6.172   4.460   5.023
10084TIP3    H230214   6.279   4.356   4.998
10085TIP3   OH230215   7.428   4.863   5.870
10085TIP3    H130216   7.333   4.858   5.865
10085TIP3    H230217   7.457   4.861   5.778
10086TIP3   OH230218   7.078   5.048   5.253
10086TIP3    H130219   7.002   4.990   5.263
10086TIP3    H230220   7.147   5.005   5.304
10087TIP3   OH230221   5.813   5.262   4.733
10087TIP3    H130222   5.883   5.324   4.754
10087TIP3    H230223   5.852   5.204   4.668
10088TIP3   OH230224   5.741   4.555   4.866
10088TIP3    H130225   5.752   4.650   4.872
10088TIP3    H230226   5.672   4.542   4.802
10089TIP3   OH230227   7.031   5.966   5.170
10089TIP3    H130228   7.020   6.047   5.120
10089TIP3    H230229   7.118   5.934   5.145
10090TIP3   OH230230   6.128   4.286   5.744
10090TIP3    H130231   6.095   4.254   5.660
10090TIP3    H230232   6.123   4.210   5.802
10091TIP3   OH230233   5.658   5.518   5.125
10091TIP3    H130234   5.615   5.556   5.202
10091TIP3    H230235   5.616   5.562   5.051
10092TIP3   OH230236   5.840   6.047   6.164
10092TIP3    H130237   5.925   6.004   6.172
10092TIP3    H230238   5.778   5.975   6.155
10093TIP3   OH230239   6.735   5.616   4.286
10093TIP3    H130240   6.753   5.546   4.348
10093TIP3    H230241   6.798   5.604   4.216
10094TIP3   OH230242   5.990   5.404   6.263
10094TIP3    H130243   6.011   5.369   6.350
10094TIP3    H230244   5.900   5.378   6.247
10095TIP3   OH230245   5.946   5.072   4.589
10095TIP3    H130246   5.999   5.052   4.666
10095TIP3    H230247   6.009   5.082   4.518
10096TIP3   OH230248   6.640   5.482   6.083
10096TIP3    H130249   6.567   5.540   6.064
10096TIP3    H230250   6.600   5.405   6.124
10097TIP3   OH230251   6.457   5.315   4.377
10097TIP3    H130252   6.375   5.354   4.407
10097TIP3    H230253   6.444   5.221   4.388
10098TIP3   OH230254   7.071   5.497   5.703
10098TIP3    H130255   7.126   5.490   5.625
10098TIP3    H230256   7.045   5.589   5.706
10099TIP3   OH230257   6.129   5.154   6.342
10099TIP3    H130258   6.162   5.152   6.252
10099TIP3    H230259   6.181   5.221   6.385
10100TIP3   OH230260   6.125   5.010   4.796
10100TIP3    H130261   6.110   4.980   4.885
10100TIP3    H230262   6.173   4.938   4.754
10101TIP3   OH230263   6.429   5.057   6.019
10101TIP3    H130264   6.344   5.099   6.027
10101TIP3    H230265   6.468   5.096   5.940
10102TIP3   OH230266   6.258   4.819   4.637
10102TIP3    H130267   6.230   4.825   4.546
10102TIP3    H230268   6.354   4.828   4.633
10103TIP3   OH230269   7.054   5.114   4.321
10103TIP3    H130270   7.043   5.074   4.235
10103TIP3    H230271   7.029   5.205   4.308
10104TIP3   OH230272   6.550   4.843   6.136
10104TIP3    H130273   6.551   4.766   6.079
10104TIP3    H230274   6.512   4.913   6.083
10105TIP3   OH230275   6.551   4.644   5.943
10105TIP3    H130276   6.575   4.681   5.859
10105TIP3    H230277   6.458   4.622   5.934
10106TIP3   OH230278   6.572   5.188   5.827
10106TIP3    H130279   6.658   5.202   5.789
10106TIP3    H230280   6.515   5.249   5.781
10107TIP3   OH230281   6.388   4.974   6.339
10107TIP3    H130282   6.321   4.906   6.352
10107TIP3    H230283   6.426   4.954   6.254
10108TIP3   OH230284   6.670   4.416   6.047
10108TIP3    H130285   6.630   4.495   6.011
10108TIP3    H230286   6.604   4.348   6.034
10109TIP3   OH230287   6.811   4.915   6.200
10109TIP3    H130288   6.795   4.949   6.288
10109TIP3    H230289   6.728   4.874   6.174
10110TIP3   OH230290   7.075   4.927   6.127
10110TIP3    H130291   6.988   4.898   6.153
10110TIP3    H230292   7.135   4.874   6.179
10111TIP3   OH230293   7.205   4.775   6.310
10111TIP3    H130294   7.241   4.686   6.303
10111TIP3    H230295   7.159   4.775   6.394
10112TIP3   OH230296   3.653   1.057   0.025
10112TIP3    H130297   3.649   0.964   0.000
10112TIP3    H230298   3.718   1.060   0.096
10113TIP3   OH230299   6.739   4.390   6.311
10113TIP3    H130300   6.808   4.324   6.303
10113TIP3    H230301   6.706   4.400   6.222
10114TIP3   OH230302   4.227   0.947   0.059
10114TIP3    H130303   4.207   0.868   0.009
10114TIP3    H230304   4.156   1.008   0.036
10115TIP3   OH230305   6.161   5.837   4.569
10115TIP3    H130306   6.181   5.754   4.527
10115TIP3    H230307   6.122   5.890   4.499
10116TIP3   OH230308   5.544   5.248   4.759
10116TIP3    H130309   5.637   5.265   4.752
10116TIP3    H230310   5.532   5.162   4.717
10117TIP3   OH230311   5.452   5.841   5.210
10117TIP3    H130312   5.390   5.786   5.163
10117TIP3    H230313   5.500   5.780   5.267
10118TIP3   OH230314   5.600   5.674   5.374
10118TIP3    H130315   5.589   5.607   5.441
10118TIP3    H230316   5.653   5.742   5.416
10119TIP3   OH230317   7.210   5.324   4.641
10119TIP3    H130318   7.272   5.390   4.609
10119TIP3    H230319   7.252   5.286   4.718
10120TIP3   OH230320   7.329   5.181   4.842
10120TIP3    H130321   7.265   5.141   4.900
10120TIP3    H230322   7.396   5.216   4.900
10121TIP3   OH230323   7.349   5.562   5.276
10121TIP3    H130324   7.430   5.521   5.244
10121TIP3    H230325   7.337   5.638   5.218
10122TIP3   OH230326   7.264   5.095   4.497
10122TIP3    H130327   7.192   5.093   4.433
10122TIP3    H230328   7.247   5.173   4.550
10123TIP3   OH230329   7.123   4.742   4.430
10123TIP3    H130330   7.074   4.777   4.356
10123TIP3    H230331   7.116   4.647   4.420
10124TIP3   OH230332   7.143   5.036   4.986
10124TIP3    H130333   7.153   4.941   4.976
10124TIP3    H230334   7.126   5.049   5.079
10125TIP3   OH230335   5.774   5.101   5.753
10125TIP3    H130336   5.762   5.066   5.664
10125TIP3    H230337   5.868   5.100   5.767
10126TIP3   OH230338   7.085   4.469   4.401
10126TIP3    H130339   7.149   4.447   4.468
10126TIP3    H230340   7.003   4.431   4.433
10127TIP3   OH230341   7.146   4.759   4.871
10127TIP3    H130342   7.192   4.676   4.884
10127TIP3    H230343   7.189   4.798   4.795
10128TIP3   OH230344   7.288   4.920   5.385
10128TIP3    H130345   7.373   4.940   5.344
10128TIP3    H230346   7.290   4.968   5.468
10129TIP3   OH230347   7.332   5.096   5.595
10129TIP3    H130348   7.258   5.139   5.639
10129TIP3    H230349   7.375   5.167   5.548
10130TIP3   OH230350   3.380   1.101   0.017
10130TIP3    H130351   3.475   1.100   0.020
10130TIP3    H230352   3.353   1.021   0.063
10131TIP3   OH230353   7.263   4.511   4.921
10131TIP3    H130354   7.304   4.500   5.007
10131TIP3    H230355   7.200   4.438   4.916
10132TIP3   OH230356   5.948   4.496   5.771
10132TIP3    H130357   6.003   4.417   5.770
10132TIP3    H230358   6.008   4.567   5.745
10133TIP3   OH230359   5.741   4.764   5.808
10133TIP3    H130360   5.796   4.753   5.731
10133TIP3    H230361   5.768   4.848   5.846
10134TIP3   OH230362   7.696   4.778   5.876
10134TIP3    H130363   7.617   4.830   5.892
10134TIP3    H230364   7.664   4.689   5.866
10135TIP3   OH230365   7.313   4.434   4.558
10135TIP3    H130366   7.359   4.371   4.503
10135TIP3    H230367   7.372   4.509   4.563
10136TIP3   OH230368   5.743   4.218   5.286
10136TIP3    H130369   5.731   4.242   5.378
10136TIP3    H230370   5.730   4.299   5.238
10137TIP3   OH230371   6.879   5.987   4.828
10137TIP3    H130372   6.938   5.969   4.755
10137TIP3    H230373   6.929   6.045   4.886
10138TIP3   OH230374   5.982   4.370   6.156
10138TIP3    H130375   5.926   4.339   6.227
10138TIP3    H230376   5.921   4.398   6.088
10139TIP3   OH230377   5.984   5.803   6.138
10139TIP3    H130378   5.895   5.792   6.103
10139TIP3    H230379   5.985   5.746   6.215
10140TIP3   OH230380   6.213   5.819   5.745
10140TIP3    H130381   6.149   5.880   5.708
10140TIP3    H230382   6.296   5.867   5.743
10141TIP3   OH230383   7.576   4.530   5.835
10141TIP3    H130384   7.494   4.517   5.787
10141TIP3    H230385   7.617   4.443   5.833
10142TIP3   OH230386   5.859   6.060   5.793
10142TIP3    H130387   5.770   6.080   5.765
10142TIP3    H230388   5.881   6.130   5.855
10143TIP3   OH230389   6.079   6.026   5.631
10143TIP3    H130390   6.001   6.038   5.684
10143TIP3    H230391   6.059   6.070   5.548
10144TIP3   OH230392   6.477   6.069   5.420
10144TIP3    H130393   6.405   6.088   5.360
10144TIP3    H230394   6.448   6.102   5.505
10145TIP3   OH230395   6.761   5.969   5.476
10145TIP3    H130396   6.780   6.044   5.533
10145TIP3    H230397   6.835   5.910   5.490
10146TIP3   OH230398   5.782   5.851   5.514
10146TIP3    H130399   5.803   5.825   5.604
10146TIP3    H230400   5.853   5.815   5.461
10147TIP3   OH230401   5.974   5.718   5.373
10147TIP3    H130402   5.981   5.639   5.427
10147TIP3    H230403   6.060   5.724   5.331
10148TIP3   OH230404   6.262   5.841   5.396
10148TIP3    H130405   6.285   5.748   5.395
10148TIP3    H230406   6.216   5.854   5.479
10149TIP3   OH230407   6.807   4.472   5.493
10149TIP3    H130408   6.764   4.399   5.539
10149TIP3    H230409   6.873   4.430   5.438
10150TIP3   OH230410   7.303   4.375   5.386
10150TIP3    H130411   7.343   4.428   5.316
10150TIP3    H230412   7.211   4.401   5.386
10151TIP3   OH230413   7.408   4.467   5.152
10151TIP3    H130414   7.473   4.404   5.120
10151TIP3    H230415   7.449   4.553   5.137
10152TIP3   OH230416   6.035   4.188   5.504
10152TIP3    H130417   5.944   4.164   5.522
10152TIP3    H230418   6.082   4.105   5.499
10153TIP3   OH230419   5.841   4.040   5.108
10153TIP3    H130420   5.879   4.096   5.040
10153TIP3    H230421   5.807   4.101   5.174
10154TIP3   OH230422   6.515   4.207   5.382
10154TIP3    H130423   6.563   4.253   5.313
10154TIP3    H230424   6.554   4.238   5.463
10155TIP3   OH230425   7.017   4.352   5.360
10155TIP3    H130426   7.041   4.318   5.273
10155TIP3    H230427   7.021   4.276   5.417
10156TIP3   OH230428   7.073   4.304   4.926
10156TIP3    H130429   6.993   4.350   4.951
10156TIP3    H230430   7.064   4.217   4.966
10157TIP3   OH230431   5.540   5.647   4.915
10157TIP3    H130432   5.457   5.611   4.884
10157TIP3    H230433   5.542   5.735   4.879
10158TIP3   OH230434   5.971   4.202   4.904
10158TIP3    H130435   6.020   4.144   4.845
10158TIP3    H230436   6.038   4.259   4.942
10159TIP3   OH230437   6.461   4.400   5.003
10159TIP3    H130438   6.520   4.349   5.058
10159TIP3    H230439   6.475   4.491   5.030
10160TIP3   OH230440   7.039   5.936   4.604
10160TIP3    H130441   7.035   5.841   4.594
10160TIP3    H230442   6.996   5.969   4.525
10161TIP3   OH230443   3.675   0.770   0.018
10161TIP3    H130444   3.639   0.697   0.067
10161TIP3    H230445   3.766   0.776   0.046
10162TIP3   OH230446   3.931   0.754   0.129
10162TIP3    H130447   4.004   0.738   0.069
10162TIP3    H230448   3.917   0.671   0.174
10163TIP3   OH230449   5.648   5.635   4.562
10163TIP3    H130450   5.659   5.647   4.657
10163TIP3    H230451   5.732   5.600   4.532
10164TIP3   OH230452   7.312   4.519   6.291
10164TIP3    H130453   7.350   4.491   6.374
10164TIP3    H230454   7.387   4.523   6.231
10165TIP3   OH230455   7.490   4.965   4.771
10165TIP3    H130456   7.445   5.047   4.793
10165TIP3    H230457   7.422   4.910   4.732
10166TIP3   OH230458   7.552   5.248   4.985
10166TIP3    H130459   7.600   5.175   5.024
10166TIP3    H230460   7.620   5.312   4.963
10167TIP3   OH230461   0.220   4.870   4.984
10167TIP3    H130462   0.201   4.935   4.917
10167TIP3    H230463   0.163   4.796   4.962
10168TIP3   OH230464   7.706   5.057   5.104
10168TIP3    H130465   7.784   5.033   5.154
10168TIP3    H230466   7.717   5.011   5.021
10169TIP3   OH230467   0.252   5.274   4.953
10169TIP3    H130468   0.335   5.316   4.929
10169TIP3    H230469   0.251   5.193   4.903
10170TIP3   OH230470   0.232   4.838   5.453
10170TIP3    H130471   0.184   4.887   5.386
10170TIP3    H230472   0.177   4.844   5.531
10171TIP3   OH230473   0.139   4.972   5.227
10171TIP3    H130474   0.188   5.054   5.235
10171TIP3    H230475   0.178   4.927   5.153
10172TIP3   OH230476   7.393   5.495   4.520
10172TIP3    H130477   7.358   5.518   4.434
10172TIP3    H230478   7.425   5.578   4.556
10173TIP3   OH230479   0.117   5.391   4.738
10173TIP3    H130480   0.083   5.320   4.683
10173TIP3    H230481   0.166   5.346   4.807
10174TIP3   OH230482   7.792   5.201   4.576
10174TIP3    H130483   7.729   5.256   4.531
10174TIP3    H230484   7.745   5.119   4.592
10175TIP3   OH230485   7.602   5.988   4.639
10175TIP3    H130486   7.563   5.998   4.726
10175TIP3    H230487   7.568   5.904   4.608
10176TIP3   OH230488   0.327   4.618   5.317
10176TIP3    H130489   0.248   4.588   5.273
10176TIP3    H230490   0.300   4.696   5.364
10177TIP3   OH230491   0.185   5.058   4.787
10177TIP3    H130492   0.093   5.055   4.813
10177TIP3    H230493   0.186   5.019   4.699
10178TIP3   OH230494   0.200   4.733   4.245
10178TIP3    H130495   0.172   4.703   4.331
10178TIP3    H230496   0.219   4.653   4.196
10179TIP3   OH230497   7.542   4.684   5.061
10179TIP3    H130498   7.609   4.726   5.115
10179TIP3    H230499   7.586   4.664   4.978
10180TIP3   OH230500   7.471   4.664   4.578
10180TIP3    H130501   7.516   4.699   4.501
10180TIP3    H230502   7.406   4.731   4.600
10181TIP3   OH230503   0.579   4.822   4.896
10181TIP3    H130504   0.533   4.754   4.947
10181TIP3    H230505   0.670   4.792   4.894
10182TIP3   OH230506   7.744   4.945   4.859
10182TIP3    H130507   7.655   4.951   4.824
10182TIP3    H230508   7.765   4.851   4.855
10183TIP3   OH230509   0.157   4.925   4.545
10183TIP3    H130510   0.244   4.933   4.505
10183TIP3    H230511   0.096   4.952   4.476
10184TIP3   OH230512   0.026   4.955   4.310
10184TIP3    H130513  -0.047   4.919   4.259
10184TIP3    H230514   0.103   4.910   4.276
10185TIP3   OH230515   0.040   4.688   4.864
10185TIP3    H130516   0.016   4.604   4.903
10185TIP3    H230517   0.060   4.668   4.773
10186TIP3   OH230518   0.278   5.445   4.298
10186TIP3    H130519   0.207   5.381   4.295
10186TIP3    H230520   0.278   5.476   4.388
10187TIP3   OH230521  -0.027   5.417   4.980
10187TIP3    H130522  -0.005   5.436   4.889
10187TIP3    H230523   0.057   5.406   5.023
10188TIP3   OH230524   0.078   5.757   4.564
10188TIP3    H130525   0.066   5.844   4.528
10188TIP3    H230526  -0.008   5.732   4.598
10189TIP3   OH230527   7.496   5.085   4.348
10189TIP3    H130528   7.543   5.167   4.367
10189TIP3    H230529   7.417   5.090   4.402
10190TIP3   OH230530   0.254   5.545   4.554
10190TIP3    H130531   0.206   5.628   4.555
10190TIP3    H230532   0.215   5.493   4.624
10191TIP3   OH230533   0.019   6.019   4.475
10191TIP3    H130534  -0.062   6.017   4.527
10191TIP3    H230535   0.072   6.086   4.518
10192TIP3   OH230536   0.092   4.851   5.691
10192TIP3    H130537   0.016   4.836   5.747
10192TIP3    H230538   0.162   4.799   5.731
10193TIP3   OH230539   0.057   5.623   3.991
10193TIP3    H130540   0.067   5.533   3.960
10193TIP3    H230541   0.062   5.617   4.086
10194TIP3   OH230542   0.068   5.644   4.261
10194TIP3    H130543   0.152   5.610   4.293
10194TIP3    H230544   0.079   5.739   4.262
10195TIP3   OH230545   7.596   5.332   4.434
10195TIP3    H130546   7.526   5.378   4.480
10195TIP3    H230547   7.627   5.394   4.369
10196TIP3   OH230548   0.331   5.934   4.159
10196TIP3    H130549   0.237   5.927   4.175
10196TIP3    H230550   0.339   5.958   4.067
10197TIP3   OH230551   0.067   5.918   4.222
10197TIP3    H130552   0.039   5.981   4.155
10197TIP3    H230553   0.039   5.958   4.305
10198TIP3   OH230554   0.117   4.654   4.491
10198TIP3    H130555   0.117   4.747   4.517
10198TIP3    H230556   0.155   4.609   4.566
10199TIP3   OH230557   7.608   5.552   4.246
10199TIP3    H130558   7.687   5.601   4.266
10199TIP3    H230559   7.635   5.488   4.180
10200TIP3   OH230560   7.533   4.812   4.355
10200TIP3    H130561   7.539   4.907   4.363
10200TIP3    H230562   7.471   4.797   4.283
10201TIP3   OH230563   0.088   4.548   5.200
10201TIP3    H130564   0.058   4.510   5.117
10201TIP3    H230565   0.080   4.476   5.263
10202TIP3   OH230566   7.457   5.752   4.605
10202TIP3    H130567   7.406   5.766   4.685
10202TIP3    H230568   7.410   5.802   4.538
10203TIP3   OH230569   0.208   5.782   3.836
10203TIP3    H130570   0.147   5.737   3.894
10203TIP3    H230571   0.270   5.714   3.810
10204TIP3   OH230572   7.712   5.355   4.100
10204TIP3    H130573   7.763   5.318   4.171
10204TIP3    H230574   7.771   5.353   4.024
10205TIP3   OH230575   0.075   5.260   4.302
10205TIP3    H130576   0.060   5.209   4.382
10205TIP3    H230577   0.108   5.196   4.239
10206TIP3   OH230578   0.194   5.144   4.085
10206TIP3    H130579   0.191   5.049   4.072
10206TIP3    H230580   0.284   5.163   4.109
10207TIP3   OH230581   0.118   6.125   4.020
10207TIP3    H130582   0.149   6.207   4.059
10207TIP3    H230583   0.060   6.153   3.948
10208TIP3   OH230584   7.339   5.513   4.231
10208TIP3    H130585   7.432   5.532   4.237
10208TIP3    H230586   7.335   5.423   4.196
10209TIP3   OH230587   7.246   6.097   4.686
10209TIP3    H130588   7.182   6.034   4.651
10209TIP3    H230589   7.302   6.045   4.744
10210TIP3   OH230590   7.432   5.983   4.860
10210TIP3    H130591   7.399   5.911   4.913
10210TIP3    H230592   7.445   6.055   4.922
10211TIP3   OH230593   7.574   5.396   5.216
10211TIP3    H130594   7.539   5.341   5.146
10211TIP3    H230595   7.647   5.442   5.177
10212TIP3   OH230596   7.734   4.769   5.241
10212TIP3    H130597   7.789   4.691   5.236
10212TIP3    H230598   7.795   4.841   5.255
10213TIP3   OH230599   7.528   5.034   5.318
10213TIP3    H130600   7.584   5.040   5.241
10213TIP3    H230601   7.521   5.124   5.350
10214TIP3   OH230602   7.534   4.525   4.805
10214TIP3    H130603   7.448   4.513   4.844
10214TIP3    H230604   7.519   4.580   4.728
10215TIP3   OH230605   7.727   4.579   5.598
10215TIP3    H130606   7.674   4.573   5.678
10215TIP3    H230607   7.667   4.615   5.532
10216TIP3   OH230608   7.794   4.438   4.960
10216TIP3    H130609   7.701   4.417   4.961
10216TIP3    H230610   7.838   4.354   4.974
10217TIP3   OH230611   7.633   4.321   4.636
10217TIP3    H130612   7.658   4.372   4.559
10217TIP3    H230613   7.604   4.387   4.699
10218TIP3   OH230614   7.338   5.898   4.408
10218TIP3    H130615   7.254   5.864   4.378
10218TIP3    H230616   7.338   5.989   4.379
10219TIP3   OH230617   7.723   4.467   4.414
10219TIP3    H130618   7.770   4.407   4.356
10219TIP3    H230619   7.787   4.536   4.434
10220TIP3   OH230620   7.429   5.903   4.050
10220TIP3    H130621   7.428   5.905   4.146
10220TIP3    H230622   7.511   5.858   4.029
10221TIP3   OH230623   0.998   6.238   6.236
10221TIP3    H130624   0.968   6.327   6.219
10221TIP3    H230625   0.931   6.182   6.198
10222TIP3   OH230626   6.226   2.513   0.190
10222TIP3    H130627   6.177   2.552   0.262
10222TIP3    H230628   6.159   2.488   0.126
10223TIP3   OH230629   1.243   6.582   6.272
10223TIP3    H130630   1.229   6.507   6.330
10223TIP3    H230631   1.242   6.658   6.331
10224TIP3   OH230632   7.077   2.090   0.249
10224TIP3    H130633   7.119   2.166   0.289
10224TIP3    H230634   7.110   2.088   0.160
10225TIP3   OH230635   6.298   2.126   0.279
10225TIP3    H130636   6.380   2.135   0.329
10225TIP3    H230637   6.323   2.150   0.189
10226TIP3   OH230638   1.255   5.704   6.260
10226TIP3    H130639   1.315   5.695   6.334
10226TIP3    H230640   1.310   5.734   6.188
10227TIP3   OH230641   7.153   2.296   0.412
10227TIP3    H130642   7.091   2.365   0.386
10227TIP3    H230643   7.106   2.245   0.478
10228TIP3   OH230644   0.887   6.469   6.132
10228TIP3    H130645   0.851   6.457   6.044
10228TIP3    H230646   0.955   6.535   6.122
10229TIP3   OH230647   6.614   2.057   0.111
10229TIP3    H130648   6.655   2.001   0.178
10229TIP3    H230649   6.673   2.132   0.104
10230TIP3   OH230650   6.805   1.945   0.465
10230TIP3    H130651   6.716   1.921   0.440
10230TIP3    H230652   6.832   2.011   0.400
10231TIP3   OH230653   6.136   1.600   0.394
10231TIP3    H130654   6.128   1.506   0.410
10231TIP3    H230655   6.052   1.637   0.422
10232TIP3   OH230656   0.989   6.824   6.082
10232TIP3    H130657   1.039   6.744   6.065
10232TIP3    H230658   1.054   6.894   6.076
10233TIP3   OH230659   1.120   6.589   6.030
10233TIP3    H130660   1.155   6.524   5.969
10233TIP3    H230661   1.179   6.585   6.106
10234TIP3   OH230662   0.826   6.105   6.056
10234TIP3    H130663   0.736   6.104   6.023
10234TIP3    H230664   0.880   6.094   5.978
10235TIP3   OH230665   0.809   5.888   5.784
10235TIP3    H130666   0.881   5.939   5.820
10235TIP3    H230667   0.851   5.817   5.735
10236TIP3   OH230668   6.966   2.660   0.216
10236TIP3    H130669   6.878   2.696   0.220
10236TIP3    H230670   7.006   2.702   0.139
10237TIP3   OH230671   1.182   6.189   6.031
10237TIP3    H130672   1.136   6.206   6.113
10237TIP3    H230673   1.267   6.155   6.058
10238TIP3   OH230674   6.591   2.676   0.572
10238TIP3    H130675   6.590   2.765   0.538
10238TIP3    H230676   6.549   2.624   0.504
10239TIP3   OH230677   1.019   6.046   5.866
10239TIP3    H130678   1.080   6.102   5.913
10239TIP3    H230679   1.046   6.055   5.774
10240TIP3   OH230680   1.521   5.267   5.918
10240TIP3    H130681   1.443   5.286   5.970
10240TIP3    H230682   1.532   5.345   5.863
10241TIP3   OH230683   1.341   6.640   5.469
10241TIP3    H130684   1.338   6.734   5.450
10241TIP3    H230685   1.431   6.615   5.448
10242TIP3   OH230686   0.843   6.872   5.566
10242TIP3    H130687   0.891   6.797   5.530
10242TIP3    H230688   0.866   6.873   5.659
10243TIP3   OH230689   0.880   6.913   5.842
10243TIP3    H130690   0.794   6.893   5.879
10243TIP3    H230691   0.942   6.891   5.912
10244TIP3   OH230692   6.793   2.442   0.822
10244TIP3    H130693   6.709   2.437   0.775
10244TIP3    H230694   6.859   2.423   0.756
10245TIP3   OH230695   6.402   1.800   0.735
10245TIP3    H130696   6.490   1.828   0.757
10245TIP3    H230697   6.361   1.779   0.819
10246TIP3   OH230698   6.556   2.384   0.695
10246TIP3    H130699   6.610   2.316   0.654
10246TIP3    H230700   6.503   2.419   0.623
10247TIP3   OH230701   1.101   6.049   5.610
10247TIP3    H130702   1.048   6.039   5.531
10247TIP3    H230703   1.182   6.091   5.580
10248TIP3   OH230704   0.769   5.448   5.894
10248TIP3    H130705   0.748   5.460   5.987
10248TIP3    H230706   0.733   5.362   5.873
10249TIP3   OH230707   0.957   5.901   6.188
10249TIP3    H130708   0.904   5.970   6.147
10249TIP3    H230709   1.009   5.866   6.116
10250TIP3   OH230710   1.140   5.913   6.392
10250TIP3    H130711   1.061   5.931   6.342
10250TIP3    H230712   1.179   5.837   6.349
10251TIP3   OH230713   6.380   2.471   0.505
10251TIP3    H130714   6.419   2.462   0.418
10251TIP3    H230715   6.299   2.420   0.500
10252TIP3   OH230716   6.010   1.903   0.171
10252TIP3    H130717   5.925   1.936   0.142
10252TIP3    H230718   6.073   1.960   0.128
10253TIP3   OH230719   6.542   1.914   0.396
10253TIP3    H130720   6.483   1.916   0.472
10253TIP3    H230721   6.492   1.871   0.327
10254TIP3   OH230722   6.049   2.212   0.198
10254TIP3    H130723   6.138   2.183   0.218
10254TIP3    H230724   5.999   2.192   0.277
10255TIP3   OH230725   6.723   2.790   0.185
10255TIP3    H130726   6.766   2.855   0.129
10255TIP3    H230727   6.680   2.841   0.253
10256TIP3   OH230728   1.029   5.547   5.915
10256TIP3    H130729   0.935   5.531   5.907
10256TIP3    H230730   1.037   5.641   5.926
10257TIP3   OH230731   1.115   5.808   5.978
10257TIP3    H130732   1.210   5.803   5.987
10257TIP3    H230733   1.100   5.884   5.922
10258TIP3   OH230734   1.530   5.899   5.808
10258TIP3    H130735   1.474   5.854   5.744
10258TIP3    H230736   1.535   5.989   5.776
10259TIP3   OH230737   1.264   6.703   5.730
10259TIP3    H130738   1.221   6.631   5.776
10259TIP3    H230739   1.284   6.667   5.643
10260TIP3   OH230740   6.402   2.692   0.075
10260TIP3    H130741   6.320   2.644   0.092
10260TIP3    H230742   6.457   2.629   0.028
10261TIP3   OH230743   1.032   6.448   5.628
10261TIP3    H130744   1.077   6.423   5.709
10261TIP3    H230745   0.945   6.409   5.636
10262TIP3   OH230746   1.345   6.912   5.437
10262TIP3    H130747   1.375   6.977   5.373
10262TIP3    H230748   1.272   6.955   5.482
10263TIP3   OH230749   1.199   6.393   5.847
10263TIP3    H130750   1.186   6.320   5.907
10263TIP3    H230751   1.292   6.390   5.825
10264TIP3   OH230752   6.357   2.028   0.604
10264TIP3    H130753   6.369   2.079   0.684
10264TIP3    H230754   6.342   1.939   0.634
10265TIP3   OH230755   1.106   5.486   6.175
10265TIP3    H130756   1.076   5.506   6.086
10265TIP3    H230757   1.146   5.568   6.205
10266TIP3   OH230758   0.832   5.674   6.276
10266TIP3    H130759   0.877   5.753   6.245
10266TIP3    H230760   0.751   5.706   6.314
10267TIP3   OH230761   6.266   2.257   0.745
10267TIP3    H130762   6.199   2.319   0.774
10267TIP3    H230763   6.255   2.251   0.650
10268TIP3   OH230764   0.931   5.381   6.362
10268TIP3    H130765   0.900   5.457   6.410
10268TIP3    H230766   0.991   5.416   6.296
10269TIP3   OH230767   6.996   2.141   0.572
10269TIP3    H130768   6.930   2.196   0.613
10269TIP3    H230769   6.950   2.060   0.550
10270TIP3   OH230770   6.515   2.454  -0.011
10270TIP3    H130771   6.444   2.390   0.001
10270TIP3    H230772   6.588   2.419   0.041
10271TIP3   OH230773   0.977   6.657   5.455
10271TIP3    H130774   1.011   6.591   5.516
10271TIP3    H230775   1.032   6.649   5.377
10272TIP3   OH230776   0.775   6.341   5.621
10272TIP3    H130777   0.685   6.356   5.649
10272TIP3    H230778   0.780   6.247   5.603
10273TIP3   OH230779   1.321   6.164   5.487
10273TIP3    H130780   1.306   6.118   5.404
10273TIP3    H230781   1.293   6.254   5.471
10274TIP3   OH230782   6.064   1.789   0.741
10274TIP3    H130783   6.079   1.874   0.784
10274TIP3    H230784   6.013   1.739   0.805
10275TIP3   OH230785   6.495   2.099   0.850
10275TIP3    H130786   6.445   2.180   0.856
10275TIP3    H230787   6.571   2.113   0.906
10276TIP3   OH230788   6.622   2.091   1.132
10276TIP3    H130789   6.700   2.119   1.085
10276TIP3    H230790   6.581   2.173   1.161
10277TIP3   OH230791   6.411   1.865   1.138
10277TIP3    H130792   6.389   1.798   1.203
10277TIP3    H230793   6.350   1.850   1.066
10278TIP3   OH230794   1.471   6.372   5.817
10278TIP3    H130795   1.529   6.441   5.783
10278TIP3    H230796   1.521   6.333   5.889
10279TIP3   OH230797   1.613   6.232   6.004
10279TIP3    H130798   1.550   6.182   6.056
10279TIP3    H230799   1.678   6.261   6.068
10280TIP3   OH230800   6.885   2.982   0.081
10280TIP3    H130801   6.944   2.919   0.040
10280TIP3    H230802   6.883   3.056   0.021
10281TIP3   OH230803   1.519   6.140   5.674
10281TIP3    H130804   1.451   6.139   5.607
10281TIP3    H230805   1.502   6.219   5.725
10282TIP3   OH230806   1.375   5.793   5.611
10282TIP3    H130807   1.330   5.830   5.535
10282TIP3    H230808   1.364   5.698   5.602
10283TIP3   OH230809   1.419   6.070   6.116
10283TIP3    H130810   1.420   5.975   6.110
10283TIP3    H230811   1.393   6.089   6.206
10284TIP3   OH230812   7.166   2.658   0.643
10284TIP3    H130813   7.102   2.683   0.709
10284TIP3    H230814   7.218   2.588   0.684
10285TIP3   OH230815   1.332   5.524   5.588
10285TIP3    H130816   1.398   5.493   5.650
10285TIP3    H230817   1.251   5.480   5.616
10286TIP3   OH230818   1.405   5.795   6.038
10286TIP3    H130819   1.450   5.712   6.053
10286TIP3    H230820   1.448   5.832   5.961
10287TIP3   OH230821   6.720   2.325   0.112
10287TIP3    H130822   6.807   2.352   0.082
10287TIP3    H230823   6.736   2.289   0.200
10288TIP3   OH230824   6.932   2.451   0.383
10288TIP3    H130825   6.837   2.450   0.397
10288TIP3    H230826   6.947   2.530   0.330
10289TIP3   OH230827   7.313   2.034   0.958
10289TIP3    H130828   7.371   1.969   0.920
10289TIP3    H230829   7.292   2.093   0.885
10290TIP3   OH230830   1.515   5.549   6.100
10290TIP3    H130831   1.560   5.533   6.183
10290TIP3    H230832   1.452   5.477   6.093
10291TIP3   OH230833   7.196   2.176   0.755
10291TIP3    H130834   7.137   2.212   0.821
10291TIP3    H230835   7.139   2.150   0.683
10292TIP3   OH230836   1.564   5.473   5.739
10292TIP3    H130837   1.608   5.411   5.681
10292TIP3    H230838   1.622   5.550   5.740
10293TIP3   OH230839   1.160   7.018   5.994
10293TIP3    H130840   1.214   6.984   5.922
10293TIP3    H230841   1.174   7.112   5.992
10294TIP3   OH230842   7.045   1.863   0.668
10294TIP3    H130843   6.960   1.839   0.631
10294TIP3    H230844   7.100   1.786   0.654
10295TIP3   OH230845   6.306   1.796   0.300
10295TIP3    H130846   6.248   1.722   0.317
10295TIP3    H230847   6.356   1.769   0.222
10296TIP3   OH230848   6.769   1.761   0.197
10296TIP3    H130849   6.807   1.797   0.116
10296TIP3    H230850   6.675   1.752   0.177
10297TIP3   OH230851   1.675   5.502   6.323
10297TIP3    H130852   1.742   5.442   6.292
10297TIP3    H230853   1.711   5.589   6.307
10298TIP3   OH230854   5.942   1.578   0.155
10298TIP3    H130855   6.011   1.602   0.093
10298TIP3    H230856   5.940   1.650   0.218
10299TIP3   OH230857   6.505   1.706   0.131
10299TIP3    H130858   6.521   1.663   0.047
10299TIP3    H230859   6.497   1.635   0.194
10300TIP3   OH230860   1.330   5.340   6.104
10300TIP3    H130861   1.249   5.386   6.124
10300TIP3    H230862   1.318   5.252   6.141
10301TIP3   OH230863   0.719   5.451   6.158
10301TIP3    H130864   0.733   5.374   6.213
10301TIP3    H230865   0.764   5.522   6.205
10302TIP3   OH230866   1.309   6.970   5.764
10302TIP3    H130867   1.299   6.875   5.753
10302TIP3    H230868   1.261   7.008   5.691
10303TIP3   OH230869   6.814   1.902   1.056
10303TIP3    H130870   6.857   1.880   1.138
10303TIP3    H230871   6.884   1.930   0.998
10304TIP3   OH230872   2.787   6.510   5.709
10304TIP3    H130873   2.757   6.598   5.682
10304TIP3    H230874   2.716   6.452   5.681
10305TIP3   OH230875   2.785   6.502   6.127
10305TIP3    H130876   2.835   6.483   6.206
10305TIP3    H230877   2.742   6.419   6.106
10306TIP3   OH230878   7.286   2.691   0.093
10306TIP3    H130879   7.316   2.637   0.166
10306TIP3    H230880   7.366   2.711   0.044
10307TIP3   OH230881   3.048   6.806   5.800
10307TIP3    H130882   3.038   6.740   5.869
10307TIP3    H230883   3.075   6.885   5.847
10308TIP3   OH230884   2.055   6.778   6.183
10308TIP3    H130885   2.041   6.683   6.181
10308TIP3    H230886   2.149   6.788   6.172
10309TIP3   OH230887   1.763   5.996   5.948
10309TIP3    H130888   1.728   6.084   5.963
10309TIP3    H230889   1.689   5.947   5.910
10310TIP3   OH230890   1.843   6.297   6.147
10310TIP3    H130891   1.887   6.221   6.185
10310TIP3    H230892   1.914   6.351   6.112
10311TIP3   OH230893   2.704   7.266   5.816
10311TIP3    H130894   2.736   7.193   5.762
10311TIP3    H230895   2.650   7.224   5.883
10312TIP3   OH230896   2.590   6.724   6.145
10312TIP3    H130897   2.632   6.644   6.111
10312TIP3    H230898   2.662   6.779   6.173
10313TIP3   OH230899   3.612   6.045   6.145
10313TIP3    H130900   3.634   6.128   6.188
10313TIP3    H230901   3.643   6.055   6.055
10314TIP3   OH230902   2.999   6.214   6.171
10314TIP3    H130903   3.038   6.130   6.197
10314TIP3    H230904   2.964   6.197   6.084
10315TIP3   OH230905   2.354   5.874   6.131
10315TIP3    H130906   2.334   5.946   6.071
10315TIP3    H230907   2.301   5.801   6.099
10316TIP3   OH230908   3.048   5.973   5.762
10316TIP3    H130909   3.112   5.966   5.833
10316TIP3    H230910   3.098   6.007   5.688
10317TIP3   OH230911   1.981   6.084   6.256
10317TIP3    H130912   2.065   6.069   6.300
10317TIP3    H230913   1.986   6.032   6.176
10318TIP3   OH230914   2.402   6.284   6.072
10318TIP3    H130915   2.496   6.268   6.078
10318TIP3    H230916   2.366   6.203   6.037
10319TIP3   OH230917   3.676   6.260   6.312
10319TIP3    H130918   3.588   6.297   6.310
10319TIP3    H230919   3.715   6.294   6.393
10320TIP3   OH230920   7.547   2.192   0.204
10320TIP3    H130921   7.490   2.231   0.137
10320TIP3    H230922   7.505   2.213   0.287
10321TIP3   OH230923   2.685   6.728   5.567
10321TIP3    H130924   2.644   6.700   5.485
10321TIP3    H230925   2.633   6.803   5.595
10322TIP3   OH230926   2.431   6.650   6.359
10322TIP3    H130927   2.375   6.720   6.394
10322TIP3    H230928   2.477   6.690   6.286
10323TIP3   OH230929   3.211   5.996   5.980
10323TIP3    H130930   3.175   5.972   6.065
10323TIP3    H230931   3.271   6.068   5.998
10324TIP3   OH230932   2.227   5.984   6.350
10324TIP3    H130933   2.282   6.059   6.375
10324TIP3    H230934   2.275   5.943   6.278
10325TIP3   OH230935   7.471   3.173   0.104
10325TIP3    H130936   7.456   3.259   0.065
10325TIP3    H230937   7.390   3.153   0.151
10326TIP3   OH230938   1.649   6.554   5.703
10326TIP3    H130939   1.616   6.574   5.615
10326TIP3    H230940   1.673   6.639   5.740
10327TIP3   OH230941   3.098   7.050   5.937
10327TIP3    H130942   3.014   7.042   5.981
10327TIP3    H230943   3.094   7.135   5.893
10328TIP3   OH230944   3.413   5.940   6.316
10328TIP3    H130945   3.328   5.963   6.279
10328TIP3    H230946   3.476   5.965   6.249
10329TIP3   OH230947   2.681   5.566   6.303
10329TIP3    H130948   2.675   5.473   6.328
10329TIP3    H230949   2.605   5.607   6.344
10330TIP3   OH230950   2.799   7.095   5.611
10330TIP3    H130951   2.850   7.015   5.599
10330TIP3    H230952   2.857   7.165   5.581
10331TIP3   OH230953   2.936   6.866   5.555
10331TIP3    H130954   2.869   6.799   5.546
10331TIP3    H230955   2.986   6.840   5.633
10332TIP3   OH230956   3.313   6.949   6.281
10332TIP3    H130957   3.299   6.874   6.224
10332TIP3    H230958   3.298   7.025   6.225
10333TIP3   OH230959   2.614   6.350   5.558
10333TIP3    H130960   2.532   6.396   5.537
10333TIP3    H230961   2.662   6.349   5.475
10334TIP3   OH230962   2.581   6.153   5.252
10334TIP3    H130963   2.647   6.202   5.302
10334TIP3    H230964   2.631   6.086   5.206
10335TIP3   OH230965   3.497   6.596   6.149
10335TIP3    H130966   3.415   6.645   6.144
10335TIP3    H230967   3.540   6.613   6.066
10336TIP3   OH230968   2.971   6.439   5.519
10336TIP3    H130969   2.917   6.467   5.593
10336TIP3    H230970   3.054   6.413   5.558
10337TIP3   OH230971   0.598   2.787   0.088
10337TIP3    H130972   0.597   2.870   0.136
10337TIP3    H230973   0.515   2.786   0.040
10338TIP3   OH230974   2.201   6.418   5.924
10338TIP3    H130975   2.165   6.358   5.858
10338TIP3    H230976   2.274   6.370   5.963
10339TIP3   OH230977   2.315   6.803   6.083
10339TIP3    H130978   2.304   6.816   5.989
10339TIP3    H230979   2.409   6.784   6.094
10340TIP3   OH230980   2.305   6.414   6.297
10340TIP3    H130981   2.345   6.380   6.217
10340TIP3    H230982   2.353   6.495   6.315
10341TIP3   OH230983   2.873   7.043   6.084
10341TIP3    H130984   2.844   7.122   6.129
10341TIP3    H230985   2.852   6.972   6.145
10342TIP3   OH230986   7.674   3.279   0.259
10342TIP3    H130987   7.615   3.347   0.290
10342TIP3    H230988   7.619   3.223   0.203
10343TIP3   OH230989   2.802   6.300   5.351
10343TIP3    H130990   2.862   6.357   5.400
10343TIP3    H230991   2.830   6.308   5.260
10344TIP3   OH230992   7.434   2.817   0.381
10344TIP3    H130993   7.438   2.910   0.403
10344TIP3    H230994   7.341   2.799   0.366
10345TIP3   OH230995   2.552   6.970   5.611
10345TIP3    H130996   2.633   7.019   5.620
10345TIP3    H230997   2.494   7.028   5.561
10346TIP3   OH230998   3.314   5.526   5.406
10346TIP3    H130999   3.237   5.546   5.459
10346TIP3    H231000   3.326   5.604   5.351
10347TIP3   OH231001   2.073   6.263   5.723
10347TIP3    H131002   1.997   6.310   5.691
10347TIP3    H231003   2.042   6.174   5.739
10348TIP3   OH231004   3.135   6.898   4.957
10348TIP3    H131005   3.133   6.992   4.939
10348TIP3    H231006   3.225   6.871   4.938
10349TIP3   OH231007   7.029   2.998   0.326
10349TIP3    H131008   6.972   2.994   0.249
10349TIP3    H231009   7.074   2.914   0.327
10350TIP3   OH231010   1.756   6.856   6.269
10350TIP3    H131011   1.838   6.823   6.231
10350TIP3    H231012   1.784   6.925   6.329
10351TIP3   OH231013   3.542   7.287   6.346
10351TIP3    H131014   3.550   7.192   6.358
10351TIP3    H231015   3.459   7.309   6.390
10352TIP3   OH231016   0.087   3.395   0.126
10352TIP3    H131017   0.085   3.487   0.151
10352TIP3    H231018   0.011   3.356   0.169
10353TIP3   OH231019   2.436   7.178   5.439
10353TIP3    H131020   2.394   7.164   5.354
10353TIP3    H231021   2.405   7.264   5.466
10354TIP3   OH231022   1.873   7.050   5.812
10354TIP3    H131023   1.922   7.036   5.893
10354TIP3    H231024   1.821   6.970   5.802
10355TIP3   OH231025   2.645   7.112   5.072
10355TIP3    H131026   2.697   7.041   5.035
10355TIP3    H231027   2.678   7.123   5.161
10356TIP3   OH231028   2.691   7.150   5.344
10356TIP3    H131029   2.605   7.153   5.384
10356TIP3    H231030   2.749   7.119   5.413
10357TIP3   OH231031   0.833   2.747   0.262
10357TIP3    H131032   0.757   2.750   0.204
10357TIP3    H231033   0.858   2.655   0.263
10358TIP3   OH231034   7.244   3.165   0.267
10358TIP3    H131035   7.298   3.146   0.344
10358TIP3    H231036   7.162   3.118   0.283
10359TIP3   OH231037   7.646   1.976   0.061
10359TIP3    H131038   7.562   1.943   0.030
10359TIP3    H231039   7.624   2.058   0.106
10360TIP3   OH231040   0.382   2.102   0.265
10360TIP3    H131041   0.452   2.076   0.325
10360TIP3    H231042   0.301   2.084   0.313
10361TIP3   OH231043   0.603   2.524   0.176
10361TIP3    H131044   0.562   2.522   0.263
10361TIP3    H231045   0.588   2.613   0.145
10362TIP3   OH231046   2.881   6.295   5.090
10362TIP3    H131047   2.839   6.291   5.004
10362TIP3    H231048   2.963   6.341   5.074
10363TIP3   OH231049   2.589   5.705   5.403
10363TIP3    H131050   2.555   5.710   5.492
10363TIP3    H231051   2.554   5.623   5.369
10364TIP3   OH231052   7.581   2.515   0.077
10364TIP3    H131053   7.534   2.525   0.160
10364TIP3    H231054   7.562   2.596   0.029
10365TIP3   OH231055   2.259   6.071   5.965
10365TIP3    H131056   2.171   6.045   5.989
10365TIP3    H231057   2.270   6.037   5.876
10366TIP3   OH231058   2.741   6.146   5.693
10366TIP3    H131059   2.694   6.219   5.652
10366TIP3    H231060   2.800   6.114   5.624
10367TIP3   OH231061   0.325   2.737   0.398
10367TIP3    H131062   0.300   2.669   0.460
10367TIP3    H231063   0.418   2.752   0.415
10368TIP3   OH231064   2.907   6.161   5.918
10368TIP3    H131065   2.840   6.184   5.854
10368TIP3    H231066   2.954   6.088   5.879
10369TIP3   OH231067   7.414   2.531   0.295
10369TIP3    H131068   7.431   2.600   0.359
10369TIP3    H231069   7.413   2.451   0.348
10370TIP3   OH231070   2.255   5.684   5.377
10370TIP3    H131071   2.246   5.686   5.473
10370TIP3    H231072   2.177   5.729   5.345
10371TIP3   OH231073   1.798   5.726   6.240
10371TIP3    H131074   1.877   5.761   6.281
10371TIP3    H231075   1.827   5.700   6.152
10372TIP3   OH231076   1.722   5.704   5.752
10372TIP3    H131077   1.768   5.738   5.674
10372TIP3    H231078   1.659   5.773   5.774
10373TIP3   OH231079   2.941   6.414   6.344
10373TIP3    H131080   2.968   6.347   6.281
10373TIP3    H231081   2.900   6.364   6.415
10374TIP3   OH231082   2.622   5.865   6.017
10374TIP3    H131083   2.545   5.864   6.074
10374TIP3    H231084   2.696   5.855   6.077
10375TIP3   OH231085   2.023   5.943   6.026
10375TIP3    H131086   1.934   5.947   5.989
10375TIP3    H231087   2.052   5.853   6.009
10376TIP3   OH231088   2.275   5.946   5.721
10376TIP3    H131089   2.369   5.957   5.709
10376TIP3    H231090   2.237   5.964   5.634
10377TIP3   OH231091   3.078   5.951   6.225
10377TIP3    H131092   3.056   5.968   6.317
10377TIP3    H231093   3.012   5.889   6.195
10378TIP3   OH231094   2.154   5.973   5.476
10378TIP3    H131095   2.090   5.924   5.424
10378TIP3    H231096   2.208   6.017   5.411
10379TIP3   OH231097   0.680   3.957   0.080
10379TIP3    H131098   0.661   3.980  -0.011
10379TIP3    H231099   0.738   4.027   0.111
10380TIP3   OH231100   7.393   3.075   0.492
10380TIP3    H131101   7.471   3.108   0.537
10380TIP3    H231102   7.334   3.048   0.562
10381TIP3   OH231103   2.673   6.228   6.123
10381TIP3    H131104   2.741   6.181   6.074
10381TIP3    H231105   2.673   6.188   6.209
10382TIP3   OH231106   2.169   5.697   6.012
10382TIP3    H131107   2.138   5.621   6.062
10382TIP3    H231108   2.200   5.660   5.929
10383TIP3   OH231109   0.047   2.455   0.021
10383TIP3    H131110  -0.040   2.487   0.044
10383TIP3    H231111   0.106   2.508   0.074
10384TIP3   OH231112   2.378   6.490   5.501
10384TIP3    H131113   2.304   6.433   5.480
10384TIP3    H231114   2.354   6.529   5.585
10385TIP3   OH231115   3.266   6.743   6.107
10385TIP3    H131116   3.301   6.789   6.031
10385TIP3    H231117   3.186   6.701   6.075
10386TIP3   OH231118   2.843   5.807   5.398
10386TIP3    H131119   2.749   5.786   5.398
10386TIP3    H231120   2.846   5.901   5.414
10387TIP3   OH231121   0.197   3.132   0.150
10387TIP3    H131122   0.240   3.119   0.235
10387TIP3    H231123   0.160   3.220   0.155
10388TIP3   OH231124   2.904   6.068   5.476
10388TIP3    H131125   2.999   6.071   5.486
10388TIP3    H231126   2.883   6.147   5.425
10389TIP3   OH231127   2.072   6.496   6.153
10389TIP3    H131128   2.110   6.483   6.066
10389TIP3    H231129   2.141   6.470   6.214
10390TIP3   OH231130   2.532   6.649   5.341
10390TIP3    H131131   2.485   6.732   5.340
10390TIP3    H231132   2.478   6.591   5.395
10391TIP3   OH231133   7.165   2.761   0.386
10391TIP3    H131134   7.155   2.731   0.476
10391TIP3    H231135   7.100   2.711   0.336
10392TIP3   OH231136   0.088   2.884   0.437
10392TIP3    H131137   0.023   2.822   0.406
10392TIP3    H231138   0.172   2.847   0.410
10393TIP3   OH231139   0.344   3.434   0.032
10393TIP3    H131140   0.252   3.412   0.047
10393TIP3    H231141   0.373   3.474   0.114
10394TIP3   OH231142   3.324   6.156   5.297
10394TIP3    H131143   3.268   6.110   5.234
10394TIP3    H231144   3.329   6.246   5.263
10395TIP3   OH231145   3.561   7.012   6.368
10395TIP3    H131146   3.467   6.999   6.360
10395TIP3    H231147   3.597   6.981   6.285
10396TIP3   OH231148   3.051   6.959   5.223
10396TIP3    H131149   3.028   6.888   5.282
10396TIP3    H231150   3.072   6.915   5.140
10397TIP3   OH231151   3.038   6.607   6.010
10397TIP3    H131152   2.948   6.583   6.032
10397TIP3    H231153   3.075   6.527   5.973
10398TIP3   OH231154   2.196   6.847   5.817
10398TIP3    H131155   2.197   6.922   5.758
10398TIP3    H231156   2.106   6.843   5.850
10399TIP3   OH231157   1.755   6.130   5.530
10399TIP3    H131158   1.798   6.213   5.550
10399TIP3    H231159   1.675   6.131   5.583
10400TIP3   OH231160   2.287   6.599   5.731
10400TIP3    H131161   2.268   6.689   5.759
10400TIP3    H231162   2.260   6.545   5.805
10401TIP3   OH231163   2.485   7.192   6.313
10401TIP3    H131164   2.499   7.239   6.231
10401TIP3    H231165   2.566   7.143   6.327
10402TIP3   OH231166   2.105   7.079   5.668
10402TIP3    H131167   2.018   7.075   5.707
10402TIP3    H231168   2.131   7.172   5.674
10403TIP3   OH231169   2.833   6.819   6.246
10403TIP3    H131170   2.825   6.809   6.341
10403TIP3    H231171   2.904   6.760   6.221
10404TIP3   OH231172   2.818   6.706   5.120
10404TIP3    H131173   2.872   6.682   5.196
10404TIP3    H231174   2.733   6.667   5.137
10405TIP3   OH231175   3.069   7.335   6.280
10405TIP3    H131176   3.001   7.267   6.286
10405TIP3    H231177   3.044   7.386   6.203
10406TIP3   OH231178   3.148   7.172   4.925
10406TIP3    H131179   3.198   7.242   4.883
10406TIP3    H231180   3.068   7.214   4.957
10407TIP3   OH231181   7.420   2.270   0.434
10407TIP3    H131182   7.325   2.276   0.429
10407TIP3    H231183   7.437   2.210   0.506
10408TIP3   OH231184   2.994   6.631   5.316
10408TIP3    H131185   2.978   6.573   5.391
10408TIP3    H231186   3.089   6.635   5.309
10409TIP3   OH231187   7.100   3.358   0.059
10409TIP3    H131188   7.160   3.294   0.097
10409TIP3    H231189   7.106   3.435   0.116
10410TIP3   OH231190   2.171   6.674   5.127
10410TIP3    H131191   2.182   6.583   5.100
10410TIP3    H231192   2.155   6.670   5.221
10411TIP3   OH231193   2.116   6.687   5.400
10411TIP3    H131194   2.184   6.657   5.460
10411TIP3    H231195   2.116   6.782   5.409
10412TIP3   OH231196   1.849   6.381   5.609
10412TIP3    H131197   1.783   6.428   5.661
10412TIP3    H231198   1.868   6.440   5.537
10413TIP3   OH231199   0.409   2.334   0.117
10413TIP3    H131200   0.487   2.379   0.148
10413TIP3    H231201   0.401   2.257   0.173
10414TIP3   OH231202   2.899   5.756   5.669
10414TIP3    H131203   2.882   5.774   5.577
10414TIP3    H231204   2.943   5.835   5.701
10415TIP3   OH231205   2.385   6.875   5.339
10415TIP3    H131206   2.302   6.899   5.380
10415TIP3    H231207   2.407   6.949   5.283
10416TIP3   OH231208   2.555   5.955   5.763
10416TIP3    H131209   2.617   6.023   5.737
10416TIP3    H231210   2.577   5.935   5.854
10417TIP3   OH231211   0.250   2.570   0.175
10417TIP3    H131212   0.277   2.614   0.256
10417TIP3    H231213   0.301   2.489   0.173
10418TIP3   OH231214   2.716   5.653   5.851
10418TIP3    H131215   2.695   5.731   5.903
10418TIP3    H231216   2.785   5.683   5.791
10419TIP3   OH231217   2.136   6.958   5.424
10419TIP3    H131218   2.116   7.026   5.360
10419TIP3    H231219   2.124   7.000   5.509
10420TIP3   OH231220   2.230   5.673   5.656
10420TIP3    H131221   2.219   5.764   5.687
10420TIP3    H231222   2.324   5.657   5.662
10421TIP3   OH231223   0.868   2.473   0.167
10421TIP3    H131224   0.773   2.480   0.176
10421TIP3    H231225   0.881   2.421   0.088
10422TIP3   OH231226   3.132   6.353   5.920
10422TIP3    H131227   3.057   6.295   5.932
10422TIP3    H231228   3.201   6.312   5.972
10423TIP3   OH231229   1.868   6.561   5.394
10423TIP3    H131230   1.939   6.625   5.404
10423TIP3    H231231   1.901   6.498   5.330
10424TIP3   OH231232   1.781   5.852   5.528
10424TIP3    H131233   1.792   5.947   5.535
10424TIP3    H231234   1.718   5.841   5.458
10425TIP3   OH231235   3.115   7.321   5.874
10425TIP3    H131236   3.068   7.376   5.811
10425TIP3    H231237   3.207   7.337   5.855
10426TIP3   OH231238   7.385   1.891   0.023
10426TIP3    H131239   7.355   1.856  -0.062
10426TIP3    H231240   7.374   1.817   0.083
10427TIP3   OH231241   1.700   6.822   5.790
10427TIP3    H131242   1.655   6.862   5.864
10427TIP3    H231243   1.661   6.864   5.713
10428TIP3   OH231244   2.332   6.872   5.022
10428TIP3    H131245   2.284   6.802   5.065
10428TIP3    H231246   2.407   6.829   4.981
10429TIP3   OH231247   0.409   3.542   0.278
10429TIP3    H131248   0.401   3.467   0.337
10429TIP3    H231249   0.441   3.613   0.333
10430TIP3   OH231250   2.773   6.910   4.941
10430TIP3    H131251   2.805   6.846   5.004
10430TIP3    H231252   2.834   6.904   4.868
10431TIP3   OH231253   1.995   6.371   5.247
10431TIP3    H131254   2.047   6.347   5.324
10431TIP3    H231255   2.060   6.383   5.177
10432TIP3   OH231256   0.041   3.165   0.465
10432TIP3    H131257  -0.013   3.191   0.391
10432TIP3    H231258   0.056   3.071   0.453
10433TIP3   OH231259   2.546   6.593   5.073
10433TIP3    H131260   2.531   6.605   5.167
10433TIP3    H231261   2.535   6.500   5.058
10434TIP3   OH231262   0.503   3.205   0.074
10434TIP3    H131263   0.580   3.231   0.023
10434TIP3    H231264   0.437   3.271   0.053
10435TIP3   OH231265   7.419   2.771   0.713
10435TIP3    H131266   7.490   2.749   0.653
10435TIP3    H231267   7.339   2.756   0.663
10436TIP3   OH231268   2.171   6.310   5.457
10436TIP3    H131269   2.150   6.279   5.545
10436TIP3    H231270   2.218   6.237   5.416
10437TIP3   OH231271   7.685   2.703   0.336
10437TIP3    H131272   7.601   2.749   0.344
10437TIP3    H231273   7.721   2.733   0.252
10438TIP3   OH231274   2.307   6.122   5.303
10438TIP3    H131275   2.278   6.125   5.212
10438TIP3    H231276   2.403   6.128   5.298
10439TIP3   OH231277   0.393   3.081   0.421
10439TIP3    H131278   0.460   3.040   0.366
10439TIP3    H231279   0.390   3.027   0.500
10440TIP3   OH231280   3.105   6.418   4.981
10440TIP3    H131281   3.092   6.376   4.896
10440TIP3    H231282   3.078   6.509   4.966
10441TIP3   OH231283   7.797   2.477   0.443
10441TIP3    H131284   7.801   2.405   0.380
10441TIP3    H231285   7.761   2.550   0.392
10442TIP3   OH231286   7.805   2.277   0.243
10442TIP3    H131287   7.833   2.316   0.161
10442TIP3    H231288   7.715   2.249   0.227
10443TIP3   OH231289   0.007   2.805   0.117
10443TIP3    H131290   0.096   2.837   0.103
10443TIP3    H231291  -0.049   2.869   0.073
10444TIP3   OH231292   0.595   2.762   0.492
10444TIP3    H131293   0.628   2.673   0.506
10444TIP3    H231294   0.672   2.811   0.461
10445TIP3   OH231295   0.625   3.026   0.234
10445TIP3    H131296   0.572   3.088   0.184
10445TIP3    H231297   0.714   3.040   0.202
10446TIP3   OH231298   7.667   2.574   0.671
10446TIP3    H131299   7.615   2.498   0.694
10446TIP3    H231300   7.709   2.551   0.588
10447TIP3   OH231301   0.119   2.046   0.351
10447TIP3    H131302   0.081   2.126   0.315
10447TIP3    H231303   0.053   1.979   0.334
10448TIP3   OH231304   0.248   2.524   0.552
10448TIP3    H131305   0.237   2.513   0.646
10448TIP3    H231306   0.162   2.500   0.516
10449TIP3   OH231307   0.485   2.479   0.413
10449TIP3    H131308   0.410   2.480   0.472
10449TIP3    H231309   0.558   2.448   0.468
10450TIP3   OH231310   0.716   2.423   0.553
10450TIP3    H131311   0.735   2.330   0.565
10450TIP3    H231312   0.712   2.459   0.642
10451TIP3   OH231313   7.540   2.337   0.741
10451TIP3    H131314   7.538   2.250   0.703
10451TIP3    H231315   7.580   2.324   0.828
10452TIP3   OH231316   0.188   2.021   0.614
10452TIP3    H131317   0.261   1.959   0.606
10452TIP3    H231318   0.156   2.033   0.525
10453TIP3   OH231319   0.272   2.243   0.755
10453TIP3    H131320   0.244   2.173   0.696
10453TIP3    H231321   0.200   2.306   0.753
10454TIP3   OH231322   2.130   7.160   5.239
10454TIP3    H131323   2.218   7.144   5.206
10454TIP3    H231324   2.083   7.196   5.164
10455TIP3   OH231325   1.596   6.550   5.413
10455TIP3    H131326   1.691   6.563   5.409
10455TIP3    H231327   1.582   6.463   5.375
10456TIP3   OH231328   1.501   7.144   5.859
10456TIP3    H131329   1.444   7.083   5.812
10456TIP3    H231330   1.547   7.089   5.924
10457TIP3   OH231331   1.649   6.985   6.034
10457TIP3    H131332   1.645   6.921   6.106
10457TIP3    H231333   1.707   7.054   6.067
10458TIP3   OH231334   5.972   0.049   5.838
10458TIP3    H131335   6.006   0.075   5.924
10458TIP3    H231336   6.042   0.070   5.777
10459TIP3   OH231337   6.001   0.051   6.126
10459TIP3    H131338   5.948  -0.028   6.112
10459TIP3    H231339   6.075   0.021   6.179
10460TIP3   OH231340   0.793   3.433   0.291
10460TIP3    H131341   0.728   3.431   0.361
10460TIP3    H231342   0.869   3.475   0.330
10461TIP3   OH231343   3.272   6.622   5.312
10461TIP3    H131344   3.332   6.690   5.281
10461TIP3    H231345   3.316   6.583   5.387
10462TIP3   OH231346   3.398   6.479   5.514
10462TIP3    H131347   3.331   6.441   5.570
10462TIP3    H231348   3.463   6.514   5.574
10463TIP3   OH231349   3.435   6.873   5.932
10463TIP3    H131350   3.492   6.805   5.896
10463TIP3    H231351   3.445   6.946   5.872
10464TIP3   OH231352   3.252   7.172   6.133
10464TIP3    H131353   3.178   7.214   6.177
10464TIP3    H231354   3.212   7.128   6.058
10465TIP3   OH231355   3.313   6.396   5.159
10465TIP3    H131356   3.241   6.396   5.096
10465TIP3    H231357   3.297   6.473   5.213
10466TIP3   OH231358   3.172   6.047   5.097
10466TIP3    H131359   3.124   6.084   5.023
10466TIP3    H231360   3.162   5.952   5.088
10467TIP3   OH231361   3.196   6.340   5.650
10467TIP3    H131362   3.204   6.245   5.638
10467TIP3    H231363   3.179   6.351   5.744
10468TIP3   OH231364   1.850   6.465   6.363
10468TIP3    H131365   1.835   6.419   6.281
10468TIP3    H231366   1.942   6.447   6.384
10469TIP3   OH231367   0.879   3.083   0.141
10469TIP3    H131368   0.942   3.012   0.129
10469TIP3    H231369   0.897   3.143   0.067
10470TIP3   OH231370   1.044   2.870   0.139
10470TIP3    H131371   0.974   2.822   0.183
10470TIP3    H231372   1.122   2.817   0.154
10471TIP3   OH231373   3.129   5.777   5.069
10471TIP3    H131374   3.195   5.750   5.132
10471TIP3    H231375   3.048   5.735   5.099
10472TIP3   OH231376   3.193   6.061   5.534
10472TIP3    H131377   3.237   5.978   5.548
10472TIP3    H231378   3.238   6.100   5.459
10473TIP3   OH231379   3.347   6.229   6.053
10473TIP3    H131380   3.428   6.248   6.006
10473TIP3    H231381   3.362   6.265   6.141
10474TIP3   OH231382   3.418   6.373   6.286
10474TIP3    H131383   3.344   6.404   6.338
10474TIP3    H231384   3.449   6.450   6.240
10475TIP3   OH231385   7.291   2.439   0.742
10475TIP3    H131386   7.382   2.412   0.729
10475TIP3    H231387   7.242   2.357   0.744
10476TIP3   OH231388   1.265   2.290   0.446
10476TIP3    H131389   1.336   2.234   0.416
10476TIP3    H231390   1.240   2.341   0.369
10477TIP3   OH231391   3.306   5.812   5.587
10477TIP3    H131392   3.352   5.797   5.670
10477TIP3    H231393   3.244   5.739   5.581
10478TIP3   OH231394   7.226   2.114   0.019
10478TIP3    H131395   7.283   2.037   0.024
10478TIP3    H231396   7.286   2.188   0.006
10479TIP3   OH231397   6.983   2.397   0.082
10479TIP3    H131398   7.048   2.389   0.012
10479TIP3    H231399   7.003   2.479   0.126
10480TIP3   OH231400   1.124   2.410   0.245
10480TIP3    H131401   1.036   2.447   0.251
10480TIP3    H231402   1.112   2.327   0.199
10481TIP3   OH231403   3.357   5.730   5.224
10481TIP3    H131404   3.403   5.667   5.169
10481TIP3    H231405   3.416   5.806   5.229
10482TIP3   OH231406   1.784   5.577   5.985
10482TIP3    H131407   1.696   5.557   6.016
10482TIP3    H231408   1.770   5.628   5.905
10483TIP3   OH231409   2.954   7.279   5.488
10483TIP3    H131410   2.994   7.241   5.410
10483TIP3    H231411   2.999   7.363   5.499
10484TIP3   OH231412   7.212   1.944   0.447
10484TIP3    H131413   7.154   1.944   0.523
10484TIP3    H231414   7.159   1.981   0.376
10485TIP3   OH231415   7.438   3.436   0.030
10485TIP3    H131416   7.383   3.492  -0.025
10485TIP3    H231417   7.528   3.461   0.007
10486TIP3   OH231418   0.104   3.664   0.193
10486TIP3    H131419   0.140   3.674   0.281
10486TIP3    H231420   0.160   3.718   0.137
10487TIP3   OH231421   0.274   3.826   0.045
10487TIP3    H131422   0.335   3.766  -0.000
10487TIP3    H231423   0.328   3.901   0.068
10488TIP3   OH231424   1.043   2.160   0.149
10488TIP3    H131425   0.956   2.147   0.111
10488TIP3    H231426   1.085   2.075   0.143
10489TIP3   OH231427   2.126   7.288   6.206
10489TIP3    H131428   2.040   7.328   6.194
10489TIP3    H231429   2.183   7.334   6.144
10490TIP3   OH231430   5.137   0.003   6.094
10490TIP3    H131431   5.057   0.018   6.042
10490TIP3    H231432   5.163   0.091   6.122
10491TIP3   OH231433   2.808   7.307   6.149
10491TIP3    H131434   2.714   7.318   6.138
10491TIP3    H231435   2.848   7.358   6.078
10492TIP3   OH231436   5.640   0.154   6.064
10492TIP3    H131437   5.610   0.233   6.017
10492TIP3    H231438   5.666   0.094   5.994
10493TIP3   OH231439   1.843   7.146   6.165
10493TIP3    H131440   1.858   7.120   6.256
10493TIP3    H231441   1.917   7.110   6.117
10494TIP3   OH231442   2.038   7.006   6.030
10494TIP3    H131443   2.043   6.928   6.085
10494TIP3    H231444   2.124   7.046   6.037
10495TIP3   OH231445   2.851   5.770   6.152
10495TIP3    H131446   2.811   5.697   6.200
10495TIP3    H231447   2.919   5.729   6.099
10496TIP3   OH231448   3.352   5.680   6.043
10496TIP3    H131449   3.391   5.729   5.971
10496TIP3    H231450   3.259   5.704   6.042
10497TIP3   OH231451   3.466   5.761   5.807
10497TIP3    H131452   3.535   5.700   5.782
10497TIP3    H231453   3.504   5.848   5.794
10498TIP3   OH231454   2.090   5.469   6.152
10498TIP3    H131455   2.000   5.437   6.159
10498TIP3    H231456   2.143   5.390   6.145
10499TIP3   OH231457   1.904   5.377   5.810
10499TIP3    H131458   1.932   5.425   5.732
10499TIP3    H231459   1.872   5.444   5.870
10500TIP3   OH231460   2.561   5.515   6.046
10500TIP3    H131461   2.611   5.558   5.977
10500TIP3    H231462   2.606   5.539   6.127
10501TIP3   OH231463   3.064   5.650   6.023
10501TIP3    H131464   3.085   5.614   5.937
10501TIP3    H231465   3.070   5.574   6.082
10502TIP3   OH231466   3.120   5.601   5.590
10502TIP3    H131467   3.040   5.647   5.614
10502TIP3    H231468   3.111   5.514   5.629
10503TIP3   OH231469   1.591   6.940   5.569
10503TIP3    H131470   1.505   6.906   5.541
10503TIP3    H231471   1.592   7.030   5.537
10504TIP3   OH231472   2.016   5.507   5.572
10504TIP3    H131473   2.061   5.445   5.515
10504TIP3    H231474   2.086   5.563   5.606
10505TIP3   OH231475   2.505   5.703   5.667
10505TIP3    H131476   2.565   5.651   5.720
10505TIP3    H231477   2.521   5.793   5.695
10506TIP3   OH231478   2.386   7.098   5.165
10506TIP3    H131479   2.471   7.124   5.130
10506TIP3    H231480   2.358   7.026   5.108
10507TIP3   OH231481   3.085   7.226   5.251
10507TIP3    H131482   3.077   7.131   5.242
10507TIP3    H231483   3.044   7.261   5.172
10508TIP3   OH231484   7.525   2.065   0.662
10508TIP3    H131485   7.485   1.998   0.718
10508TIP3    H231486   7.616   2.068   0.691
10509TIP3   OH231487   7.771   2.068   0.786
10509TIP3    H131488   7.849   2.050   0.732
10509TIP3    H231489   7.771   1.999   0.852
10510TIP3   OH231490   1.685   6.937   5.222
10510TIP3    H131491   1.683   6.953   5.316
10510TIP3    H231492   1.768   6.893   5.206
10511TIP3   OH231493   0.786   2.158   0.579
10511TIP3    H131494   0.805   2.131   0.668
10511TIP3    H231495   0.871   2.155   0.534
10512TIP3   OH231496   0.695   3.692   0.074
10512TIP3    H131497   0.630   3.634   0.035
10512TIP3    H231498   0.674   3.779   0.039
10513TIP3   OH231499   4.579   6.771   5.187
10513TIP3    H131500   4.547   6.858   5.163
10513TIP3    H231501   4.504   6.713   5.171
10514TIP3   OH231502   4.468   6.739   5.628
10514TIP3    H131503   4.541   6.735   5.690
10514TIP3    H231504   4.458   6.649   5.597
10515TIP3   OH231505   3.877   6.609   5.949
10515TIP3    H131506   3.913   6.556   6.020
10515TIP3    H231507   3.954   6.642   5.903
10516TIP3   OH231508   4.857   7.064   5.278
10516TIP3    H131509   4.880   6.998   5.344
10516TIP3    H231510   4.865   7.148   5.324
10517TIP3   OH231511   3.861   7.051   5.661
10517TIP3    H131512   3.849   6.956   5.662
10517TIP3    H231513   3.955   7.063   5.648
10518TIP3   OH231514   3.555   6.255   5.436
10518TIP3    H131515   3.516   6.338   5.461
10518TIP3    H231516   3.482   6.205   5.398
10519TIP3   OH231517   3.628   6.558   5.654
10519TIP3    H131518   3.677   6.480   5.682
10519TIP3    H231519   3.696   6.619   5.623
10520TIP3   OH231520   7.109   0.143   5.308
10520TIP3    H131521   7.134   0.076   5.243
10520TIP3    H231522   7.118   0.099   5.392
10521TIP3   OH231523   4.375   6.994   5.613
10521TIP3    H131524   4.395   6.901   5.606
10521TIP3    H231525   4.459   7.039   5.601
10522TIP3   OH231526   5.404   6.287   5.618
10522TIP3    H131527   5.421   6.368   5.666
10522TIP3    H231528   5.450   6.299   5.535
10523TIP3   OH231529   4.800   6.487   5.665
10523TIP3    H131530   4.830   6.398   5.682
10523TIP3    H231531   4.766   6.484   5.576
10524TIP3   OH231532   4.148   6.131   5.618
10524TIP3    H131533   4.127   6.204   5.559
10524TIP3    H231534   4.093   6.059   5.587
10525TIP3   OH231535   4.839   6.231   5.254
10525TIP3    H131536   4.910   6.193   5.306
10525TIP3    H231537   4.884   6.270   5.178
10526TIP3   OH231538   3.770   6.339   5.743
10526TIP3    H131539   3.853   6.322   5.788
10526TIP3    H231540   3.776   6.287   5.663
10527TIP3   OH231541   4.192   6.535   5.560
10527TIP3    H131542   4.285   6.513   5.567
10527TIP3    H231543   4.151   6.456   5.525
10528TIP3   OH231544   5.448   6.504   5.784
10528TIP3    H131545   5.374   6.562   5.766
10528TIP3    H231546   5.501   6.553   5.847
10529TIP3   OH231547   4.128   6.127   6.066
10529TIP3    H131548   4.075   6.163   5.996
10529TIP3    H231549   4.074   6.137   6.145
10530TIP3   OH231550   4.479   6.991   5.050
10530TIP3    H131551   4.439   6.961   4.969
10530TIP3    H231552   4.424   7.064   5.079
10531TIP3   OH231553   4.239   6.904   5.838
10531TIP3    H131554   4.179   6.970   5.873
10531TIP3    H231555   4.285   6.948   5.767
10532TIP3   OH231556   4.014   6.235   5.838
10532TIP3    H131557   4.069   6.310   5.861
10532TIP3    H231558   4.062   6.192   5.767
10533TIP3   OH231559   4.065   7.095   5.930
10533TIP3    H131560   4.049   7.181   5.891
10533TIP3    H231561   3.980   7.068   5.964
10534TIP3   OH231562   3.448   6.806   5.193
10534TIP3    H131563   3.413   6.828   5.107
10534TIP3    H231564   3.474   6.890   5.231
10535TIP3   OH231565   4.870   7.312   5.409
10535TIP3    H131566   4.784   7.315   5.450
10535TIP3    H231567   4.882   7.400   5.373
10536TIP3   OH231568   5.194   6.179   5.785
10536TIP3    H131569   5.109   6.204   5.751
10536TIP3    H231570   5.256   6.209   5.718
10537TIP3   OH231571   4.470   5.824   5.792
10537TIP3    H131572   4.462   5.733   5.820
10537TIP3    H231573   4.394   5.867   5.830
10538TIP3   OH231574   4.592   7.346   5.089
10538TIP3    H131575   4.643   7.266   5.078
10538TIP3    H231576   4.649   7.416   5.056
10539TIP3   OH231577   4.730   7.118   5.036
10539TIP3    H131578   4.656   7.057   5.036
10539TIP3    H231579   4.782   7.092   5.112
10540TIP3   OH231580   5.090   7.142   5.749
10540TIP3    H131581   5.060   7.071   5.693
10540TIP3    H231582   5.081   7.220   5.696
10541TIP3   OH231583   4.404   6.605   5.040
10541TIP3    H131584   4.323   6.652   5.020
10541TIP3    H231585   4.453   6.606   4.958
10542TIP3   OH231586   4.376   6.409   4.738
10542TIP3    H131587   4.441   6.457   4.789
10542TIP3    H231588   4.427   6.342   4.692
10543TIP3   OH231589   5.342   6.894   5.607
10543TIP3    H131590   5.274   6.959   5.627
10543TIP3    H231591   5.376   6.920   5.522
10544TIP3   OH231592   4.764   6.694   5.006
10544TIP3    H131593   4.704   6.724   5.074
10544TIP3    H231594   4.843   6.668   5.054
10545TIP3   OH231595   3.998   6.677   5.414
10545TIP3    H131596   3.963   6.617   5.349
10545TIP3    H231597   4.070   6.629   5.454
10546TIP3   OH231598   4.119   7.102   5.556
10546TIP3    H131599   4.099   7.082   5.465
10546TIP3    H231600   4.207   7.066   5.569
10547TIP3   OH231601   4.100   6.672   5.785
10547TIP3    H131602   4.138   6.635   5.705
10547TIP3    H231603   4.153   6.750   5.802
10548TIP3   OH231604   4.632   7.317   5.547
10548TIP3    H131605   4.642   7.356   5.635
10548TIP3    H231606   4.633   7.223   5.563
10549TIP3   OH231607   4.250   7.219   6.094
10549TIP3    H131608   4.179   7.275   6.126
10549TIP3    H231609   4.208   7.156   6.036
10550TIP3   OH231610   4.596   6.556   4.836
10550TIP3    H131611   4.656   6.612   4.885
10550TIP3    H231612   4.624   6.564   4.745
10551TIP3   OH231613   4.015   6.742   6.194
10551TIP3    H131614   4.015   6.834   6.222
10551TIP3    H231615   3.923   6.715   6.201
10552TIP3   OH231616   4.342   7.227   5.096
10552TIP3    H131617   4.424   7.276   5.105
10552TIP3    H231618   4.284   7.285   5.047
10553TIP3   OH231619   4.027   7.361   6.140
10553TIP3    H131620   4.014   7.363   6.046
10553TIP3    H231621   3.943   7.330   6.175
10554TIP3   OH231622   5.108   5.782   4.892
10554TIP3    H131623   5.030   5.801   4.945
10554TIP3    H231624   5.120   5.860   4.838
10555TIP3   OH231625   3.872   6.521   5.211
10555TIP3    H131626   3.793   6.566   5.179
10555TIP3    H231627   3.841   6.433   5.233
10556TIP3   OH231628   4.931   7.156   4.448
10556TIP3    H131629   4.929   7.250   4.428
10556TIP3    H231630   5.020   7.129   4.426
10557TIP3   OH231631   3.634   6.900   6.133
10557TIP3    H131632   3.567   6.873   6.070
10557TIP3    H231633   3.674   6.818   6.162
10558TIP3   OH231634   3.527   7.095   5.778
10558TIP3    H131635   3.618   7.078   5.752
10558TIP3    H231636   3.533   7.169   5.837
10559TIP3   OH231637   7.040   0.015   5.965
10559TIP3    H131638   7.033   0.102   6.004
10559TIP3    H231639   6.970  -0.036   6.007
10560TIP3   OH231640   6.835   0.077   4.924
10560TIP3    H131641   6.792   0.064   4.840
10560TIP3    H231642   6.800   0.160   4.956
10561TIP3   OH231643   3.665   7.301   5.308
10561TIP3    H131644   3.714   7.295   5.390
10561TIP3    H231645   3.622   7.216   5.300
10562TIP3   OH231646   4.441   7.373   4.554
10562TIP3    H131647   4.493   7.300   4.520
10562TIP3    H231648   4.472   7.384   4.644
10563TIP3   OH231649   7.089   0.057   4.823
10563TIP3    H131650   7.002   0.059   4.864
10563TIP3    H231651   7.147   0.023   4.891
10564TIP3   OH231652   5.243   6.673   6.146
10564TIP3    H131653   5.175   6.715   6.093
10564TIP3    H231654   5.256   6.587   6.106
10565TIP3   OH231655   3.813   7.088   6.048
10565TIP3    H131656   3.856   7.099   6.133
10565TIP3    H231657   3.750   7.017   6.062
10566TIP3   OH231658   4.232   5.919   5.911
10566TIP3    H131659   4.148   5.883   5.884
10566TIP3    H231660   4.210   5.997   5.961
10567TIP3   OH231661   4.776   6.029   6.115
10567TIP3    H131662   4.847   5.998   6.172
10567TIP3    H231663   4.696   6.009   6.163
10568TIP3   OH231664   4.999   6.515   5.979
10568TIP3    H131665   4.961   6.500   6.066
10568TIP3    H231666   4.923   6.526   5.922
10569TIP3   OH231667   4.677   6.551   4.575
10569TIP3    H131668   4.635   6.547   4.489
10569TIP3    H231669   4.759   6.598   4.560
10570TIP3   OH231670   4.382   5.961   4.889
10570TIP3    H131671   4.350   5.967   4.979
10570TIP3    H231672   4.347   5.879   4.856
10571TIP3   OH231673   4.173   6.442   5.923
10571TIP3    H131674   4.130   6.450   6.008
10571TIP3    H231675   4.153   6.525   5.879
10572TIP3   OH231676   4.051   6.326   5.450
10572TIP3    H131677   3.962   6.299   5.475
10572TIP3    H231678   4.062   6.290   5.362
10573TIP3   OH231679   4.533   6.402   5.176
10573TIP3    H131680   4.486   6.475   5.136
10573TIP3    H231681   4.591   6.370   5.107
10574TIP3   OH231682   4.722   6.703   6.226
10574TIP3    H131683   4.690   6.622   6.265
10574TIP3    H231684   4.814   6.708   6.251
10575TIP3   OH231685   4.674   6.400   5.420
10575TIP3    H131686   4.617   6.427   5.348
10575TIP3    H231687   4.734   6.337   5.382
10576TIP3   OH231688   4.004   6.448   6.143
10576TIP3    H131689   4.024   6.512   6.211
10576TIP3    H231690   3.988   6.367   6.192
10577TIP3   OH231691   4.050   5.940   4.863
10577TIP3    H131692   4.042   5.941   4.959
10577TIP3    H231693   3.972   5.987   4.832
10578TIP3   OH231694   3.599   5.983   5.730
10578TIP3    H131695   3.669   6.017   5.785
10578TIP3    H231696   3.642   5.958   5.648
10579TIP3   OH231697   3.517   5.961   5.239
10579TIP3    H131698   3.562   5.996   5.163
10579TIP3    H231699   3.454   6.029   5.263
10580TIP3   OH231700   4.656   6.672   5.817
10580TIP3    H131701   4.717   6.631   5.755
10580TIP3    H231702   4.652   6.612   5.891
10581TIP3   OH231703   4.415   6.116   5.504
10581TIP3    H131704   4.338   6.119   5.561
10581TIP3    H231705   4.489   6.115   5.564
10582TIP3   OH231706   3.815   6.199   5.511
10582TIP3    H131707   3.727   6.203   5.476
10582TIP3    H231708   3.844   6.109   5.496
10583TIP3   OH231709   4.070   6.201   5.207
10583TIP3    H131710   4.164   6.213   5.196
10583TIP3    H231711   4.033   6.220   5.120
10584TIP3   OH231712   4.862   6.221   5.720
10584TIP3    H131713   4.839   6.232   5.812
10584TIP3    H231714   4.796   6.160   5.686
10585TIP3   OH231715   3.950   6.230   4.961
10585TIP3    H131716   3.886   6.181   4.910
10585TIP3    H231717   4.004   6.274   4.897
10586TIP3   OH231718   3.966   7.001   6.282
10586TIP3    H131719   4.045   7.050   6.304
10586TIP3    H231720   3.912   7.007   6.361
10587TIP3   OH231721   4.457   6.460   5.599
10587TIP3    H131722   4.534   6.430   5.550
10587TIP3    H231723   4.466   6.417   5.684
10588TIP3   OH231724   3.962   5.952   5.502
10588TIP3    H131725   3.932   5.878   5.554
10588TIP3    H231726   3.998   5.913   5.423
10589TIP3   OH231727   4.437   6.369   5.872
10589TIP3    H131728   4.351   6.406   5.890
10589TIP3    H231729   4.498   6.425   5.921
10590TIP3   OH231730   4.170   6.748   4.984
10590TIP3    H131731   4.096   6.690   4.964
10590TIP3    H231732   4.148   6.786   5.069
10591TIP3   OH231733   4.636   6.061   4.881
10591TIP3    H131734   4.542   6.040   4.882
10591TIP3    H231735   4.640   6.155   4.898
10592TIP3   OH231736   4.524   7.095   6.047
10592TIP3    H131737   4.570   7.080   6.130
10592TIP3    H231738   4.506   7.189   6.046
10593TIP3   OH231739   4.694   6.320   4.959
10593TIP3    H131740   4.789   6.318   4.970
10593TIP3    H231741   4.677   6.400   4.909
10594TIP3   OH231742   3.869   6.768   5.642
10594TIP3    H131743   3.907   6.747   5.556
10594TIP3    H231744   3.934   6.736   5.705
10595TIP3   OH231745   4.328   6.905   4.827
10595TIP3    H131746   4.281   6.988   4.825
10595TIP3    H231747   4.273   6.847   4.880
10596TIP3   OH231748   3.752   6.692   6.275
10596TIP3    H131749   3.799   6.691   6.359
10596TIP3    H231750   3.684   6.625   6.285
10597TIP3   OH231751   4.444   6.751   6.310
10597TIP3    H131752   4.373   6.713   6.257
10597TIP3    H231753   4.515   6.765   6.248
10598TIP3   OH231754   7.292   0.016   5.847
10598TIP3    H131755   7.201   0.028   5.874
10598TIP3    H231756   7.343   0.040   5.924
10599TIP3   OH231757   5.121   6.414   4.782
10599TIP3    H131758   5.064   6.367   4.721
10599TIP3    H231759   5.126   6.503   4.747
10600TIP3   OH231760   5.335   7.193   5.880
10600TIP3    H131761   5.244   7.205   5.854
10600TIP3    H231762   5.385   7.203   5.799
10601TIP3   OH231763   4.853   7.229   4.715
10601TIP3    H131764   4.824   7.163   4.778
10601TIP3    H231765   4.869   7.181   4.634
10602TIP3   OH231766   3.986   7.095   5.307
10602TIP3    H131767   3.982   7.172   5.250
10602TIP3    H231768   3.894   7.073   5.323
10603TIP3   OH231769   3.547   6.386   5.013
10603TIP3    H131770   3.592   6.468   5.035
10603TIP3    H231771   3.468   6.387   5.067
10604TIP3   OH231772   4.084   6.854   5.216
10604TIP3    H131773   4.066   6.943   5.245
10604TIP3    H231774   4.059   6.799   5.290
10605TIP3   OH231775   6.871   0.072   5.747
10605TIP3    H131776   6.908   0.143   5.695
10605TIP3    H231777   6.942   0.045   5.805
10606TIP3   OH231778   3.895   7.313   5.156
10606TIP3    H131779   3.809   7.327   5.196
10606TIP3    H231780   3.939   7.398   5.163
10607TIP3   OH231781   4.658   7.043   5.600
10607TIP3    H131782   4.688   7.046   5.691
10607TIP3    H231783   4.709   6.973   5.559
10608TIP3   OH231784   4.612   6.963   4.605
10608TIP3    H131785   4.667   6.936   4.679
10608TIP3    H231786   4.527   6.924   4.623
10609TIP3   OH231787   7.472   0.249   5.793
10609TIP3    H131788   7.410   0.177   5.792
10609TIP3    H231789   7.455   0.298   5.713
10610TIP3   OH231790   7.541   0.077   4.410
10610TIP3    H131791   7.582   0.151   4.366
10610TIP3    H231792   7.461   0.113   4.449
10611TIP3   OH231793   3.959   6.205   6.275
10611TIP3    H131794   3.864   6.202   6.281
10611TIP3    H231795   3.990   6.164   6.356
10612TIP3   OH231796   4.789   6.877   4.795
10612TIP3    H131797   4.773   6.824   4.873
10612TIP3    H231798   4.884   6.884   4.790
10613TIP3   OH231799   3.681   7.302   5.924
10613TIP3    H131800   3.730   7.228   5.961
10613TIP3    H231801   3.714   7.379   5.971
10614TIP3   OH231802   3.968   6.932   4.614
10614TIP3    H131803   3.979   6.840   4.587
10614TIP3    H231804   3.952   6.927   4.708
10615TIP3   OH231805   3.913   6.940   4.886
10615TIP3    H131806   3.983   6.910   4.945
10615TIP3    H231807   3.913   7.035   4.895
10616TIP3   OH231808   3.645   6.635   5.095
10616TIP3    H131809   3.580   6.681   5.148
10616TIP3    H231810   3.665   6.695   5.023
10617TIP3   OH231811   4.813   6.266   5.989
10617TIP3    H131812   4.892   6.295   6.036
10617TIP3    H231813   4.790   6.183   6.030
10618TIP3   OH231814   4.693   6.013   5.152
10618TIP3    H131815   4.673   6.029   5.060
10618TIP3    H231816   4.730   6.095   5.184
10619TIP3   OH231817   4.181   7.130   4.824
10619TIP3    H131818   4.098   7.153   4.865
10619TIP3    H231819   4.203   7.206   4.770
10620TIP3   OH231820   4.349   6.211   5.250
10620TIP3    H131821   4.411   6.279   5.225
10620TIP3    H231822   4.371   6.192   5.342
10621TIP3   OH231823   4.646   6.487   6.017
10621TIP3    H131824   4.673   6.527   6.099
10621TIP3    H231825   4.697   6.405   6.012
10622TIP3   OH231826   4.512   5.910   5.339
10622TIP3    H131827   4.489   5.986   5.392
10622TIP3    H231828   4.580   5.942   5.279
10623TIP3   OH231829   3.930   7.209   4.908
10623TIP3    H131830   3.911   7.280   4.847
10623TIP3    H231831   3.917   7.247   4.994
10624TIP3   OH231832   4.027   5.929   5.141
10624TIP3    H131833   4.015   6.018   5.174
10624TIP3    H231834   4.121   5.913   5.148
10625TIP3   OH231835   5.258   6.431   6.017
10625TIP3    H131836   5.164   6.442   5.999
10625TIP3    H231837   5.293   6.390   5.939
10626TIP3   OH231838   3.663   6.817   4.881
10626TIP3    H131839   3.735   6.880   4.892
10626TIP3    H231840   3.696   6.754   4.817
10627TIP3   OH231841   3.576   6.109   5.015
10627TIP3    H131842   3.591   6.203   5.022
10627TIP3    H231843   3.507   6.100   4.950
10628TIP3   OH231844   7.520   0.220   5.344
10628TIP3    H131845   7.474   0.269   5.275
10628TIP3    H231846   7.611   0.248   5.336
10629TIP3   OH231847   3.970   5.826   5.890
10629TIP3    H131848   3.941   5.791   5.806
10629TIP3    H231849   3.964   5.752   5.950
10630TIP3   OH231850   3.506   7.069   5.287
10630TIP3    H131851   3.460   7.104   5.363
10630TIP3    H231852   3.462   7.110   5.212
10631TIP3   OH231853   6.228   0.207   6.368
10631TIP3    H131854   6.319   0.218   6.338
10631TIP3    H231855   6.208   0.116   6.351
10632TIP3   OH231856   6.731   0.206   6.288
10632TIP3    H131857   6.818   0.180   6.318
10632TIP3    H231858   6.704   0.135   6.229
10633TIP3   OH231859   4.128   7.131   4.508
10633TIP3    H131860   4.080   7.061   4.553
10633TIP3    H231861   4.203   7.086   4.468
10634TIP3   OH231862   7.416   0.058   6.083
10634TIP3    H131863   7.369   0.003   6.146
10634TIP3    H231864   7.500   0.014   6.072
10635TIP3   OH231865   4.570   7.168   4.428
10635TIP3    H131866   4.600   7.103   4.491
10635TIP3    H231867   4.629   7.160   4.354
10636TIP3   OH231868   1.187   3.331   0.156
10636TIP3    H131869   1.204   3.247   0.198
10636TIP3    H231870   1.103   3.319   0.111
10637TIP3   OH231871   3.791   6.627   4.733
10637TIP3    H131872   3.842   6.603   4.810
10637TIP3    H231873   3.856   6.641   4.664
10638TIP3   OH231874   4.369   7.043   6.284
10638TIP3    H131875   4.350   7.067   6.193
10638TIP3    H231876   4.451   6.994   6.279
10639TIP3   OH231877   4.342   6.849   4.559
10639TIP3    H131878   4.326   6.861   4.653
10639TIP3    H231879   4.330   6.756   4.544
10640TIP3   OH231880   4.948   7.158   5.984
10640TIP3    H131881   5.008   7.163   5.909
10640TIP3    H231882   4.864   7.133   5.945
10641TIP3   OH231883   1.327   3.025   0.123
10641TIP3    H131884   1.414   2.991   0.103
10641TIP3    H231885   1.340   3.080   0.201
10642TIP3   OH231886   3.965   6.566   4.944
10642TIP3    H131887   3.945   6.536   5.033
10642TIP3    H231888   4.012   6.492   4.904
10643TIP3   OH231889   4.257   6.624   6.153
10643TIP3    H131890   4.175   6.673   6.158
10643TIP3    H231891   4.304   6.662   6.078
10644TIP3   OH231892   4.103   6.378   4.788
10644TIP3    H131893   4.074   6.383   4.697
10644TIP3    H231894   4.198   6.384   4.784
10645TIP3   OH231895   4.928   7.082   6.307
10645TIP3    H131896   4.971   7.035   6.236
10645TIP3    H231897   4.958   7.038   6.386
10646TIP3   OH231898   4.901   6.676   4.466
10646TIP3    H131899   4.887   6.633   4.381
10646TIP3    H231900   4.874   6.767   4.451
10647TIP3   OH231901   4.332   6.406   6.292
10647TIP3    H131902   4.348   6.327   6.240
10647TIP3    H231903   4.302   6.471   6.229
10648TIP3   OH231904   4.386   6.207   6.101
10648TIP3    H131905   4.413   6.244   6.017
10648TIP3    H231906   4.296   6.178   6.087
10649TIP3   OH231907   4.417   6.739   5.968
10649TIP3    H131908   4.500   6.735   5.919
10649TIP3    H231909   4.365   6.805   5.922
10650TIP3   OH231910   4.980   6.747   6.309
10650TIP3    H131911   5.045   6.677   6.304
10650TIP3    H231912   5.011   6.813   6.248
10651TIP3   OH231913   5.036   6.926   6.103
10651TIP3    H131914   4.985   6.990   6.053
10651TIP3    H231915   5.122   6.926   6.062
10652TIP3   OH231916   1.564   2.868   0.106
10652TIP3    H131917   1.533   2.787   0.146
10652TIP3    H231918   1.627   2.839   0.040
10653TIP3   OH231919   4.513   5.976   6.188
10653TIP3    H131920   4.472   6.058   6.160
10653TIP3    H231921   4.446   5.909   6.173
10654TIP3   OH231922   4.603   6.474   6.323
10654TIP3    H131923   4.590   6.424   6.404
10654TIP3    H231924   4.520   6.466   6.276
10655TIP3   OH231925   4.912   6.437   6.225
10655TIP3    H131926   4.852   6.393   6.285
10655TIP3    H231927   4.999   6.418   6.261
10656TIP3   OH231928   2.548   2.699  -0.017
10656TIP3    H131929   2.557   2.603  -0.012
10656TIP3    H231930   2.539   2.727   0.073
10657TIP3   OH231931   1.480   2.609   0.202
10657TIP3    H131932   1.491   2.514   0.194
10657TIP3    H231933   1.545   2.635   0.267
10658TIP3   OH231934   1.964   2.248   0.082
10658TIP3    H131935   2.038   2.187   0.075
10658TIP3    H231936   1.938   2.263  -0.009
10659TIP3   OH231937   2.041   2.469   0.216
10659TIP3    H131938   2.006   2.397   0.162
10659TIP3    H231939   1.979   2.541   0.203
10660TIP3   OH231940   6.524   0.057   4.725
10660TIP3    H131941   6.616   0.045   4.700
10660TIP3    H231942   6.483   0.094   4.647
10661TIP3   OH231943   3.390   6.807   4.902
10661TIP3    H131944   3.485   6.821   4.898
10661TIP3    H231945   3.377   6.720   4.864
10662TIP3   OH231946   3.295   7.372   5.351
10662TIP3    H131947   3.234   7.319   5.300
10662TIP3    H231948   3.339   7.310   5.409
10663TIP3   OH231949   3.438   7.218   5.530
10663TIP3    H131950   3.432   7.154   5.601
10663TIP3    H231951   3.486   7.291   5.569
10664TIP3   OH231952   7.765   0.336   5.322
10664TIP3    H131953   7.788   0.397   5.392
10664TIP3    H231954   7.835   0.346   5.258
10665TIP3   OH231955   5.068   6.878   4.796
10665TIP3    H131956   5.127   6.947   4.768
10665TIP3    H231957   5.109   6.842   4.875
10666TIP3   OH231958   5.184   6.749   5.012
10666TIP3    H131959   5.136   6.753   5.094
10666TIP3    H231960   5.273   6.776   5.035
10667TIP3   OH231961   5.237   7.169   5.406
10667TIP3    H131962   5.284   7.090   5.379
10667TIP3    H231963   5.145   7.148   5.392
10668TIP3   OH231964   7.648   0.022   5.616
10668TIP3    H131965   7.619   0.108   5.645
10668TIP3    H231966   7.595   0.003   5.538
10669TIP3   OH231967   5.109   6.653   4.643
10669TIP3    H131968   5.037   6.653   4.580
10669TIP3    H231969   5.093   6.731   4.697
10670TIP3   OH231970   4.967   6.305   4.583
10670TIP3    H131971   4.918   6.341   4.509
10670TIP3    H231972   4.957   6.210   4.575
10671TIP3   OH231973   3.614   6.665   5.907
10671TIP3    H131974   3.603   6.627   5.820
10671TIP3    H231975   3.708   6.656   5.924
10672TIP3   OH231976   5.263   6.933   5.951
10672TIP3    H131977   5.344   6.912   5.998
10672TIP3    H231978   5.277   7.022   5.920
10673TIP3   OH231979   5.477   6.812   6.067
10673TIP3    H131980   5.403   6.774   6.115
10673TIP3    H231981   5.529   6.737   6.039
10674TIP3   OH231982   4.925   6.034   4.556
10674TIP3    H131983   4.991   6.007   4.621
10674TIP3    H231984   4.844   5.992   4.586
10675TIP3   OH231985   4.973   6.299   5.008
10675TIP3    H131986   5.022   6.218   5.023
10675TIP3    H231987   5.026   6.348   4.946
10676TIP3   OH231988   5.215   6.674   5.753
10676TIP3    H131989   5.128   6.649   5.783
10676TIP3    H231990   5.237   6.752   5.805
10677TIP3   OH231991   1.215   2.661   0.177
10677TIP3    H131992   1.310   2.658   0.183
10677TIP3    H231993   1.186   2.579   0.218
10678TIP3   OH231994   5.663   6.201   6.305
10678TIP3    H131995   5.724   6.145   6.258
10678TIP3    H231996   5.670   6.287   6.262
10679TIP3   OH231997   5.103   6.061   5.072
10679TIP3    H131998   5.152   6.046   5.153
10679TIP3    H231999   5.041   5.989   5.067
10680TIP3   OH232000   3.805   6.050   5.905
10680TIP3    H132001   3.859   5.972   5.913
10680TIP3    H232002   3.867   6.121   5.887
10681TIP3   OH232003   3.591   6.318   5.960
10681TIP3    H132004   3.642   6.311   5.879
10681TIP3    H232005   3.631   6.391   6.007
10682TIP3   OH232006   5.529   6.339   6.067
10682TIP3    H132007   5.451   6.367   6.114
10682TIP3    H232008   5.505   6.255   6.027
10683TIP3   OH232009   5.153   5.987   4.712
10683TIP3    H132010   5.198   5.924   4.656
10683TIP3    H232011   5.211   6.062   4.715
10684TIP3   OH232012   3.579   5.822   5.466
10684TIP3    H132013   3.492   5.813   5.506
10684TIP3    H232014   3.565   5.879   5.390
10685TIP3   OH232015   7.337   0.183   4.968
10685TIP3    H132016   7.396   0.172   4.893
10685TIP3    H232017   7.386   0.240   5.028
10686TIP3   OH232018   3.803   5.909   6.295
10686TIP3    H132019   3.749   5.887   6.371
10686TIP3    H232020   3.741   5.943   6.231
10687TIP3   OH232021   3.803   7.284   6.267
10687TIP3    H132022   3.711   7.274   6.291
10687TIP3    H232023   3.847   7.305   6.350
10688TIP3   OH232024   6.635   0.008   5.869
10688TIP3    H132025   6.583   0.082   5.839
10688TIP3    H232026   6.722   0.022   5.832
10689TIP3   OH232027   7.033   0.266   6.076
10689TIP3    H132028   7.071   0.259   6.164
10689TIP3    H232029   7.100   0.311   6.024
10690TIP3   OH232030   7.220   0.374   5.906
10690TIP3    H132031   7.216   0.319   5.828
10690TIP3    H232032   7.314   0.381   5.926
10691TIP3   OH232033   5.430   6.096   5.969
10691TIP3    H132034   5.342   6.092   5.931
10691TIP3    H232035   5.462   6.006   5.964
10692TIP3   OH232036   6.303   0.278   5.950
10692TIP3    H132037   6.210   0.292   5.934
10692TIP3    H232038   6.325   0.343   6.017
10693TIP3   OH232039   6.523   0.240   5.790
10693TIP3    H132040   6.443   0.258   5.840
10693TIP3    H232041   6.504   0.270   5.702
10694TIP3   OH232042   6.944   0.279   5.581
10694TIP3    H132043   6.869   0.291   5.523
10694TIP3    H232044   6.952   0.362   5.627
10695TIP3   OH232045   7.196   0.238   5.673
10695TIP3    H132046   7.115   0.240   5.622
10695TIP3    H232047   7.262   0.277   5.615
10696TIP3   OH232048   7.406   0.361   5.551
10696TIP3    H132049   7.406   0.452   5.524
10696TIP3    H232050   7.446   0.314   5.478
10697TIP3   OH232051   6.209   0.048   5.678
10697TIP3    H132052   6.233   0.021   5.766
10697TIP3    H232053   6.281   0.016   5.623
10698TIP3   OH232054   3.815   7.293   5.539
10698TIP3    H132055   3.828   7.208   5.583
10698TIP3    H232056   3.902   7.332   5.537
10699TIP3   OH232057   6.683   0.025   5.547
10699TIP3    H132058   6.699  -0.069   5.534
10699TIP3    H232059   6.742   0.048   5.619
10700TIP3   OH232060   4.656   6.029   5.635
10700TIP3    H132061   4.616   5.957   5.683
10700TIP3    H232062   4.723   5.989   5.581
10701TIP3   OH232063   5.153   5.929   5.529
10701TIP3    H132064   5.189   5.979   5.456
10701TIP3    H232065   5.059   5.948   5.527
10702TIP3   OH232066   5.261   6.021   5.295
10702TIP3    H132067   5.329   5.960   5.269
10702TIP3    H232068   5.300   6.108   5.282
10703TIP3   OH232069   3.884   5.726   5.645
10703TIP3    H132070   3.795   5.693   5.655
10703TIP3    H232071   3.939   5.648   5.638
10704TIP3   OH232072   3.686   5.625   5.289
10704TIP3    H132073   3.720   5.677   5.216
10704TIP3    H232074   3.657   5.690   5.354
10705TIP3   OH232075   4.356   5.770   5.534
10705TIP3    H132076   4.407   5.817   5.468
10705TIP3    H232077   4.396   5.795   5.617
10706TIP3   OH232078   4.870   5.907   5.495
10706TIP3    H132079   4.883   5.862   5.412
10706TIP3    H232080   4.868   5.838   5.560
10707TIP3   OH232081   4.914   5.856   5.077
10707TIP3    H132082   4.833   5.902   5.099
10707TIP3    H232083   4.904   5.770   5.117
10708TIP3   OH232084   3.384   7.183   5.074
10708TIP3    H132085   3.298   7.153   5.043
10708TIP3    H232086   3.398   7.267   5.029
10709TIP3   OH232087   3.811   5.765   5.059
10709TIP3    H132088   3.856   5.703   5.002
10709TIP3    H232089   3.880   5.820   5.094
10710TIP3   OH232090   4.302   5.959   5.154
10710TIP3    H132091   4.361   5.907   5.209
10710TIP3    H232092   4.316   6.049   5.183
10711TIP3   OH232093   4.183   7.355   4.653
10711TIP3    H132094   4.267   7.383   4.616
10711TIP3    H232095   4.154   7.284   4.595
10712TIP3   OH232096   7.491   0.144   4.741
10712TIP3    H132097   7.484   0.048   4.738
10712TIP3    H232098   7.444   0.174   4.664
10713TIP3   OH232099   1.509   2.332   0.162
10713TIP3    H132100   1.473   2.263   0.218
10713TIP3    H232101   1.602   2.333   0.182
10714TIP3   OH232102   1.761   2.312   0.270
10714TIP3    H132103   1.830   2.280   0.211
10714TIP3    H232104   1.755   2.245   0.338
10715TIP3   OH232105   3.480   7.193   4.702
10715TIP3    H132106   3.475   7.223   4.792
10715TIP3    H232107   3.566   7.151   4.695
10716TIP3   OH232108   2.583   2.421   0.021
10716TIP3    H132109   2.611   2.382   0.103
10716TIP3    H232110   2.664   2.430  -0.030
10717TIP3   OH232111   6.390   6.996   4.697
10717TIP3    H132112   6.364   7.030   4.783
10717TIP3    H232113   6.308   6.968   4.657
10718TIP3   OH232114   6.332   6.972   5.034
10718TIP3    H132115   6.402   6.979   5.098
10718TIP3    H232116   6.295   6.885   5.048
10719TIP3   OH232117   5.630   6.788   5.445
10719TIP3    H132118   5.691   6.769   5.517
10719TIP3    H232119   5.642   6.882   5.428
10720TIP3   OH232120   5.622   7.310   5.172
10720TIP3    H132121   5.618   7.250   5.247
10720TIP3    H232122   5.715   7.311   5.148
10721TIP3   OH232123   5.350   6.499   4.933
10721TIP3    H132124   5.316   6.582   4.967
10721TIP3    H232125   5.275   6.459   4.889
10722TIP3   OH232126   5.430   6.795   5.108
10722TIP3    H132127   5.467   6.718   5.151
10722TIP3    H232128   5.504   6.854   5.097
10723TIP3   OH232129   6.646   6.721   5.068
10723TIP3    H132130   6.647   6.639   5.115
10723TIP3    H232131   6.574   6.713   5.005
10724TIP3   OH232132   5.946   6.388   5.107
10724TIP3    H132133   5.923   6.461   5.050
10724TIP3    H232134   5.891   6.316   5.077
10725TIP3   OH232135   6.629   6.481   4.735
10725TIP3    H132136   6.695   6.467   4.802
10725TIP3    H232137   6.679   6.510   4.658
10726TIP3   OH232138   5.537   6.582   5.238
10726TIP3    H132139   5.613   6.607   5.290
10726TIP3    H232140   5.573   6.531   5.166
10727TIP3   OH232141   6.002   6.791   5.017
10727TIP3    H132142   6.092   6.762   5.032
10727TIP3    H232143   5.955   6.711   4.991
10728TIP3   OH232144   5.929   6.382   5.559
10728TIP3    H132145   5.876   6.420   5.489
10728TIP3    H232146   5.880   6.401   5.639
10729TIP3   OH232147   6.276   7.294   4.533
10729TIP3    H132148   6.233   7.241   4.466
10729TIP3    H232149   6.223   7.373   4.539
10730TIP3   OH232150   6.806   6.466   4.943
10730TIP3    H132151   6.752   6.467   5.022
10730TIP3    H232152   6.875   6.529   4.960
10731TIP3   OH232153   5.805   6.487   5.332
10731TIP3    H132154   5.851   6.567   5.356
10731TIP3    H232155   5.855   6.452   5.259
10732TIP3   OH232156   5.243   7.063   4.679
10732TIP3    H132157   5.207   7.084   4.593
10732TIP3    H232158   5.267   7.148   4.716
10733TIP3   OH232159   6.253   6.089   5.260
10733TIP3    H132160   6.249   5.998   5.289
10733TIP3    H232161   6.179   6.131   5.304
10734TIP3   OH232162   6.549   7.316   4.498
10734TIP3    H132163   6.542   7.269   4.414
10734TIP3    H232164   6.462   7.309   4.537
10735TIP3   OH232165   6.200   6.876   4.528
10735TIP3    H132166   6.117   6.918   4.507
10735TIP3    H232167   6.245   6.867   4.443
10736TIP3   OH232168   6.166   6.659   4.225
10736TIP3    H132169   6.231   6.708   4.275
10736TIP3    H232170   6.216   6.590   4.181
10737TIP3   OH232171   6.557   6.913   4.503
10737TIP3    H132172   6.504   6.945   4.576
10737TIP3    H232173   6.638   6.882   4.544
10738TIP3   OH232174   5.815   6.950   4.891
10738TIP3    H132175   5.766   6.889   4.836
10738TIP3    H232176   5.883   6.896   4.932
10739TIP3   OH232177   5.879   7.346   5.074
10739TIP3    H132178   5.901   7.318   4.985
10739TIP3    H232179   5.960   7.336   5.123
10740TIP3   OH232180   5.979   6.912   5.267
10740TIP3    H132181   5.983   6.882   5.176
10740TIP3    H232182   5.936   6.997   5.263
10741TIP3   OH232183   6.380   6.807   4.322
10741TIP3    H132184   6.446   6.855   4.372
10741TIP3    H232185   6.408   6.815   4.231
10742TIP3   OH232186   0.914   0.179   4.576
10742TIP3    H132187   0.890   0.156   4.666
10742TIP3    H232188   0.831   0.188   4.530
10743TIP3   OH232189   6.906   6.036   4.381
10743TIP3    H132190   6.822   6.047   4.427
10743TIP3    H232191   6.914   6.114   4.326
10744TIP3   OH232192   5.669   6.786   4.701
10744TIP3    H132193   5.589   6.827   4.669
10744TIP3    H232194   5.640   6.701   4.735
10745TIP3   OH232195   1.547   0.080   3.879
10745TIP3    H132196   1.580   0.167   3.855
10745TIP3    H232197   1.626   0.026   3.888
10746TIP3   OH232198   5.423   7.202   5.620
10746TIP3    H132199   5.353   7.209   5.556
10746TIP3    H232200   5.501   7.182   5.569
10747TIP3   OH232201   0.132   0.050   5.260
10747TIP3    H132202   0.204  -0.012   5.254
10747TIP3    H232203   0.076   0.016   5.331
10748TIP3   OH232204   0.720   0.359   4.416
10748TIP3    H132205   0.743   0.316   4.333
10748TIP3    H232206   0.770   0.441   4.415
10749TIP3   OH232207   0.265   0.199   4.787
10749TIP3    H132208   0.310   0.192   4.871
10749TIP3    H232209   0.215   0.118   4.779
10750TIP3   OH232210   1.011   0.268   4.057
10750TIP3    H132211   1.051   0.188   4.024
10750TIP3    H232212   1.047   0.278   4.145
10751TIP3   OH232213   1.004   0.323   4.334
10751TIP3    H132214   0.971   0.297   4.420
10751TIP3    H232215   1.088   0.280   4.327
10752TIP3   OH232216   6.027   6.172   5.403
10752TIP3    H132217   5.939   6.145   5.374
10752TIP3    H232218   6.013   6.253   5.451
10753TIP3   OH232219   6.454   6.794   4.060
10753TIP3    H132220   6.410   6.790   3.975
10753TIP3    H232221   6.539   6.832   4.041
10754TIP3   OH232222   6.177   6.225   4.373
10754TIP3    H132223   6.142   6.230   4.462
10754TIP3    H232224   6.150   6.138   4.343
10755TIP3   OH232225   5.956   6.696   5.430
10755TIP3    H132226   5.911   6.718   5.512
10755TIP3    H232227   5.957   6.778   5.380
10756TIP3   OH232228   5.848   6.578   4.936
10756TIP3    H132229   5.759   6.554   4.965
10756TIP3    H232230   5.855   6.541   4.848
10757TIP3   OH232231   6.319   6.657   4.650
10757TIP3    H132232   6.277   6.735   4.614
10757TIP3    H232233   6.381   6.629   4.582
10758TIP3   OH232234   6.450   6.630   4.893
10758TIP3    H132235   6.395   6.664   4.821
10758TIP3    H232236   6.509   6.568   4.850
10759TIP3   OH232237   5.791   6.715   5.663
10759TIP3    H132238   5.723   6.762   5.711
10759TIP3    H232239   5.798   6.631   5.709
10760TIP3   OH232240   5.848   6.190   4.351
10760TIP3    H132241   5.838   6.191   4.447
10760TIP3    H232242   5.771   6.236   4.319
10761TIP3   OH232243   5.389   6.247   5.225
10761TIP3    H132244   5.460   6.282   5.278
10761TIP3    H232245   5.427   6.237   5.138
10762TIP3   OH232246   5.312   6.217   4.724
10762TIP3    H132247   5.358   6.252   4.647
10762TIP3    H232248   5.251   6.287   4.748
10763TIP3   OH232249   6.208   6.374   4.988
10763TIP3    H132250   6.129   6.376   5.042
10763TIP3    H232251   6.280   6.366   5.050
10764TIP3   OH232252   5.615   6.452   5.007
10764TIP3    H132253   5.526   6.455   4.972
10764TIP3    H232254   5.645   6.363   4.988
10765TIP3   OH232255   5.863   6.454   4.693
10765TIP3    H132256   5.957   6.465   4.682
10765TIP3    H232257   5.826   6.474   4.607
10766TIP3   OH232258   6.641   6.460   5.167
10766TIP3    H132259   6.658   6.445   5.260
10766TIP3    H232260   6.566   6.404   5.147
10767TIP3   OH232261   5.745   6.484   4.448
10767TIP3    H132262   5.682   6.434   4.397
10767TIP3    H232263   5.798   6.530   4.383
10768TIP3   OH232264   6.258   6.704   5.087
10768TIP3    H132265   6.325   6.663   5.033
10768TIP3    H232266   6.260   6.655   5.169
10769TIP3   OH232267   5.762   6.209   4.987
10769TIP3    H132268   5.731   6.135   5.037
10769TIP3    H232269   5.795   6.171   4.905
10770TIP3   OH232270   6.217   6.623   5.375
10770TIP3    H132271   6.124   6.640   5.385
10770TIP3    H232272   6.259   6.700   5.413
10771TIP3   OH232273   5.962   7.008   4.467
10771TIP3    H132274   5.889   6.948   4.452
10771TIP3    H232275   5.943   7.047   4.553
10772TIP3   OH232276   6.431   6.321   4.367
10772TIP3    H132277   6.337   6.301   4.367
10772TIP3    H232278   6.436   6.414   4.385
10773TIP3   OH232279   6.497   6.578   4.445
10773TIP3    H132280   6.592   6.579   4.455
10773TIP3    H232281   6.477   6.657   4.393
10774TIP3   OH232282   5.641   6.958   5.118
10774TIP3    H132283   5.709   6.985   5.056
10774TIP3    H232284   5.657   7.010   5.196
10775TIP3   OH232285   6.123   7.168   4.319
10775TIP3    H132286   6.076   7.252   4.319
10775TIP3    H232287   6.068   7.109   4.370
10776TIP3   OH232288   5.561   6.830   5.775
10776TIP3    H132289   5.529   6.866   5.858
10776TIP3    H232290   5.498   6.860   5.710
10777TIP3   OH232291   6.899   6.622   4.267
10777TIP3    H132292   6.841   6.593   4.196
10777TIP3    H232293   6.919   6.713   4.245
10778TIP3   OH232294   1.502   0.221   4.218
10778TIP3    H132295   1.531   0.206   4.308
10778TIP3    H232296   1.485   0.134   4.184
10779TIP3   OH232297   0.572   0.005   4.773
10779TIP3    H132298   0.555   0.083   4.719
10779TIP3    H232299   0.489  -0.015   4.815
10780TIP3   OH232300   5.344   6.643   4.499
10780TIP3    H132301   5.389   6.724   4.522
10780TIP3    H232302   5.264   6.644   4.553
10781TIP3   OH232303   5.895   7.126   4.699
10781TIP3    H132304   5.859   7.211   4.724
10781TIP3    H232305   5.872   7.068   4.771
10782TIP3   OH232306   0.491   0.232   4.636
10782TIP3    H132307   0.404   0.231   4.676
10782TIP3    H232308   0.521   0.322   4.648
10783TIP3   OH232309   6.387   7.177   4.091
10783TIP3    H132310   6.416   7.143   4.175
10783TIP3    H232311   6.295   7.150   4.084
10784TIP3   OH232312   1.609   0.336   3.811
10784TIP3    H132313   1.702   0.353   3.798
10784TIP3    H232314   1.582   0.398   3.879
10785TIP3   OH232315   5.781   6.446   5.785
10785TIP3    H132316   5.686   6.440   5.791
10785TIP3    H232317   5.813   6.387   5.853
10786TIP3   OH232318   6.534   7.105   4.310
10786TIP3    H132319   6.520   7.050   4.387
10786TIP3    H232320   6.628   7.102   4.295
10787TIP3   OH232321   5.764   7.185   4.102
10787TIP3    H132322   5.775   7.094   4.074
10787TIP3    H232323   5.745   7.179   4.195
10788TIP3   OH232324   5.709   7.197   4.373
10788TIP3    H132325   5.777   7.167   4.432
10788TIP3    H232326   5.708   7.292   4.383
10789TIP3   OH232327   5.441   6.893   4.583
10789TIP3    H132328   5.375   6.939   4.636
10789TIP3    H232329   5.459   6.952   4.510
10790TIP3   OH232330   6.484   6.266   4.637
10790TIP3    H132331   6.465   6.281   4.544
10790TIP3    H232332   6.524   6.347   4.667
10791TIP3   OH232333   0.780   0.046   4.325
10791TIP3    H132334   0.691   0.065   4.353
10791TIP3    H232335   0.795   0.104   4.250
10792TIP3   OH232336   6.143   6.463   4.732
10792TIP3    H132337   6.203   6.532   4.704
10792TIP3    H232338   6.165   6.447   4.824
10793TIP3   OH232339   6.305   6.164   4.822
10793TIP3    H132340   6.283   6.243   4.872
10793TIP3    H232341   6.373   6.192   4.760
10794TIP3   OH232342   0.523   0.114   4.390
10794TIP3    H132343   0.492   0.178   4.325
10794TIP3    H232344   0.513   0.160   4.474
10795TIP3   OH232345   5.820   6.183   4.629
10795TIP3    H132346   5.807   6.272   4.660
10795TIP3    H232347   5.914   6.168   4.634
10796TIP3   OH232348   5.459   7.074   4.368
10796TIP3    H132349   5.531   7.136   4.378
10796TIP3    H232350   5.492   7.010   4.304
10797TIP3   OH232351   5.374   6.365   4.500
10797TIP3    H132352   5.387   6.460   4.508
10797TIP3    H232353   5.303   6.356   4.436
10798TIP3   OH232354   5.763   6.091   5.370
10798TIP3    H132355   5.735   6.059   5.285
10798TIP3    H232356   5.761   6.014   5.427
10799TIP3   OH232357   0.094  -0.024   4.762
10799TIP3    H132358   0.051   0.013   4.839
10799TIP3    H232359   0.053   0.020   4.688
10800TIP3   OH232360   5.922   7.387   4.005
10800TIP3    H132361   5.872   7.315   4.043
10800TIP3    H232362   5.992   7.344   3.956
10801TIP3   OH232363   1.119   0.048   3.946
10801TIP3    H132364   1.160  -0.017   4.003
10801TIP3    H232365   1.192   0.099   3.911
10802TIP3   OH232366   5.587   6.884   4.220
10802TIP3    H132367   5.637   6.859   4.297
10802TIP3    H232368   5.654   6.896   4.151
10803TIP3   OH232369   6.125   7.098   4.051
10803TIP3    H132370   6.108   7.112   4.144
10803TIP3    H232371   6.112   7.004   4.038
10804TIP3   OH232372   5.760   6.823   4.433
10804TIP3    H132373   5.739   6.794   4.522
10804TIP3    H232374   5.805   6.748   4.393
10805TIP3   OH232375   5.894   6.635   4.275
10805TIP3    H132376   5.866   6.639   4.184
10805TIP3    H232377   5.989   6.638   4.271
10806TIP3   OH232378   6.674   6.905   3.943
10806TIP3    H132379   6.666   6.858   3.860
10806TIP3    H232380   6.649   6.995   3.922
10807TIP3   OH232381   6.205   6.410   5.567
10807TIP3    H132382   6.221   6.477   5.500
10807TIP3    H232383   6.110   6.408   5.577
10808TIP3   OH232384   6.324   6.167   5.626
10808TIP3    H132385   6.298   6.259   5.614
10808TIP3    H232386   6.242   6.121   5.644
10809TIP3   OH232387   0.488   0.304   4.194
10809TIP3    H132388   0.580   0.293   4.173
10809TIP3    H232389   0.453   0.356   4.121
10810TIP3   OH232390   5.186   7.064   4.387
10810TIP3    H132391   5.280   7.078   4.384
10810TIP3    H232392   5.172   6.977   4.350
10811TIP3   OH232393   7.699   0.296   4.833
10811TIP3    H132394   7.632   0.245   4.789
10811TIP3    H232395   7.742   0.235   4.892
10812TIP3   OH232396   0.038   0.130   5.000
10812TIP3    H132397   0.034   0.071   5.075
10812TIP3    H232398   0.091   0.204   5.031
10813TIP3   OH232399   6.807   7.068   4.304
10813TIP3    H132400   6.858   7.144   4.277
10813TIP3    H232401   6.841   7.045   4.391
10814TIP3   OH232402   6.888   6.860   4.127
10814TIP3    H132403   6.817   6.861   4.064
10814TIP3    H232404   6.867   6.931   4.188
10815TIP3   OH232405   6.741   6.550   4.055
10815TIP3    H132406   6.693   6.576   3.977
10815TIP3    H232407   6.743   6.455   4.053
10816TIP3   OH232408   6.771   6.803   4.641
10816TIP3    H132409   6.787   6.716   4.605
10816TIP3    H232410   6.763   6.789   4.736
10817TIP3   OH232411   5.380   6.945   5.340
10817TIP3    H132412   5.390   6.892   5.261
10817TIP3    H232413   5.464   6.991   5.349
10818TIP3   OH232414   6.724   6.277   4.037
10818TIP3    H132415   6.787   6.255   4.106
10818TIP3    H232416   6.641   6.241   4.068
10819TIP3   OH232417   6.785   6.555   4.510
10819TIP3    H132418   6.827   6.471   4.529
10819TIP3    H232419   6.826   6.585   4.429
10820TIP3   OH232420   5.613   6.586   6.006
10820TIP3    H132421   5.701   6.591   6.044
10820TIP3    H232422   5.584   6.497   6.025
10821TIP3   OH232423   6.900   6.312   4.570
10821TIP3    H132424   6.947   6.298   4.652
10821TIP3    H232425   6.839   6.239   4.564
10822TIP3   OH232426   5.594   6.311   5.404
10822TIP3    H132427   5.652   6.234   5.403
10822TIP3    H232428   5.651   6.384   5.381
10823TIP3   OH232429   5.353   6.647   5.452
10823TIP3    H132430   5.365   6.583   5.383
10823TIP3    H232431   5.436   6.695   5.455
10824TIP3   OH232432   6.948   6.239   4.199
10824TIP3    H132433   6.991   6.174   4.143
10824TIP3    H232434   7.010   6.311   4.206
10825TIP3   OH232435   5.374   6.080   4.952
10825TIP3    H132436   5.286   6.070   4.990
10825TIP3    H232437   5.360   6.137   4.876
10826TIP3   OH232438   5.601   6.141   5.751
10826TIP3    H132439   5.550   6.130   5.832
10826TIP3    H232440   5.540   6.183   5.691
10827TIP3   OH232441   0.205   0.297   5.153
10827TIP3    H132442   0.185   0.224   5.211
10827TIP3    H232443   0.289   0.274   5.113
10828TIP3   OH232444   0.414   0.174   5.016
10828TIP3    H132445   0.402   0.096   5.070
10828TIP3    H232446   0.509   0.187   5.012
10829TIP3   OH232447   6.436   6.273   5.124
10829TIP3    H132448   6.383   6.207   5.167
10829TIP3    H232449   6.496   6.223   5.068
10830TIP3   OH232450   6.952   6.187   5.011
10830TIP3    H132451   7.002   6.230   4.942
10830TIP3    H232452   6.873   6.240   5.019
10831TIP3   OH232453   7.073   6.284   4.786
10831TIP3    H132454   7.134   6.218   4.754
10831TIP3    H232455   7.115   6.367   4.766
10832TIP3   OH232456   5.680   5.986   5.129
10832TIP3    H132457   5.590   5.954   5.137
10832TIP3    H232458   5.732   5.906   5.120
10833TIP3   OH232459   5.483   5.882   4.777
10833TIP3    H132460   5.517   5.932   4.703
10833TIP3    H232461   5.455   5.948   4.840
10834TIP3   OH232462   6.141   6.034   5.008
10834TIP3    H132463   6.194   6.076   4.940
10834TIP3    H232464   6.179   6.064   5.090
10835TIP3   OH232465   6.627   6.144   4.968
10835TIP3    H132466   6.654   6.173   4.881
10835TIP3    H232467   6.660   6.054   4.975
10836TIP3   OH232468   6.708   6.112   4.566
10836TIP3    H132469   6.625   6.157   4.582
10836TIP3    H232470   6.695   6.024   4.600
10837TIP3   OH232471   7.784   0.100   4.545
10837TIP3    H132472   7.700   0.064   4.517
10837TIP3    H232473   7.782   0.191   4.514
10838TIP3   OH232474   5.607   6.016   4.544
10838TIP3    H132475   5.654   5.954   4.488
10838TIP3    H232476   5.676   6.072   4.580
10839TIP3   OH232477   6.094   6.211   4.637
10839TIP3    H132478   6.155   6.157   4.687
10839TIP3    H232479   6.110   6.300   4.668
10840TIP3   OH232480   0.753   0.268   4.136
10840TIP3    H132481   0.846   0.284   4.115
10840TIP3    H232482   0.729   0.194   4.080
10841TIP3   OH232483   5.893   6.261   5.986
10841TIP3    H132484   5.868   6.195   6.051
10841TIP3    H232485   5.970   6.304   6.025
10842TIP3   OH232486   0.081   0.100   4.199
10842TIP3    H132487   0.083   0.105   4.294
10842TIP3    H232488   0.162   0.055   4.175
10843TIP3   OH232489   7.110   6.809   4.418
10843TIP3    H132490   7.186   6.864   4.401
10843TIP3    H232491   7.142   6.720   4.407
10844TIP3   OH232492   0.169   6.432   3.940
10844TIP3    H132493   0.239   6.441   3.876
10844TIP3    H232494   0.101   6.383   3.895
10845TIP3   OH232495   7.621   6.453   3.801
10845TIP3    H132496   7.616   6.452   3.897
10845TIP3    H232497   7.547   6.506   3.773
10846TIP3   OH232498   7.217   6.487   4.672
10846TIP3    H132499   7.310   6.508   4.683
10846TIP3    H232500   7.213   6.433   4.593
10847TIP3   OH232501   7.115   6.459   4.222
10847TIP3    H132502   7.157   6.492   4.142
10847TIP3    H232503   7.044   6.521   4.239
10848TIP3   OH232504   7.523   6.696   3.969
10848TIP3    H132505   7.452   6.685   3.905
10848TIP3    H232506   7.546   6.789   3.962
10849TIP3   OH232507   7.142   6.851   4.000
10849TIP3    H132508   7.183   6.938   4.002
10849TIP3    H232509   7.060   6.863   4.048
10850TIP3   OH232510   7.593   6.452   4.077
10850TIP3    H132511   7.567   6.543   4.062
10850TIP3    H232512   7.659   6.457   4.147
10851TIP3   OH232513   7.176   6.581   3.989
10851TIP3    H132514   7.179   6.676   4.004
10851TIP3    H232515   7.112   6.570   3.919
10852TIP3   OH232516   7.003   7.328   3.847
10852TIP3    H132517   7.085   7.347   3.892
10852TIP3    H232518   7.000   7.233   3.842
10853TIP3   OH232519   7.162   6.327   4.451
10853TIP3    H132520   7.072   6.311   4.480
10853TIP3    H232521   7.152   6.379   4.371
10854TIP3   OH232522   7.469   6.241   4.593
10854TIP3    H132523   7.381   6.209   4.611
10854TIP3    H232524   7.524   6.163   4.598
10855TIP3   OH232525   7.273   6.131   4.265
10855TIP3    H132526   7.306   6.182   4.191
10855TIP3    H232527   7.251   6.197   4.331
10856TIP3   OH232528   7.390   6.266   4.029
10856TIP3    H132529   7.435   6.204   3.972
10856TIP3    H232530   7.457   6.329   4.055
10857TIP3   OH232531   1.162   7.081   5.553
10857TIP3    H132532   1.077   7.094   5.594
10857TIP3    H232533   1.182   7.165   5.512
10858TIP3   OH232534   3.858   0.317   5.503
10858TIP3    H132535   3.782   0.269   5.470
10858TIP3    H232536   3.831   0.350   5.589
10859TIP3   OH232537   3.654   0.212   5.330
10859TIP3    H132538   3.721   0.203   5.263
10859TIP3    H232539   3.611   0.126   5.334
10860TIP3   OH232540   0.939   7.312   5.291
10860TIP3    H132541   1.024   7.277   5.318
10860TIP3    H232542   0.877   7.241   5.310
10861TIP3   OH232543   1.112   7.352   5.706
10861TIP3    H132544   1.158   7.333   5.788
10861TIP3    H232545   1.039   7.290   5.705
10862TIP3   OH232546   1.208   7.288   5.345
10862TIP3    H132547   1.252   7.213   5.306
10862TIP3    H232548   1.279   7.350   5.364
10863TIP3   OH232549   1.263   7.275   5.930
10863TIP3    H132550   1.342   7.233   5.895
10863TIP3    H232551   1.295   7.353   5.975
10864TIP3   OH232552   0.930   7.144   5.697
10864TIP3    H132553   0.848   7.143   5.650
10864TIP3    H232554   0.924   7.070   5.757
10865TIP3   OH232555   5.834   0.463   5.794
10865TIP3    H132556   5.874   0.541   5.831
10865TIP3    H232557   5.865   0.460   5.703
10866TIP3   OH232558   5.105   0.659   5.858
10866TIP3    H132559   5.192   0.657   5.899
10866TIP3    H232560   5.123   0.653   5.764
10867TIP3   OH232561   4.688   0.328   5.764
10867TIP3    H132562   4.611   0.361   5.718
10867TIP3    H232563   4.663   0.240   5.792
10868TIP3   OH232564   5.307   0.426   5.415
10868TIP3    H132565   5.372   0.405   5.483
10868TIP3    H232566   5.357   0.424   5.333
10869TIP3   OH232567   5.941   0.675   5.939
10869TIP3    H132568   5.927   0.758   5.892
10869TIP3    H232569   5.883   0.681   6.015
10870TIP3   OH232570   5.511   0.395   5.588
10870TIP3    H132571   5.555   0.332   5.644
10870TIP3    H232572   5.564   0.474   5.595
10871TIP3   OH232573   5.617   0.431   5.964
10871TIP3    H132574   5.534   0.404   5.924
10871TIP3    H232575   5.681   0.428   5.893
10872TIP3   OH232576   5.545  -0.029   5.031
10872TIP3    H132577   5.466  -0.011   5.084
10872TIP3    H232578   5.563   0.054   4.987
10873TIP3   OH232579   5.258   0.228   6.210
10873TIP3    H132580   5.338   0.213   6.260
10873TIP3    H232581   5.187   0.220   6.274
10874TIP3   OH232582   4.853   0.068   5.066
10874TIP3    H132583   4.807   0.081   5.149
10874TIP3    H232584   4.799   0.007   5.017
10875TIP3   OH232585   4.501   0.501   5.663
10875TIP3    H132586   4.426   0.556   5.686
10875TIP3    H232587   4.479   0.465   5.577
10876TIP3   OH232588   5.164   0.605   5.587
10876TIP3    H132589   5.094   0.659   5.550
10876TIP3    H232590   5.186   0.543   5.517
10877TIP3   OH232591   4.508   0.154   5.008
10877TIP3    H132592   4.500   0.160   5.103
10877TIP3    H232593   4.422   0.178   4.975
10878TIP3   OH232594   4.001   0.133   5.348
10878TIP3    H132595   4.096   0.141   5.352
10878TIP3    H232596   3.969   0.196   5.413
10879TIP3   OH232597   4.180   0.394   5.777
10879TIP3    H132598   4.126   0.447   5.718
10879TIP3    H232599   4.240   0.347   5.719
10880TIP3   OH232600   4.509   0.412   5.398
10880TIP3    H132601   4.572   0.381   5.333
10880TIP3    H232602   4.435   0.445   5.347
10881TIP3   OH232603   5.359   0.342   5.901
10881TIP3    H132604   5.310   0.314   5.978
10881TIP3    H232605   5.337   0.277   5.834
10882TIP3   OH232606   4.495   0.124   5.649
10882TIP3    H132607   4.436   0.068   5.699
10882TIP3    H232608   4.578   0.077   5.650
10883TIP3   OH232609   5.061   0.235   5.058
10883TIP3    H132610   4.984   0.179   5.059
10883TIP3    H232611   5.026   0.324   5.056
10884TIP3   OH232612   5.188   0.499   5.148
10884TIP3    H132613   5.280   0.473   5.149
10884TIP3    H232614   5.185   0.575   5.090
10885TIP3   OH232615   5.608   0.595   5.023
10885TIP3    H132616   5.607   0.547   4.940
10885TIP3    H232617   5.682   0.655   5.016
10886TIP3   OH232618   5.152   0.206   5.316
10886TIP3    H132619   5.127   0.224   5.226
10886TIP3    H232620   5.193   0.287   5.346
10887TIP3   OH232621   4.817   0.316   5.423
10887TIP3    H132622   4.883   0.366   5.375
10887TIP3    H232623   4.789   0.374   5.493
10888TIP3   OH232624   4.964   0.090   5.482
10888TIP3    H132625   4.907   0.167   5.482
10888TIP3    H232626   5.039   0.115   5.428
10889TIP3   OH232627   4.455   0.129   5.288
10889TIP3    H132628   4.440   0.164   5.376
10889TIP3    H232629   4.548   0.106   5.287
10890TIP3   OH232630   5.705   0.612   6.157
10890TIP3    H132631   5.631   0.649   6.205
10890TIP3    H232632   5.668   0.540   6.106
10891TIP3   OH232633   4.034   0.307   5.086
10891TIP3    H132634   4.030   0.360   5.165
10891TIP3    H232635   3.963   0.243   5.097
10892TIP3   OH232636   4.405   0.046   6.050
10892TIP3    H132637   4.381   0.024   5.961
10892TIP3    H232638   4.408  -0.038   6.096
10893TIP3   OH232639   5.500   0.493   4.794
10893TIP3    H132640   5.538   0.447   4.719
10893TIP3    H232641   5.430   0.436   4.824
10894TIP3   OH232642   5.332   0.269   4.799
10894TIP3    H132643   5.418   0.235   4.822
10894TIP3    H232644   5.272   0.196   4.814
10895TIP3   OH232645   5.450   0.437   5.181
10895TIP3    H132646   5.499   0.356   5.194
10895TIP3    H232647   5.514   0.499   5.146
10896TIP3   OH232648   5.642   0.635   5.618
10896TIP3    H132649   5.712   0.693   5.588
10896TIP3    H232650   5.633   0.652   5.711
10897TIP3   OH232651   0.903   4.114   0.103
10897TIP3    H132652   0.954   4.048   0.057
10897TIP3    H232653   0.871   4.173   0.035
10898TIP3   OH232654   5.563   0.202   5.246
10898TIP3    H132655   5.603   0.186   5.332
10898TIP3    H232656   5.494   0.136   5.240
10899TIP3   OH232657   5.949   0.544   6.268
10899TIP3    H132658   5.869   0.592   6.247
10899TIP3    H232659   5.941   0.461   6.220
10900TIP3   OH232660   5.586   0.186   4.858
10900TIP3    H132661   5.621   0.122   4.796
10900TIP3    H232662   5.657   0.249   4.871
10901TIP3   OH232663   1.368   7.325   5.598
10901TIP3    H132664   1.275   7.330   5.618
10901TIP3    H232665   1.409   7.388   5.657
10902TIP3   OH232666   5.874   0.290   6.165
10902TIP3    H132667   5.786   0.269   6.132
10902TIP3    H232668   5.923   0.209   6.154
10903TIP3   OH232669   5.591   0.166   5.733
10903TIP3    H132670   5.632   0.155   5.647
10903TIP3    H232671   5.497   0.155   5.716
10904TIP3   OH232672   5.703   0.156   5.484
10904TIP3    H132673   5.772   0.107   5.439
10904TIP3    H232674   5.737   0.244   5.493
10905TIP3   OH232675   1.739   7.294   5.795
10905TIP3    H132676   1.647   7.268   5.803
10905TIP3    H232677   1.787   7.212   5.793
10906TIP3   OH232678   1.530   7.170   5.430
10906TIP3    H132679   1.564   7.227   5.360
10906TIP3    H232680   1.478   7.228   5.485
10907TIP3   OH232681   4.762   0.001   5.683
10907TIP3    H132682   4.842   0.017   5.632
10907TIP3    H232683   4.787   0.021   5.773
10908TIP3   OH232684   5.318   0.153   5.699
10908TIP3    H132685   5.278   0.143   5.612
10908TIP3    H232686   5.304   0.069   5.741
10909TIP3   OH232687   5.350   0.033   5.221
10909TIP3    H132688   5.276   0.087   5.248
10909TIP3    H232689   5.336  -0.050   5.265
10910TIP3   OH232690   1.660   7.307   5.214
10910TIP3    H132691   1.706   7.243   5.159
10910TIP3    H232692   1.728   7.369   5.241
10911TIP3   OH232693   4.720   0.094   5.304
10911TIP3    H132694   4.758   0.022   5.354
10911TIP3    H232695   4.753   0.174   5.347
10912TIP3   OH232696   7.611   0.718   5.310
10912TIP3    H132697   7.584   0.800   5.353
10912TIP3    H232698   7.633   0.744   5.221
10913TIP3   OH232699   7.067   0.979   5.478
10913TIP3    H132700   7.139   0.947   5.423
10913TIP3    H232701   6.990   0.972   5.422
10914TIP3   OH232702   6.401   0.535   5.288
10914TIP3    H132703   6.337   0.518   5.218
10914TIP3    H232704   6.415   0.450   5.329
10915TIP3   OH232705   7.106   0.657   4.891
10915TIP3    H132706   7.166   0.640   4.964
10915TIP3    H232707   7.163   0.675   4.817
10916TIP3   OH232708   6.028   0.746   5.405
10916TIP3    H132709   6.109   0.705   5.437
10916TIP3    H232710   6.002   0.691   5.331
10917TIP3   OH232711   6.384   0.541   5.739
10917TIP3    H132712   6.323   0.572   5.672
10917TIP3    H232713   6.336   0.552   5.821
10918TIP3   OH232714   7.291   0.631   5.086
10918TIP3    H132715   7.275   0.592   5.171
10918TIP3    H232716   7.369   0.685   5.099
10919TIP3   OH232717   6.258   0.666   5.532
10919TIP3    H132718   6.267   0.741   5.590
10919TIP3    H232719   6.333   0.672   5.473
10920TIP3   OH232720   7.398   0.615   5.454
10920TIP3    H132721   7.321   0.643   5.405
10920TIP3    H232722   7.472   0.645   5.402
10921TIP3   OH232723   6.712   0.283   5.429
10921TIP3    H132724   6.705   0.190   5.451
10921TIP3    H232725   6.634   0.322   5.468
10922TIP3   OH232726   7.344   0.233   4.523
10922TIP3    H132727   7.266   0.250   4.577
10922TIP3    H232728   7.360   0.315   4.477
10923TIP3   OH232729   6.473   0.368   5.544
10923TIP3    H132730   6.385   0.335   5.528
10923TIP3    H232731   6.462   0.437   5.609
10924TIP3   OH232732   7.000   0.479   5.768
10924TIP3    H132733   7.071   0.449   5.825
10924TIP3    H232734   6.921   0.447   5.811
10925TIP3   OH232735   6.651   0.345   4.553
10925TIP3    H132736   6.607   0.354   4.637
10925TIP3    H232737   6.605   0.274   4.508
10926TIP3   OH232738   6.190   0.841   5.040
10926TIP3    H132739   6.241   0.845   5.121
10926TIP3    H232740   6.255   0.825   4.971
10927TIP3   OH232741   6.970   0.863   5.030
10927TIP3    H132742   6.949   0.929   4.964
10927TIP3    H232743   7.001   0.787   4.980
10928TIP3   OH232744   6.221   0.818   5.756
10928TIP3    H132745   6.233   0.899   5.806
10928TIP3    H232746   6.229   0.748   5.821
10929TIP3   OH232747   6.330   0.391   4.506
10929TIP3    H132748   6.324   0.394   4.601
10929TIP3    H232749   6.248   0.431   4.475
10930TIP3   OH232750   5.830   0.391   5.488
10930TIP3    H132751   5.913   0.434   5.508
10930TIP3    H232752   5.820   0.402   5.394
10931TIP3   OH232753   5.807   0.387   4.863
10931TIP3    H132754   5.859   0.373   4.784
10931TIP3    H232755   5.803   0.482   4.873
10932TIP3   OH232756   6.655   0.519   5.160
10932TIP3    H132757   6.575   0.528   5.213
10932TIP3    H232758   6.726   0.530   5.223
10933TIP3   OH232759   5.947   0.624   5.179
10933TIP3    H132760   5.905   0.692   5.127
10933TIP3    H232761   6.019   0.593   5.123
10934TIP3   OH232762   6.286   0.625   4.848
10934TIP3    H132763   6.363   0.638   4.792
10934TIP3    H232764   6.216   0.672   4.804
10935TIP3   OH232765   7.118   0.644   5.370
10935TIP3    H132766   7.102   0.665   5.462
10935TIP3    H232767   7.046   0.586   5.346
10936TIP3   OH232768   6.864   0.917   5.305
10936TIP3    H132769   6.873   0.903   5.211
10936TIP3    H232770   6.824   0.836   5.337
10937TIP3   OH232771   6.308   0.303   5.144
10937TIP3    H132772   6.238   0.262   5.194
10937TIP3    H232773   6.271   0.319   5.057
10938TIP3   OH232774   6.676   0.822   5.518
10938TIP3    H132775   6.597   0.859   5.557
10938TIP3    H232776   6.743   0.834   5.585
10939TIP3   OH232777   6.884   0.481   4.546
10939TIP3    H132778   6.793   0.450   4.547
10939TIP3    H232779   6.877   0.576   4.554
10940TIP3   OH232780   6.993   0.742   4.616
10940TIP3    H132781   7.087   0.738   4.632
10940TIP3    H232782   6.980   0.822   4.565
10941TIP3   OH232783   7.473   0.864   4.484
10941TIP3    H132784   7.406   0.852   4.417
10941TIP3    H232785   7.485   0.959   4.489
10942TIP3   OH232786   6.212   0.616   5.940
10942TIP3    H132787   6.116   0.619   5.946
10942TIP3    H232788   6.239   0.568   6.018
10943TIP3   OH232789   7.080   0.700   5.637
10943TIP3    H132790   7.159   0.725   5.684
10943TIP3    H232791   7.050   0.621   5.682
10944TIP3   OH232792   6.943   0.446   4.813
10944TIP3    H132793   6.921   0.463   4.721
10944TIP3    H232794   6.983   0.528   4.843
10945TIP3   OH232795   6.586   0.608   4.912
10945TIP3    H132796   6.669   0.642   4.879
10945TIP3    H232797   6.603   0.587   5.004
10946TIP3   OH232798   6.859   0.852   5.712
10946TIP3    H132799   6.896   0.934   5.745
10946TIP3    H232800   6.935   0.801   5.684
10947TIP3   OH232801   6.753   0.338   4.977
10947TIP3    H132802   6.729   0.411   5.034
10947TIP3    H232803   6.821   0.374   4.920
10948TIP3   OH232804   6.266   0.361   4.784
10948TIP3    H132805   6.260   0.453   4.813
10948TIP3    H232806   6.358   0.339   4.795
10949TIP3   OH232807   5.850   0.493   4.596
10949TIP3    H132808   5.845   0.562   4.530
10949TIP3    H232809   5.760   0.462   4.607
10950TIP3   OH232810   6.213   0.282   5.528
10950TIP3    H132811   6.179   0.254   5.443
10950TIP3    H232812   6.203   0.205   5.584
10951TIP3   OH232813   6.667   0.779   6.018
10951TIP3    H132814   6.725   0.711   5.983
10951TIP3    H232815   6.609   0.800   5.945
10952TIP3   OH232816   6.651   0.607   5.745
10952TIP3    H132817   6.672   0.684   5.692
10952TIP3    H232818   6.555   0.605   5.746
10953TIP3   OH232819   6.419   0.930   6.133
10953TIP3    H132820   6.350   0.871   6.162
10953TIP3    H232821   6.500   0.891   6.168
10954TIP3   OH232822   6.755   0.386   5.851
10954TIP3    H132823   6.719   0.465   5.810
10954TIP3    H232824   6.688   0.319   5.837
10955TIP3   OH232825   6.250   0.736   6.239
10955TIP3    H132826   6.262   0.645   6.214
10955TIP3    H232827   6.319   0.753   6.303
10956TIP3   OH232828   6.829   0.469   6.102
10956TIP3    H132829   6.882   0.395   6.132
10956TIP3    H232830   6.798   0.443   6.016
10957TIP3   OH232831   7.514   3.443   1.735
10957TIP3    H132832   7.600   3.425   1.697
10957TIP3    H232833   7.514   3.538   1.751
10958TIP3   OH232834   7.302   0.743   4.288
10958TIP3    H132835   7.372   0.704   4.236
10958TIP3    H232836   7.235   0.675   4.293
10959TIP3   OH232837   7.155   0.504   4.255
10959TIP3    H132838   7.231   0.466   4.299
10959TIP3    H232839   7.084   0.442   4.271
10960TIP3   OH232840   7.273   0.731   4.648
10960TIP3    H132841   7.303   0.641   4.663
10960TIP3    H232842   7.354   0.782   4.639
10961TIP3   OH232843   7.427   0.875   5.142
10961TIP3    H132844   7.416   0.879   5.047
10961TIP3    H232845   7.338   0.874   5.177
10962TIP3   OH232846   7.361   0.485   4.717
10962TIP3    H132847   7.404   0.476   4.802
10962TIP3    H232848   7.294   0.417   4.717
10963TIP3   OH232849   6.055   0.493   5.601
10963TIP3    H132850   6.107   0.414   5.587
10963TIP3    H232851   6.115   0.566   5.583
10964TIP3   OH232852   7.407   0.442   4.355
10964TIP3    H132853   7.444   0.374   4.297
10964TIP3    H232854   7.473   0.511   4.356
10965TIP3   OH232855   5.802   0.187   5.064
10965TIP3    H132856   5.745   0.202   5.140
10965TIP3    H232857   5.812   0.272   5.023
10966TIP3   OH232858   6.038   0.340   5.940
10966TIP3    H132859   5.984   0.335   6.018
10966TIP3    H232860   5.978   0.370   5.871
10967TIP3   OH232861   6.900   0.476   5.292
10967TIP3    H132862   6.858   0.401   5.334
10967TIP3    H232863   6.967   0.438   5.235
10968TIP3   OH232864   7.397   0.373   5.158
10968TIP3    H132865   7.435   0.430   5.091
10968TIP3    H232866   7.302   0.389   5.152
10969TIP3   OH232867   7.525   0.482   4.938
10969TIP3    H132868   7.593   0.421   4.909
10969TIP3    H232869   7.560   0.568   4.917
10970TIP3   OH232870   6.116   0.175   5.294
10970TIP3    H132871   6.025   0.146   5.295
10970TIP3    H232872   6.168   0.095   5.288
10971TIP3   OH232873   5.943   0.034   4.891
10971TIP3    H132874   5.974   0.097   4.826
10971TIP3    H232875   5.894   0.087   4.954
10972TIP3   OH232876   6.622   0.195   5.179
10972TIP3    H132877   6.653   0.250   5.107
10972TIP3    H232878   6.656   0.238   5.258
10973TIP3   OH232879   7.111   0.363   5.147
10973TIP3    H132880   7.109   0.323   5.060
10973TIP3    H232881   7.113   0.289   5.208
10974TIP3   OH232882   7.158   0.300   4.716
10974TIP3    H132883   7.079   0.348   4.742
10974TIP3    H232884   7.147   0.213   4.755
10975TIP3   OH232885   6.064   0.200   4.701
10975TIP3    H132886   6.116   0.135   4.653
10975TIP3    H232887   6.129   0.260   4.737
10976TIP3   OH232888   6.535   0.367   4.800
10976TIP3    H132889   6.594   0.319   4.858
10976TIP3    H232890   6.542   0.458   4.828
10977TIP3   OH232891   6.343   0.485   6.150
10977TIP3    H132892   6.352   0.415   6.215
10977TIP3    H232893   6.430   0.523   6.144
10978TIP3   OH232894   6.626   0.544   6.273
10978TIP3    H132895   6.704   0.541   6.217
10978TIP3    H232896   6.600   0.453   6.282
10979TIP3   OH232897   4.715   7.098   5.859
10979TIP3    H132898   4.643   7.074   5.916
10979TIP3    H232899   4.704   7.192   5.845
10980TIP3   OH232900   0.566   0.688   3.955
10980TIP3    H132901   0.609   0.699   4.040
10980TIP3    H232902   0.539   0.596   3.953
10981TIP3   OH232903   0.266   1.067   4.568
10981TIP3    H132904   0.183   1.037   4.603
10981TIP3    H232905   0.304   0.991   4.525
10982TIP3   OH232906   0.257   0.651   3.975
10982TIP3    H132907   0.255   0.653   4.071
10982TIP3    H232908   0.183   0.704   3.948
10983TIP3   OH232909   7.631   0.714   4.821
10983TIP3    H132910   7.710   0.733   4.872
10983TIP3    H232911   7.661   0.655   4.752
10984TIP3   OH232912   7.593   0.650   4.361
10984TIP3    H132913   7.645   0.679   4.286
10984TIP3    H232914   7.565   0.732   4.403
10985TIP3   OH232915   0.058   0.894   4.626
10985TIP3    H132916  -0.028   0.864   4.655
10985TIP3    H232917   0.109   0.814   4.614
10986TIP3   OH232918   0.324   0.869   4.376
10986TIP3    H132919   0.420   0.870   4.371
10986TIP3    H232920   0.296   0.926   4.305
10987TIP3   OH232921   0.197   0.656   4.604
10987TIP3    H132922   0.174   0.580   4.657
10987TIP3    H232923   0.272   0.627   4.552
10988TIP3   OH232924   0.880   0.745   3.970
10988TIP3    H132925   0.828   0.675   4.010
10988TIP3    H232926   0.821   0.820   3.969
10989TIP3   OH232927   0.242   0.630   4.255
10989TIP3    H132928   0.242   0.710   4.307
10989TIP3    H232929   0.316   0.579   4.288
10990TIP3   OH232930   7.588   0.833   4.115
10990TIP3    H132931   7.659   0.845   4.052
10990TIP3    H232932   7.545   0.752   4.087
10991TIP3   OH232933   0.197   0.545   5.010
10991TIP3    H132934   0.184   0.508   4.923
10991TIP3    H232935   0.205   0.469   5.068
10992TIP3   OH232936   1.177   0.761   3.688
10992TIP3    H132937   1.164   0.707   3.766
10992TIP3    H232938   1.163   0.701   3.615
10993TIP3   OH232939   0.044   0.768   4.981
10993TIP3    H132940   0.098   0.692   5.000
10993TIP3    H232941   0.103   0.843   4.994
10994TIP3   OH232942   7.620   0.530   4.606
10994TIP3    H132943   7.531   0.507   4.632
10994TIP3    H232944   7.610   0.578   4.524
10995TIP3   OH232945   0.130   0.437   4.761
10995TIP3    H132946   0.040   0.407   4.769
10995TIP3    H232947   0.182   0.356   4.758
10996TIP3   OH232948   7.717   0.336   4.413
10996TIP3    H132949   7.750   0.386   4.339
10996TIP3    H232950   7.700   0.401   4.481
10997TIP3   OH232951   0.550   0.495   4.694
10997TIP3    H132952   0.602   0.544   4.630
10997TIP3    H232953   0.502   0.563   4.742
10998TIP3   OH232954   1.078   0.555   4.188
10998TIP3    H132955   1.007   0.619   4.189
10998TIP3    H232956   1.047   0.483   4.244
10999TIP3   OH232957   0.030   0.469   4.178
10999TIP3    H132958   0.076   0.405   4.125
10999TIP3    H232959   0.099   0.526   4.213
11000TIP3   OH232960   0.474   0.555   4.385
11000TIP3    H132961   0.530   0.478   4.382
11000TIP3    H232962   0.524   0.623   4.339
11001TIP3   OH232963   0.554   6.157   1.387
11001TIP3    H132964   0.516   6.156   1.299
11001TIP3    H232965   0.531   6.243   1.422
11002TIP3   OH232966   0.761   6.066   1.045
11002TIP3    H132967   0.809   5.993   1.007
11002TIP3    H232968   0.798   6.076   1.133
11003TIP3   OH232969   0.813   6.090   1.314
11003TIP3    H132970   0.729   6.105   1.358
11003TIP3    H232971   0.863   6.036   1.375
11004TIP3   OH232972   0.548   5.596   1.282
11004TIP3    H132973   0.544   5.686   1.316
11004TIP3    H232974   0.630   5.561   1.318
11005TIP3   OH232975   1.216   6.082   0.880
11005TIP3    H132976   1.217   6.140   0.803
11005TIP3    H232977   1.169   6.132   0.947
11006TIP3   OH232978   0.286   5.617   1.096
11006TIP3    H132979   0.296   5.526   1.068
11006TIP3    H232980   0.272   5.612   1.190
11007TIP3   OH232981   0.259   5.634   1.366
11007TIP3    H132982   0.347   5.610   1.396
11007TIP3    H232983   0.252   5.727   1.385
11008TIP3   OH232984   0.517   5.861   1.327
11008TIP3    H132985   0.435   5.872   1.376
11008TIP3    H232986   0.533   5.947   1.288
11009TIP3   OH232987   0.248   5.906   1.400
11009TIP3    H132988   0.236   5.972   1.331
11009TIP3    H232989   0.193   5.937   1.472
11010TIP3   OH232990  -0.007   5.574   1.285
11010TIP3    H132991   0.072   5.601   1.332
11010TIP3    H232992   0.012   5.486   1.254
11011TIP3   OH232993   0.468   5.800   1.016
11011TIP3    H132994   0.393   5.756   1.056
11011TIP3    H232995   0.539   5.789   1.079
11012TIP3   OH232996   0.886   5.862   0.920
11012TIP3    H132997   0.970   5.841   0.961
11012TIP3    H232998   0.907   5.874   0.827
11013TIP3   OH232999   0.116   5.339   1.201
11013TIP3    H133000   0.128   5.276   1.272
11013TIP3    H233001   0.198   5.336   1.152
11014TIP3   OH233002   0.569   5.538   1.014
11014TIP3    H133003   0.554   5.556   1.107
11014TIP3    H233004   0.598   5.447   1.012
11015TIP3   OH233005   0.245   6.102   1.209
11015TIP3    H133006   0.336   6.094   1.181
11015TIP3    H233007   0.203   6.150   1.137
11016TIP3   OH233008   0.501   6.060   1.124
11016TIP3    H133009   0.589   6.081   1.091
11016TIP3    H233010   0.471   5.989   1.068
11017TIP3   OH233011   7.610   5.888   1.215
11017TIP3    H133012   7.573   5.935   1.290
11017TIP3    H233013   7.659   5.816   1.253
11018TIP3   OH233014   1.712   0.046   1.085
11018TIP3    H133015   1.711   0.139   1.063
11018TIP3    H233016   1.803   0.019   1.068
11019TIP3   OH233017   0.885   0.430   1.488
11019TIP3    H133018   0.926   0.376   1.420
11019TIP3    H233019   0.919   0.395   1.570
11020TIP3   OH233020   1.214   0.262   1.194
11020TIP3    H133021   1.264   0.192   1.152
11020TIP3    H233022   1.258   0.277   1.278
11021TIP3   OH233023   1.312   0.299   1.454
11021TIP3    H133024   1.258   0.286   1.532
11021TIP3    H233025   1.398   0.265   1.478
11022TIP3   OH233026   6.684   6.757   1.211
11022TIP3    H133027   6.656   6.755   1.119
11022TIP3    H233028   6.762   6.813   1.210
11023TIP3   OH233029   7.147   6.656   1.403
11023TIP3    H133030   7.081   6.609   1.353
11023TIP3    H233031   7.137   6.748   1.376
11024TIP3   OH233032   1.616   0.094   1.344
11024TIP3    H133033   1.600   0.011   1.389
11024TIP3    H233034   1.640   0.069   1.255
11025TIP3   OH233035   6.629   7.221   1.233
11025TIP3    H133036   6.678   7.204   1.314
11025TIP3    H233037   6.543   7.183   1.249
11026TIP3   OH233038   1.714   0.317   1.049
11026TIP3    H133039   1.736   0.375   0.977
11026TIP3    H233040   1.640   0.359   1.093
11027TIP3   OH233041   6.789   7.183   1.452
11027TIP3    H133042   6.757   7.128   1.523
11027TIP3    H233043   6.882   7.160   1.444
11028TIP3   OH233044   5.930   7.177   1.274
11028TIP3    H133045   5.894   7.088   1.263
11028TIP3    H233046   5.865   7.221   1.329
11029TIP3   OH233047   0.999   0.019   1.477
11029TIP3    H133048   0.916   0.005   1.521
11029TIP3    H233049   0.983   0.093   1.418
11030TIP3   OH233050   6.092   7.369   1.149
11030TIP3    H133051   6.044   7.300   1.194
11030TIP3    H233052   6.169   7.325   1.112
11031TIP3   OH233053   1.343   0.061   1.061
11031TIP3    H133054   1.390   0.002   1.120
11031TIP3    H233055   1.394   0.060   0.980
11032TIP3   OH233056   6.386   7.113   1.252
11032TIP3    H133057   6.320   7.123   1.321
11032TIP3    H233058   6.380   7.020   1.228
11033TIP3   OH233059   6.887   6.919   1.108
11033TIP3    H133060   6.875   6.871   1.026
11033TIP3    H233061   6.861   7.009   1.087
11034TIP3   OH233062   0.680   0.256   1.301
11034TIP3    H133063   0.769   0.266   1.335
11034TIP3    H233064   0.666   0.333   1.246
11035TIP3   OH233065   7.060   7.124   1.449
11035TIP3    H133066   7.110   7.190   1.402
11035TIP3    H233067   7.111   7.106   1.528
11036TIP3   OH233068   7.094   6.902   1.285
11036TIP3    H133069   7.022   6.899   1.222
11036TIP3    H233070   7.073   6.977   1.342
11037TIP3   OH233071   6.976   6.541   1.223
11037TIP3    H133072   6.926   6.560   1.144
11037TIP3    H233073   7.013   6.454   1.208
11038TIP3   OH233074   7.047   6.278   1.212
11038TIP3    H133075   7.123   6.275   1.269
11038TIP3    H233076   6.989   6.210   1.246
11039TIP3   OH233077   7.253   6.265   1.383
11039TIP3    H133078   7.320   6.196   1.376
11039TIP3    H233079   7.303   6.345   1.399
11040TIP3   OH233080   1.604   0.426   1.636
11040TIP3    H133081   1.625   0.400   1.546
11040TIP3    H233082   1.611   0.522   1.635
11041TIP3   OH233083   0.962   0.236   1.300
11041TIP3    H133084   1.047   0.260   1.263
11041TIP3    H233085   0.927   0.170   1.239
11042TIP3   OH233086   1.666   0.360   1.376
11042TIP3    H133087   1.655   0.266   1.365
11042TIP3    H233088   1.619   0.399   1.302
11043TIP3   OH233089   0.543   7.256   1.348
11043TIP3    H133090   0.518   7.344   1.322
11043TIP3    H233091   0.478   7.199   1.306
11044TIP3   OH233092   0.526   7.232   1.714
11044TIP3    H133093   0.495   7.147   1.744
11044TIP3    H233094   0.508   7.232   1.620
11045TIP3   OH233095   3.360   0.146   1.388
11045TIP3    H133096   3.366   0.078   1.456
11045TIP3    H233097   3.433   0.205   1.407
11046TIP3   OH233098   3.010   0.571   1.413
11046TIP3    H133099   3.005   0.507   1.341
11046TIP3    H233100   3.085   0.542   1.465
11047TIP3   OH233101   0.802   6.757   1.373
11047TIP3    H133102   0.859   6.688   1.409
11047TIP3    H233103   0.852   6.791   1.299
11048TIP3   OH233104   0.175   7.027   1.627
11048TIP3    H133105   0.259   6.999   1.662
11048TIP3    H233106   0.127   6.946   1.613
11049TIP3   OH233107   3.020   0.112   1.214
11049TIP3    H133108   2.996   0.091   1.124
11049TIP3    H233109   2.957   0.179   1.241
11050TIP3   OH233110   7.220   7.306   1.319
11050TIP3    H133111   7.190   7.321   1.229
11050TIP3    H233112   7.244   7.392   1.352
11051TIP3   OH233113   3.114   0.433   1.174
11051TIP3    H133114   3.166   0.355   1.153
11051TIP3    H233115   3.179   0.504   1.180
11052TIP3   OH233116   3.295   0.237   1.142
11052TIP3    H133117   3.291   0.167   1.077
11052TIP3    H233118   3.309   0.192   1.225
11053TIP3   OH233119   0.382   7.110   1.173
11053TIP3    H133120   0.298   7.153   1.156
11053TIP3    H233121   0.425   7.107   1.087
11054TIP3   OH233122   0.349   6.899   0.874
11054TIP3    H133123   0.414   6.949   0.922
11054TIP3    H233124   0.399   6.833   0.826
11055TIP3   OH233125   0.729   7.184   1.151
11055TIP3    H133126   0.677   7.211   1.227
11055TIP3    H233127   0.813   7.156   1.189
11056TIP3   OH233128   7.773   7.184   1.518
11056TIP3    H133129   7.728   7.118   1.465
11056TIP3    H233130   7.841   7.135   1.564
11057TIP3   OH233131   2.686   0.245   1.668
11057TIP3    H133132   2.641   0.229   1.585
11057TIP3    H233133   2.728   0.161   1.689
11058TIP3   OH233134   0.569   7.047   0.970
11058TIP3    H133135   0.627   7.103   1.021
11058TIP3    H233136   0.597   7.057   0.880
11059TIP3   OH233137   2.865   0.345   1.241
11059TIP3    H133138   2.948   0.377   1.206
11059TIP3    H233139   2.798   0.394   1.193
11060TIP3   OH233140   1.025   6.257   0.996
11060TIP3    H133141   0.959   6.288   1.058
11060TIP3    H233142   1.033   6.328   0.932
11061TIP3   OH233143   7.638   7.010   1.335
11061TIP3    H133144   7.561   7.057   1.304
11061TIP3    H233145   7.607   6.922   1.354
11062TIP3   OH233146   3.495   0.283   0.561
11062TIP3    H133147   3.483   0.374   0.535
11062TIP3    H233148   3.585   0.262   0.535
11063TIP3   OH233149   2.790   0.578   1.048
11063TIP3    H133150   2.748   0.566   0.963
11063TIP3    H233151   2.762   0.665   1.077
11064TIP3   OH233152   2.228   0.446   1.431
11064TIP3    H133153   2.268   0.438   1.518
11064TIP3    H233154   2.183   0.363   1.417
11065TIP3   OH233155   3.000   0.503   0.676
11065TIP3    H133156   3.057   0.433   0.644
11065TIP3    H233157   3.034   0.523   0.764
11066TIP3   OH233158   3.041   0.551   0.941
11066TIP3    H133159   2.954   0.575   0.974
11066TIP3    H233160   3.079   0.496   1.009
11067TIP3   OH233161   0.650   7.047   0.712
11067TIP3    H133162   0.603   7.045   0.629
11067TIP3    H233163   0.734   7.088   0.690
11068TIP3   OH233164   0.359   6.448   1.027
11068TIP3    H133165   0.325   6.452   1.116
11068TIP3    H233166   0.319   6.369   0.990
11069TIP3   OH233167   0.036   6.797   1.581
11069TIP3    H133168  -0.021   6.737   1.630
11069TIP3    H233169   0.038   6.760   1.492
11070TIP3   OH233170   0.508   6.906   1.304
11070TIP3    H133171   0.460   6.977   1.261
11070TIP3    H233172   0.567   6.873   1.237
11071TIP3   OH233173   0.666   6.942   1.532
11071TIP3    H133174   0.600   6.958   1.465
11071TIP3    H233175   0.721   6.873   1.496
11072TIP3   OH233176   7.822   6.433   0.992
11072TIP3    H133177   7.813   6.432   1.087
11072TIP3    H233178   7.745   6.480   0.961
11073TIP3   OH233179   7.379   6.506   1.399
11073TIP3    H133180   7.400   6.531   1.309
11073TIP3    H233181   7.304   6.560   1.422
11074TIP3   OH233182   0.344   6.608   1.612
11074TIP3    H133183   0.258   6.566   1.615
11074TIP3    H233184   0.347   6.665   1.689
11075TIP3   OH233185   0.046   6.680   1.331
11075TIP3    H133186   0.138   6.705   1.317
11075TIP3    H233187   0.001   6.707   1.251
11076TIP3   OH233188   7.716   6.723   1.096
11076TIP3    H133189   7.651   6.676   1.044
11076TIP3    H233190   7.771   6.768   1.031
11077TIP3   OH233191   0.499   6.954   1.757
11077TIP3    H133192   0.557   6.941   1.682
11077TIP3    H233193   0.534   6.897   1.825
11078TIP3   OH233194   0.093   6.488   1.593
11078TIP3    H133195   0.032   6.423   1.628
11078TIP3    H233196   0.071   6.494   1.500
11079TIP3   OH233197   0.143   7.240   1.114
11079TIP3    H133198   0.068   7.183   1.096
11079TIP3    H233199   0.122   7.283   1.196
11080TIP3   OH233200   0.606   6.558   1.008
11080TIP3    H133201   0.513   6.536   1.012
11080TIP3    H233202   0.608   6.653   1.023
11081TIP3   OH233203   0.670   6.817   1.088
11081TIP3    H133204   0.765   6.823   1.093
11081TIP3    H233205   0.643   6.894   1.037
11082TIP3   OH233206   2.901   0.049   0.965
11082TIP3    H133207   2.853   0.131   0.960
11082TIP3    H233208   2.843  -0.010   1.013
11083TIP3   OH233209   1.092   6.909   0.917
11083TIP3    H133210   1.040   6.862   0.852
11083TIP3    H233211   1.096   6.999   0.884
11084TIP3   OH233212   3.386   0.347   0.809
11084TIP3    H133213   3.366   0.266   0.856
11084TIP3    H233214   3.423   0.318   0.725
11085TIP3   OH233215   2.535   0.234   1.440
11085TIP3    H133216   2.535   0.314   1.389
11085TIP3    H233217   2.452   0.191   1.418
11086TIP3   OH233218   7.331   6.877   1.150
11086TIP3    H133219   7.372   6.962   1.167
11086TIP3    H233220   7.249   6.881   1.199
11087TIP3   OH233221   2.665   0.011   1.337
11087TIP3    H133222   2.645   0.098   1.372
11087TIP3    H233223   2.635  -0.049   1.406
11088TIP3   OH233224   2.464   0.452   1.289
11088TIP3    H133225   2.376   0.461   1.326
11088TIP3    H233226   2.498   0.541   1.287
11089TIP3   OH233227   3.184   0.095   0.735
11089TIP3    H133228   3.218   0.070   0.821
11089TIP3    H233229   3.096   0.058   0.733
11090TIP3   OH233230   3.478   0.551   0.522
11090TIP3    H133231   3.531   0.625   0.492
11090TIP3    H233232   3.397   0.590   0.553
11091TIP3   OH233233   3.330   0.031   0.962
11091TIP3    H133234   3.320  -0.040   1.026
11091TIP3    H233235   3.423   0.031   0.939
11092TIP3   OH233236   2.548   0.065   0.747
11092TIP3    H133237   2.554  -0.027   0.721
11092TIP3    H233238   2.525   0.062   0.840
11093TIP3   OH233239   2.484   0.083   1.019
11093TIP3    H133240   2.556   0.056   1.077
11093TIP3    H233241   2.484   0.178   1.024
11094TIP3   OH233242   7.417   7.133   1.223
11094TIP3    H133243   7.352   7.182   1.273
11094TIP3    H233244   7.438   7.190   1.148
11095TIP3   OH233245   0.665   6.529   1.278
11095TIP3    H133246   0.644   6.536   1.185
11095TIP3    H233247   0.693   6.616   1.304
11096TIP3   OH233248   2.754   0.275   0.957
11096TIP3    H133249   2.667   0.297   0.991
11096TIP3    H233250   2.777   0.348   0.900
11097TIP3   OH233251   0.324   6.708   1.355
11097TIP3    H133252   0.386   6.779   1.337
11097TIP3    H233253   0.339   6.687   1.447
11098TIP3   OH233254   0.491   6.413   1.460
11098TIP3    H133255   0.464   6.475   1.527
11098TIP3    H233256   0.557   6.460   1.408
11099TIP3   OH233257   2.502   0.354   1.036
11099TIP3    H133258   2.480   0.423   0.974
11099TIP3    H233259   2.486   0.392   1.122
11100TIP3   OH233260   0.004   6.415   1.268
11100TIP3    H133261  -0.007   6.507   1.290
11100TIP3    H233262   0.099   6.400   1.275
11101TIP3   OH233263   0.940   7.043   1.541
11101TIP3    H133264   0.845   7.046   1.552
11101TIP3    H233265   0.972   7.120   1.588
11102TIP3   OH233266   7.435   7.314   1.010
11102TIP3    H133267   7.506   7.378   1.018
11102TIP3    H233268   7.467   7.251   0.946
11103TIP3   OH233269   7.368   6.603   1.140
11103TIP3    H133270   7.371   6.698   1.146
11103TIP3    H233271   7.282   6.584   1.103
11104TIP3   OH233272   2.067   0.216   1.405
11104TIP3    H133273   2.022   0.252   1.481
11104TIP3    H233274   2.026   0.259   1.330
11105TIP3   OH233275   2.694   0.271   0.639
11105TIP3    H133276   2.649   0.197   0.682
11105TIP3    H233277   2.769   0.231   0.596
11106TIP3   OH233278   3.141   0.303   0.558
11106TIP3    H133279   3.178   0.239   0.618
11106TIP3    H233280   3.197   0.298   0.480
11107TIP3   OH233281   7.562   7.120   0.867
11107TIP3    H133282   7.614   7.097   0.944
11107TIP3    H233283   7.626   7.132   0.797
11108TIP3   OH233284   0.330   7.342   0.699
11108TIP3    H133285   0.307   7.355   0.790
11108TIP3    H233286   0.312   7.249   0.683
11109TIP3   OH233287   7.738   7.060   1.076
11109TIP3    H133288   7.716   7.030   1.164
11109TIP3    H233289   7.784   6.986   1.036
11110TIP3   OH233290   0.074   6.869   0.925
11110TIP3    H133291   0.044   6.874   0.834
11110TIP3    H233292   0.169   6.876   0.919
11111TIP3   OH233293   0.879   7.155   0.599
11111TIP3    H133294   0.862   7.115   0.514
11111TIP3    H233295   0.852   7.246   0.587
11112TIP3   OH233296   2.487   0.554   0.849
11112TIP3    H133297   2.577   0.542   0.820
11112TIP3    H233298   2.445   0.603   0.779
11113TIP3   OH233299   7.164   7.300   1.038
11113TIP3    H133300   7.258   7.315   1.027
11113TIP3    H233301   7.148   7.215   0.996
11114TIP3   OH233302   1.870   0.534   1.447
11114TIP3    H133303   1.808   0.480   1.398
11114TIP3    H233304   1.915   0.472   1.504
11115TIP3   OH233305   1.973   0.358   1.631
11115TIP3    H133306   1.894   0.344   1.682
11115TIP3    H233307   2.034   0.400   1.692
11116TIP3   OH233308   3.599   0.018   0.929
11116TIP3    H133309   3.663   0.068   0.878
11116TIP3    H233310   3.648  -0.009   1.007
11117TIP3   OH233311   1.131   7.262   1.140
11117TIP3    H133312   1.069   7.210   1.191
11117TIP3    H233313   1.202   7.280   1.201
11118TIP3   OH233314   1.079   7.149   0.784
11118TIP3    H133315   1.013   7.141   0.716
11118TIP3    H233316   1.053   7.225   0.836
11119TIP3   OH233317   0.937   6.810   0.718
11119TIP3    H133318   0.897   6.858   0.645
11119TIP3    H233319   0.910   6.719   0.704
11120TIP3   OH233320   0.963   7.077   1.266
11120TIP3    H133321   0.969   6.988   1.233
11120TIP3    H233322   0.963   7.068   1.361
11121TIP3   OH233323   0.854   6.551   0.677
11121TIP3    H133324   0.928   6.513   0.723
11121TIP3    H233325   0.779   6.498   0.702
11122TIP3   OH233326   0.959   6.820   1.144
11122TIP3    H133327   0.996   6.733   1.154
11122TIP3    H233328   1.005   6.857   1.069
11123TIP3   OH233329   1.063   6.564   1.180
11123TIP3    H133330   1.098   6.559   1.268
11123TIP3    H233331   0.998   6.494   1.176
11124TIP3   OH233332   1.076   6.452   0.806
11124TIP3    H133333   1.128   6.391   0.754
11124TIP3    H233334   1.140   6.500   0.858
11125TIP3   OH233335   3.312   0.619   1.196
11125TIP3    H133336   3.398   0.627   1.155
11125TIP3    H233337   3.287   0.709   1.215
11126TIP3   OH233338   2.361   0.423   1.670
11126TIP3    H133339   2.386   0.335   1.697
11126TIP3    H233340   2.444   0.467   1.654
11127TIP3   OH233341   2.622   0.510   1.656
11127TIP3    H133342   2.658   0.422   1.646
11127TIP3    H233343   2.637   0.533   1.747
11128TIP3   OH233344   7.488   6.086   1.381
11128TIP3    H133345   7.521   6.155   1.324
11128TIP3    H233346   7.498   6.122   1.470
11129TIP3   OH233347   0.871   6.356   1.203
11129TIP3    H133348   0.794   6.405   1.233
11129TIP3    H233349   0.860   6.269   1.243
11130TIP3   OH233350   1.951   0.343   1.194
11130TIP3    H133351   1.869   0.313   1.155
11130TIP3    H233352   1.959   0.434   1.165
11131TIP3   OH233353   7.591   6.258   1.189
11131TIP3    H133354   7.636   6.199   1.127
11131TIP3    H233355   7.660   6.316   1.222
11132TIP3   OH233356   0.275   6.447   1.290
11132TIP3    H133357   0.339   6.406   1.349
11132TIP3    H233358   0.288   6.541   1.304
11133TIP3   OH233359   2.746   0.498   0.779
11133TIP3    H133360   2.831   0.522   0.742
11133TIP3    H233361   2.716   0.425   0.724
11134TIP3   OH233362   3.420   0.616   0.841
11134TIP3    H133363   3.405   0.522   0.831
11134TIP3    H233364   3.379   0.654   0.764
11135TIP3   OH233365   2.050   0.339   0.842
11135TIP3    H133366   2.057   0.365   0.933
11135TIP3    H233367   2.132   0.293   0.823
11136TIP3   OH233368   1.347   7.066   1.105
11136TIP3    H133369   1.262   7.103   1.081
11136TIP3    H233370   1.356   6.990   1.048
11137TIP3   OH233371   1.369   7.288   1.280
11137TIP3    H133372   1.381   7.266   1.373
11137TIP3    H233373   1.391   7.207   1.233
11138TIP3   OH233374   3.780   0.134   0.763
11138TIP3    H133375   3.750   0.147   0.673
11138TIP3    H233376   3.824   0.216   0.786
11139TIP3   OH233377   4.755  -0.011   0.550
11139TIP3    H133378   4.685   0.054   0.557
11139TIP3    H233379   4.835   0.039   0.562
11140TIP3   OH233380   2.141   7.139   0.367
11140TIP3    H133381   2.155   7.211   0.428
11140TIP3    H233382   2.193   7.067   0.404
11141TIP3   OH233383   4.038   0.766   0.957
11141TIP3    H133384   4.107   0.756   1.023
11141TIP3    H233385   3.964   0.718   0.993
11142TIP3   OH233386   4.820   0.760   0.165
11142TIP3    H133387   4.852   0.678   0.126
11142TIP3    H233388   4.887   0.783   0.230
11143TIP3   OH233389   2.422   7.338   0.210
11143TIP3    H133390   2.385   7.314   0.125
11143TIP3    H233391   2.510   7.370   0.189
11144TIP3   OH233392   1.805   6.734   0.494
11144TIP3    H133393   1.774   6.682   0.568
11144TIP3    H233394   1.725   6.771   0.455
11145TIP3   OH233395   1.342   6.794   0.886
11145TIP3    H133396   1.362   6.805   0.793
11145TIP3    H233397   1.255   6.831   0.896
11146TIP3   OH233398   1.653   7.037   0.555
11146TIP3    H133399   1.608   6.963   0.514
11146TIP3    H233400   1.732   7.050   0.503
11147TIP3   OH233401   4.535   0.155   0.606
11147TIP3    H133402   4.479   0.078   0.594
11147TIP3    H233403   4.543   0.164   0.701
11148TIP3   OH233404   4.730   0.318   0.401
11148TIP3    H133405   4.711   0.412   0.412
11148TIP3    H233406   4.678   0.275   0.469
11149TIP3   OH233407   4.282   0.339   0.782
11149TIP3    H133408   4.275   0.372   0.693
11149TIP3    H233409   4.221   0.392   0.833
11150TIP3   OH233410   1.310   7.136   0.632
11150TIP3    H133411   1.363   7.211   0.661
11150TIP3    H233412   1.231   7.142   0.685
11151TIP3   OH233413   4.447   0.143   0.888
11151TIP3    H133414   4.457   0.234   0.917
11151TIP3    H233415   4.496   0.092   0.953
11152TIP3   OH233416   4.257   0.707   0.780
11152TIP3    H133417   4.237   0.727   0.871
11152TIP3    H233418   4.352   0.719   0.772
11153TIP3   OH233419   4.976   0.308   0.232
11153TIP3    H133420   4.989   0.213   0.236
11153TIP3    H233421   4.900   0.324   0.289
11154TIP3   OH233422   4.338   0.311   0.223
11154TIP3    H133423   4.358   0.224   0.188
11154TIP3    H233424   4.297   0.294   0.307
11155TIP3   OH233425   4.314   0.303   0.509
11155TIP3    H133426   4.401   0.265   0.517
11155TIP3    H233427   4.329   0.391   0.474
11156TIP3   OH233428   4.096   0.106   0.760
11156TIP3    H133429   4.035   0.107   0.835
11156TIP3    H233430   4.044   0.141   0.687
11157TIP3   OH233431   4.629   0.571   0.446
11157TIP3    H133432   4.534   0.559   0.450
11157TIP3    H233433   4.641   0.649   0.392
11158TIP3   OH233434   4.354   0.555   0.418
11158TIP3    H133435   4.346   0.616   0.345
11158TIP3    H233436   4.275   0.569   0.470
11159TIP3   OH233437   4.022   0.219   0.511
11159TIP3    H133438   4.076   0.298   0.505
11159TIP3    H233439   4.063   0.158   0.450
11160TIP3   OH233440   1.340   6.859   0.616
11160TIP3    H133441   1.350   6.954   0.623
11160TIP3    H233442   1.269   6.848   0.553
11161TIP3   OH233443   3.892   0.383   0.785
11161TIP3    H133444   3.821   0.420   0.837
11161TIP3    H233445   3.873   0.412   0.695
11162TIP3   OH233446   4.493   0.520   0.132
11162TIP3    H133447   4.447   0.446   0.171
11162TIP3    H233448   4.563   0.480   0.081
11163TIP3   OH233449   4.921   0.540   0.046
11163TIP3    H133450   4.967   0.465   0.086
11163TIP3    H233451   4.966   0.553  -0.037
11164TIP3   OH233452   4.151   0.031   0.355
11164TIP3    H133453   4.193  -0.027   0.417
11164TIP3    H233454   4.214   0.039   0.283
11165TIP3   OH233455   4.658   0.227   0.147
11165TIP3    H133456   4.682   0.252   0.236
11165TIP3    H233457   4.670   0.132   0.144
11166TIP3   OH233458   1.756   7.296   0.610
11166TIP3    H133459   1.700   7.226   0.641
11166TIP3    H233460   1.805   7.257   0.537
11167TIP3   OH233461   1.864   7.141   0.403
11167TIP3    H133462   1.834   7.139   0.312
11167TIP3    H233463   1.960   7.133   0.396
11168TIP3   OH233464   5.247   0.085   0.087
11168TIP3    H133465   5.226   0.032   0.010
11168TIP3    H233466   5.316   0.144   0.058
11169TIP3   OH233467   4.292   0.783   0.275
11169TIP3    H133468   4.384   0.795   0.251
11169TIP3    H233469   4.244   0.833   0.209
11170TIP3   OH233470   3.749   0.195   0.493
11170TIP3    H133471   3.843   0.212   0.499
11170TIP3    H233472   3.742   0.109   0.451
11171TIP3   OH233473   3.540   0.712   1.070
11171TIP3    H133474   3.510   0.687   0.982
11171TIP3    H233475   3.632   0.684   1.073
11172TIP3   OH233476   3.816   0.688   1.100
11172TIP3    H133477   3.825   0.633   1.178
11172TIP3    H233478   3.835   0.777   1.130
11173TIP3   OH233479   1.266   6.543   0.981
11173TIP3    H133480   1.206   6.558   1.054
11173TIP3    H233481   1.313   6.626   0.971
11174TIP3   OH233482   1.433   6.376   0.819
11174TIP3    H133483   1.472   6.432   0.752
11174TIP3    H233484   1.381   6.436   0.873
11175TIP3   OH233485   3.753   0.505   0.583
11175TIP3    H133486   3.658   0.495   0.574
11175TIP3    H233487   3.765   0.598   0.605
11176TIP3   OH233488   1.581   6.509   0.633
11176TIP3    H133489   1.631   6.447   0.581
11176TIP3    H233490   1.646   6.550   0.690
11177TIP3   OH233491   4.559   0.760   0.241
11177TIP3    H133492   4.647   0.781   0.209
11177TIP3    H233493   4.537   0.677   0.199
11178TIP3   OH233494   3.836   0.554   0.305
11178TIP3    H133495   3.820   0.570   0.398
11178TIP3    H233496   3.925   0.519   0.301
11179TIP3   OH233497   7.366   1.595   1.257
11179TIP3    H133498   7.383   1.686   1.233
11179TIP3    H233499   7.447   1.549   1.232
11180TIP3   OH233500   6.947   1.833   1.286
11180TIP3    H133501   7.016   1.770   1.264
11180TIP3    H233502   6.992   1.900   1.337
11181TIP3   OH233503   7.098   1.014   1.357
11181TIP3    H133504   7.069   0.971   1.276
11181TIP3    H233505   7.188   1.041   1.337
11182TIP3   OH233506   7.267   1.676   1.507
11182TIP3    H133507   7.189   1.622   1.520
11182TIP3    H233508   7.313   1.634   1.434
11183TIP3   OH233509   7.383   1.860   1.197
11183TIP3    H133510   7.400   1.912   1.119
11183TIP3    H233511   7.329   1.917   1.252
11184TIP3   OH233512   6.574   1.560   1.346
11184TIP3    H133513   6.490   1.516   1.358
11184TIP3    H233514   6.625   1.536   1.423
11185TIP3   OH233515   7.106   1.633   1.201
11185TIP3    H133516   7.197   1.626   1.229
11185TIP3    H233517   7.110   1.636   1.106
11186TIP3   OH233518   7.339   1.120   1.255
11186TIP3    H133519   7.329   1.075   1.171
11186TIP3    H233520   7.299   1.206   1.241
11187TIP3   OH233521   7.546   1.147   1.431
11187TIP3    H133522   7.476   1.135   1.367
11187TIP3    H233523   7.500   1.162   1.514
11188TIP3   OH233524   7.343   1.934   1.579
11188TIP3    H133525   7.317   1.842   1.569
11188TIP3    H233526   7.322   1.974   1.494
11189TIP3   OH233527   0.994   1.452   1.475
11189TIP3    H133528   0.966   1.527   1.528
11189TIP3    H233529   0.913   1.420   1.435
11190TIP3   OH233530   1.223   1.726   1.556
11190TIP3    H133531   1.266   1.647   1.590
11190TIP3    H233532   1.268   1.798   1.600
11191TIP3   OH233533   0.865   2.186   1.590
11191TIP3    H133534   0.899   2.117   1.534
11191TIP3    H233535   0.920   2.183   1.668
11192TIP3   OH233536   1.249   0.935   1.526
11192TIP3    H133537   1.316   0.930   1.593
11192TIP3    H233538   1.295   0.965   1.448
11193TIP3   OH233539   1.459   0.953   1.701
11193TIP3    H133540   1.479   0.916   1.787
11193TIP3    H233541   1.545   0.972   1.662
11194TIP3   OH233542   7.677   1.519   1.451
11194TIP3    H133543   7.632   1.507   1.368
11194TIP3    H233544   7.722   1.602   1.442
11195TIP3   OH233545   0.976   2.013   1.407
11195TIP3    H133546   1.015   1.929   1.384
11195TIP3    H233547   1.035   2.078   1.368
11196TIP3   OH233548   1.085   1.779   1.324
11196TIP3    H133549   1.126   1.734   1.250
11196TIP3    H233550   1.138   1.754   1.399
11197TIP3   OH233551   0.804   1.330   1.309
11197TIP3    H133552   0.718   1.303   1.275
11197TIP3    H233553   0.863   1.320   1.234
11198TIP3   OH233554   0.800   1.101   1.024
11198TIP3    H133555   0.866   1.154   1.067
11198TIP3    H233556   0.850   1.036   0.974
11199TIP3   OH233557   1.180   1.391   1.288
11199TIP3    H133558   1.127   1.412   1.364
11199TIP3    H233559   1.263   1.360   1.324
11200TIP3   OH233560   1.001   1.269   1.122
11200TIP3    H133561   1.068   1.314   1.173
11200TIP3    H233562   1.028   1.280   1.031
11201TIP3   OH233563   0.722   1.926   1.375
11201TIP3    H133564   0.809   1.956   1.401
11201TIP3    H233565   0.682   2.003   1.334
11202TIP3   OH233566   1.525   0.477   1.169
11202TIP3    H133567   1.450   0.500   1.223
11202TIP3    H233568   1.540   0.554   1.114
11203TIP3   OH233569   0.317   1.234   1.467
11203TIP3    H133570   0.229   1.267   1.449
11203TIP3    H233571   0.303   1.150   1.510
11204TIP3   OH233572   1.342   1.859   0.725
11204TIP3    H133573   1.343   1.952   0.702
11204TIP3    H233574   1.430   1.828   0.706
11205TIP3   OH233575   0.643   2.130   1.211
11205TIP3    H133576   0.610   2.108   1.124
11205TIP3    H233577   0.609   2.217   1.229
11206TIP3   OH233578   0.090   2.015   1.608
11206TIP3    H133579   0.112   2.006   1.701
11206TIP3    H233580   0.047   1.932   1.586
11207TIP3   OH233581   0.845   2.069   0.835
11207TIP3    H133582   0.899   2.000   0.795
11207TIP3    H233583   0.883   2.081   0.922
11208TIP3   OH233584   0.898   2.113   1.104
11208TIP3    H133585   0.817   2.110   1.154
11208TIP3    H233586   0.966   2.088   1.167
11209TIP3   OH233587   1.085   1.285   0.868
11209TIP3    H133588   1.043   1.265   0.784
11209TIP3    H233589   1.173   1.315   0.844
11210TIP3   OH233590   0.801   0.669   1.152
11210TIP3    H133591   0.769   0.673   1.243
11210TIP3    H233592   0.768   0.585   1.119
11211TIP3   OH233593   0.943   1.109   1.432
11211TIP3    H133594   0.902   1.187   1.394
11211TIP3    H233595   1.006   1.080   1.366
11212TIP3   OH233596   1.118   1.142   1.654
11212TIP3    H133597   1.044   1.159   1.594
11212TIP3    H233598   1.158   1.062   1.620
11213TIP3   OH233599   0.472   0.640   1.135
11213TIP3    H133600   0.467   0.650   1.230
11213TIP3    H233601   0.395   0.688   1.103
11214TIP3   OH233602   0.477   0.906   1.501
11214TIP3    H133603   0.571   0.926   1.494
11214TIP3    H233604   0.441   0.930   1.415
11215TIP3   OH233605   0.367   0.938   1.251
11215TIP3    H133606   0.306   0.888   1.196
11215TIP3    H233607   0.424   0.983   1.188
11216TIP3   OH233608   1.054   0.769   1.155
11216TIP3    H133609   0.960   0.750   1.153
11216TIP3    H233610   1.059   0.863   1.170
11217TIP3   OH233611   1.122   1.029   1.231
11217TIP3    H133612   1.217   1.024   1.246
11217TIP3    H233613   1.112   1.101   1.169
11218TIP3   OH233614   1.529   1.116   1.074
11218TIP3    H133615   1.472   1.070   1.012
11218TIP3    H233616   1.536   1.205   1.038
11219TIP3   OH233617   1.235   1.887   0.979
11219TIP3    H133618   1.238   1.802   1.023
11219TIP3    H233619   1.278   1.872   0.894
11220TIP3   OH233620   0.351   1.763   1.502
11220TIP3    H133621   0.344   1.856   1.477
11220TIP3    H233622   0.265   1.742   1.537
11221TIP3   OH233623   7.773   1.096   1.292
11221TIP3    H133624   7.827   1.172   1.313
11221TIP3    H233625   7.693   1.108   1.344
11222TIP3   OH233626   0.577   1.633   1.431
11222TIP3    H133627   0.499   1.672   1.470
11222TIP3    H233628   0.577   1.543   1.464
11223TIP3   OH233629   0.297   2.022   1.424
11223TIP3    H133630   0.220   2.036   1.479
11223TIP3    H233631   0.340   2.107   1.419
11224TIP3   OH233632   1.020   1.649   0.889
11224TIP3    H133633   1.067   1.633   0.971
11224TIP3    H233634   0.937   1.603   0.899
11225TIP3   OH233635   1.347   2.132   0.693
11225TIP3    H133636   1.389   2.215   0.670
11225TIP3    H233637   1.257   2.157   0.716
11226TIP3   OH233638   1.192   1.610   1.117
11226TIP3    H133639   1.175   1.534   1.173
11226TIP3    H233640   1.285   1.603   1.095
11227TIP3   OH233641   0.463   1.585   0.914
11227TIP3    H133642   0.436   1.501   0.877
11227TIP3    H233643   0.408   1.597   0.991
11228TIP3   OH233644   0.317   1.642   1.146
11228TIP3    H133645   0.353   1.602   1.225
11228TIP3    H233646   0.323   1.736   1.162
11229TIP3   OH233647   0.076   1.340   1.378
11229TIP3    H133648   0.005   1.378   1.429
11229TIP3    H233649   0.087   1.398   1.303
11230TIP3   OH233650   1.124   0.707   1.418
11230TIP3    H133651   1.095   0.732   1.330
11230TIP3    H233652   1.151   0.790   1.458
11231TIP3   OH233653   0.600   1.791   1.138
11231TIP3    H133654   0.517   1.839   1.138
11231TIP3    H233655   0.629   1.793   1.047
11232TIP3   OH233656   0.804   0.890   1.526
11232TIP3    H133657   0.846   0.967   1.487
11232TIP3    H233658   0.852   0.876   1.608
11233TIP3   OH233659   0.355   1.911   1.179
11233TIP3    H133660   0.330   1.975   1.113
11233TIP3    H233661   0.331   1.952   1.262
11234TIP3   OH233662   0.453   0.645   1.413
11234TIP3    H133663   0.440   0.730   1.455
11234TIP3    H233664   0.547   0.629   1.418
11235TIP3   OH233665   1.348   1.288   1.684
11235TIP3    H133666   1.263   1.245   1.683
11235TIP3    H233667   1.387   1.262   1.768
11236TIP3   OH233668   0.069   1.518   1.156
11236TIP3    H133669   0.133   1.590   1.150
11236TIP3    H233670   0.104   1.451   1.097
11237TIP3   OH233671   0.014   0.831   1.226
11237TIP3    H133672   0.014   0.922   1.254
11237TIP3    H233673  -0.011   0.782   1.304
11238TIP3   OH233674   7.755   1.789   1.529
11238TIP3    H133675   7.681   1.751   1.577
11238TIP3    H233676   7.715   1.833   1.454
11239TIP3   OH233677   0.548   1.823   0.810
11239TIP3    H133678   0.511   1.740   0.841
11239TIP3    H233679   0.622   1.797   0.755
11240TIP3   OH233680   0.980   1.865   0.714
11240TIP3    H133681   1.020   1.802   0.774
11240TIP3    H233682   1.036   1.863   0.636
11241TIP3   OH233683   0.201   1.331   1.012
11241TIP3    H133684   0.256   1.309   1.087
11241TIP3    H233685   0.262   1.337   0.939
11242TIP3   OH233686   0.742   1.544   0.868
11242TIP3    H133687   0.650   1.552   0.892
11242TIP3    H233688   0.752   1.451   0.844
11243TIP3   OH233689   0.391   1.284   1.207
11243TIP3    H133690   0.375   1.260   1.298
11243TIP3    H233691   0.438   1.209   1.170
11244TIP3   OH233692   0.526   1.078   1.074
11244TIP3    H133693   0.492   1.076   0.985
11244TIP3    H233694   0.621   1.077   1.064
11245TIP3   OH233695   1.319   1.374   0.750
11245TIP3    H133696   1.303   1.327   0.668
11245TIP3    H233697   1.294   1.465   0.731
11246TIP3   OH233698   0.325   2.098   0.984
11246TIP3    H133699   0.419   2.099   0.971
11246TIP3    H233700   0.290   2.153   0.914
11247TIP3   OH233701   7.602   1.487   1.181
11247TIP3    H133702   7.696   1.504   1.171
11247TIP3    H233703   7.588   1.403   1.137
11248TIP3   OH233704   1.459   1.572   1.086
11248TIP3    H133705   1.523   1.631   1.045
11248TIP3    H233706   1.508   1.532   1.158
11249TIP3   OH233707   1.595   1.434   1.278
11249TIP3    H133708   1.536   1.390   1.340
11249TIP3    H233709   1.669   1.462   1.332
11250TIP3   OH233710   1.522   1.351   0.931
11250TIP3    H133711   1.454   1.350   0.864
11250TIP3    H233712   1.501   1.427   0.985
11251TIP3   OH233713   1.377   1.011   0.878
11251TIP3    H133714   1.388   1.051   0.792
11251TIP3    H233715   1.355   0.920   0.859
11252TIP3   OH233716   1.403   1.284   1.416
11252TIP3    H133717   1.411   1.191   1.399
11252TIP3    H233718   1.392   1.290   1.511
11253TIP3   OH233719   1.337   0.739   0.842
11253TIP3    H133720   1.401   0.712   0.908
11253TIP3    H233721   1.256   0.696   0.869
11254TIP3   OH233722   1.402   1.014   1.303
11254TIP3    H133723   1.448   0.931   1.318
11254TIP3    H233724   1.448   1.054   1.229
11255TIP3   OH233725   1.518   0.766   1.356
11255TIP3    H133726   1.564   0.744   1.438
11255TIP3    H233727   1.454   0.696   1.345
11256TIP3   OH233728   1.568   0.685   0.995
11256TIP3    H133729   1.615   0.626   0.936
11256TIP3    H233730   1.621   0.764   0.997
11257TIP3   OH233731   1.139   2.171   1.264
11257TIP3    H133732   1.161   2.181   1.171
11257TIP3    H233733   1.223   2.159   1.307
11258TIP3   OH233734   1.680   0.689   1.570
11258TIP3    H133735   1.750   0.639   1.528
11258TIP3    H233736   1.711   0.780   1.570
11259TIP3   OH233737   1.337   0.554   1.350
11259TIP3    H133738   1.258   0.603   1.373
11259TIP3    H233739   1.324   0.468   1.391
11260TIP3   OH233740   7.628   1.908   1.318
11260TIP3    H133741   7.546   1.871   1.286
11260TIP3    H233742   7.624   2.001   1.294
11261TIP3   OH233743   0.236   0.507   1.306
11261TIP3    H133744   0.294   0.441   1.267
11261TIP3    H233745   0.295   0.566   1.352
11262TIP3   OH233746   0.727   0.646   1.417
11262TIP3    H133747   0.786   0.577   1.448
11262TIP3    H233748   0.760   0.726   1.459
11263TIP3   OH233749   0.593   2.058   0.946
11263TIP3    H133750   0.676   2.085   0.907
11263TIP3    H233751   0.567   1.981   0.895
11264TIP3   OH233752   1.236   2.159   1.010
11264TIP3    H133753   1.242   2.064   0.999
11264TIP3    H233754   1.208   2.191   0.925
11265TIP3   OH233755   7.688   1.893   1.006
11265TIP3    H133756   7.697   1.913   1.100
11265TIP3    H233757   7.770   1.848   0.984
11266TIP3   OH233758   1.753   1.197   1.222
11266TIP3    H133759   1.729   1.287   1.241
11266TIP3    H233760   1.678   1.161   1.175
11267TIP3   OH233761   1.830   1.491   1.404
11267TIP3    H133762   1.889   1.429   1.446
11267TIP3    H233763   1.883   1.569   1.389
11268TIP3   OH233764   2.297   1.088   1.414
11268TIP3    H133765   2.295   1.158   1.349
11268TIP3    H233766   2.253   1.015   1.371
11269TIP3   OH233767   2.969   1.160   0.968
11269TIP3    H133768   3.041   1.171   1.030
11269TIP3    H233769   2.973   1.238   0.912
11270TIP3   OH233770   2.027   1.321   1.512
11270TIP3    H133771   2.027   1.272   1.594
11270TIP3    H233772   2.025   1.255   1.444
11271TIP3   OH233773   2.360   1.504   1.245
11271TIP3    H133774   2.411   1.496   1.325
11271TIP3    H233775   2.319   1.419   1.233
11272TIP3   OH233776   3.150   1.154   1.166
11272TIP3    H133777   3.160   1.145   1.261
11272TIP3    H233778   3.238   1.141   1.132
11273TIP3   OH233779   1.636   1.726   0.949
11273TIP3    H133780   1.609   1.736   0.857
11273TIP3    H233781   1.632   1.814   0.985
11274TIP3   OH233782   2.707   0.758   1.568
11274TIP3    H133783   2.673   0.669   1.572
11274TIP3    H233784   2.630   0.813   1.582
11275TIP3   OH233785   3.012   2.089   0.895
11275TIP3    H133786   3.048   2.046   0.818
11275TIP3    H233787   2.958   2.022   0.937
11276TIP3   OH233788   2.550   1.462   0.757
11276TIP3    H133789   2.491   1.519   0.805
11276TIP3    H233790   2.625   1.518   0.735
11277TIP3   OH233791   2.555   1.341   0.503
11277TIP3    H133792   2.577   1.381   0.588
11277TIP3    H233793   2.632   1.290   0.480
11278TIP3   OH233794   2.978   1.686   0.792
11278TIP3    H133795   2.919   1.732   0.852
11278TIP3    H233796   3.065   1.700   0.829
11279TIP3   OH233797   2.124   1.606   1.163
11279TIP3    H133798   2.104   1.549   1.088
11279TIP3    H233799   2.205   1.570   1.199
11280TIP3   OH233800   2.182   1.968   1.287
11280TIP3    H133801   2.254   1.918   1.248
11280TIP3    H233802   2.220   2.009   1.364
11281TIP3   OH233803   2.792   1.514   0.622
11281TIP3    H133804   2.850   1.577   0.665
11281TIP3    H233805   2.804   1.530   0.528
11282TIP3   OH233806   2.580   2.249   0.884
11282TIP3    H133807   2.670   2.257   0.917
11282TIP3    H233808   2.556   2.158   0.902
11283TIP3   OH233809   3.279   0.717   0.621
11283TIP3    H133810   3.193   0.731   0.660
11283TIP3    H233811   3.288   0.790   0.559
11284TIP3   OH233812   2.062   1.438   0.951
11284TIP3    H133813   1.988   1.490   0.922
11284TIP3    H233814   2.029   1.348   0.956
11285TIP3   OH233815   3.105   2.112   0.168
11285TIP3    H133816   3.118   2.204   0.191
11285TIP3    H233817   3.182   2.089   0.116
11286TIP3   OH233818   2.384   2.472   0.585
11286TIP3    H133819   2.355   2.413   0.515
11286TIP3    H233820   2.473   2.444   0.605
11287TIP3   OH233821   1.845   2.270   1.138
11287TIP3    H133822   1.931   2.296   1.171
11287TIP3    H233823   1.848   2.174   1.137
11288TIP3   OH233824   2.595   2.349   0.290
11288TIP3    H133825   2.592   2.255   0.308
11288TIP3    H233826   2.646   2.386   0.362
11289TIP3   OH233827   2.631   2.336   0.600
11289TIP3    H133828   2.568   2.271   0.629
11289TIP3    H233829   2.716   2.294   0.612
11290TIP3   OH233830   2.839   1.479   0.333
11290TIP3    H133831   2.823   1.472   0.239
11290TIP3    H233832   2.905   1.547   0.342
11291TIP3   OH233833   2.570   0.901   0.664
11291TIP3    H133834   2.536   0.901   0.753
11291TIP3    H233835   2.535   0.820   0.625
11292TIP3   OH233836   2.243   1.266   1.212
11292TIP3    H133837   2.154   1.243   1.238
11292TIP3    H233838   2.254   1.226   1.126
11293TIP3   OH233839   2.720   1.268   0.848
11293TIP3    H133840   2.658   1.340   0.834
11293TIP3    H233841   2.760   1.253   0.763
11294TIP3   OH233842   2.872   1.351   1.147
11294TIP3    H133843   2.849   1.423   1.088
11294TIP3    H233844   2.869   1.273   1.091
11295TIP3   OH233845   2.251   0.886   0.638
11295TIP3    H133846   2.240   0.894   0.732
11295TIP3    H233847   2.176   0.933   0.601
11296TIP3   OH233848   1.782   0.932   1.513
11296TIP3    H133849   1.860   0.967   1.556
11296TIP3    H233850   1.806   0.924   1.421
11297TIP3   OH233851   1.719   0.919   1.007
11297TIP3    H133852   1.762   0.953   0.928
11297TIP3    H233853   1.660   0.990   1.034
11298TIP3   OH233854   2.585   1.197   1.264
11298TIP3    H133855   2.546   1.114   1.292
11298TIP3    H233856   2.654   1.214   1.327
11299TIP3   OH233857   2.012   1.150   1.296
11299TIP3    H133858   1.922   1.155   1.265
11299TIP3    H233859   2.039   1.060   1.276
11300TIP3   OH233860   2.271   1.141   0.972
11300TIP3    H133861   2.365   1.149   0.958
11300TIP3    H233862   2.231   1.165   0.888
11301TIP3   OH233863   2.143   1.172   0.734
11301TIP3    H133864   2.080   1.123   0.681
11301TIP3    H233865   2.197   1.219   0.671
11302TIP3   OH233866   2.754   1.487   1.359
11302TIP3    H133867   2.770   1.462   1.268
11302TIP3    H233868   2.837   1.469   1.404
11303TIP3   OH233869   2.156   0.909   1.253
11303TIP3    H133870   2.134   0.831   1.304
11303TIP3    H233871   2.182   0.875   1.167
11304TIP3   OH233872   2.332   1.743   0.720
11304TIP3    H133873   2.287   1.662   0.696
11304TIP3    H233874   2.346   1.735   0.815
11305TIP3   OH233875   2.821   0.982   0.628
11305TIP3    H133876   2.727   0.967   0.628
11305TIP3    H233877   2.830   1.076   0.614
11306TIP3   OH233878   2.860   1.251   0.611
11306TIP3    H133879   2.955   1.246   0.613
11306TIP3    H233880   2.840   1.344   0.609
11307TIP3   OH233881   2.015   1.698   1.391
11307TIP3    H133882   2.043   1.692   1.300
11307TIP3    H233883   2.083   1.653   1.441
11308TIP3   OH233884   2.529   1.788   0.526
11308TIP3    H133885   2.527   1.883   0.514
11308TIP3    H233886   2.470   1.771   0.599
11309TIP3   OH233887   3.348   1.340   0.498
11309TIP3    H133888   3.296   1.327   0.418
11309TIP3    H233889   3.332   1.431   0.522
11310TIP3   OH233890   3.108   2.140   0.467
11310TIP3    H133891   3.069   2.173   0.547
11310TIP3    H233892   3.044   2.162   0.398
11311TIP3   OH233893   2.156   1.960   0.974
11311TIP3    H133894   2.159   2.051   0.945
11311TIP3    H233895   2.078   1.924   0.933
11312TIP3   OH233896   1.752   1.336   0.780
11312TIP3    H133897   1.796   1.420   0.795
11312TIP3    H233898   1.674   1.339   0.835
11313TIP3   OH233899   2.313   1.736   0.987
11313TIP3    H133900   2.260   1.815   0.998
11313TIP3    H233901   2.302   1.688   1.070
11314TIP3   OH233902   2.015   2.318   0.909
11314TIP3    H133903   1.937   2.365   0.938
11314TIP3    H233904   2.048   2.368   0.835
11315TIP3   OH233905   2.791   1.826   0.308
11315TIP3    H133906   2.819   1.835   0.399
11315TIP3    H233907   2.705   1.868   0.304
11316TIP3   OH233908   3.121   2.385   0.225
11316TIP3    H133909   3.180   2.442   0.176
11316TIP3    H233910   3.089   2.439   0.297
11317TIP3   OH233911   3.082   1.932   0.674
11317TIP3    H133912   3.019   1.862   0.693
11317TIP3    H233913   3.086   1.935   0.578
11318TIP3   OH233914   2.155   1.865   0.398
11318TIP3    H133915   2.170   1.778   0.360
11318TIP3    H233916   2.132   1.848   0.489
11319TIP3   OH233917   2.103   1.880   0.671
11319TIP3    H133918   2.186   1.841   0.699
11319TIP3    H233919   2.120   1.974   0.670
11320TIP3   OH233920   1.852   1.584   0.855
11320TIP3    H133921   1.786   1.625   0.911
11320TIP3    H233922   1.868   1.647   0.785
11321TIP3   OH233923   2.843   0.938   0.895
11321TIP3    H133924   2.817   0.946   0.803
11321TIP3    H233925   2.877   1.024   0.918
11322TIP3   OH233926   2.415   2.138   0.628
11322TIP3    H133927   2.321   2.126   0.616
11322TIP3    H233928   2.453   2.121   0.541
11323TIP3   OH233929   2.550   1.122   0.998
11323TIP3    H133930   2.612   1.174   0.946
11323TIP3    H233931   2.564   1.151   1.088
11324TIP3   OH233932   2.711   0.835   1.110
11324TIP3    H133933   2.754   0.879   1.183
11324TIP3    H233934   2.748   0.877   1.032
11325TIP3   OH233935   2.139   2.146   0.642
11325TIP3    H133936   2.092   2.183   0.567
11325TIP3    H233937   2.139   2.216   0.707
11326TIP3   OH233938   2.216   0.875   0.920
11326TIP3    H133939   2.212   0.967   0.945
11326TIP3    H233940   2.309   0.853   0.924
11327TIP3   OH233941   1.857   1.772   0.649
11327TIP3    H133942   1.928   1.832   0.670
11327TIP3    H233943   1.895   1.709   0.587
11328TIP3   OH233944   1.783   1.061   0.782
11328TIP3    H133945   1.793   1.156   0.791
11328TIP3    H233946   1.749   1.048   0.693
11329TIP3   OH233947   2.187   0.786   1.649
11329TIP3    H133948   2.148   0.765   1.565
11329TIP3    H233949   2.235   0.707   1.675
11330TIP3   OH233950   1.599   1.984   1.008
11330TIP3    H133951   1.602   2.046   1.081
11330TIP3    H233952   1.615   2.037   0.931
11331TIP3   OH233953   2.295   2.060   0.273
11331TIP3    H133954   2.247   1.987   0.312
11331TIP3    H233955   2.386   2.029   0.272
11332TIP3   OH233956   2.761   2.057   0.122
11332TIP3    H133957   2.747   2.055   0.216
11332TIP3    H233958   2.816   2.134   0.108
11333TIP3   OH233959   2.011   1.592   0.517
11333TIP3    H133960   2.068   1.565   0.589
11333TIP3    H233961   2.069   1.596   0.441
11334TIP3   OH233962   2.467   1.771   0.255
11334TIP3    H133963   2.479   1.789   0.348
11334TIP3    H233964   2.484   1.677   0.247
11335TIP3   OH233965   2.187   1.512   0.711
11335TIP3    H133966   2.159   1.480   0.797
11335TIP3    H233967   2.226   1.436   0.668
11336TIP3   OH233968   2.289   1.312   0.554
11336TIP3    H133969   2.259   1.321   0.464
11336TIP3    H233970   2.385   1.316   0.548
11337TIP3   OH233971   3.040   1.628   0.166
11337TIP3    H133972   3.019   1.575   0.089
11337TIP3    H233973   3.001   1.713   0.148
11338TIP3   OH233974   2.078   2.331   0.443
11338TIP3    H133975   2.168   2.315   0.416
11338TIP3    H233976   2.036   2.368   0.365
11339TIP3   OH233977   1.588   1.751   0.674
11339TIP3    H133978   1.681   1.771   0.666
11339TIP3    H233979   1.578   1.667   0.629
11340TIP3   OH233980   1.400   2.298   1.177
11340TIP3    H133981   1.355   2.259   1.103
11340TIP3    H233982   1.482   2.250   1.185
11341TIP3   OH233983   1.614   2.142   1.240
11341TIP3    H133984   1.632   2.069   1.299
11341TIP3    H233985   1.681   2.208   1.262
11342TIP3   OH233986   3.304   1.765   0.552
11342TIP3    H133987   3.306   1.849   0.506
11342TIP3    H233988   3.300   1.789   0.645
11343TIP3   OH233989   3.198   1.528   0.358
11343TIP3    H133990   3.154   1.556   0.277
11343TIP3    H233991   3.147   1.567   0.428
11344TIP3   OH233992   3.196   1.233   0.299
11344TIP3    H133993   3.129   1.290   0.260
11344TIP3    H233994   3.155   1.148   0.306
11345TIP3   OH233995   3.233   1.601   0.932
11345TIP3    H133996   3.221   1.546   0.855
11345TIP3    H233997   3.236   1.540   1.006
11346TIP3   OH233998   3.064   0.995   0.316
11346TIP3    H133999   3.135   0.950   0.362
11346TIP3    H234000   2.988   0.939   0.331
11347TIP3   OH234001   3.129   1.239   0.624
11347TIP3    H134002   3.151   1.164   0.678
11347TIP3    H234003   3.209   1.258   0.574
11348TIP3   OH234004   3.200   1.045   0.799
11348TIP3    H134005   3.277   1.004   0.839
11348TIP3    H234006   3.142   0.972   0.778
11349TIP3   OH234007   2.011   1.007   1.638
11349TIP3    H134008   2.080   0.943   1.658
11349TIP3    H234009   2.027   1.079   1.699
11350TIP3   OH234010   3.306   0.909   0.423
11350TIP3    H134011   3.349   0.842   0.370
11350TIP3    H234012   3.350   0.990   0.400
11351TIP3   OH234013   1.782   0.783   1.236
11351TIP3    H134014   1.693   0.771   1.270
11351TIP3    H234015   1.771   0.839   1.159
11352TIP3   OH234016   1.983   2.127   1.399
11352TIP3    H134017   2.017   2.054   1.346
11352TIP3    H234018   2.006   2.103   1.489
11353TIP3   OH234019   2.829   0.937   1.396
11353TIP3    H134020   2.810   0.865   1.456
11353TIP3    H234021   2.924   0.936   1.386
11354TIP3   OH234022   3.290   0.891   1.198
11354TIP3    H134023   3.368   0.945   1.211
11354TIP3    H234024   3.239   0.904   1.278
11355TIP3   OH234025   3.573   0.959   1.193
11355TIP3    H134026   3.562   0.880   1.140
11355TIP3    H234027   3.609   1.024   1.132
11356TIP3   OH234028   2.097   0.688   1.405
11356TIP3    H134029   2.006   0.659   1.403
11356TIP3    H234030   2.148   0.607   1.398
11357TIP3   OH234031   1.917   0.588   1.071
11357TIP3    H134032   1.939   0.635   0.990
11357TIP3    H234033   1.878   0.654   1.128
11358TIP3   OH234034   2.536   0.710   1.279
11358TIP3    H134035   2.597   0.735   1.210
11358TIP3    H234036   2.523   0.790   1.330
11359TIP3   OH234037   3.086   0.830   1.374
11359TIP3    H134038   3.053   0.844   1.286
11359TIP3    H234039   3.056   0.741   1.397
11360TIP3   OH234040   3.054   0.808   0.746
11360TIP3    H134041   2.963   0.830   0.765
11360TIP3    H234042   3.091   0.780   0.830
11361TIP3   OH234043   1.620   2.111   0.746
11361TIP3    H134044   1.527   2.100   0.727
11361TIP3    H234045   1.623   2.183   0.810
11362TIP3   OH234046   2.011   0.711   0.827
11362TIP3    H134047   2.058   0.655   0.766
11362TIP3    H234048   2.077   0.770   0.862
11363TIP3   OH234049   2.489   0.871   0.927
11363TIP3    H134050   2.544   0.818   0.985
11363TIP3    H234051   2.508   0.962   0.952
11364TIP3   OH234052   2.335   2.303   0.377
11364TIP3    H134053   2.418   2.331   0.336
11364TIP3    H234054   2.318   2.216   0.339
11365TIP3   OH234055   1.696   2.146   0.482
11365TIP3    H134056   1.676   2.135   0.575
11365TIP3    H234057   1.778   2.098   0.469
11366TIP3   OH234058   3.517   1.527   0.669
11366TIP3    H134059   3.468   1.606   0.694
11366TIP3    H234060   3.535   1.539   0.576
11367TIP3   OH234061   4.427   1.113   0.156
11367TIP3    H134062   4.382   1.196   0.139
11367TIP3    H234063   4.369   1.046   0.120
11368TIP3   OH234064   4.027   1.124   0.034
11368TIP3    H134065   3.974   1.170   0.099
11368TIP3    H234066   3.981   1.139  -0.049
11369TIP3   OH234067   3.691   1.221   1.057
11369TIP3    H134068   3.653   1.308   1.055
11369TIP3    H234069   3.666   1.182   0.972
11370TIP3   OH234070   3.478   1.109   0.372
11370TIP3    H134071   3.566   1.145   0.385
11370TIP3    H234072   3.421   1.186   0.364
11371TIP3   OH234073   3.972   1.338   0.231
11371TIP3    H134074   3.879   1.350   0.213
11371TIP3    H234075   4.015   1.369   0.151
11372TIP3   OH234076   3.568   1.716   0.127
11372TIP3    H134077   3.618   1.655   0.181
11372TIP3    H234078   3.483   1.723   0.172
11373TIP3   OH234079   3.961   1.209   0.478
11373TIP3    H134080   3.947   1.293   0.436
11373TIP3    H234081   4.018   1.161   0.418
11374TIP3   OH234082   3.686   1.292   0.318
11374TIP3    H134083   3.713   1.375   0.357
11374TIP3    H234084   3.606   1.313   0.270
11375TIP3   OH234085   6.478   5.417   6.320
11375TIP3    H134086   6.422   5.395   6.395
11375TIP3    H234087   6.487   5.512   6.323
11376TIP3   OH234088   4.108   1.431   0.018
11376TIP3    H134089   4.063   1.456  -0.063
11376TIP3    H234090   4.159   1.508   0.042
11377TIP3   OH234091   3.445   2.033   0.137
11377TIP3    H134092   3.446   2.103   0.203
11377TIP3    H234093   3.444   1.952   0.187
11378TIP3   OH234094   3.676   1.073   0.828
11378TIP3    H134095   3.617   0.998   0.833
11378TIP3    H234096   3.637   1.131   0.763
11379TIP3   OH234097   3.846   0.956   1.008
11379TIP3    H134098   3.795   1.007   0.944
11379TIP3    H234099   3.916   0.916   0.956
11380TIP3   OH234100   3.656   0.765   0.533
11380TIP3    H134101   3.697   0.844   0.498
11380TIP3    H234102   3.615   0.795   0.615
11381TIP3   OH234103   3.931   0.822   0.413
11381TIP3    H134104   3.947   0.809   0.320
11381TIP3    H234105   3.904   0.913   0.421
11382TIP3   OH234106   7.237   2.043   1.342
11382TIP3    H134107   7.160   2.063   1.396
11382TIP3    H234108   7.245   2.118   1.283
11383TIP3   OH234109   7.069   2.279   0.968
11383TIP3    H134110   7.146   2.272   1.024
11383TIP3    H234111   7.012   2.342   1.013
11384TIP3   OH234112   7.272   2.242   1.148
11384TIP3    H134113   7.327   2.180   1.101
11384TIP3    H234114   7.328   2.319   1.162
11385TIP3   OH234115   0.868   2.729   1.126
11385TIP3    H134116   0.917   2.712   1.206
11385TIP3    H234117   0.934   2.760   1.063
11386TIP3   OH234118   0.995   2.705   1.361
11386TIP3    H134119   1.024   2.627   1.410
11386TIP3    H234120   1.073   2.737   1.317
11387TIP3   OH234121   0.556   2.340   1.656
11387TIP3    H134122   0.622   2.271   1.667
11387TIP3    H234123   0.553   2.384   1.741
11388TIP3   OH234124   0.488   3.108   0.992
11388TIP3    H134125   0.404   3.114   1.038
11388TIP3    H234126   0.469   3.138   0.903
11389TIP3   OH234127   0.426   2.918   0.651
11389TIP3    H134128   0.489   2.967   0.703
11389TIP3    H234129   0.478   2.850   0.607
11390TIP3   OH234130   0.815   3.190   0.915
11390TIP3    H134131   0.765   3.200   0.996
11390TIP3    H234132   0.897   3.148   0.943
11391TIP3   OH234133   0.656   3.041   0.743
11391TIP3    H134134   0.701   3.105   0.797
11391TIP3    H234135   0.677   3.067   0.653
11392TIP3   OH234136   1.121   2.267   0.786
11392TIP3    H134137   1.050   2.295   0.843
11392TIP3    H234138   1.142   2.344   0.733
11393TIP3   OH234139   0.941   3.715   0.260
11393TIP3    H134140   0.952   3.713   0.355
11393TIP3    H234141   1.015   3.665   0.226
11394TIP3   OH234142   0.716   3.097   0.487
11394TIP3    H134143   0.676   3.073   0.403
11394TIP3    H234144   0.800   3.137   0.463
11395TIP3   OH234145   0.424   2.468   0.812
11395TIP3    H134146   0.394   2.473   0.903
11395TIP3    H234147   0.388   2.385   0.780
11396TIP3   OH234148   0.606   2.888   1.105
11396TIP3    H134149   0.573   2.968   1.064
11396TIP3    H234150   0.665   2.850   1.040
11397TIP3   OH234151   0.725   2.874   1.361
11397TIP3    H134152   0.678   2.905   1.285
11397TIP3    H234153   0.756   2.786   1.337
11398TIP3   OH234154   0.093   2.446   0.783
11398TIP3    H134155   0.089   2.452   0.878
11398TIP3    H234156   0.022   2.503   0.752
11399TIP3   OH234157   7.451   2.448   1.169
11399TIP3    H134158   7.450   2.494   1.085
11399TIP3    H234159   7.501   2.507   1.227
11400TIP3   OH234160   0.113   2.682   1.119
11400TIP3    H134161   0.201   2.720   1.125
11400TIP3    H234162   0.077   2.716   1.038
11401TIP3   OH234163   7.801   2.732   0.872
11401TIP3    H134164   7.738   2.695   0.809
11401TIP3    H234165   7.854   2.792   0.819
11402TIP3   OH234166   0.066   2.434   1.412
11402TIP3    H134167   0.018   2.355   1.436
11402TIP3    H234168   0.095   2.418   1.322
11403TIP3   OH234169   0.677   2.560   0.784
11403TIP3    H134170   0.583   2.544   0.790
11403TIP3    H234171   0.687   2.653   0.803
11404TIP3   OH234172   0.741   2.813   0.863
11404TIP3    H134173   0.837   2.816   0.863
11404TIP3    H234174   0.714   2.891   0.815
11405TIP3   OH234175   1.165   2.917   0.691
11405TIP3    H134176   1.108   2.885   0.620
11405TIP3    H234177   1.188   3.006   0.664
11406TIP3   OH234178   0.893   3.730   0.545
11406TIP3    H134179   0.857   3.727   0.633
11406TIP3    H234180   0.928   3.642   0.530
11407TIP3   OH234181   0.635   3.469   0.513
11407TIP3    H134182   0.685   3.440   0.589
11407TIP3    H234183   0.553   3.420   0.519
11408TIP3   OH234184   0.822   3.962   0.340
11408TIP3    H134185   0.874   4.030   0.298
11408TIP3    H234186   0.859   3.954   0.428
11409TIP3   OH234187   0.799   3.395   0.724
11409TIP3    H134188   0.798   3.323   0.787
11409TIP3    H234189   0.892   3.415   0.711
11410TIP3   OH234190   0.733   2.508   1.047
11410TIP3    H134191   0.712   2.522   0.955
11410TIP3    H234192   0.771   2.592   1.075
11411TIP3   OH234193   0.399   2.717   1.173
11411TIP3    H134194   0.468   2.775   1.142
11411TIP3    H234195   0.409   2.717   1.269
11412TIP3   OH234196   0.574   2.399   1.236
11412TIP3    H134197   0.599   2.449   1.313
11412TIP3    H234198   0.628   2.434   1.165
11413TIP3   OH234199   0.081   2.419   1.062
11413TIP3    H134200   0.069   2.509   1.092
11413TIP3    H234201   0.176   2.405   1.068
11414TIP3   OH234202   7.431   2.589   0.933
11414TIP3    H134203   7.457   2.665   0.881
11414TIP3    H234204   7.378   2.536   0.873
11415TIP3   OH234205   0.646   3.695   0.350
11415TIP3    H134206   0.656   3.648   0.433
11415TIP3    H234207   0.633   3.627   0.285
11416TIP3   OH234208   0.381   3.349   0.474
11416TIP3    H134209   0.298   3.349   0.521
11416TIP3    H234210   0.396   3.258   0.451
11417TIP3   OH234211   0.156   2.889   0.708
11417TIP3    H134212   0.123   2.894   0.618
11417TIP3    H234213   0.251   2.890   0.699
11418TIP3   OH234214   0.944   3.205   0.377
11418TIP3    H134215   0.932   3.153   0.298
11418TIP3    H234216   0.912   3.292   0.353
11419TIP3   OH234217   1.071   3.439   0.698
11419TIP3    H134218   1.148   3.495   0.686
11419TIP3    H234219   1.101   3.370   0.757
11420TIP3   OH234220   1.139   3.219   0.837
11420TIP3    H134221   1.103   3.145   0.885
11420TIP3    H234222   1.196   3.263   0.901
11421TIP3   OH234223   1.150   3.171   0.561
11421TIP3    H134224   1.071   3.177   0.507
11421TIP3    H234225   1.121   3.198   0.649
11422TIP3   OH234226   0.998   2.827   0.500
11422TIP3    H134227   0.960   2.852   0.415
11422TIP3    H234228   0.987   2.732   0.503
11423TIP3   OH234229   1.040   3.041   1.026
11423TIP3    H134230   1.037   2.956   0.983
11423TIP3    H234231   1.033   3.021   1.119
11424TIP3   OH234232   0.955   2.559   0.490
11424TIP3    H134233   1.028   2.520   0.538
11424TIP3    H234234   0.881   2.501   0.506
11425TIP3   OH234235   1.025   2.800   0.893
11425TIP3    H134236   1.062   2.713   0.910
11425TIP3    H234237   1.071   2.831   0.815
11426TIP3   OH234238   1.133   2.557   0.971
11426TIP3    H134239   1.189   2.537   1.046
11426TIP3    H234240   1.071   2.484   0.968
11427TIP3   OH234241   1.182   2.478   0.626
11427TIP3    H134242   1.231   2.416   0.572
11427TIP3    H234243   1.240   2.554   0.634
11428TIP3   OH234244   0.651   2.519   1.464
11428TIP3    H134245   0.613   2.474   1.540
11428TIP3    H234246   0.746   2.516   1.479
11429TIP3   OH234247   1.141   2.520   1.511
11429TIP3    H134248   1.216   2.465   1.488
11429TIP3    H234249   1.065   2.464   1.496
11430TIP3   OH234250   1.301   2.554   1.196
11430TIP3    H134251   1.338   2.466   1.189
11430TIP3    H234252   1.372   2.606   1.233
11431TIP3   OH234253   7.728   2.205   1.486
11431TIP3    H134254   7.645   2.175   1.525
11431TIP3    H234255   7.794   2.147   1.525
11432TIP3   OH234256   7.552   2.144   1.188
11432TIP3    H134257   7.592   2.172   1.106
11432TIP3    H234258   7.538   2.226   1.237
11433TIP3   OH234259   0.413   2.265   1.424
11433TIP3    H134260   0.450   2.322   1.356
11433TIP3    H234261   0.447   2.299   1.506
11434TIP3   OH234262   0.912   2.402   1.430
11434TIP3    H134263   0.917   2.367   1.341
11434TIP3    H234264   0.885   2.328   1.484
11435TIP3   OH234265   0.951   2.354   0.985
11435TIP3    H134266   0.870   2.402   1.005
11435TIP3    H234267   0.937   2.268   1.026
11436TIP3   OH234268   7.676   2.258   0.969
11436TIP3    H134269   7.725   2.200   0.910
11436TIP3    H234270   7.743   2.315   1.007
11437TIP3   OH234271   0.354   2.461   1.078
11437TIP3    H134272   0.422   2.419   1.131
11437TIP3    H234273   0.356   2.553   1.106
11438TIP3   OH234274   1.441   3.051   0.770
11438TIP3    H134275   1.421   3.143   0.752
11438TIP3    H234276   1.456   3.012   0.684
11439TIP3   OH234277   1.280   3.586   0.588
11439TIP3    H134278   1.233   3.657   0.544
11439TIP3    H234279   1.338   3.631   0.650
11440TIP3   OH234280   2.174   3.152   0.186
11440TIP3    H134281   2.180   3.132   0.280
11440TIP3    H234282   2.198   3.070   0.143
11441TIP3   OH234283   1.678   3.323   0.630
11441TIP3    H134284   1.672   3.416   0.649
11441TIP3    H234285   1.726   3.287   0.704
11442TIP3   OH234286   2.232   2.724   0.343
11442TIP3    H134287   2.199   2.716   0.432
11442TIP3    H234288   2.252   2.634   0.317
11443TIP3   OH234289   1.820   3.210   0.828
11443TIP3    H134290   1.764   3.152   0.880
11443TIP3    H234291   1.880   3.151   0.782
11444TIP3   OH234292   1.909   2.699   0.193
11444TIP3    H134293   1.938   2.758   0.263
11444TIP3    H234294   1.814   2.700   0.199
11445TIP3   OH234295   1.430   2.830   1.262
11445TIP3    H134296   1.504   2.862   1.315
11445TIP3    H234297   1.469   2.810   1.177
11446TIP3   OH234298   1.333   2.704   0.642
11446TIP3    H134299   1.387   2.733   0.568
11446TIP3    H234300   1.280   2.781   0.664
11447TIP3   OH234301   1.650   3.032   0.947
11447TIP3    H134302   1.578   3.028   0.884
11447TIP3    H234303   1.701   2.953   0.931
11448TIP3   OH234304   1.974   3.066   0.650
11448TIP3    H134305   2.064   3.082   0.677
11448TIP3    H234306   1.971   3.093   0.559
11449TIP3   OH234307   1.694   3.017   0.300
11449TIP3    H134308   1.645   2.974   0.230
11449TIP3    H234309   1.785   3.016   0.270
11450TIP3   OH234310   1.829   2.834   0.933
11450TIP3    H134311   1.868   2.800   1.013
11450TIP3    H234312   1.866   2.780   0.863
11451TIP3   OH234313   2.450   2.841   0.218
11451TIP3    H134314   2.385   2.788   0.265
11451TIP3    H234315   2.402   2.876   0.143
11452TIP3   OH234316   1.331   3.163   0.359
11452TIP3    H134317   1.412   3.165   0.409
11452TIP3    H234318   1.262   3.159   0.425
11453TIP3   OH234319   4.371   7.335   6.331
11453TIP3    H134320   4.346   7.265   6.271
11453TIP3    H234321   4.423   7.291   6.398
11454TIP3   OH234322   1.462   3.434   0.442
11454TIP3    H134323   1.398   3.495   0.479
11454TIP3    H234324   1.431   3.417   0.353
11455TIP3   OH234325   1.884   2.611   0.510
11455TIP3    H134326   1.905   2.702   0.489
11455TIP3    H234327   1.961   2.561   0.483
11456TIP3   OH234328   1.589   3.714   0.156
11456TIP3    H134329   1.627   3.705   0.243
11456TIP3    H234330   1.663   3.706   0.096
11457TIP3   OH234331   1.418   2.874   0.439
11457TIP3    H134332   1.468   2.956   0.449
11457TIP3    H234333   1.372   2.884   0.356
11458TIP3   OH234334   1.802   2.661   1.428
11458TIP3    H134335   1.819   2.735   1.369
11458TIP3    H234336   1.762   2.595   1.372
11459TIP3   OH234337   1.628   3.331   0.144
11459TIP3    H134338   1.687   3.347   0.218
11459TIP3    H234339   1.684   3.341   0.067
11460TIP3   OH234340   4.708   7.238   6.266
11460TIP3    H134341   4.700   7.302   6.337
11460TIP3    H234342   4.791   7.194   6.283
11461TIP3   OH234343   1.773   3.384   0.379
11461TIP3    H134344   1.752   3.344   0.464
11461TIP3    H234345   1.832   3.321   0.337
11462TIP3   OH234346   1.935   2.993   0.180
11462TIP3    H134347   1.897   2.994   0.093
11462TIP3    H234348   2.006   3.058   0.176
11463TIP3   OH234349   1.207   3.579   0.279
11463TIP3    H134350   1.292   3.603   0.316
11463TIP3    H234351   1.225   3.501   0.226
11464TIP3   OH234352   5.415   6.462   6.305
11464TIP3    H134353   5.429   6.420   6.389
11464TIP3    H234354   5.323   6.446   6.285
11465TIP3   OH234355   1.403   2.598   0.902
11465TIP3    H134356   1.310   2.577   0.896
11465TIP3    H234357   1.421   2.651   0.824
11466TIP3   OH234358   1.752   2.530   1.141
11466TIP3    H134359   1.737   2.513   1.048
11466TIP3    H234360   1.768   2.443   1.179
11467TIP3   OH234361   1.472   2.375   0.676
11467TIP3    H134362   1.529   2.409   0.607
11467TIP3    H234363   1.489   2.432   0.751
11468TIP3   OH234364   2.247   2.620   0.846
11468TIP3    H134365   2.343   2.626   0.853
11468TIP3    H234366   2.215   2.629   0.935
11469TIP3   OH234367   0.875   1.808   2.342
11469TIP3    H134368   0.876   1.902   2.362
11469TIP3    H234369   0.812   1.771   2.404
11470TIP3   OH234370   1.221   4.101   0.489
11470TIP3    H134371   1.235   4.008   0.475
11470TIP3    H234372   1.202   4.136   0.402
11471TIP3   OH234373   1.654   2.465   0.490
11471TIP3    H134374   1.677   2.409   0.416
11471TIP3    H234375   1.737   2.506   0.516
11472TIP3   OH234376   2.143   2.696   0.595
11472TIP3    H134377   2.168   2.618   0.645
11472TIP3    H234378   2.136   2.765   0.661
11473TIP3   OH234379   6.475   0.316   6.317
11473TIP3    H134380   6.475   0.357   6.404
11473TIP3    H234381   6.547   0.253   6.321
11474TIP3   OH234382   1.256   4.176   0.159
11474TIP3    H134383   1.349   4.189   0.145
11474TIP3    H234384   1.226   4.257   0.201
   7.80000   7.35391   6.36867   0.00000   0.00000  -2.60000   0.00000  -2.60000  -3.67696
