Title
44463
    1GLY      N    1   3.810   2.041   3.449  0.3731  0.6631 -0.1624
    1GLY    HT1    2   3.837   1.946   3.480 -1.3519  0.4397  0.7256
    1GLY    HT2    3   3.895   2.100   3.465  0.2276  0.7916  0.1307
    1GLY    HT3    4   3.785   2.049   3.348  1.8153 -0.0116 -0.6081
    1GLY     CA    5   3.694   2.075   3.531 -0.2493  0.2313  0.2870
    1GLY    HA1    6   3.619   2.000   3.510 -0.5896  0.7123 -0.2717
    1GLY    HA2    7   3.678   2.179   3.503  1.5753  0.3272 -0.5505
    1GLY      C    8   3.733   2.067   3.680 -0.1439 -0.5953  0.1203
    1GLY      O    9   3.839   2.012   3.715 -0.3174 -0.4725  0.6953
    2PRO      N   10   3.649   2.109   3.774  0.6994  0.2457 -0.4886
    2PRO     CD   11   3.533   2.189   3.740 -0.3914 -0.1396 -0.1731
    2PRO    HD1   12   3.452   2.128   3.696 -1.3049  0.9569 -0.0557
    2PRO    HD2   13   3.552   2.273   3.669 -2.3116  0.1700 -0.3600
    2PRO     CA   14   3.652   2.071   3.913 -0.2110  0.2903  0.3707
    2PRO     HA   15   3.734   2.125   3.958  1.7310 -0.6434 -1.8110
    2PRO     CB   16   3.518   2.114   3.966 -0.1988  0.3029  0.2456
    2PRO    HB1   17   3.524   2.126   4.076 -0.8187 -0.2342  0.3392
    2PRO    HB2   18   3.442   2.035   3.949 -0.8388  0.4692  2.1422
    2PRO     CG   19   3.487   2.237   3.884 -0.7267  0.0728 -0.1203
    2PRO    HG1   20   3.379   2.263   3.887 -0.5820  0.6196  0.4699
    2PRO    HG2   21   3.545   2.326   3.916  0.2979 -0.6014 -0.0419
    2PRO      C   22   3.693   1.923   3.951  0.3192 -0.4298 -0.5037
    2PRO      O   23   3.655   1.823   3.893  0.0202  0.6725  0.7567
    3GLY      N   24   3.785   1.919   4.050 -0.4874  0.0361 -0.4578
    3GLY     HN   25   3.809   2.000   4.103  0.7370 -0.1471 -0.7001
    3GLY     CA   26   3.837   1.802   4.116  1.0055 -0.1049 -0.1478
    3GLY    HA1   27   3.905   1.844   4.188  0.6222  1.1041 -0.4702
    3GLY    HA2   28   3.889   1.740   4.045 -0.1586 -2.8394  1.2313
    3GLY      C   29   3.733   1.718   4.195  0.6043  0.2616  0.2681
    3GLY      O   30   3.625   1.766   4.224  0.1837  0.2723  0.3806
    4ASP      N   31   3.758   1.593   4.241 -0.4293  0.2046 -1.1007
    4ASP     HN   32   3.847   1.547   4.233 -1.6729 -3.0056  1.3629
    4ASP     CA   33   3.674   1.511   4.324 -0.4471  0.0502  0.4405
    4ASP     HA   34   3.586   1.489   4.266  1.6770 -1.9285 -2.3122
    4ASP     CB   35   3.744   1.374   4.359 -0.0292 -0.2550  0.9644
    4ASP    HB1   36   3.680   1.328   4.437  0.1941 -1.0863  0.6635
    4ASP    HB2   37   3.843   1.401   4.401 -1.1091  0.2576  3.3501
    4ASP     CG   38   3.744   1.278   4.244 -0.5011  0.0407  0.5520
    4ASP    OD1   39   3.634   1.266   4.174 -0.3032 -0.0681  0.7117
    4ASP    OD2   40   3.835   1.199   4.238 -0.2862 -0.1711 -0.3067
    4ASP      C   41   3.643   1.592   4.455 -0.2875  0.3241  0.0138
    4ASP      O   42   3.733   1.660   4.513  0.3071  0.1375 -0.0395
    5PRO      N   43   3.519   1.586   4.509  0.3713 -0.8313 -0.1328
    5PRO     CD   44   3.397   1.546   4.435 -0.0994 -0.3312 -0.0690
    5PRO    HD1   45   3.401   1.435   4.429  1.0506 -0.3848  1.1721
    5PRO    HD2   46   3.406   1.573   4.328  0.5176 -2.4418 -0.6083
    5PRO     CA   47   3.487   1.613   4.653  0.2703  0.6010  0.3085
    5PRO     HA   48   3.501   1.719   4.671  0.7410  0.8045 -1.1624
    5PRO     CB   49   3.339   1.583   4.662 -0.0467 -0.1201 -0.4404
    5PRO    HB1   50   3.294   1.656   4.733 -0.3478 -1.0092  0.2906
    5PRO    HB2   51   3.320   1.484   4.708 -2.9266  0.2729 -0.6169
    5PRO     CG   52   3.282   1.592   4.518 -0.3544  0.2330 -0.4604
    5PRO    HG1   53   3.195   1.523   4.512  0.1784 -0.4546 -0.3985
    5PRO    HG2   54   3.256   1.697   4.497 -2.1764  0.7069  3.3431
    5PRO      C   55   3.570   1.546   4.762  0.1125 -0.7714  0.0651
    5PRO      O   56   3.644   1.454   4.727 -0.2638  0.3154  0.0270
    6GLY      N   57   3.566   1.597   4.887 -0.3705 -0.4001 -0.2140
    6GLY     HN   58   3.514   1.680   4.904  0.5527  0.0593  0.4208
    6GLY     CA   59   3.646   1.554   5.006  0.3308 -0.4584  0.4222
    6GLY    HA1   60   3.679   1.645   5.054  2.5712 -0.9585 -0.0392
    6GLY    HA2   61   3.733   1.514   4.957 -0.1184  1.0066 -1.7351
    6GLY      C   62   3.577   1.446   5.087  0.2011 -0.4120  0.0957
    6GLY      O   63   3.478   1.388   5.040 -0.5120  0.5564 -0.0917
    7PRO      N   64   3.636   1.414   5.203  0.3413  0.3442  0.6101
    7PRO     CD   65   3.763   1.468   5.253  0.4599  0.7089 -0.1760
    7PRO    HD1   66   3.742   1.574   5.279 -0.0835  0.7055 -0.5720
    7PRO    HD2   67   3.840   1.459   5.173  0.4519  1.5159 -0.2891
    7PRO     CA   68   3.579   1.324   5.298  0.2907  0.0549  0.0186
    7PRO     HA   69   3.588   1.227   5.253 -0.0267  0.3896 -0.7822
    7PRO     CB   70   3.657   1.346   5.429 -0.3794  0.6885  0.0509
    7PRO    HB1   71   3.664   1.271   5.510 -1.6179  1.1744  0.6350
    7PRO    HB2   72   3.620   1.442   5.471  0.7398  1.4410 -0.6322
    7PRO     CG   73   3.797   1.387   5.378  0.3331  0.5490 -0.1821
    7PRO    HG1   74   3.849   1.450   5.454  0.3784  0.1867  0.0901
    7PRO    HG2   75   3.865   1.305   5.346 -2.2254 -2.0657  0.7216
    7PRO      C   76   3.427   1.339   5.324  0.5797  0.4787 -0.5639
    7PRO      O   77   3.387   1.454   5.322 -0.0504  0.4439  0.3846
    8GLY      N   78   3.350   1.228   5.353 -0.2736 -1.0031 -0.2223
    8GLY     HN   79   3.400   1.142   5.360 -1.3637 -1.5845  0.6169
    8GLY     CA   80   3.205   1.230   5.373  0.1279  0.1108  0.5936
    8GLY    HA1   81   3.179   1.303   5.448 -0.4193 -1.3964  1.9435
    8GLY    HA2   82   3.172   1.130   5.396 -1.1377 -0.2694 -2.3910
    8GLY      C   83   3.123   1.276   5.254 -0.1367  0.9078 -0.7185
    8GLY      O   84   3.173   1.316   5.153 -0.2140  0.0528 -0.6724
    9ASP      N   85   2.986   1.274   5.258  0.0131  0.3419 -0.0345
    9ASP     HN   86   2.942   1.240   5.341 -1.3265  0.0849 -0.8337
    9ASP     CA   87   2.902   1.303   5.147  0.7850 -0.2323  0.1812
    9ASP     HA   88   2.921   1.224   5.076 -2.9742 -2.3972  1.2803
    9ASP     CB   89   2.746   1.283   5.171  0.3506  0.4495 -0.5191
    9ASP    HB1   90   2.690   1.286   5.075  1.1418  0.3539 -0.9948
    9ASP    HB2   91   2.703   1.357   5.242 -0.3641 -0.7169  0.2804
    9ASP     CG   92   2.735   1.145   5.230  0.1005  0.2198 -0.8167
    9ASP    OD1   93   2.677   1.116   5.337  0.3695  0.3633  0.5539
    9ASP    OD2   94   2.780   1.049   5.161  0.2001  0.2760  0.2639
    9ASP      C   95   2.907   1.446   5.085  0.0165  0.8665 -0.0757
    9ASP      O   96   2.934   1.535   5.168 -0.0681  0.1441 -0.0167
   10PRO      N   97   2.881   1.478   4.961  0.0632  0.4799  0.0975
   10PRO     CD   98   2.878   1.380   4.854 -0.3755 -0.0604 -0.0003
   10PRO    HD1   99   2.782   1.324   4.847  0.5465 -1.7174 -0.0211
   10PRO    HD2  100   2.966   1.315   4.876 -1.0584 -0.1547  2.7823
   10PRO     CA  101   2.873   1.617   4.922  0.5012 -0.0943 -0.6179
   10PRO     HA  102   2.937   1.680   4.981  0.9500 -0.6012 -0.5529
   10PRO     CB  103   2.902   1.616   4.777 -0.2307 -0.3256 -0.0907
   10PRO    HB1  104   3.000   1.663   4.756  1.0644 -1.1227  3.4728
   10PRO    HB2  105   2.830   1.672   4.713  0.4121  0.2473 -0.3165
   10PRO     CG  106   2.894   1.470   4.729  0.0811  0.0753 -0.6161
   10PRO    HG1  107   2.816   1.459   4.650 -0.3332  1.4206 -0.4251
   10PRO    HG2  108   2.992   1.438   4.689 -0.2352 -1.5464 -0.1351
   10PRO      C  109   2.730   1.668   4.957 -0.1376  0.1276 -0.7247
   10PRO      O  110   2.638   1.586   4.955 -0.2093 -0.4174 -0.2512
   11GLY      N  111   2.703   1.799   4.984  0.0590  0.3049  0.3031
   11GLY     HN  112   2.781   1.860   4.999  0.5641 -0.2326 -0.0651
   11GLY     CA  113   2.569   1.845   5.029  0.3785  0.4816 -0.0908
   11GLY    HA1  114   2.496   1.800   4.963  1.2487 -0.1096 -0.6697
   11GLY    HA2  115   2.563   1.953   5.023 -2.1750  0.5491  1.7988
   11GLY      C  116   2.531   1.817   5.178  0.3334  0.4091 -0.2025
   11GLY      O  117   2.599   1.734   5.244  0.1583  0.6280 -0.2060
   12PRO      N  118   2.423   1.875   5.230 -0.1427  0.1096 -0.2263
   12PRO     CD  119   2.335   1.975   5.162 -0.1571 -0.1350 -0.5738
   12PRO    HD1  120   2.265   1.929   5.089 -1.1725  2.9046 -1.7108
   12PRO    HD2  121   2.396   2.054   5.112 -1.1289 -0.4596 -2.3316
   12PRO     CA  122   2.368   1.844   5.361 -0.0177  0.1971  0.0800
   12PRO     HA  123   2.439   1.878   5.435  0.2863 -1.3611  0.5389
   12PRO     CB  124   2.225   1.910   5.366  0.1434  0.5004  0.6280
   12PRO    HB1  125   2.201   1.944   5.469  0.7691  1.5738  0.4382
   12PRO    HB2  126   2.147   1.845   5.321  0.8424 -1.2325  1.8164
   12PRO     CG  127   2.243   2.036   5.273 -0.6114  0.5275 -0.5644
   12PRO    HG1  128   2.144   2.076   5.245 -0.9424  0.8746  1.0090
   12PRO    HG2  129   2.293   2.118   5.329  1.5882 -1.0410 -0.0468
   12PRO      C  130   2.357   1.699   5.397 -0.4036 -0.0061  0.2198
   12PRO      O  131   2.323   1.619   5.314  0.3812 -0.2368  0.2897
   13GLY      N  132   2.380   1.660   5.526  0.0797  0.0245 -0.5856
   13GLY     HN  133   2.432   1.719   5.587 -1.2588  3.4266 -2.4867
   13GLY     CA  134   2.326   1.537   5.574  0.9479  0.6708  0.4116
   13GLY    HA1  135   2.369   1.533   5.673  1.6704 -0.0158  0.0796
   13GLY    HA2  136   2.371   1.462   5.512 -0.9404 -1.1294  1.0861
   13GLY      C  137   2.178   1.515   5.583  0.6080  0.4191  0.2464
   13GLY      O  138   2.090   1.602   5.564  0.1951 -0.5550  0.3296
   14ASP      N  139   2.144   1.389   5.616  0.2943  0.6347 -0.6371
   14ASP     HN  140   2.209   1.315   5.632  1.3148  2.1236  3.3251
   14ASP     CA  141   2.005   1.351   5.635 -0.4896  0.2544 -0.2835
   14ASP     HA  142   1.935   1.423   5.596 -1.4462 -0.3236  0.3015
   14ASP     CB  143   1.969   1.207   5.564  0.1890 -0.0524  0.1937
   14ASP    HB1  144   1.870   1.163   5.586  0.3646 -0.5683 -0.0391
   14ASP    HB2  145   2.050   1.145   5.607  0.8553  0.4961 -0.2269
   14ASP     CG  146   1.988   1.215   5.414 -0.2019 -0.2996 -0.1144
   14ASP    OD1  147   2.007   1.323   5.355 -0.6944  0.0446  0.0316
   14ASP    OD2  148   1.987   1.107   5.350  0.4102  1.0363  0.3751
   14ASP      C  149   1.975   1.337   5.784 -0.9775 -0.5681  0.0991
   14ASP      O  150   2.072   1.343   5.856 -0.0868  0.2616  0.1427
   15PRO      N  151   1.849   1.327   5.826  0.3593  0.2524 -0.5451
   15PRO     CD  152   1.733   1.367   5.747 -0.1145 -0.1535  0.4971
   15PRO    HD1  153   1.707   1.288   5.674  0.8240 -2.6176  2.6518
   15PRO    HD2  154   1.756   1.459   5.690 -2.0554  0.2215  0.2723
   15PRO     CA  155   1.819   1.326   5.972  0.8313  0.0120  0.8556
   15PRO     HA  156   1.905   1.355   6.030  2.3745  0.1105 -1.3319
   15PRO     CB  157   1.699   1.420   5.982 -0.3381 -0.3767 -0.0331
   15PRO    HB1  158   1.741   1.523   5.980 -0.9324 -0.1323  0.0988
   15PRO    HB2  159   1.641   1.407   6.076  1.7033  1.0564  1.5413
   15PRO     CG  160   1.628   1.405   5.846 -0.1750 -1.0571 -0.3317
   15PRO    HG1  161   1.554   1.322   5.845 -0.2791 -0.9633 -0.4673
   15PRO    HG2  162   1.579   1.503   5.824  1.1272  0.1628  1.8189
   15PRO      C  163   1.779   1.187   6.021 -0.3122 -0.0810 -0.2112
   15PRO    OT1  164   1.792   1.091   5.946 -0.3248  0.4824  0.3826
   15PRO    OT2  165   1.731   1.174   6.139  0.0960 -0.6267  0.2853
   16LIT    LIT  166   1.679   0.989   6.090 -0.7743  1.1593  0.1362
   17LIT    LIT  167   3.877   4.586   1.120 -0.4226  1.0542 -0.3827
   18LIT    LIT  168   1.485   6.003   5.893  0.1606 -0.6104  0.5043
   19LIT    LIT  169   3.343   7.441   0.888  0.5236  0.1875  1.7514
   20LIT    LIT  170   1.023   7.229   4.416 -0.1100  0.1705 -0.3666
   21LIT    LIT  171   0.058   3.842   3.336 -0.6034 -0.3569 -0.6219
   22LIT    LIT  172   5.132   2.835   4.863 -0.7455  0.1660  0.6436
   23LIT    LIT  173   2.621   1.067   1.881  0.0113 -0.4690  0.6227
   24LIT    LIT  174   7.440   7.117   1.673 -0.7621  0.5374 -0.5671
   25LIT    LIT  175   2.647   4.576   5.521 -1.0293  0.3497 -0.6955
   26LIT    LIT  176   1.009   1.079   2.677  0.6792  0.1154 -0.0486
   27LIT    LIT  177   2.286   5.044   6.339  0.3500 -0.0808  0.3599
   28LIT    LIT  178   6.558   0.951   5.509 -0.0805  0.7706  0.3655
   29LIT    LIT  179   0.815   4.780   4.642  0.0373  0.8929 -0.9522
   30LIT    LIT  180   4.790   1.966   0.295  0.8111  0.1219 -0.1699
   31LIT    LIT  181   2.357   1.843   6.096 -0.1465 -0.0979 -1.3259
   32LIT    LIT  182   2.580   6.253   6.529 -0.6703 -1.0269 -1.8421
   33LIT    LIT  183   6.388   1.562   4.570 -0.5313  0.2047  0.7233
   34LIT    LIT  184   3.049   7.604   3.393  0.7465 -0.5323 -0.5936
   35LIT    LIT  185   2.852   3.398   2.861  0.1827 -1.2381 -0.5348
   36LIT    LIT  186   2.674   0.930   5.289  0.1717 -0.2396  0.4907
   37LIT    LIT  187   0.763   3.070   2.724  0.0885  0.7938  1.1408
   38LIT    LIT  188   4.784   2.406   3.642 -0.0606 -0.0555  0.2459
   39LIT    LIT  189   0.920   7.113   3.889  0.6159  0.1181  0.4144
   40LIT    LIT  190   4.722   4.964   0.553 -0.4793  0.6827  0.1139
   41LIT    LIT  191   3.883   7.073   4.201  0.0189  0.2369 -0.8400
   42LIT    LIT  192   0.060   3.234   5.835  0.1963 -0.0701  0.3012
   43LIT    LIT  193   0.709   5.734   2.067 -0.0646 -0.4572  0.1770
   44LIT    LIT  194   3.911   5.539   6.625 -0.7116 -0.0191 -1.0589
   45LIT    LIT  195   2.089   5.842   2.156 -0.2223 -0.7757 -0.3468
   46LIT    LIT  196   3.114   5.845   2.461  1.1312  0.3952  0.8599
   47LIT    LIT  197   3.753   5.921   2.480 -0.1523 -0.8769 -0.1157
   48LIT    LIT  198   6.686   4.456   4.837  0.2047  0.6318  0.4788
   49LIT    LIT  199   2.351   2.164   4.249  0.6024  0.2495 -0.4454
   50LIT    LIT  200   0.721   0.360   3.998  0.6736 -0.7718  1.1360
   51LIT    LIT  201   7.201   7.601   0.829  0.7402  1.2112  0.4680
   52LIT    LIT  202   4.519   7.450   1.754  0.0558 -0.9801  0.2408
   53LIT    LIT  203   1.906   0.337   4.672  0.5385  1.1384 -0.4324
   54LIT    LIT  204   1.515   1.380   3.129 -0.1875  0.1047  0.4505
   55LIT    LIT  205   7.590   2.416   2.822  0.1699  0.1914 -0.4771
   56LIT    LIT  206   6.552   0.778   4.414  0.0909  1.2299  0.0143
   57LIT    LIT  207   6.193   7.493   2.557  0.9865  0.7894  0.4047
   58LIT    LIT  208   1.970   1.209   5.177 -0.2545 -0.2745 -0.2861
   59LIT    LIT  209   8.060   5.022   0.688  0.0647  0.2196  0.7307
   60LIT    LIT  210   4.071   0.605   4.568  0.2422 -0.8288 -0.4257
   61CLA    CLA  211   1.559   2.947   6.276 -0.0294 -0.1186 -0.1128
   62CLA    CLA  212   2.568   3.315   4.993 -0.0568 -0.1470  0.1489
   63CLA    CLA  213   0.315   4.029   2.883 -0.0248 -0.2405  0.1462
   64CLA    CLA  214   4.714   6.498   2.926  0.1270  0.5627 -0.2456
   65CLA    CLA  215   3.587   5.236   6.527 -0.0467 -0.2049  0.2240
   66CLA    CLA  216   7.569   7.342   4.481 -0.0352  0.2301  0.1789
   67CLA    CLA  217   1.922   2.159   3.352  0.3931 -0.1300 -0.1531
   68CLA    CLA  218   3.935   4.428   2.363  0.3698  0.3692  0.3248
   69CLA    CLA  219   2.305   5.014   3.460  0.1880  0.4128  0.0387
   70CLA    CLA  220   0.863   3.887   5.168 -0.2833 -0.3305 -0.3534
   71CLA    CLA  221   6.630   1.333   5.106 -0.2567 -0.4019 -0.1030
   72CLA    CLA  222   7.766   4.858   2.836 -0.2566 -0.2826  0.2473
   73CLA    CLA  223   2.742   4.461   5.359 -0.6069  0.1285  0.0597
   74CLA    CLA  224   6.236   4.129   3.424  0.1308  0.2176  0.1841
   75CLA    CLA  225   1.860   5.278   0.655  0.4869  0.0283 -0.3025
   76CLA    CLA  226   2.254   5.735   2.029 -0.1857  0.0390 -0.3840
   77CLA    CLA  227   7.830   5.895   2.385  0.1675 -0.2750  0.0771
   78CLA    CLA  228   2.734   7.115   5.154 -0.3120  0.1909 -0.3002
   79CLA    CLA  229   4.261   4.249   1.126 -0.3863  0.2272 -0.0568
   80CLA    CLA  230   8.098   6.031   1.724  0.1058  0.0295 -0.2554
   81CLA    CLA  231   5.703   2.856   5.475  0.0627  0.0676 -0.2756
   82CLA    CLA  232   1.314   7.806   6.021 -0.0688  0.6384 -0.2288
   83CLA    CLA  233   5.010   2.014   5.171  0.1942  0.1483  0.1404
   84CLA    CLA  234   5.491   0.262   1.994  0.3346  0.2156  0.1810
   85CLA    CLA  235   2.881   2.949   2.838  0.4726 -0.1866 -0.1919
   86CLA    CLA  236   7.765   2.671   3.402 -0.5284  0.1620  0.2932
   87CLA    CLA  237   7.249   7.569   1.352 -0.1018  0.0558 -0.0811
   88CLA    CLA  238   5.568   6.414   5.329 -0.0485  0.3236 -0.2643
   89CLA    CLA  239   5.125   2.039   1.173 -0.3226 -0.0032  0.0292
   90CLA    CLA  240   0.607   1.029   3.929  0.0441  0.2258 -0.1210
   91CLA    CLA  241   8.124   6.130   1.071  0.3329  0.4715  0.2399
   92CLA    CLA  242   6.963   6.366   5.224  0.0070 -0.5952  0.1794
   93CLA    CLA  243   4.922   5.396   2.281  0.4572 -0.0884  0.0633
   94CLA    CLA  244   3.039   1.199   2.556  0.0381  0.4568  0.0728
   95CLA    CLA  245   7.748   0.802   0.159  0.5163  0.1493 -0.4162
   96CLA    CLA  246   0.993   3.026   3.157  0.6085 -0.2579 -0.0079
   97CLA    CLA  247   0.934   1.768   1.538 -0.0577  0.2314 -0.1234
   98CLA    CLA  248   2.076   6.000   5.609 -0.2255  0.0569  0.1976
   99CLA    CLA  249   0.371   6.603   4.360 -0.1607 -0.1469  0.3395
  100CLA    CLA  250   4.960   7.825   2.066  0.7342 -0.1908  0.0525
  101CLA    CLA  251   4.975   6.664   2.014  0.1305  0.0362 -0.0274
  102CLA    CLA  252   2.465   2.042   6.087  0.1639 -0.5456 -0.3499
  103TIP3   OH2  253   6.392   5.717   6.307 -0.5159 -0.2229 -0.3390
  103TIP3    H1  254   6.328   5.700   6.238 -0.3444 -2.5996  0.0270
  103TIP3    H2  255   6.434   5.633   6.324 -0.3021  0.3250  2.4160
  104TIP3   OH2  256   5.689   2.721   4.978  0.2079 -0.6393  0.8762
  104TIP3    H1  257   5.657   2.642   4.936 -0.1088 -0.1533  0.1896
  104TIP3    H2  258   5.640   2.726   5.060 -1.3670 -0.0220 -0.0534
  105TIP3   OH2  259   4.058   1.256   6.763 -0.1762 -0.1537 -0.4903
  105TIP3    H1  260   4.069   1.219   6.676 -1.0947 -0.4263 -0.4999
  105TIP3    H2  261   3.987   1.319   6.754 -0.5098 -0.4248  0.1238
  106TIP3   OH2  262   2.905   0.964   4.544 -0.1109  0.0802  0.3759
  106TIP3    H1  263   2.975   0.983   4.608  0.7371  0.1396 -0.5413
  106TIP3    H2  264   2.945   0.983   4.459 -1.2677  0.1359 -0.1691
  107TIP3   OH2  265   1.353   3.788   0.756  0.8209  0.2873  0.5930
  107TIP3    H1  266   1.347   3.882   0.742  0.0859  0.4987  2.1023
  107TIP3    H2  267   1.447   3.771   0.767  0.9693  0.8074  0.1432
  108TIP3   OH2  268   7.373   4.834   4.233  0.6684 -0.2889 -0.2060
  108TIP3    H1  269   7.339   4.877   4.311 -2.7474  0.5310 -1.9774
  108TIP3    H2  270   7.433   4.898   4.194 -0.7339  1.0076 -0.3224
  109TIP3   OH2  271   6.838   1.945   2.265 -0.0859  0.1556  0.2657
  109TIP3    H1  272   6.901   1.981   2.327  0.6694  0.9019 -0.9164
  109TIP3    H2  273   6.788   1.882   2.317  0.0760  1.2338  1.7989
  110TIP3   OH2  274   7.146   0.935   3.608 -0.0661 -0.2129 -0.0572
  110TIP3    H1  275   7.214   0.930   3.541 -0.8561 -3.0134 -0.7696
  110TIP3    H2  276   7.166   0.864   3.669 -0.7203  0.7712  1.3548
  111TIP3   OH2  277   8.061   0.697   6.046  0.2794  0.3278  0.7898
  111TIP3    H1  278   8.125   0.690   5.975 -0.3828 -0.2912  0.2433
  111TIP3    H2  279   7.982   0.655   6.012 -0.4746  1.2115  1.4082
  112TIP3   OH2  280   1.893   5.488   5.813 -0.4718 -0.1053 -0.0775
  112TIP3    H1  281   1.899   5.571   5.766 -2.2124 -0.0854 -0.3109
  112TIP3    H2  282   1.829   5.437   5.763 -0.0031 -1.2872  0.5103
  113TIP3   OH2  283   8.031   2.093   1.503  0.4389  0.2694 -0.4638
  113TIP3    H1  284   8.046   2.005   1.538 -2.9325 -1.0156 -1.8654
  113TIP3    H2  285   7.991   2.142   1.574 -0.8268 -0.4392 -0.6721
  114TIP3   OH2  286   5.567   5.916   0.844 -0.2513 -0.7443 -0.3435
  114TIP3    H1  287   5.528   5.911   0.932  0.9652 -0.5715  0.2356
  114TIP3    H2  288   5.531   5.995   0.806  0.6420  0.2223  0.7475
  115TIP3   OH2  289   0.721   6.443   2.662  0.2348  0.6884 -0.5196
  115TIP3    H1  290   0.644   6.499   2.665 -1.4398 -1.5113 -0.1684
  115TIP3    H2  291   0.702   6.379   2.594  1.3784 -0.4130  0.1548
  116TIP3   OH2  292   6.734   2.879   3.652  0.1110  0.1721 -0.6936
  116TIP3    H1  293   6.720   2.891   3.746  1.8703  2.5310 -0.6559
  116TIP3    H2  294   6.772   2.961   3.622  2.4801 -1.5371 -2.8779
  117TIP3   OH2  295   1.409   3.111   1.660  0.3215 -0.0947  0.0636
  117TIP3    H1  296   1.456   3.057   1.597  1.0376  1.4109 -0.7532
  117TIP3    H2  297   1.451   3.092   1.744  1.7152  0.4435 -0.4874
  118TIP3   OH2  298   0.801   0.253   6.631  0.0859 -0.4974 -0.3715
  118TIP3    H1  299   0.882   0.276   6.678  0.4608 -2.3663 -0.0221
  118TIP3    H2  300   0.791   0.323   6.567  0.6340  1.0878  1.1743
  119TIP3   OH2  301   2.147   6.107   1.085 -0.5668  0.1714 -0.3922
  119TIP3    H1  302   2.138   6.039   1.018  1.4685 -1.0857  0.4927
  119TIP3    H2  303   2.240   6.127   1.086 -0.7971  1.3289  0.9635
  120TIP3   OH2  304   6.665   0.440   6.667 -0.0062 -0.0454  0.0797
  120TIP3    H1  305   6.581   0.482   6.685 -1.7137 -3.7196  1.6767
  120TIP3    H2  306   6.653   0.398   6.581 -1.6018 -3.9482  1.9374
  121TIP3   OH2  307   6.150   1.589   2.049  0.5549  0.0035 -0.4211
  121TIP3    H1  308   6.104   1.559   1.970  0.7331 -1.3740 -0.0238
  121TIP3    H2  309   6.160   1.684   2.036  2.1294 -0.4110 -2.8924
  122TIP3   OH2  310   5.527   4.149   5.814 -0.3728  0.3312 -0.2225
  122TIP3    H1  311   5.579   4.168   5.892  0.8004 -0.8497 -0.6922
  122TIP3    H2  312   5.589   4.155   5.741 -0.9747 -0.6703 -0.8431
  123TIP3   OH2  313   1.480   0.973   5.322 -0.0556 -0.6640  0.2339
  123TIP3    H1  314   1.552   0.957   5.383 -0.1098 -0.2623  0.3999
  123TIP3    H2  315   1.522   0.978   5.236  0.0192 -1.2405  0.2286
  124TIP3   OH2  316   2.389   0.746   2.444  0.5560 -0.1396 -0.8272
  124TIP3    H1  317   2.381   0.719   2.352 -0.1791  2.6898 -1.7027
  124TIP3    H2  318   2.477   0.781   2.451  1.0638 -1.5167 -0.0604
  125TIP3   OH2  319   2.802   0.589   3.116 -0.7144  0.4486 -0.5029
  125TIP3    H1  320   2.801   0.654   3.046  1.1214 -0.5343 -1.4971
  125TIP3    H2  321   2.848   0.514   3.079  0.2869 -0.1291  1.7438
  126TIP3   OH2  322   2.971   4.895   3.323 -0.1000  0.4127 -0.6731
  126TIP3    H1  323   2.933   4.904   3.411  0.1200  0.1690 -0.5519
  126TIP3    H2  324   2.948   4.977   3.279 -0.1651  0.5593 -0.3707
  127TIP3   OH2  325   2.935   5.637   4.506  0.2535 -0.1605 -0.4874
  127TIP3    H1  326   3.001   5.660   4.440 -0.5585 -2.3530 -2.2178
  127TIP3    H2  327   2.917   5.544   4.489 -0.7705 -0.5381  2.2082
  128TIP3   OH2  328   5.709   6.520   6.463  0.0141  0.7368  0.0205
  128TIP3    H1  329   5.787   6.549   6.415  0.6215  2.6755  2.0028
  128TIP3    H2  330   5.725   6.428   6.481  1.8212  1.0560  0.2615
  129TIP3   OH2  331   5.857   6.903   1.056  0.2747 -0.5873 -0.6026
  129TIP3    H1  332   5.808   6.821   1.060 -2.4297  0.9060 -0.3592
  129TIP3    H2  333   5.938   6.885   1.102 -1.4849 -2.3732  2.0954
  130TIP3   OH2  334   0.614   6.571   3.845 -0.0240  0.0194  0.5273
  130TIP3    H1  335   0.549   6.623   3.797 -0.4922 -1.3183 -0.3365
  130TIP3    H2  336   0.696   6.589   3.800  0.1734  1.3819  1.3570
  131TIP3   OH2  337   2.372   5.413   2.446 -0.0097 -0.5341 -0.0105
  131TIP3    H1  338   2.450   5.414   2.389 -0.2844  2.1999 -0.5003
  131TIP3    H2  339   2.298   5.418   2.385 -0.5787 -2.2911  0.4868
  132TIP3   OH2  340   2.748   6.169   6.466  0.0333  0.0560  0.2313
  132TIP3    H1  341   2.783   6.184   6.378 -0.1852 -1.7621 -0.2148
  132TIP3    H2  342   2.818   6.123   6.513  0.6899  2.2146  1.5193
  133TIP3   OH2  343   1.059   6.859   6.385  0.5136  0.3665 -0.1336
  133TIP3    H1  344   1.052   6.927   6.452 -0.4516  0.2554 -0.1041
  133TIP3    H2  345   1.042   6.906   6.303  0.7771  0.3342 -0.2055
  134TIP3   OH2  346   6.729   3.659   6.608  0.0066  0.5989  0.8783
  134TIP3    H1  347   6.700   3.569   6.627 -0.6379  0.3181 -1.2160
  134TIP3    H2  348   6.798   3.675   6.673  0.3302 -1.5013  1.1542
  135TIP3   OH2  349   2.122   1.032   2.646 -0.4050 -0.8986  0.4205
  135TIP3    H1  350   2.049   0.997   2.593  0.3308 -2.1815  0.2062
  135TIP3    H2  351   2.079   1.084   2.714 -1.6233 -2.7057  1.1091
  136TIP3   OH2  352   0.103   4.822   3.372  0.0878  0.0336  0.7539
  136TIP3    H1  353   0.153   4.760   3.318  0.5437  0.7036  0.3857
  136TIP3    H2  354   0.066   4.884   3.309  0.3191  0.6109  1.1819
  137TIP3   OH2  355   1.054   4.533   5.436  0.5620  0.1506  0.4051
  137TIP3    H1  356   1.136   4.483   5.435  1.5804  1.6684  1.6217
  137TIP3    H2  357   1.083   4.624   5.446 -1.1932  1.0350 -1.8110
  138TIP3   OH2  358   2.047   1.890   2.267 -0.0872 -0.4974 -0.2614
  138TIP3    H1  359   2.044   1.795   2.281 -0.2547 -0.3657  0.6786
  138TIP3    H2  360   1.972   1.923   2.317 -1.0653 -0.0152 -1.9612
  139TIP3   OH2  361   5.426   2.258   1.693 -0.2868  0.3879  0.1482
  139TIP3    H1  362   5.371   2.193   1.649 -0.3629  0.5374  0.0206
  139TIP3    H2  363   5.508   2.213   1.710 -0.3246  0.2721  0.0234
  140TIP3   OH2  364   0.176   0.898   1.613  0.0808 -0.0335  0.4972
  140TIP3    H1  365   0.121   0.876   1.537 -0.8363  1.6696  0.6205
  140TIP3    H2  366   0.258   0.929   1.574 -0.2077  0.3779  0.2054
  141TIP3   OH2  367   6.583   3.944   5.332 -0.2344 -0.5193  0.0340
  141TIP3    H1  368   6.499   3.911   5.365 -1.1994  3.2844  1.9694
  141TIP3    H2  369   6.561   3.989   5.251  0.1055 -0.3626  0.0247
  142TIP3   OH2  370   3.592   3.520   4.254 -0.2813  0.4990 -0.1455
  142TIP3    H1  371   3.546   3.574   4.319  0.7824  0.4258  0.7100
  142TIP3    H2  372   3.650   3.464   4.307  1.0909  0.8899 -1.1794
  143TIP3   OH2  373   2.582   4.697   0.860  0.3411 -0.2689 -0.7471
  143TIP3    H1  374   2.504   4.679   0.913 -0.0602  0.4270 -1.0852
  143TIP3    H2  375   2.565   4.653   0.777 -0.7245  1.7385 -1.6419
  144TIP3   OH2  376   3.325   5.920   5.268  0.3356 -0.1098  0.1568
  144TIP3    H1  377   3.270   5.871   5.329  2.0617  0.3243  2.1925
  144TIP3    H2  378   3.278   5.917   5.185 -1.2981 -2.2260  1.0641
  145TIP3   OH2  379   2.689   7.674   1.042 -0.1296  0.0592 -0.0946
  145TIP3    H1  380   2.712   7.674   0.949 -0.2861  1.0361 -0.1368
  145TIP3    H2  381   2.716   7.760   1.073 -0.7298 -0.0041  0.6103
  146TIP3   OH2  382   0.180   1.630   5.568  0.2500 -0.0156  0.0324
  146TIP3    H1  383   0.188   1.539   5.595  1.3721 -0.1071 -0.5855
  146TIP3    H2  384   0.199   1.680   5.648  2.4053 -0.3069 -0.2349
  147TIP3   OH2  385   1.298   7.291   2.972 -0.2314 -0.3946  0.2896
  147TIP3    H1  386   1.277   7.234   3.046  0.4241 -0.7012  0.2451
  147TIP3    H2  387   1.218   7.292   2.919 -0.3589 -1.0017  0.4654
  148TIP3   OH2  388   3.609   1.829   0.044 -0.1790 -0.4856 -0.8366
  148TIP3    H1  389   3.689   1.791   0.008 -0.7984  0.2795 -3.1962
  148TIP3    H2  390   3.550   1.836  -0.031 -1.2935  1.9635  0.1498
  149TIP3   OH2  391   4.521   1.240   2.244  0.0187 -0.2305  0.9293
  149TIP3    H1  392   4.428   1.258   2.258 -0.5480 -2.4508  0.4207
  149TIP3    H2  393   4.538   1.271   2.155 -1.4399 -3.6167 -0.7126
  150TIP3   OH2  394   3.283   6.885   0.594  0.4848  0.1810  0.1826
  150TIP3    H1  395   3.369   6.844   0.582 -0.0479 -0.6416 -1.0924
  150TIP3    H2  396   3.229   6.816   0.633  0.4641  0.7887  1.2605
  151TIP3   OH2  397   4.294   3.149   0.105  0.5483 -0.1685 -0.1515
  151TIP3    H1  398   4.327   3.239   0.114  2.9760 -0.9577 -0.3356
  151TIP3    H2  399   4.373   3.095   0.105 -0.7995 -2.2474 -0.9329
  152TIP3   OH2  400   3.388   0.912   3.697 -0.0315 -0.1551  0.7239
  152TIP3    H1  401   3.389   0.840   3.761 -2.1549 -0.9082 -0.0313
  152TIP3    H2  402   3.369   0.990   3.750  0.3776 -0.4303  1.2905
  153TIP3   OH2  403   0.923   3.035   2.834 -0.0641  0.1353 -0.8156
  153TIP3    H1  404   0.993   3.012   2.773 -0.4479 -0.2123 -1.1292
  153TIP3    H2  405   0.959   3.016   2.921 -0.0749 -0.8653 -1.0196
  154TIP3   OH2  406   1.835   5.986   4.278  0.0051  0.4533  0.1434
  154TIP3    H1  407   1.847   6.081   4.276 -0.8008  0.5707  0.4706
  154TIP3    H2  408   1.917   5.952   4.314  0.4074  0.9983 -0.2435
  155TIP3   OH2  409   1.089   7.501   1.655 -0.2549 -0.1958 -0.0094
  155TIP3    H1  410   0.996   7.495   1.676 -0.3099  0.1064 -0.1615
  155TIP3    H2  411   1.132   7.518   1.738 -0.4022  0.3270 -0.0405
  156TIP3   OH2  412   0.907   3.673   0.823  0.7330 -0.6212  0.0358
  156TIP3    H1  413   0.900   3.579   0.842  2.2405 -0.7490  0.1361
  156TIP3    H2  414   0.977   3.703   0.881  0.2045  0.5845  0.0535
  157TIP3   OH2  415   1.550   3.752   5.902 -0.6797 -0.2303  0.0177
  157TIP3    H1  416   1.564   3.663   5.934 -0.7101 -0.0733  0.4724
  157TIP3    H2  417   1.455   3.764   5.906 -0.6511 -0.0733  0.2426
  158TIP3   OH2  418   3.996   3.872   0.282  0.3160 -0.3157  0.1195
  158TIP3    H1  419   3.957   3.801   0.230  2.3054 -0.3151 -1.4983
  158TIP3    H2  420   3.972   3.952   0.234  0.4487 -0.1379  0.3510
  159TIP3   OH2  421   6.382   0.040   5.696  0.1475 -0.1723  0.0052
  159TIP3    H1  422   6.316  -0.018   5.659  1.4640 -1.1509 -0.9118
  159TIP3    H2  423   6.352   0.056   5.786 -1.3560 -0.5059 -0.4049
  160TIP3   OH2  424   0.183   1.379   5.770 -0.2250  0.4299 -0.1649
  160TIP3    H1  425   0.162   1.290   5.801 -0.0949  0.2346 -0.6253
  160TIP3    H2  426   0.274   1.392   5.795 -0.2683  0.4646 -0.0251
  161TIP3   OH2  427   6.836   4.416   6.460 -0.2062 -0.0630 -0.3438
  161TIP3    H1  428   6.754   4.367   6.460  1.0859 -2.3900  0.5408
  161TIP3    H2  429   6.887   4.378   6.389  1.3176 -0.9846  1.1629
  162TIP3   OH2  430   3.926   5.254   3.524  0.1326 -0.8872 -0.3810
  162TIP3    H1  431   3.993   5.276   3.460 -0.2373 -0.0716 -0.5035
  162TIP3    H2  432   3.948   5.165   3.553  0.4208 -1.1921 -1.4824
  163TIP3   OH2  433   2.485   7.175   2.782 -0.0202  0.3237 -0.2550
  163TIP3    H1  434   2.465   7.101   2.840  0.4014 -1.2507 -2.0571
  163TIP3    H2  435   2.426   7.245   2.812 -0.4291 -0.7103  1.4895
  164TIP3   OH2  436   6.558   7.207   3.076 -0.5151  0.4030 -0.2065
  164TIP3    H1  437   6.536   7.114   3.078  0.8513  0.0745  1.3558
  164TIP3    H2  438   6.636   7.215   3.131  1.0292  2.0843 -2.4785
  165TIP3   OH2  439   2.959   7.736   2.132  0.1668  0.0860 -0.2291
  165TIP3    H1  440   2.991   7.693   2.053 -0.9427 -0.0810 -0.5964
  165TIP3    H2  441   2.955   7.667   2.198 -1.8472 -0.4850 -0.8838
  166TIP3   OH2  442   3.054   4.623   2.645 -0.2049 -0.2078  0.0053
  166TIP3    H1  443   3.134   4.571   2.652  0.0625  0.1857 -0.0894
  166TIP3    H2  444   3.006   4.583   2.572  0.0473 -0.2564 -0.1347
  167TIP3   OH2  445   7.141   1.618   5.590 -0.2130  0.4698 -0.3617
  167TIP3    H1  446   7.183   1.558   5.528  0.8715  0.3678  0.4457
  167TIP3    H2  447   7.062   1.647   5.545  0.0535 -0.3483 -1.4012
  168TIP3   OH2  448   4.229   3.526   3.890 -0.1832 -0.5186  0.3680
  168TIP3    H1  449   4.180   3.602   3.858  0.6331  0.7577  2.0068
  168TIP3    H2  450   4.213   3.524   3.984 -0.2451 -2.4606  0.3651
  169TIP3   OH2  451   8.236   4.373   2.996 -0.0506 -0.5745  0.5536
  169TIP3    H1  452   8.157   4.363   3.050 -0.9718 -1.9410 -0.9336
  169TIP3    H2  453   8.305   4.332   3.048 -0.5783 -0.4576  1.3673
  170TIP3   OH2  454   2.410   1.051   1.383 -0.1593 -0.1303  0.4653
  170TIP3    H1  455   2.336   1.025   1.439  0.0608 -2.2027 -0.1143
  170TIP3    H2  456   2.471   1.094   1.443 -0.3039 -1.5277  1.7034
  171TIP3   OH2  457   4.490   6.276   3.874  0.1980  0.2689  0.5191
  171TIP3    H1  458   4.445   6.201   3.835 -0.1944 -0.2653  1.9216
  171TIP3    H2  459   4.526   6.242   3.956  0.5571  1.4547  0.8758
  172TIP3   OH2  460   4.634   4.910   3.575 -0.7090  0.2144 -0.4602
  172TIP3    H1  461   4.719   4.946   3.601 -0.9819  0.0560  0.7341
  172TIP3    H2  462   4.653   4.820   3.550 -0.7829 -0.5928  2.0283
  173TIP3   OH2  463   8.153   7.043   6.183 -0.3546 -0.2216 -0.7032
  173TIP3    H1  464   8.060   7.064   6.190 -0.1359  0.2536  1.4268
  173TIP3    H2  465   8.176   7.002   6.267  1.6777  1.0963 -0.5286
  174TIP3   OH2  466   2.940   6.490   0.153 -0.0320  0.0255  0.9114
  174TIP3    H1  467   2.977   6.448   0.230 -1.4302 -0.7320  1.2034
  174TIP3    H2  468   2.856   6.447   0.140  0.1616  0.1574 -1.0393
  175TIP3   OH2  469   1.515   3.914   2.385 -0.0318 -0.0733 -0.1110
  175TIP3    H1  470   1.475   3.972   2.321 -1.2648 -0.1830  0.5239
  175TIP3    H2  471   1.569   3.971   2.439 -0.9294  0.4537  0.2633
  176TIP3   OH2  472   7.291   4.392   5.955 -0.6496  0.3315 -0.0604
  176TIP3    H1  473   7.338   4.366   6.035 -1.6585 -0.8005  0.1913
  176TIP3    H2  474   7.360   4.417   5.894  0.1697  0.7844  1.0064
  177TIP3   OH2  475   1.342   7.307   2.100 -0.3444 -0.1626  0.0058
  177TIP3    H1  476   1.269   7.365   2.082  0.6670  1.0686 -0.2638
  177TIP3    H2  477   1.333   7.237   2.036 -0.8478  0.3814 -0.5267
  178TIP3   OH2  478   7.808   4.566   1.381  0.2375  0.0727 -0.6548
  178TIP3    H1  479   7.792   4.570   1.475  1.2648  1.6821 -0.5061
  178TIP3    H2  480   7.875   4.497   1.372  1.0689  0.7750 -0.0367
  179TIP3   OH2  481   7.687   5.787   5.968 -0.3047 -0.0892 -0.4619
  179TIP3    H1  482   7.709   5.784   6.061 -1.8458 -1.5275 -0.0815
  179TIP3    H2  483   7.770   5.805   5.924  0.4777  0.5025  1.1730
  180TIP3   OH2  484   7.603   3.688   2.766  0.1021  0.0307  0.0582
  180TIP3    H1  485   7.620   3.642   2.848  0.7735  0.3796  0.1146
  180TIP3    H2  486   7.686   3.685   2.718 -0.5725 -1.1700 -1.1158
  181TIP3   OH2  487   1.871   2.097   0.561 -0.2770  0.6733 -0.1930
  181TIP3    H1  488   1.933   2.167   0.582  1.0580 -0.1290 -1.3376
  181TIP3    H2  489   1.799   2.142   0.517  0.8153  1.2864 -1.4251
  182TIP3   OH2  490   3.343   1.222   0.768  0.3732 -0.2782 -0.2882
  182TIP3    H1  491   3.271   1.284   0.779 -0.3570 -0.8313 -1.6321
  182TIP3    H2  492   3.350   1.211   0.673  1.7295 -0.8270 -0.1442
  183TIP3   OH2  493   0.097   5.781   4.765 -0.1414 -0.0448  0.6571
  183TIP3    H1  494   0.114   5.688   4.781 -2.4425 -0.5191  0.6631
  183TIP3    H2  495   0.046   5.809   4.841  0.5630  1.2560  0.6718
  184TIP3   OH2  496   0.925   4.030   5.888  0.0785  0.3773 -0.3244
  184TIP3    H1  497   0.884   3.959   5.937 -1.9290  1.1335 -0.8020
  184TIP3    H2  498   1.015   4.033   5.920 -0.3491 -1.0728  1.1312
  185TIP3   OH2  499   4.264   7.764   0.752  0.0136 -0.4212 -0.1369
  185TIP3    H1  500   4.302   7.818   0.683  0.1006  0.6029  0.6778
  185TIP3    H2  501   4.338   7.713   0.786  0.3067  0.2126  0.2120
  186TIP3   OH2  502   4.244   3.929   6.520 -0.3546  0.4407  0.6190
  186TIP3    H1  503   4.252   3.855   6.580 -0.4015  0.6502  0.8880
  186TIP3    H2  504   4.162   3.972   6.546 -1.4989 -0.6859 -0.9700
  187TIP3   OH2  505   6.329   5.926   5.668 -0.0595  0.6157 -0.3665
  187TIP3    H1  506   6.366   6.013   5.655  1.4233  0.1776  0.7217
  187TIP3    H2  507   6.395   5.866   5.634  0.6707 -0.2300  2.3144
  188TIP3   OH2  508   0.271   4.485   0.538  0.0236 -0.4632 -0.3629
  188TIP3    H1  509   0.300   4.397   0.513  0.0391 -1.2935  2.1936
  188TIP3    H2  510   0.328   4.544   0.490  2.5536 -1.9602  0.6217
  189TIP3   OH2  511   4.483   1.174   3.468 -0.4104  0.3127 -0.3162
  189TIP3    H1  512   4.477   1.153   3.375 -1.1293  0.7680 -0.3784
  189TIP3    H2  513   4.572   1.149   3.492  0.1137  1.1096 -1.3570
  190TIP3   OH2  514   1.713   7.194   2.682 -0.1762  0.7865 -0.6222
  190TIP3    H1  515   1.632   7.191   2.733  0.8486  2.2471  1.2502
  190TIP3    H2  516   1.721   7.286   2.657  1.4844  0.9337  0.3070
  191TIP3   OH2  517   4.463   7.099   1.915  0.3948  0.3940 -0.0281
  191TIP3    H1  518   4.496   7.077   2.003  1.4578  1.7663 -0.0489
  191TIP3    H2  519   4.369   7.112   1.927  0.5392  0.6468  0.9318
  192TIP3   OH2  520   5.135   7.260   2.329  0.0641  0.3511 -0.1561
  192TIP3    H1  521   5.145   7.185   2.270 -0.9835 -0.5189  0.7115
  192TIP3    H2  522   5.071   7.316   2.285 -1.3303 -0.6829  0.4443
  193TIP3   OH2  523   6.746   1.899   3.060 -0.5695  0.2492  0.0942
  193TIP3    H1  524   6.820   1.842   3.080 -0.2125  1.2006  1.7441
  193TIP3    H2  525   6.681   1.878   3.127 -0.2090  2.0968  1.0918
  194TIP3   OH2  526   4.707   7.409   4.121 -0.1308  0.1270 -0.2667
  194TIP3    H1  527   4.712   7.380   4.211 -0.3283  1.3364  0.1561
  194TIP3    H2  528   4.620   7.383   4.091 -0.7538  1.2719  0.4796
  195TIP3   OH2  529   6.578   3.963   3.181  0.1772 -0.0649  0.5212
  195TIP3    H1  530   6.484   3.944   3.182  0.2934 -0.6300  1.4338
  195TIP3    H2  531   6.584   4.052   3.216 -0.0816  0.3497 -0.4444
  196TIP3   OH2  532   4.451   3.387   5.620 -0.1843  0.1421 -0.0293
  196TIP3    H1  533   4.382   3.371   5.684  0.2030 -2.8112 -0.1961
  196TIP3    H2  534   4.458   3.305   5.571  2.3650  0.8536 -1.0457
  197TIP3   OH2  535   3.955   3.569   3.709 -0.0490  0.2033  0.3117
  197TIP3    H1  536   3.865   3.601   3.716  0.2509  1.3376 -0.7371
  197TIP3    H2  537   4.003   3.614   3.778  0.3297  1.9944 -1.0356
  198TIP3   OH2  538   6.936   1.640   5.407 -0.1321 -0.0627 -0.5015
  198TIP3    H1  539   6.912   1.551   5.382  0.9220 -1.1856  2.0127
  198TIP3    H2  540   6.869   1.696   5.369 -2.6960 -2.2766  0.4575
  199TIP3   OH2  541   5.361   5.082   0.612  0.3513 -0.1587 -0.0181
  199TIP3    H1  542   5.341   5.019   0.542  1.4522  0.6348 -1.1126
  199TIP3    H2  543   5.417   5.147   0.569 -1.4727  2.0828  0.8285
  200TIP3   OH2  544   6.266   2.869   6.334 -0.3776  0.1049  0.3370
  200TIP3    H1  545   6.336   2.923   6.297  0.4427 -1.2478 -0.1616
  200TIP3    H2  546   6.231   2.821   6.259  0.3746 -1.6476  1.0469
  201TIP3   OH2  547   3.347   6.499   3.832 -0.1273  0.1814  0.2691
  201TIP3    H1  548   3.351   6.593   3.850 -0.3863  0.0102  1.3018
  201TIP3    H2  549   3.364   6.458   3.917 -0.4063 -0.7004 -0.0897
  202TIP3   OH2  550   6.173   1.974   6.661 -0.0062  0.2205 -0.1304
  202TIP3    H1  551   6.162   1.911   6.590 -0.3635  2.2357 -1.9530
  202TIP3    H2  552   6.233   2.040   6.626  0.8781  0.5914  1.9550
  203TIP3   OH2  553   3.643   4.303   2.343 -0.5494  0.2936  0.5836
  203TIP3    H1  554   3.726   4.350   2.345 -0.5228  0.2344  2.0633
  203TIP3    H2  555   3.583   4.361   2.297  0.0499  0.7972  0.4308
  204TIP3   OH2  556   1.876   1.173   0.785  0.1667  0.4489  0.0477
  204TIP3    H1  557   1.806   1.111   0.765  0.3145  0.3126 -0.0470
  204TIP3    H2  558   1.876   1.179   0.880 -0.2435  0.7603  0.0323
  205TIP3   OH2  559   3.868   4.306   1.399  0.0771 -0.2560  0.4003
  205TIP3    H1  560   3.928   4.367   1.356  0.5097 -0.9534  0.0030
  205TIP3    H2  561   3.868   4.228   1.344 -0.9847 -0.3794  0.5444
  206TIP3   OH2  562   0.389   2.283   4.418 -0.8359 -0.0483  0.6359
  206TIP3    H1  563   0.333   2.235   4.358  0.7024  1.6197 -2.3496
  206TIP3    H2  564   0.369   2.375   4.401  2.1683  0.5882 -0.0070
  207TIP3   OH2  565   6.339   5.993   3.144  0.0055  0.3512 -0.5105
  207TIP3    H1  566   6.354   6.087   3.141  1.7285  0.1128 -0.1104
  207TIP3    H2  567   6.262   5.983   3.201 -0.5348  1.5197 -0.9958
  208TIP3   OH2  568   4.143   4.897   1.204 -0.1172  0.4034  0.1785
  208TIP3    H1  569   4.150   4.844   1.283  0.1232  0.2163  0.0346
  208TIP3    H2  570   4.234   4.917   1.182 -0.2386  2.2538  1.1545
  209TIP3   OH2  571   5.097   4.437   1.822  0.3596 -0.0059 -0.0505
  209TIP3    H1  572   5.081   4.499   1.751  0.1018  0.1492  0.1410
  209TIP3    H2  573   5.109   4.492   1.899 -3.2235 -0.2147  0.8272
  210TIP3   OH2  574   7.909   3.245   4.903 -0.5505  0.0482  0.0977
  210TIP3    H1  575   7.917   3.152   4.883  0.7096 -0.0609  1.0342
  210TIP3    H2  576   7.901   3.249   4.998  0.2241  0.9345  0.1399
  211TIP3   OH2  577   2.306   0.166   0.426 -0.0537 -0.0682 -0.0713
  211TIP3    H1  578   2.314   0.091   0.368  2.3529  0.9707 -1.2009
  211TIP3    H2  579   2.227   0.211   0.396  0.2234 -0.4625 -1.4546
  212TIP3   OH2  580   6.557   1.775   6.406 -0.1204 -0.0333  0.7360
  212TIP3    H1  581   6.559   1.709   6.475  2.0095  0.3312  1.0928
  212TIP3    H2  582   6.591   1.729   6.329  1.1359  0.5343  0.9251
  213TIP3   OH2  583   3.967   7.287   4.536  0.3641  0.0450 -0.1336
  213TIP3    H1  584   4.019   7.352   4.488  0.0951  0.1531 -0.2829
  213TIP3    H2  585   4.021   7.265   4.612 -0.3033  1.8331  0.9377
  214TIP3   OH2  586   2.282   4.946   2.944  0.0246 -0.2062  0.0684
  214TIP3    H1  587   2.212   4.952   3.009 -1.0853  0.2734 -1.1343
  214TIP3    H2  588   2.287   4.853   2.923  0.0961 -0.3055  0.5054
  215TIP3   OH2  589   3.199   5.629   3.461  0.1359  0.5890  0.4215
  215TIP3    H1  590   3.148   5.673   3.392 -0.8237  0.8313  1.2676
  215TIP3    H2  591   3.191   5.687   3.537  1.2619  0.3691  0.7206
  216TIP3   OH2  592   5.813   4.923   0.050 -0.0657 -0.0179  0.1152
  216TIP3    H1  593   5.907   4.936   0.054 -0.3596  2.4272  2.0476
  216TIP3    H2  594   5.783   4.979  -0.021 -0.1525 -0.1005  0.0855
  217TIP3   OH2  595   4.226   6.390   4.789  0.2141 -0.0404 -0.7030
  217TIP3    H1  596   4.300   6.351   4.835 -0.1589  0.1080  0.0306
  217TIP3    H2  597   4.158   6.401   4.856 -0.5995 -0.4883 -1.4276
  218TIP3   OH2  598   6.436   6.063   6.659  0.6522  0.0871  0.5812
  218TIP3    H1  599   6.377   6.114   6.603  2.9035  1.7026 -0.4976
  218TIP3    H2  600   6.503   6.029   6.599  0.7490 -1.9029  1.7087
  219TIP3   OH2  601   0.677   2.680   4.664 -0.1347 -0.3728 -0.5601
  219TIP3    H1  602   0.674   2.693   4.570 -3.2736 -0.6691 -0.6216
  219TIP3    H2  603   0.660   2.766   4.702  1.7827 -0.1174 -0.1856
  220TIP3   OH2  604   7.043   7.735   2.365  0.0666  0.2345  0.0102
  220TIP3    H1  605   7.011   7.688   2.287 -2.1676 -1.3700  1.7494
  220TIP3    H2  606   7.011   7.824   2.353 -0.1742  0.0384 -0.9465
  221TIP3   OH2  607   0.002   0.418   5.847 -0.2627 -0.5831  0.7191
  221TIP3    H1  608  -0.001   0.394   5.939 -0.0865  0.5689  1.0503
  221TIP3    H2  609   0.082   0.377   5.814 -1.3733 -2.7348  0.5175
  222TIP3   OH2  610   6.867   6.140   0.937 -0.1679  0.5765  0.2452
  222TIP3    H1  611   6.891   6.176   1.023 -0.4141  0.3506  0.4096
  222TIP3    H2  612   6.928   6.182   0.876  0.4202  0.2697  0.6094
  223TIP3   OH2  613   3.431   3.773   5.466 -0.1027 -0.6266  0.7024
  223TIP3    H1  614   3.445   3.726   5.384  1.8733  0.1650  0.5116
  223TIP3    H2  615   3.344   3.747   5.495 -0.9289 -0.7858 -1.7331
  224TIP3   OH2  616   7.414   3.936   0.604 -0.0021  0.0497  0.0317
  224TIP3    H1  617   7.395   3.846   0.580 -1.8828  0.4987 -0.3996
  224TIP3    H2  618   7.507   3.948   0.585 -0.1494 -1.2474 -1.7241
  225TIP3   OH2  619   7.923   5.993   0.633  0.5193 -0.7304 -0.3677
  225TIP3    H1  620   8.003   5.975   0.683  1.2937  1.0994 -0.8321
  225TIP3    H2  621   7.853   5.955   0.685  1.4845 -0.5126  1.1645
  226TIP3   OH2  622   0.892   4.505   0.231 -0.7213  0.0962 -0.4383
  226TIP3    H1  623   0.810   4.554   0.240  0.4705  1.9518  0.8450
  226TIP3    H2  624   0.880   4.430   0.290 -1.7711 -0.0852 -0.8461
  227TIP3   OH2  625   3.928   7.070   3.574  0.4665 -0.5290 -0.0416
  227TIP3    H1  626   4.024   7.074   3.581  0.4280 -0.7819  0.6424
  227TIP3    H2  627   3.913   7.051   3.481  1.1064 -1.1472 -0.0350
  228TIP3   OH2  628   4.569   0.065   0.334 -0.1741 -0.5188  0.5568
  228TIP3    H1  629   4.625  -0.009   0.357 -0.0450 -0.7947 -0.5744
  228TIP3    H2  630   4.486   0.024   0.309 -0.7594 -0.1418  1.7744
  229TIP3   OH2  631   7.185   3.088   5.823 -0.0869  0.2151 -0.0722
  229TIP3    H1  632   7.231   3.021   5.771  1.1342  0.6004  0.4691
  229TIP3    H2  633   7.248   3.112   5.891 -1.4605  0.0880  1.2817
  230TIP3   OH2  634   1.174   6.994   4.714  0.1782  0.3464 -0.1166
  230TIP3    H1  635   1.178   6.903   4.684 -1.6305  0.0795  0.3843
  230TIP3    H2  636   1.123   6.991   4.795  1.2854  1.6445  0.6780
  231TIP3   OH2  637   7.629   0.641   5.416 -0.5243 -0.1288 -0.6411
  231TIP3    H1  638   7.554   0.681   5.371  1.0653  0.7926 -2.6323
  231TIP3    H2  639   7.657   0.571   5.357  0.4819 -0.1384 -0.1594
  232TIP3   OH2  640   5.143   6.667   5.572 -0.4178 -0.4549  0.1079
  232TIP3    H1  641   5.229   6.655   5.532 -1.2237 -1.7612 -1.3236
  232TIP3    H2  642   5.111   6.750   5.536 -0.5917 -0.9811 -0.9969
  233TIP3   OH2  643   5.951   5.331   1.518 -0.3216 -0.6027  0.3688
  233TIP3    H1  644   5.883   5.264   1.514  0.2630 -1.1963 -2.7730
  233TIP3    H2  645   6.027   5.286   1.555 -0.4964 -1.1582  0.0760
  234TIP3   OH2  646   2.711   7.685   4.179  0.7018  0.0579  0.3978
  234TIP3    H1  647   2.697   7.720   4.091  0.3316 -0.4655  0.2448
  234TIP3    H2  648   2.629   7.642   4.202 -0.2824  2.6860  2.2173
  235TIP3   OH2  649   2.762   1.688   5.797  0.9882  0.4788  0.3424
  235TIP3    H1  650   2.809   1.770   5.812  0.1506  1.0668 -0.1603
  235TIP3    H2  651   2.779   1.667   5.705  1.4707 -0.1002  0.5531
  236TIP3   OH2  652   6.340   2.973   3.229 -0.1049 -0.3268 -0.1054
  236TIP3    H1  653   6.429   2.954   3.259 -0.4227 -2.5338 -0.4301
  236TIP3    H2  654   6.339   2.942   3.138 -1.0519  0.2376 -0.2991
  237TIP3   OH2  655   6.853   5.281   1.158 -0.0522  0.4382  0.2772
  237TIP3    H1  656   6.943   5.294   1.188 -0.4376  0.0096  1.6954
  237TIP3    H2  657   6.801   5.338   1.215 -0.5175  2.2093 -1.8202
  238TIP3   OH2  658   0.947   7.146   2.620  0.4101 -0.0640 -0.2613
  238TIP3    H1  659   0.876   7.096   2.579 -0.2725  0.3092  0.4515
  238TIP3    H2  660   1.024   7.091   2.609 -0.5404 -1.9154  1.5985
  239TIP3   OH2  661   8.216   3.263   5.709  0.3260 -0.1749 -0.4339
  239TIP3    H1  662   8.175   3.224   5.632  0.2580 -1.2756  0.1398
  239TIP3    H2  663   8.166   3.343   5.725 -0.5160 -0.6259 -0.7451
  240TIP3   OH2  664   4.823   6.511   6.086  0.1693 -0.0323 -0.0544
  240TIP3    H1  665   4.814   6.499   6.180  2.4681 -1.0595  0.1163
  240TIP3    H2  666   4.917   6.528   6.073  0.4142 -2.4368 -2.3274
  241TIP3   OH2  667   5.551   6.521   1.772  0.0755  0.2919  0.1325
  241TIP3    H1  668   5.499   6.474   1.836 -0.6850  1.6105  0.5113
  241TIP3    H2  669   5.491   6.537   1.699  0.2854  0.7571  0.0551
  242TIP3   OH2  670   1.957   0.524   4.726 -0.1497 -0.5435 -0.6032
  242TIP3    H1  671   1.927   0.604   4.770 -1.4920 -0.3047 -1.8700
  242TIP3    H2  672   2.006   0.554   4.650  1.2224 -0.9586  0.0759
  243TIP3   OH2  673   7.749   1.378   6.533 -0.0361  0.1664 -0.2067
  243TIP3    H1  674   7.683   1.330   6.583  0.0038 -0.5169 -0.7840
  243TIP3    H2  675   7.701   1.416   6.459 -0.2095  1.6876  0.6523
  244TIP3   OH2  676   0.757   4.185   6.735 -0.4800  0.2392  0.1622
  244TIP3    H1  677   0.703   4.194   6.814 -1.6199  2.0405 -0.7545
  244TIP3    H2  678   0.775   4.275   6.708  2.6483 -0.2919  0.1436
  245TIP3   OH2  679   1.836   5.647   6.054  0.1460  0.2517 -0.6250
  245TIP3    H1  680   1.741   5.637   6.058  0.3619 -2.1908 -0.1416
  245TIP3    H2  681   1.849   5.721   5.994 -2.0554  1.7480  0.5852
  246TIP3   OH2  682   2.906   4.264   2.592 -0.2056 -0.0668  0.4015
  246TIP3    H1  683   2.859   4.337   2.551 -0.5768 -0.1872  0.6124
  246TIP3    H2  684   2.872   4.186   2.548 -0.1920 -0.1539  0.5447
  247TIP3   OH2  685   3.090   6.055   3.348  0.4120 -0.1148  0.1095
  247TIP3    H1  686   3.170   6.037   3.398  0.1649 -0.5125  0.3684
  247TIP3    H2  687   3.116   6.046   3.257  1.3321  2.4216  0.0426
  248TIP3   OH2  688   7.852   6.020   6.638 -0.7210 -0.0677 -0.2739
  248TIP3    H1  689   7.913   6.062   6.576 -1.5282  1.1573 -0.2768
  248TIP3    H2  690   7.773   6.004   6.587 -0.6380 -1.0648 -0.1049
  249TIP3   OH2  691   1.398   3.051   0.724 -0.1999 -0.1119  0.1728
  249TIP3    H1  692   1.333   2.982   0.714 -0.7103  0.3575  0.1740
  249TIP3    H2  693   1.399   3.097   0.640 -0.9271  0.7698  0.6178
  250TIP3   OH2  694   5.293   6.439   6.615 -0.0529 -0.2455  0.2269
  250TIP3    H1  695   5.304   6.377   6.543 -0.5821 -0.0939  0.0046
  250TIP3    H2  696   5.380   6.474   6.631  0.3573 -1.4896  0.7541
  251TIP3   OH2  697   3.215   4.270   2.538  0.1865 -0.0647 -0.0895
  251TIP3    H1  698   3.268   4.193   2.521 -0.6387 -0.6049 -0.2697
  251TIP3    H2  699   3.126   4.236   2.550 -0.3070  0.9133 -0.8400
  252TIP3   OH2  700   4.732   3.119   0.284  0.2079  0.6913 -0.6698
  252TIP3    H1  701   4.796   3.148   0.350  0.0323  1.2164 -0.7315
  252TIP3    H2  702   4.650   3.161   0.310  0.1744  1.0235 -1.3139
  253TIP3   OH2  703   5.807   1.091   3.247 -0.3310 -0.2242 -0.1908
  253TIP3    H1  704   5.738   1.026   3.261 -0.8711  0.3195 -0.3224
  253TIP3    H2  705   5.761   1.174   3.238  0.3335  0.1300 -0.3884
  254TIP3   OH2  706   6.904   0.868   0.352  0.3822  0.1804 -0.7719
  254TIP3    H1  707   6.971   0.913   0.300  0.6734  0.1555 -0.4222
  254TIP3    H2  708   6.831   0.929   0.354  1.1455  1.0977  0.5599
  255TIP3   OH2  709   5.695   2.844   3.197  0.0244 -0.1864  0.0794
  255TIP3    H1  710   5.768   2.828   3.256 -0.0569  0.3443  0.3301
  255TIP3    H2  711   5.705   2.778   3.128  0.5605 -0.3132  0.2735
  256TIP3   OH2  712   6.268   1.616   4.405  0.0331  0.0982 -0.2578
  256TIP3    H1  713   6.285   1.708   4.386 -2.5568  0.8202  0.4254
  256TIP3    H2  714   6.211   1.587   4.333  1.1744 -1.1258 -0.6969
  257TIP3   OH2  715   2.962   5.155   0.550 -0.3988  0.3350  0.2523
  257TIP3    H1  716   2.940   5.245   0.527 -0.0265  0.6795  1.1731
  257TIP3    H2  717   3.053   5.145   0.520 -0.8269 -0.1487 -0.9525
  258TIP3   OH2  718   4.099   7.741   2.090  0.4973  0.4237  0.0201
  258TIP3    H1  719   4.115   7.647   2.097  0.6050  0.4342 -0.0797
  258TIP3    H2  720   4.062   7.765   2.174 -0.5873  0.0885 -0.3508
  259TIP3   OH2  721   7.743   2.546   4.453  0.2549 -0.1691  0.6006
  259TIP3    H1  722   7.768   2.477   4.514 -0.2561  0.0663  1.0874
  259TIP3    H2  723   7.726   2.622   4.509  0.5279  0.2669  0.0974
  260TIP3   OH2  724   0.857   4.600   5.067 -0.9749 -0.3011  0.7611
  260TIP3    H1  725   0.877   4.522   5.117 -1.2242 -0.1032  1.1752
  260TIP3    H2  726   0.847   4.669   5.132 -0.4371  0.1505  0.3776
  261TIP3   OH2  727   2.960   5.554   2.673  0.1440 -0.3429  0.1922
  261TIP3    H1  728   2.950   5.476   2.727 -1.1733  0.1145  0.6625
  261TIP3    H2  729   2.876   5.599   2.682  0.7982  1.0048 -0.2524
  262TIP3   OH2  730   1.407   2.349   1.436  0.2162 -0.4678 -0.0288
  262TIP3    H1  731   1.428   2.378   1.347 -1.8973  0.0282 -0.4178
  262TIP3    H2  732   1.443   2.261   1.442  2.6496  0.4090 -0.4444
  263TIP3   OH2  733   4.010   0.183   1.140 -0.3561 -0.1736  0.2408
  263TIP3    H1  734   3.954   0.120   1.185  0.6059 -2.0586 -1.1049
  263TIP3    H2  735   4.051   0.233   1.211 -0.6162 -1.5050  1.3740
  264TIP3   OH2  736   4.882   5.423   0.121  0.0211 -0.2771  0.3252
  264TIP3    H1  737   4.881   5.425   0.026 -0.1761 -2.7605  0.2266
  264TIP3    H2  738   4.922   5.339   0.144 -2.4720 -1.0442  2.3785
  265TIP3   OH2  739   2.964   4.067   0.170  0.5615  0.2312 -0.7874
  265TIP3    H1  740   3.012   4.121   0.232 -0.1047 -1.5083  1.3991
  265TIP3    H2  741   3.030   4.010   0.131  0.8633  0.7252 -1.0036
  266TIP3   OH2  742   3.073   3.405   6.160  0.1443 -0.6306 -0.0753
  266TIP3    H1  743   3.152   3.402   6.107 -0.1738 -3.6974 -0.5646
  266TIP3    H2  744   3.002   3.424   6.098  0.3815  1.9062  0.3302
  267TIP3   OH2  745   4.895   0.321   5.831 -0.4133  0.3315 -0.5749
  267TIP3    H1  746   4.833   0.372   5.778 -2.0148  0.0534  0.9236
  267TIP3    H2  747   4.860   0.232   5.829  0.9465 -0.2102 -1.1097
  268TIP3   OH2  748   6.388   6.243   1.769 -0.0487 -0.3966  0.6411
  268TIP3    H1  749   6.469   6.194   1.755 -0.2054 -0.0689 -1.9216
  268TIP3    H2  750   6.416   6.335   1.775 -0.2558 -0.1497 -1.4693
  269TIP3   OH2  751   4.780   6.067   3.980  0.3758  0.2637  0.2542
  269TIP3    H1  752   4.761   6.046   3.889 -0.8164  0.5222  0.4236
  269TIP3    H2  753   4.694   6.083   4.019  0.9578  1.9017  0.9848
  270TIP3   OH2  754   6.266   1.538   0.644 -0.0527 -0.2341 -0.3030
  270TIP3    H1  755   6.218   1.531   0.727  0.1429 -0.2779 -0.1939
  270TIP3    H2  756   6.224   1.474   0.587 -0.6043  0.2425 -0.4436
  271TIP3   OH2  757   1.483   4.983   4.260 -0.1893 -0.0481 -0.3577
  271TIP3    H1  758   1.509   4.968   4.351  2.4874  0.8864 -0.8759
  271TIP3    H2  759   1.479   5.078   4.252 -0.0479 -0.1136 -1.2912
  272TIP3   OH2  760   7.635   5.667   5.280  0.5094 -0.0380  0.1055
  272TIP3    H1  761   7.589   5.583   5.282  0.0741  0.1408 -1.3311
  272TIP3    H2  762   7.726   5.645   5.303  0.2432 -0.7701  0.4940
  273TIP3   OH2  763   6.149   5.712   0.264  0.3852  0.1785  0.5117
  273TIP3    H1  764   6.188   5.654   0.199  0.6860  0.0959  0.7636
  273TIP3    H2  765   6.199   5.794   0.257  0.4172  0.1700  0.6406
  274TIP3   OH2  766   2.299   0.569   0.505 -0.3058  0.4004  0.1271
  274TIP3    H1  767   2.282   0.618   0.425 -3.1819  0.0890  0.4306
  274TIP3    H2  768   2.293   0.634   0.575 -1.3200  0.1280  0.3139
  275TIP3   OH2  769   1.096   4.681   2.703 -0.3920 -0.1992 -0.2786
  275TIP3    H1  770   1.189   4.679   2.682  0.1321 -0.8067  1.8659
  275TIP3    H2  771   1.087   4.623   2.779 -1.9581  2.2017  1.5168
  276TIP3   OH2  772   4.411   5.739   1.356  0.0188 -0.1430  0.0739
  276TIP3    H1  773   4.481   5.755   1.420 -0.2819  0.8144  0.1826
  276TIP3    H2  774   4.389   5.647   1.367  0.2552 -0.0968  1.0676
  277TIP3   OH2  775   1.489   2.096   1.569  0.2540  0.0281 -0.1480
  277TIP3    H1  776   1.540   2.093   1.650 -0.3883 -0.3254  0.2519
  277TIP3    H2  777   1.402   2.067   1.594  0.3187 -1.1443 -1.1941
  278TIP3   OH2  778   7.072   5.620   1.623 -0.2016 -0.3783 -0.4884
  278TIP3    H1  779   7.097   5.549   1.563 -1.0865 -0.7027 -0.4851
  278TIP3    H2  780   7.039   5.575   1.701 -0.8112  0.0335 -0.5019
  279TIP3   OH2  781   0.088   7.181   1.362  0.0887 -0.6770  0.4941
  279TIP3    H1  782   0.001   7.221   1.363  1.2079  1.9934  0.2227
  279TIP3    H2  783   0.111   7.171   1.455 -0.1991 -0.5939  0.5750
  280TIP3   OH2  784   2.729   6.328   3.766 -0.1104  0.8086 -0.0724
  280TIP3    H1  785   2.823   6.316   3.770 -0.0836  0.9130 -0.3696
  280TIP3    H2  786   2.700   6.325   3.858  0.0396 -0.3470 -0.0540
  281TIP3   OH2  787   1.028   6.020   4.356  0.1765  0.3191  0.6906
  281TIP3    H1  788   1.010   5.969   4.434 -0.6656  1.0070  0.9650
  281TIP3    H2  789   0.957   6.085   4.353  0.1078  0.2201 -0.7114
  282TIP3   OH2  790   2.608   4.670   3.447  0.4752 -0.8091 -1.0248
  282TIP3    H1  791   2.539   4.652   3.383  1.2170 -1.7709 -1.5836
  282TIP3    H2  792   2.677   4.607   3.426  0.6344 -1.3281  0.8688
  283TIP3   OH2  793   2.276   1.598   0.741 -0.0362  0.3963  0.3301
  283TIP3    H1  794   2.334   1.673   0.729  0.4699 -0.0271  0.0492
  283TIP3    H2  795   2.295   1.541   0.665 -2.0456  1.0185 -0.7037
  284TIP3   OH2  796   5.643   2.428   5.835  0.4198  0.2272  0.5161
  284TIP3    H1  797   5.678   2.339   5.844 -0.8515 -0.3844 -0.2288
  284TIP3    H2  798   5.717   2.481   5.807  0.7859 -1.0060 -0.9742
  285TIP3   OH2  799   7.996   7.545   0.863  0.3514  0.0408 -0.2552
  285TIP3    H1  800   7.997   7.465   0.915  1.2965  0.3121  0.1635
  285TIP3    H2  801   7.922   7.533   0.803 -0.8830 -0.2164  1.2340
  286TIP3   OH2  802   5.987   1.135   0.857 -0.1703 -0.1236  0.2688
  286TIP3    H1  803   6.011   1.225   0.834  2.1970 -0.6878  0.2285
  286TIP3    H2  804   5.909   1.144   0.911 -0.3056  1.9122 -0.1792
  287TIP3   OH2  805   4.819   0.731   5.723  0.2488  0.0037 -0.5390
  287TIP3    H1  806   4.741   0.713   5.670 -0.3237  1.8505 -0.3833
  287TIP3    H2  807   4.799   0.694   5.809  0.7955 -2.1607 -1.2851
  288TIP3   OH2  808   0.165   0.848   3.313  0.0839 -1.2680  0.2383
  288TIP3    H1  809   0.203   0.825   3.228  0.5340 -0.3191  0.1690
  288TIP3    H2  810   0.237   0.889   3.361 -1.0480  1.5600 -0.2699
  289TIP3   OH2  811   3.434   3.968   4.648  0.0188 -0.0310  0.2977
  289TIP3    H1  812   3.419   3.988   4.740  0.0154  1.9408 -0.0816
  289TIP3    H2  813   3.504   3.904   4.648 -1.5708 -1.9023  1.7326
  290TIP3   OH2  814   1.133   4.351   2.517  0.2457 -0.2364  0.1936
  290TIP3    H1  815   1.177   4.268   2.505  0.2974 -0.6351  2.6367
  290TIP3    H2  816   1.095   4.372   2.431  1.2906 -2.1285 -0.7653
  291TIP3   OH2  817   6.601   7.720   6.235 -0.3544  0.1888  0.3854
  291TIP3    H1  818   6.524   7.695   6.184  0.1284 -0.3228 -0.1152
  291TIP3    H2  819   6.641   7.792   6.185 -1.0840  1.1961  1.2042
  292TIP3   OH2  820   1.496   2.424   4.460  0.4047 -0.1209  0.4566
  292TIP3    H1  821   1.583   2.412   4.499  1.1194  2.3729 -0.2117
  292TIP3    H2  822   1.436   2.421   4.535  1.0274 -1.7215  0.9408
  293TIP3   OH2  823   2.151   6.550   6.024  0.1428 -0.1829  0.8973
  293TIP3    H1  824   2.132   6.582   5.936 -0.2887 -1.3460  0.5558
  293TIP3    H2  825   2.245   6.565   6.034  0.2480 -0.2743  0.1395
  294TIP3   OH2  826   6.276   7.383   6.454 -0.1037 -0.2509 -0.8482
  294TIP3    H1  827   6.251   7.311   6.397 -0.8422  0.0058 -0.8690
  294TIP3    H2  828   6.371   7.386   6.451 -0.1022 -0.8335 -1.3261
  295TIP3   OH2  829   3.073   4.080   2.018 -0.1613  0.0510 -0.6284
  295TIP3    H1  830   3.168   4.090   2.012  0.0069 -0.2470  0.9621
  295TIP3    H2  831   3.047   4.036   1.937  1.4129 -2.2386  0.0337
  296TIP3   OH2  832   4.435   0.734   4.081  0.5854 -0.0471 -0.0859
  296TIP3    H1  833   4.404   0.717   4.170  2.7234 -1.0518  0.5403
  296TIP3    H2  834   4.407   0.824   4.063  0.9647  0.5595  2.0345
  297TIP3   OH2  835   2.673   4.316   6.434  0.1540  0.0192  0.1094
  297TIP3    H1  836   2.725   4.277   6.363 -1.0235  0.5034 -1.0448
  297TIP3    H2  837   2.648   4.242   6.489  1.5048 -0.3013  0.3358
  298TIP3   OH2  838   1.000   7.317   6.018 -0.2360 -0.0695  0.4123
  298TIP3    H1  839   0.931   7.348   5.960 -0.1211 -1.3620 -0.4455
  298TIP3    H2  840   1.080   7.321   5.966 -0.2286 -1.8296  0.2043
  299TIP3   OH2  841   6.341   3.316   6.210 -0.3603  0.1384 -0.7034
  299TIP3    H1  842   6.253   3.278   6.212 -0.1772 -0.2824 -0.1970
  299TIP3    H2  843   6.369   3.314   6.302 -1.0046  3.0842 -0.3642
  300TIP3   OH2  844   7.584   2.326   5.834  0.2121  0.5082 -0.1304
  300TIP3    H1  845   7.627   2.387   5.774  1.1345 -0.0919 -0.0920
  300TIP3    H2  846   7.573   2.246   5.782  1.0177 -0.0159  0.4806
  301TIP3   OH2  847   3.088   3.936   5.308 -0.3284 -0.1753 -0.5368
  301TIP3    H1  848   3.000   3.967   5.330  0.5287  3.3409 -1.4775
  301TIP3    H2  849   3.099   3.956   5.215  0.5991 -3.0455 -1.1429
  302TIP3   OH2  850   3.644   6.859   3.872 -0.0072 -0.5554 -0.6863
  302TIP3    H1  851   3.623   6.952   3.878 -0.1097 -0.5776 -0.6880
  302TIP3    H2  852   3.704   6.852   3.798 -0.3178 -0.5440 -0.9441
  303TIP3   OH2  853   2.015   3.709   1.663  0.0355  0.0723  0.4449
  303TIP3    H1  854   2.094   3.698   1.715  0.0218  0.9744  0.6807
  303TIP3    H2  855   1.943   3.707   1.726 -0.0438  0.3552  0.3667
  304TIP3   OH2  856   4.238   0.566   2.071  0.6784  0.0428  0.2611
  304TIP3    H1  857   4.184   0.555   2.148  0.7781 -0.9760  0.1925
  304TIP3    H2  858   4.251   0.661   2.064 -0.1745  0.2154  0.8987
  305TIP3   OH2  859   3.389   5.281   2.621  0.0321 -0.4151 -0.7228
  305TIP3    H1  860   3.479   5.252   2.630 -0.0775 -0.2583  1.4708
  305TIP3    H2  861   3.395   5.377   2.616 -0.0421 -0.3201  0.6429
  306TIP3   OH2  862   1.142   5.704   6.490  0.7028 -0.2924  0.5658
  306TIP3    H1  863   1.067   5.693   6.431  1.5689  1.5569 -0.9871
  306TIP3    H2  864   1.180   5.617   6.496 -1.2088 -1.1608  0.9382
  307TIP3   OH2  865   0.859   1.122   3.000  0.4483 -0.4028  0.4697
  307TIP3    H1  866   0.837   1.072   3.079  0.3385 -0.4891  0.3832
  307TIP3    H2  867   0.794   1.192   2.997  0.5879 -0.2655  0.5783
  308TIP3   OH2  868   4.895   6.318   4.871 -0.0176 -0.6749  0.6730
  308TIP3    H1  869   4.943   6.391   4.911  1.0431 -1.8784  1.7083
  308TIP3    H2  870   4.892   6.252   4.940 -1.6579 -1.3118  0.0165
  309TIP3   OH2  871   4.979   2.851   2.939  0.0387 -0.2068  0.3124
  309TIP3    H1  872   5.037   2.837   3.014  2.3658 -1.4937 -1.6007
  309TIP3    H2  873   5.037   2.883   2.870 -2.3255  2.8231 -0.5165
  310TIP3   OH2  874   2.257   6.403   0.722 -0.2588  0.1009  0.3888
  310TIP3    H1  875   2.183   6.425   0.777 -0.8248 -1.2247  0.1814
  310TIP3    H2  876   2.234   6.319   0.682  1.4037 -0.4216  0.4413
  311TIP3   OH2  877   7.293   7.667   2.478  0.4982 -0.4097  0.2958
  311TIP3    H1  878   7.363   7.708   2.428  0.3995  0.0582  0.5335
  311TIP3    H2  879   7.214   7.682   2.426  0.6541 -1.4494 -0.2626
  312TIP3   OH2  880   5.149   4.794   4.524  0.7661 -0.5370  0.1736
  312TIP3    H1  881   5.137   4.834   4.438  1.8305 -0.6709 -0.0492
  312TIP3    H2  882   5.077   4.829   4.577  0.4824  0.0508 -0.5876
  313TIP3   OH2  883   1.645   0.094   6.651 -0.1829  0.1454  0.1259
  313TIP3    H1  884   1.579   0.025   6.646 -0.7202  0.5850  0.9198
  313TIP3    H2  885   1.728   0.047   6.659 -0.5331 -0.4100  0.5802
  314TIP3   OH2  886   6.524   7.659   3.431  0.3889  0.1427 -0.1319
  314TIP3    H1  887   6.432   7.632   3.428 -0.2167  1.8165  1.1659
  314TIP3    H2  888   6.573   7.583   3.401 -1.2290 -1.9239  2.0296
  315TIP3   OH2  889   5.998   5.994   5.977  0.0391  0.1021  0.3436
  315TIP3    H1  890   5.956   6.077   5.953  1.4538  0.8014  0.1673
  315TIP3    H2  891   6.016   5.951   5.894 -1.1761 -0.6558  0.4537
  316TIP3   OH2  892   2.514   3.506   1.148 -0.4413 -0.0080 -0.1156
  316TIP3    H1  893   2.596   3.456   1.153  0.3738  1.3550  0.6654
  316TIP3    H2  894   2.459   3.455   1.088  1.2823 -0.5180 -1.3540
  317TIP3   OH2  895   0.650   7.798   5.416  0.1023 -0.0811  0.5685
  317TIP3    H1  896   0.639   7.731   5.483  3.1381  0.1586  1.4192
  317TIP3    H2  897   0.610   7.760   5.337 -3.0128 -0.6203  2.2142
  318TIP3   OH2  898   4.382   4.762   6.459 -0.6247 -0.0159 -0.0797
  318TIP3    H1  899   4.420   4.831   6.514 -0.5133 -1.0746  1.2454
  318TIP3    H2  900   4.356   4.694   6.522 -3.4301  0.0444 -1.0467
  319TIP3   OH2  901   3.824   4.582   0.422 -0.2458 -0.1913 -0.4293
  319TIP3    H1  902   3.853   4.500   0.462 -0.1391 -0.0188 -0.1504
  319TIP3    H2  903   3.887   4.598   0.352  1.9803  1.5243  1.7867
  320TIP3   OH2  904   1.553   0.726   5.661  0.3604 -0.3179  0.1616
  320TIP3    H1  905   1.605   0.805   5.676 -0.5481  0.6178 -1.2778
  320TIP3    H2  906   1.524   0.699   5.748  2.1376 -0.1123  0.8533
  321TIP3   OH2  907   3.718   6.353   6.268  0.1121 -0.2451  0.3398
  321TIP3    H1  908   3.642   6.399   6.303  0.3135 -0.4095  1.0068
  321TIP3    H2  909   3.691   6.325   6.181 -0.0413  1.0520 -0.0524
  322TIP3   OH2  910   4.200   6.678   4.940  0.1985 -0.7793 -0.0030
  322TIP3    H1  911   4.110   6.661   4.912 -0.9989  0.6086  2.5660
  322TIP3    H2  912   4.237   6.733   4.870 -1.5652  0.0691 -0.3411
  323TIP3   OH2  913   6.064   4.463   1.450  0.4221 -0.2924  0.1317
  323TIP3    H1  914   6.014   4.395   1.405 -1.3775  1.1920 -0.2642
  323TIP3    H2  915   6.154   4.452   1.420 -0.5596  0.2268 -3.4595
  324TIP3   OH2  916   3.157   5.223   3.407  0.1275 -0.1377  0.5288
  324TIP3    H1  917   3.243   5.252   3.436 -0.0901 -0.0658  1.1124
  324TIP3    H2  918   3.137   5.147   3.462  0.0809 -0.5250 -0.0185
  325TIP3   OH2  919   3.211   3.749   3.135  0.4598 -0.5946  0.7377
  325TIP3    H1  920   3.271   3.820   3.115  0.5285 -0.7529  0.3778
  325TIP3    H2  921   3.125   3.791   3.144 -0.1165 -0.7911 -2.5158
  326TIP3   OH2  922   5.124   6.163   6.046  0.3833  0.0871  0.5124
  326TIP3    H1  923   5.110   6.247   6.001 -1.5029  0.0118  0.8851
  326TIP3    H2  924   5.049   6.154   6.104  2.2517 -0.2917  3.0273
  327TIP3   OH2  925   4.490   4.433   3.059 -0.4100  0.0984  0.0437
  327TIP3    H1  926   4.515   4.497   2.993 -1.5114  1.8117  1.1981
  327TIP3    H2  927   4.498   4.480   3.142 -0.6205 -1.4792  0.9982
  328TIP3   OH2  928   0.663   5.181   0.236 -0.3319  0.1492 -0.0261
  328TIP3    H1  929   0.616   5.264   0.228  1.0115  1.0141  0.5765
  328TIP3    H2  930   0.716   5.192   0.315  0.2551 -1.0965 -0.2306
  329TIP3   OH2  931   1.477   6.897   1.256  0.6069  0.0352  0.2584
  329TIP3    H1  932   1.480   6.983   1.297 -0.2172  0.0836  0.2341
  329TIP3    H2  933   1.515   6.911   1.169  0.0328  0.4823  0.0765
  330TIP3   OH2  934   7.683   0.884   6.557 -0.2375  0.0760 -0.2039
  330TIP3    H1  935   7.675   0.958   6.497 -0.7494  0.2351  0.0573
  330TIP3    H2  936   7.601   0.884   6.607  0.7515  0.8069  1.4754
  331TIP3   OH2  937   6.006   3.890   5.231 -0.2686  0.4687 -0.3357
  331TIP3    H1  938   5.969   3.801   5.233  1.5888 -0.3704  2.5765
  331TIP3    H2  939   5.943   3.944   5.278 -0.0400  0.0263  0.5006
  332TIP3   OH2  940   3.354   1.175   2.878 -0.5584  0.3778 -0.2813
  332TIP3    H1  941   3.276   1.124   2.900 -1.6899  1.7956 -0.7932
  332TIP3    H2  942   3.415   1.112   2.842 -1.8942 -0.6215 -0.8928
  333TIP3   OH2  943   5.701   0.250   6.582  0.0355  0.1662  0.2185
  333TIP3    H1  944   5.757   0.326   6.597 -0.2523  0.2307  1.0364
  333TIP3    H2  945   5.639   0.251   6.656  0.7455 -1.5037  0.8916
  334TIP3   OH2  946   1.892   6.786   1.248 -0.8151  0.4110  0.2332
  334TIP3    H1  947   1.865   6.697   1.272 -0.6542  0.3375  0.1442
  334TIP3    H2  948   1.966   6.805   1.306  0.5648 -0.3468 -1.1801
  335TIP3   OH2  949   1.173   2.678   1.055 -0.8322  0.3468  0.0526
  335TIP3    H1  950   1.159   2.599   1.108  2.7889 -1.0088 -0.7295
  335TIP3    H2  951   1.146   2.652   0.966  0.5388 -0.1262 -0.2419
  336TIP3   OH2  952   0.677   6.870   2.169 -0.2968 -0.5966  0.8249
  336TIP3    H1  953   0.636   6.919   2.240  0.4206  0.6873  0.3872
  336TIP3    H2  954   0.743   6.815   2.212 -0.9513 -1.0286  1.2966
  337TIP3   OH2  955   0.765   7.076   5.334  0.5398  0.8806 -0.0106
  337TIP3    H1  956   0.773   6.982   5.349  0.9465  0.7082 -1.2798
  337TIP3    H2  957   0.707   7.084   5.258  0.3149  1.6718  0.2304
  338TIP3   OH2  958   2.709   5.660   0.175 -0.1168 -0.5393 -0.1422
  338TIP3    H1  959   2.802   5.655   0.195  0.2721 -0.2732 -1.7246
  338TIP3    H2  960   2.665   5.639   0.258  1.3339 -0.6959  0.6201
  339TIP3   OH2  961   4.460   3.676   3.890 -0.4171  0.3297  0.4055
  339TIP3    H1  962   4.418   3.613   3.832 -1.9677  1.5477  0.1161
  339TIP3    H2  963   4.553   3.653   3.889 -0.4212  0.1292 -2.3308
  340TIP3   OH2  964   3.329   1.731   0.906 -0.4096 -0.0937  0.0263
  340TIP3    H1  965   3.379   1.650   0.896 -0.7477 -0.4549  1.0836
  340TIP3    H2  966   3.385   1.786   0.961 -0.5919  0.0236  0.0937
  341TIP3   OH2  967   6.693   5.598   6.093  0.2028  1.1079  0.5868
  341TIP3    H1  968   6.705   5.616   6.187  0.3940 -0.6695  0.9258
  341TIP3    H2  969   6.602   5.570   6.085  1.2460 -3.0101  1.0534
  342TIP3   OH2  970   3.048   1.483   2.049 -0.0372  0.2444 -0.2960
  342TIP3    H1  971   3.083   1.551   2.106  3.7628 -0.8288 -1.0510
  342TIP3    H2  972   3.055   1.402   2.101  1.1318 -0.3657 -1.3297
  343TIP3   OH2  973   4.377   2.386   6.285 -0.6546 -0.3257  0.5465
  343TIP3    H1  974   4.454   2.374   6.229 -0.8830  0.7427 -0.0213
  343TIP3    H2  975   4.351   2.297   6.309 -0.2207 -0.7799 -0.5974
  344TIP3   OH2  976   0.559   5.015   2.736  0.2039  0.0780 -0.2042
  344TIP3    H1  977   0.527   4.948   2.674 -0.3190  1.0302 -0.9948
  344TIP3    H2  978   0.637   4.975   2.776  1.0176 -0.2918 -2.0389
  345TIP3   OH2  979   6.572   0.748   5.541 -0.7823 -0.4126 -0.1490
  345TIP3    H1  980   6.513   0.686   5.498 -1.1112 -0.5224  0.4557
  345TIP3    H2  981   6.655   0.700   5.549 -0.4101 -0.0463 -1.5491
  346TIP3   OH2  982   3.082   5.744   2.896 -0.2063 -0.0079  0.0740
  346TIP3    H1  983   3.133   5.723   2.817 -0.2834 -1.0763  0.2860
  346TIP3    H2  984   3.074   5.839   2.895 -0.8071 -0.0389 -1.5795
  347TIP3   OH2  985   3.767   6.864   2.577 -0.4153 -0.3020  0.2497
  347TIP3    H1  986   3.680   6.844   2.611  0.3445 -1.6443  1.5370
  347TIP3    H2  987   3.819   6.883   2.655  0.2843  1.2876 -0.5567
  348TIP3   OH2  988   1.029   3.622   4.481 -0.9371 -0.4564 -0.1594
  348TIP3    H1  989   0.975   3.600   4.405  0.3377  0.4590 -1.3762
  348TIP3    H2  990   1.111   3.575   4.466  0.0947  1.3611 -0.4425
  349TIP3   OH2  991   7.941   1.575   3.008 -0.2157 -0.2931 -0.6344
  349TIP3    H1  992   7.962   1.542   2.920 -0.9905 -0.4260 -0.7843
  349TIP3    H2  993   8.018   1.624   3.035 -0.3937  0.7064 -1.8593
  350TIP3   OH2  994   5.663   6.838   5.525 -0.8192 -0.0912 -0.5635
  350TIP3    H1  995   5.712   6.920   5.520  0.1961 -0.5295  1.1516
  350TIP3    H2  996   5.650   6.812   5.434 -3.1750  3.0422 -1.3041
  351TIP3   OH2  997   1.943   2.342   0.632 -0.1157  0.7394  0.4773
  351TIP3    H1  998   1.995   2.362   0.555 -0.6711 -1.1667 -0.4572
  351TIP3    H2  999   2.006   2.309   0.696 -0.0492 -0.9183 -0.4069
  352TIP3   OH2 1000   3.219   2.360   6.746 -0.0113  0.2986 -0.6634
  352TIP3    H1 1001   3.257   2.425   6.805  0.1358 -0.3170 -0.0662
  352TIP3    H2 1002   3.185   2.411   6.673  0.7659  0.9850 -0.5652
  353TIP3   OH2 1003   5.719   1.141   4.974 -0.0065  0.0761 -0.0759
  353TIP3    H1 1004   5.630   1.176   4.981  0.0145  0.0959  0.0925
  353TIP3    H2 1005   5.708   1.059   4.926 -0.6646 -1.9342  3.2175
  354TIP3   OH2 1006   0.872   6.866   2.651  0.1541  0.0525 -0.4311
  354TIP3    H1 1007   0.964   6.887   2.668  0.6702 -1.0304 -1.6172
  354TIP3    H2 1008   0.839   6.833   2.734  0.7547  0.7337  0.0889
  355TIP3   OH2 1009   2.157   1.923   4.707 -0.2592 -0.1963 -0.0538
  355TIP3    H1 1010   2.127   1.915   4.617 -2.2754 -0.8997  0.6336
  355TIP3    H2 1011   2.094   1.872   4.758  1.1875 -0.3352  1.6929
  356TIP3   OH2 1012   3.406   4.919   5.579 -0.0494  0.4528 -0.0038
  356TIP3    H1 1013   3.445   4.845   5.626 -1.0346  0.6500  1.1672
  356TIP3    H2 1014   3.393   4.887   5.490 -0.2225 -0.6959  0.4242
  357TIP3   OH2 1015   5.748   6.397   6.747  0.0698  0.1137 -0.0106
  357TIP3    H1 1016   5.702   6.456   6.688  1.2609 -0.7512 -1.9276
  357TIP3    H2 1017   5.836   6.434   6.755  0.2987 -0.4563  0.2073
  358TIP3   OH2 1018   7.058   3.790   6.472 -0.0191 -0.5691 -0.0601
  358TIP3    H1 1019   7.119   3.729   6.432 -0.0082 -0.9368  0.4963
  358TIP3    H2 1020   6.978   3.783   6.420  0.0255 -0.9671 -0.0785
  359TIP3   OH2 1021   4.853   6.305   5.404  0.2927  0.4536  0.2024
  359TIP3    H1 1022   4.770   6.310   5.357 -0.2570 -0.0883  1.0795
  359TIP3    H2 1023   4.916   6.347   5.346  0.1474 -2.2219 -2.1208
  360TIP3   OH2 1024   2.185   7.705   4.135  0.2243  0.0623  0.0702
  360TIP3    H1 1025   2.092   7.685   4.133  0.9255 -4.1396 -0.6500
  360TIP3    H2 1026   2.210   7.713   4.043  0.7841 -0.1006  0.2049
  361TIP3   OH2 1027   7.758   5.254   0.059 -0.1360  0.4347  0.0123
  361TIP3    H1 1028   7.675   5.298   0.043 -0.1870  0.7311  1.0250
  361TIP3    H2 1029   7.735   5.161   0.065 -0.4692  0.5569  0.7289
  362TIP3   OH2 1030   7.496   1.903   2.261 -0.1968  0.1306 -0.4538
  362TIP3    H1 1031   7.544   1.894   2.343  1.1222 -1.3597 -1.3463
  362TIP3    H2 1032   7.513   1.993   2.233  0.6765  0.1518  0.1070
  363TIP3   OH2 1033   4.138   5.495   2.909  0.2503 -0.0059  0.1791
  363TIP3    H1 1034   4.219   5.532   2.944  0.8209 -1.1793  0.1224
  363TIP3    H2 1035   4.149   5.500   2.814 -0.6016  1.6429  0.1175
  364TIP3   OH2 1036   2.193   4.255   0.613  0.0115  0.0141  0.6822
  364TIP3    H1 1037   2.278   4.212   0.610  0.5262  1.0851 -0.8131
  364TIP3    H2 1038   2.130   4.183   0.605  0.8149 -0.6082 -0.1608
  365TIP3   OH2 1039   2.341   6.674   5.399  0.1316  0.2318  0.1612
  365TIP3    H1 1040   2.410   6.636   5.453 -0.1078 -0.6655 -0.1394
  365TIP3    H2 1041   2.333   6.614   5.325  1.8451  2.4371 -1.9936
  366TIP3   OH2 1042   1.429   1.871   6.000  0.1200 -0.2845  0.5635
  366TIP3    H1 1043   1.373   1.830   5.934  1.2410  0.4508 -0.8877
  366TIP3    H2 1044   1.442   1.961   5.968  4.3658 -1.1352 -0.7093
  367TIP3   OH2 1045   7.034   5.291   2.058  0.4802  0.6313 -0.0461
  367TIP3    H1 1046   7.090   5.240   2.118  0.3574  0.2811 -0.2259
  367TIP3    H2 1047   6.945   5.268   2.083  0.4268  0.5836 -0.2776
  368TIP3   OH2 1048   5.909   7.599   4.867 -0.2380 -0.1549  0.1025
  368TIP3    H1 1049   5.946   7.673   4.915 -0.2109  0.4387 -0.8033
  368TIP3    H2 1050   5.854   7.554   4.931  2.0988 -1.1546  1.5297
  369TIP3   OH2 1051   6.925   1.986   1.162 -0.1416  0.4646 -0.3776
  369TIP3    H1 1052   7.010   1.960   1.125 -0.9295  0.4134 -2.2752
  369TIP3    H2 1053   6.930   1.961   1.254  1.1766 -1.3355 -0.8829
  370TIP3   OH2 1054   4.153   0.837   4.905 -0.1087 -0.5184 -0.0819
  370TIP3    H1 1055   4.059   0.822   4.892 -0.1791 -0.1288 -0.0245
  370TIP3    H2 1056   4.163   0.932   4.901  0.1608 -0.5078  0.7910
  371TIP3   OH2 1057   4.161   2.883   2.825 -0.0999  0.1542 -0.1400
  371TIP3    H1 1058   4.154   2.913   2.735  1.3505  0.6751 -0.1052
  371TIP3    H2 1059   4.191   2.793   2.818 -0.7826 -0.0716 -0.1860
  372TIP3   OH2 1060   0.620   7.422   4.803 -0.0596 -0.0948  0.5424
  372TIP3    H1 1061   0.595   7.400   4.893 -2.1868  2.1751  0.6110
  372TIP3    H2 1062   0.627   7.517   4.803 -1.7113  0.1157 -2.0178
  373TIP3   OH2 1063   3.078   6.869   1.743  0.1527  0.4955  0.2457
  373TIP3    H1 1064   3.031   6.917   1.811 -1.5966  1.0913 -1.3214
  373TIP3    H2 1065   3.106   6.936   1.681 -0.1163 -0.2459 -0.6873
  374TIP3   OH2 1066   6.876   3.731   3.217 -0.0812 -0.7349 -0.3333
  374TIP3    H1 1067   6.914   3.686   3.142  0.6458  0.2040 -0.5470
  374TIP3    H2 1068   6.940   3.718   3.288 -0.8095 -1.7004  0.1719
  375TIP3   OH2 1069   2.943   5.341   4.527 -0.3681  0.7400  0.4327
  375TIP3    H1 1070   2.972   5.400   4.596  2.2370  0.4339 -0.2701
  375TIP3    H2 1071   2.970   5.254   4.557 -0.7172  0.3981 -0.2192
  376TIP3   OH2 1072   2.524   5.710   2.189 -0.2070 -0.2677 -0.3800
  376TIP3    H1 1073   2.448   5.749   2.144 -0.3380 -0.6818 -0.5161
  376TIP3    H2 1074   2.524   5.618   2.163  0.6735 -0.1509 -0.8299
  377TIP3   OH2 1075   6.604   4.572   4.170  0.1005 -0.0413  0.2124
  377TIP3    H1 1076   6.660   4.582   4.093 -0.4206  1.9408  0.0519
  377TIP3    H2 1077   6.621   4.483   4.200  2.7204  0.2046 -0.3039
  378TIP3   OH2 1078   2.160   3.150   0.119  0.3606 -0.4306  0.5274
  378TIP3    H1 1079   2.171   3.202   0.039  2.1559 -0.5119  0.6703
  378TIP3    H2 1080   2.144   3.061   0.088 -1.1185 -0.0944  0.2807
  379TIP3   OH2 1081   0.358   2.402   1.422 -0.3220  0.1512 -0.0212
  379TIP3    H1 1082   0.401   2.444   1.348 -0.3303 -0.6338 -0.4908
  379TIP3    H2 1083   0.329   2.474   1.478 -0.4884  0.7670 -0.8770
  380TIP3   OH2 1084   3.872   1.633   3.061 -0.3301 -0.0192 -0.7282
  380TIP3    H1 1085   3.845   1.594   3.144 -0.2113 -0.5442 -0.9355
  380TIP3    H2 1086   3.828   1.581   2.994  2.0946 -1.6706 -1.1428
  381TIP3   OH2 1087   5.143   5.806   3.950 -0.0855 -0.4090  0.3207
  381TIP3    H1 1088   5.152   5.713   3.970  0.8377  0.1221  2.7055
  381TIP3    H2 1089   5.209   5.823   3.883 -0.0373 -1.3962  0.1038
  382TIP3   OH2 1090   2.349   0.699   0.803 -0.1600 -0.7317  0.2016
  382TIP3    H1 1091   2.437   0.687   0.839  0.0139  0.9983  0.4119
  382TIP3    H2 1092   2.295   0.637   0.852  0.7061 -0.8771  1.0042
  383TIP3   OH2 1093   0.440   7.389   5.632  0.0837  0.0061 -0.2380
  383TIP3    H1 1094   0.377   7.412   5.701  0.1580 -0.4654 -0.0106
  383TIP3    H2 1095   0.410   7.305   5.599  1.3471 -0.8938  0.8055
  384TIP3   OH2 1096   0.947   2.090   1.877  0.5001 -0.0444  0.2744
  384TIP3    H1 1097   0.955   2.093   1.782 -1.5344  1.3339  0.0856
  384TIP3    H2 1098   1.022   2.139   1.910  0.5070  0.6009 -0.6773
  385TIP3   OH2 1099   1.572   3.979   0.395  0.5596  0.4161  0.3775
  385TIP3    H1 1100   1.590   3.912   0.329 -0.6957  0.4724 -0.0481
  385TIP3    H2 1101   1.512   4.040   0.351  1.8731  1.9905  0.6543
  386TIP3   OH2 1102   4.482   5.937   6.474 -0.6414 -0.2299  0.4195
  386TIP3    H1 1103   4.499   5.876   6.402 -2.1039 -1.3021  0.9304
  386TIP3    H2 1104   4.438   5.883   6.540 -1.1032  1.1786  1.2889
  387TIP3   OH2 1105   4.841   1.043   2.708 -0.2780  0.2381  0.1055
  387TIP3    H1 1106   4.860   1.072   2.797 -0.3233  0.6884 -0.0276
  387TIP3    H2 1107   4.752   1.073   2.691  0.3711  1.8195 -0.7469
  388TIP3   OH2 1108   5.335   4.953   5.860  0.2164 -0.0040 -0.3666
  388TIP3    H1 1109   5.384   4.871   5.868  0.1848  0.1193  1.9725
  388TIP3    H2 1110   5.372   5.009   5.929 -2.5582  0.4220  0.8952
  389TIP3   OH2 1111   0.534   0.569   1.426  0.3292 -0.0915  0.1348
  389TIP3    H1 1112   0.441   0.580   1.446  0.4278 -0.1225  0.6053
  389TIP3    H2 1113   0.575   0.649   1.458  0.2654  0.6008 -1.4028
  390TIP3   OH2 1114   5.241   0.984   0.921 -0.2292 -0.1197 -0.1415
  390TIP3    H1 1115   5.266   0.911   0.978  1.0963 -0.4948 -1.1456
  390TIP3    H2 1116   5.309   1.049   0.935 -0.5448  0.2735 -0.4204
  391TIP3   OH2 1117   6.832   2.745   3.341 -0.0015 -0.5365 -0.3853
  391TIP3    H1 1118   6.816   2.689   3.416 -0.9332 -0.3698 -0.4454
  391TIP3    H2 1119   6.895   2.697   3.288 -0.0727 -1.0924  0.0306
  392TIP3   OH2 1120   6.622   6.800   3.856 -0.8419  0.1405  0.2655
  392TIP3    H1 1121   6.583   6.771   3.773 -1.0061  0.6082  0.1743
  392TIP3    H2 1122   6.695   6.857   3.830 -1.2346  0.7361  0.4327
  393TIP3   OH2 1123   4.432   4.985   6.634 -0.0413  0.6906  0.3169
  393TIP3    H1 1124   4.350   5.018   6.672 -1.1067 -0.9384 -0.4469
  393TIP3    H2 1125   4.494   5.057   6.646 -1.3517  1.6747  1.6557
  394TIP3   OH2 1126   2.673   2.527   2.267 -0.2785 -0.0937  0.2382
  394TIP3    H1 1127   2.674   2.587   2.192  1.0301 -0.6644 -0.2345
  394TIP3    H2 1128   2.709   2.579   2.339  1.1919 -0.3697 -0.2567
  395TIP3   OH2 1129   0.413   4.653   3.739  0.1308 -0.1238 -0.1411
  395TIP3    H1 1130   0.404   4.696   3.825  2.2566  2.4799 -1.0717
  395TIP3    H2 1131   0.392   4.722   3.676  4.4145  0.0605 -1.7473
  396TIP3   OH2 1132   7.066   5.355   0.603  0.7020 -0.1530 -0.6256
  396TIP3    H1 1133   6.980   5.323   0.631  0.7258 -0.0652 -0.4488
  396TIP3    H2 1134   7.098   5.406   0.677  0.0996  1.3910 -1.3984
  397TIP3   OH2 1135   6.000   6.640   6.599 -0.5691 -0.0822 -0.0925
  397TIP3    H1 1136   6.036   6.551   6.608 -0.8362 -0.1580  0.2386
  397TIP3    H2 1137   5.993   6.653   6.505  0.7875  0.1146 -0.1801
  398TIP3   OH2 1138   6.842   3.956   2.476 -0.0533 -0.3937  0.3430
  398TIP3    H1 1139   6.920   3.928   2.427  0.6787 -0.0479  1.2766
  398TIP3    H2 1140   6.778   3.887   2.462  0.2567 -0.4643 -0.8133
  399TIP3   OH2 1141   6.291   6.897   6.560  0.2448  0.4275  0.2096
  399TIP3    H1 1142   6.316   6.819   6.610  1.2722  1.2373  0.9704
  399TIP3    H2 1143   6.197   6.885   6.544  0.3146 -0.7996  0.6087
  400TIP3   OH2 1144   5.698   5.883   6.214  0.1868  0.3011 -0.1267
  400TIP3    H1 1145   5.624   5.917   6.162  0.2099  0.7970  0.1661
  400TIP3    H2 1146   5.669   5.795   6.240 -0.9117  1.0172  1.1889
  401TIP3   OH2 1147   0.880   4.753   3.639 -0.6189  0.0855  0.0465
  401TIP3    H1 1148   0.791   4.784   3.624 -0.3807  0.8228  0.1438
  401TIP3    H2 1149   0.936   4.820   3.601 -0.1153 -1.1014 -1.3792
  402TIP3   OH2 1150   4.698   3.567   2.571  0.2633 -0.3934 -0.0266
  402TIP3    H1 1151   4.657   3.523   2.645  1.2067 -2.3467 -0.6010
  402TIP3    H2 1152   4.689   3.660   2.591 -1.3041 -0.8191  1.5305
  403TIP3   OH2 1153   2.147   2.384   2.109 -0.0928  0.3138  0.4692
  403TIP3    H1 1154   2.186   2.457   2.155  3.1469 -2.0291  1.7900
  403TIP3    H2 1155   2.154   2.407   2.016 -0.0333  2.0011  0.8583
  404TIP3   OH2 1156   5.011   1.966   2.718 -0.1843  0.3412 -0.2744
  404TIP3    H1 1157   5.014   1.871   2.705 -0.2840  0.2928  0.0630
  404TIP3    H2 1158   4.921   1.991   2.696  0.1111  0.5090 -1.3806
  405TIP3   OH2 1159   7.711   3.443   4.453  0.2489 -0.8824 -0.0970
  405TIP3    H1 1160   7.719   3.423   4.547 -0.9321 -0.4667  0.1025
  405TIP3    H2 1161   7.646   3.513   4.448 -0.3747 -1.5135 -1.2966
  406TIP3   OH2 1162   4.177   6.556   2.866 -0.3034 -0.4673  0.1351
  406TIP3    H1 1163   4.175   6.599   2.780 -0.4054  1.9293  1.2644
  406TIP3    H2 1164   4.257   6.588   2.907 -0.8154 -0.7175  1.3511
  407TIP3   OH2 1165   5.910   5.234   6.033 -0.4255 -0.4435 -0.0006
  407TIP3    H1 1166   5.862   5.290   5.971 -0.0914  0.4018  0.4903
  407TIP3    H2 1167   5.843   5.204   6.095 -0.3897  0.5448  0.5451
  408TIP3   OH2 1168   4.843   7.512   6.519  0.0107  0.5186  0.3066
  408TIP3    H1 1169   4.845   7.418   6.540 -0.0829  0.5657  0.5343
  408TIP3    H2 1170   4.909   7.522   6.451  0.0202  0.2853  0.2779
  409TIP3   OH2 1171   3.842   7.741   5.329  0.0767 -0.3571 -0.3290
  409TIP3    H1 1172   3.834   7.802   5.403  1.0020  0.7995 -1.1332
  409TIP3    H2 1173   3.900   7.672   5.361  0.4174  0.1014  0.0689
  410TIP3   OH2 1174   3.411   3.150   1.669 -0.3642 -0.4547 -0.2789
  410TIP3    H1 1175   3.472   3.209   1.713  0.5641 -0.4013 -1.5944
  410TIP3    H2 1176   3.327   3.196   1.670  0.0646  0.3340 -0.1748
  411TIP3   OH2 1177   3.221   7.154   4.206 -0.8434  0.1821  0.2929
  411TIP3    H1 1178   3.316   7.143   4.209 -0.9241 -0.7936 -0.3498
  411TIP3    H2 1179   3.196   7.168   4.297 -0.2187 -0.8741  0.6465
  412TIP3   OH2 1180   4.517   6.763   6.713 -0.6171  0.0652  0.5839
  412TIP3    H1 1181   4.509   6.728   6.802 -1.1115 -0.4858  0.3303
  412TIP3    H2 1182   4.530   6.685   6.659 -1.5145  0.2879  0.0322
  413TIP3   OH2 1183   4.946   6.296   0.218  0.1772  0.5847  0.0049
  413TIP3    H1 1184   5.032   6.264   0.189 -0.2095 -0.6031  0.1046
  413TIP3    H2 1185   4.902   6.321   0.137 -0.4964 -1.7108 -0.4311
  414TIP3   OH2 1186   6.029   2.519   4.456 -0.2300 -0.4081 -0.0799
  414TIP3    H1 1187   5.986   2.434   4.455 -0.2824 -0.3789 -0.8164
  414TIP3    H2 1188   6.103   2.507   4.516 -1.5148 -0.3067  1.6008
  415TIP3   OH2 1189   1.699   3.308   1.049 -0.0445  0.3313 -0.5368
  415TIP3    H1 1190   1.676   3.241   0.985  1.9234 -0.4213 -0.5031
  415TIP3    H2 1191   1.794   3.313   1.046 -0.0947  2.9335 -0.3164
  416TIP3   OH2 1192   4.429   0.154   2.542 -0.4242  0.0620 -0.3009
  416TIP3    H1 1193   4.504   0.127   2.595 -0.9670 -0.8410  0.0356
  416TIP3    H2 1194   4.374   0.204   2.602 -1.9051 -2.4228  0.5843
  417TIP3   OH2 1195   2.359   0.807   0.337  0.2265 -0.1123 -0.1077
  417TIP3    H1 1196   2.379   0.831   0.427  2.3447  0.8241 -0.7565
  417TIP3    H2 1197   2.305   0.878   0.304  1.0144  0.4981 -0.1047
  418TIP3   OH2 1198   4.863   1.783   5.055  0.1166 -0.1172 -0.2112
  418TIP3    H1 1199   4.909   1.858   5.093 -0.2743 -1.3047  2.9269
  418TIP3    H2 1200   4.929   1.714   5.052 -0.4341 -0.7122  0.6557
  419TIP3   OH2 1201   8.031   7.105   1.184 -0.1232  0.7318 -0.5774
  419TIP3    H1 1202   8.056   7.042   1.116  0.5891  3.5426 -3.1101
  419TIP3    H2 1203   7.939   7.121   1.169 -0.9035 -1.1566  1.4964
  420TIP3   OH2 1204   3.101   1.768   2.689  0.0497  0.2314 -0.3430
  420TIP3    H1 1205   3.018   1.731   2.720 -0.5879  0.7739 -1.3675
  420TIP3    H2 1206   3.130   1.709   2.620  0.5250  0.0408  0.0159
  421TIP3   OH2 1207   3.160   3.675   4.845 -0.2361  0.1282 -0.3442
  421TIP3    H1 1208   3.096   3.614   4.881  1.8750 -0.9602  1.8927
  421TIP3    H2 1209   3.231   3.619   4.814  1.2719  1.3513  0.7364
  422TIP3   OH2 1210   7.433   2.204   3.516  0.0668  0.4756 -0.8555
  422TIP3    H1 1211   7.355   2.229   3.467 -2.1165 -2.2299  0.9642
  422TIP3    H2 1212   7.427   2.252   3.598 -0.8536 -1.2259  0.1199
  423TIP3   OH2 1213   2.520   7.026   4.335 -0.1893 -0.1851  0.1575
  423TIP3    H1 1214   2.615   7.026   4.347 -0.2510  0.5832  0.7100
  423TIP3    H2 1215   2.508   7.017   4.240  0.4307 -0.3695  0.0907
  424TIP3   OH2 1216   7.796   5.470   0.434  0.5962 -0.4472 -0.7992
  424TIP3    H1 1217   7.860   5.415   0.479  0.7901  0.6212  0.2963
  424TIP3    H2 1218   7.839   5.494   0.352  1.8309  0.6008  0.0995
  425TIP3   OH2 1219   5.072   1.998   0.593  0.2077 -0.3975 -0.8160
  425TIP3    H1 1220   5.105   2.078   0.553 -1.3382  0.7621  0.1008
  425TIP3    H2 1221   4.989   1.981   0.547 -0.2594 -0.5547  0.0553
  426TIP3   OH2 1222   1.451   4.954   3.096 -0.1485  0.9509  0.3363
  426TIP3    H1 1223   1.425   4.935   3.186 -0.0268 -0.5714  0.0755
  426TIP3    H2 1224   1.544   4.975   3.101 -0.0757  0.5845  0.5369
  427TIP3   OH2 1225   2.286   5.723   0.488  0.6134 -0.1687 -0.0127
  427TIP3    H1 1226   2.238   5.652   0.530  3.4477 -2.0555  0.2766
  427TIP3    H2 1227   2.250   5.726   0.399 -2.1505  0.6828  1.0379
  428TIP3   OH2 1228   5.721   0.376   0.675 -0.2363 -0.1825 -0.3189
  428TIP3    H1 1229   5.737   0.469   0.687  3.2837 -0.8979  2.4595
  428TIP3    H2 1230   5.771   0.353   0.596 -0.7646  0.1825 -0.7667
  429TIP3   OH2 1231   5.864   3.946   3.072  0.1004  0.5020  0.4122
  429TIP3    H1 1232   5.930   3.880   3.051 -1.1480 -0.0896 -2.0751
  429TIP3    H2 1233   5.913   4.019   3.107  1.6886 -1.1764  1.8798
  430TIP3   OH2 1234   7.662   6.015   2.618 -0.2433 -0.1475 -0.1527
  430TIP3    H1 1235   7.704   6.089   2.663  0.2122 -0.7754  0.4838
  430TIP3    H2 1236   7.715   6.003   2.539  0.7411 -0.8584  0.5871
  431TIP3   OH2 1237   5.404   2.405   0.125  0.3553 -0.1717  0.3882
  431TIP3    H1 1238   5.380   2.484   0.174  0.4433  1.8048 -2.4897
  431TIP3    H2 1239   5.327   2.348   0.132 -0.6810  1.2003  0.5884
  432TIP3   OH2 1240   4.130   2.180   2.271 -0.9020  0.2627 -0.3969
  432TIP3    H1 1241   4.170   2.130   2.343 -2.5781 -0.3495  0.1430
  432TIP3    H2 1242   4.046   2.208   2.306 -0.3208  2.9275 -0.9405
  433TIP3   OH2 1243   6.677   2.660   6.098  0.0226  0.0896  0.8159
  433TIP3    H1 1244   6.618   2.591   6.126  0.6373 -1.4598 -1.4446
  433TIP3    H2 1245   6.764   2.629   6.122  0.1891  0.7935  1.1423
  434TIP3   OH2 1246   6.350   6.648   4.305 -0.3949  0.4831 -0.2326
  434TIP3    H1 1247   6.292   6.592   4.254  0.6269 -0.2632 -0.6183
  434TIP3    H2 1248   6.301   6.669   4.384 -1.3782  0.3114 -0.7830
  435TIP3   OH2 1249   6.780   7.239   0.033  0.3282  0.0651 -0.3156
  435TIP3    H1 1250   6.820   7.170   0.085 -0.6417 -0.8392 -0.7110
  435TIP3    H2 1251   6.739   7.193  -0.040 -1.9493  0.8254  0.3904
  436TIP3   OH2 1252   0.350   3.748   0.157 -0.6123 -0.0095  0.4948
  436TIP3    H1 1253   0.362   3.708   0.071  0.5639 -0.4146  0.8295
  436TIP3    H2 1254   0.310   3.833   0.138  0.7974  0.4540 -0.5662
  437TIP3   OH2 1255   5.072   1.487   1.858 -0.1506  0.5430  0.5513
  437TIP3    H1 1256   5.079   1.525   1.771 -0.1109  1.0916  0.7886
  437TIP3    H2 1257   4.978   1.482   1.875 -0.2484 -1.4753 -0.3325
  438TIP3   OH2 1258   2.071   3.880   5.798 -0.7605 -0.0338  0.2634
  438TIP3    H1 1259   2.100   3.789   5.784 -0.2607 -0.2608  2.4209
  438TIP3    H2 1260   1.994   3.872   5.854 -0.7724  0.8802  0.3791
  439TIP3   OH2 1261   4.463   3.444   3.493 -0.6131 -0.0762  0.1443
  439TIP3    H1 1262   4.462   3.535   3.464  0.4171 -0.6063 -1.6741
  439TIP3    H2 1263   4.551   3.414   3.473 -1.2001 -1.7260 -0.0754
  440TIP3   OH2 1264   1.464   4.202   3.858  0.0940  0.1542 -0.0188
  440TIP3    H1 1265   1.444   4.296   3.864  0.8010  0.4753 -2.0146
  440TIP3    H2 1266   1.560   4.199   3.854  0.0329 -0.5789 -0.9836
  441TIP3   OH2 1267   1.546   5.762   3.636 -0.4279 -0.3702  0.4632
  441TIP3    H1 1268   1.519   5.683   3.590  0.1153 -0.1391 -0.2582
  441TIP3    H2 1269   1.641   5.755   3.644 -0.3852  0.1676  0.4704
  442TIP3   OH2 1270   2.309   2.153   3.608  0.5864  0.4862 -0.0854
  442TIP3    H1 1271   2.341   2.063   3.614  0.5074  0.4717  0.1427
  442TIP3    H2 1272   2.363   2.194   3.541  1.1914  0.5038  0.4024
  443TIP3   OH2 1273   0.372   5.076   3.375 -0.0415 -0.2307  0.1056
  443TIP3    H1 1274   0.390   5.005   3.437  1.2626 -1.4638 -1.5903
  443TIP3    H2 1275   0.441   5.140   3.392  0.9891 -1.0664 -0.7216
  444TIP3   OH2 1276   5.288   6.832   0.323  0.4008 -0.1346 -0.7609
  444TIP3    H1 1277   5.328   6.913   0.353  2.3385 -1.0802 -0.6419
  444TIP3    H2 1278   5.289   6.838   0.228  1.1971 -0.2924 -0.7715
  445TIP3   OH2 1279   3.609   3.469   0.368 -0.0879  0.0192  0.1562
  445TIP3    H1 1280   3.581   3.415   0.294 -0.2888  0.4413 -0.0800
  445TIP3    H2 1281   3.572   3.555   0.350  1.1760  0.5325 -0.0529
  446TIP3   OH2 1282   5.078   2.556   3.388  0.3322 -0.2878  0.2888
  446TIP3    H1 1283   4.994   2.553   3.433 -0.0564  1.7730 -0.1706
  446TIP3    H2 1284   5.144   2.552   3.458 -0.2223  0.9191  0.9105
  447TIP3   OH2 1285   6.637   4.817   4.286 -0.3767 -0.3802 -0.3065
  447TIP3    H1 1286   6.656   4.731   4.249  2.5056  0.0702 -0.0964
  447TIP3    H2 1287   6.582   4.860   4.220  0.1208 -1.5484 -1.5285
  448TIP3   OH2 1288   5.502   3.455   3.486 -0.1848  0.6041 -0.1261
  448TIP3    H1 1289   5.488   3.491   3.399 -0.2892  0.5559 -0.1290
  448TIP3    H2 1290   5.508   3.360   3.472  0.3953  0.6373 -0.1603
  449TIP3   OH2 1291   3.434   5.874   0.729  0.1778 -0.0968 -0.4908
  449TIP3    H1 1292   3.475   5.788   0.729 -0.6339 -0.5107  0.9211
  449TIP3    H2 1293   3.343   5.857   0.706 -0.3469  0.1510  1.2278
  450TIP3   OH2 1294   4.933   7.177   1.456 -0.0384 -0.0637  0.1743
  450TIP3    H1 1295   4.981   7.258   1.447 -0.8253  0.5557  1.2742
  450TIP3    H2 1296   4.964   7.139   1.539 -2.8256  1.4069  2.0563
  451TIP3   OH2 1297   7.940   2.543   2.838  0.0310  0.0911 -0.3142
  451TIP3    H1 1298   7.891   2.619   2.808  1.7836  1.2060 -0.5310
  451TIP3    H2 1299   7.928   2.542   2.933  1.6583  1.9752 -0.0076
  452TIP3   OH2 1300   4.008   5.156   5.667  0.0309 -0.2256  0.3569
  452TIP3    H1 1301   4.055   5.105   5.733  2.4292  0.7158 -0.5012
  452TIP3    H2 1302   4.044   5.244   5.674 -2.7009  0.9531  0.5654
  453TIP3   OH2 1303   6.900   3.527   5.440  0.0497  0.7521  0.4841
  453TIP3    H1 1304   6.895   3.582   5.518  0.8218  1.1032  0.2990
  453TIP3    H2 1305   6.832   3.561   5.382  0.4968  1.4985  0.3863
  454TIP3   OH2 1306   4.301   1.757   2.919 -0.2865  0.2450 -0.4622
  454TIP3    H1 1307   4.272   1.670   2.945  0.1856  0.1839 -0.1280
  454TIP3    H2 1308   4.229   1.792   2.867 -1.2907  0.3716  0.9550
  455TIP3   OH2 1309   6.181   1.806   6.428 -0.0285 -0.2928  0.0064
  455TIP3    H1 1310   6.212   1.715   6.417  1.2103 -0.1388  1.7890
  455TIP3    H2 1311   6.250   1.859   6.388  0.6298 -0.0655  1.3789
  456TIP3   OH2 1312   0.226   6.495   5.095  0.2792  0.0419  0.3114
  456TIP3    H1 1313   0.291   6.553   5.055 -0.3091  0.0099 -0.7318
  456TIP3    H2 1314   0.149   6.501   5.037 -0.1617 -0.9653  0.7602
  457TIP3   OH2 1315   0.834   0.308   3.462 -0.1012 -0.3435 -0.5406
  457TIP3    H1 1316   0.870   0.306   3.374  0.5048 -0.9374 -0.2901
  457TIP3    H2 1317   0.838   0.217   3.492 -1.1449 -0.3028 -0.2325
  458TIP3   OH2 1318   7.031   4.281   1.996  0.1233  0.3735  0.4612
  458TIP3    H1 1319   7.005   4.351   1.936 -0.4708  0.6196  1.0041
  458TIP3    H2 1320   6.955   4.223   2.001  0.5648 -0.2419  0.1197
  459TIP3   OH2 1321   4.045   0.217   5.037 -0.1443  0.2534 -0.1172
  459TIP3    H1 1322   4.112   0.152   5.062  0.3777  1.6626  2.5043
  459TIP3    H2 1323   3.979   0.210   5.106  0.4027  3.1150  0.7950
  460TIP3   OH2 1324   7.962   6.810   2.843  0.6342 -0.0215  0.2997
  460TIP3    H1 1325   7.883   6.859   2.868 -0.6475 -1.2920 -1.0133
  460TIP3    H2 1326   7.970   6.823   2.749  1.2861 -0.8861  0.2158
  461TIP3   OH2 1327   3.389   5.960   1.504  0.2668 -0.2661  0.0917
  461TIP3    H1 1328   3.466   5.906   1.488  1.4903  0.5049  2.6865
  461TIP3    H2 1329   3.342   5.960   1.421  3.9044  0.6089 -2.2336
  462TIP3   OH2 1330   8.048   3.874   0.809  0.3567 -0.4632  0.0467
  462TIP3    H1 1331   8.077   3.797   0.859  1.1023 -1.0221 -1.2131
  462TIP3    H2 1332   7.964   3.896   0.848 -0.3990 -2.5854 -0.2329
  463TIP3   OH2 1333   1.255   3.191   0.187  0.2183  0.3792  0.1773
  463TIP3    H1 1334   1.272   3.131   0.259  1.5207 -1.3412 -1.4789
  463TIP3    H2 1335   1.332   3.185   0.131 -0.7661  1.6109 -1.4148
  464TIP3   OH2 1336   6.701   0.614   5.788  0.3805 -0.2240  0.1192
  464TIP3    H1 1337   6.790   0.640   5.766  0.3877 -0.9642 -0.8059
  464TIP3    H2 1338   6.709   0.523   5.817 -0.1947 -0.6662 -1.0392
  465TIP3   OH2 1339   0.053   0.414   2.008 -0.2969 -0.1214 -0.2059
  465TIP3    H1 1340   0.008   0.332   2.029  1.8019 -1.7821 -1.7921
  465TIP3    H2 1341   0.141   0.402   2.043 -0.1466  1.8213  0.2006
  466TIP3   OH2 1342   0.839   0.288   5.799 -0.2100  0.4799 -0.2559
  466TIP3    H1 1343   0.931   0.281   5.774 -0.0301 -0.0033  0.5147
  466TIP3    H2 1344   0.791   0.258   5.722  0.3257 -0.8092 -0.1085
  467TIP3   OH2 1345   0.100   0.872   0.001 -0.0687  0.0361 -0.0505
  467TIP3    H1 1346   0.041   0.801   0.026 -1.2057  1.0919  0.3603
  467TIP3    H2 1347   0.178   0.858   0.055 -0.6479 -0.3634  0.7036
  468TIP3   OH2 1348   2.946   2.393   2.228  0.5145  0.3576 -0.3701
  468TIP3    H1 1349   2.876   2.404   2.293  0.8100 -0.5786  0.1329
  468TIP3    H2 1350   3.009   2.336   2.271  1.1218  0.4000 -1.1846
  469TIP3   OH2 1351   3.411   6.337   4.576 -0.5694  0.0427  0.0012
  469TIP3    H1 1352   3.336   6.364   4.523  0.8152  1.2245 -1.4617
  469TIP3    H2 1353   3.484   6.334   4.514  0.9479  0.5962  1.6862
  470TIP3   OH2 1354   4.435   7.355   4.826 -0.5197 -0.0795 -0.1583
  470TIP3    H1 1355   4.392   7.342   4.910 -0.4869 -0.4012 -0.1899
  470TIP3    H2 1356   4.520   7.395   4.847 -1.1211  1.2453 -0.1421
  471TIP3   OH2 1357   5.835   1.511   4.954 -0.1092 -0.1502 -0.7548
  471TIP3    H1 1358   5.758   1.562   4.979  1.2510  1.0331  1.2709
  471TIP3    H2 1359   5.862   1.467   5.034  1.3758 -0.4565 -1.3911
  472TIP3   OH2 1360   2.893   6.779   2.148 -0.1031 -0.1324  0.0125
  472TIP3    H1 1361   2.869   6.833   2.223 -1.3092 -0.2758 -0.2426
  472TIP3    H2 1362   2.817   6.785   2.089  0.4129 -0.8111 -0.7458
  473TIP3   OH2 1363   2.612   3.962   4.231  0.2170 -0.4002 -0.1620
  473TIP3    H1 1364   2.639   4.011   4.309 -0.7211  0.2319 -0.2178
  473TIP3    H2 1365   2.564   3.887   4.266  0.6823 -0.6795 -0.1105
  474TIP3   OH2 1366   6.597   2.776   2.154 -0.5359  0.4675  0.0490
  474TIP3    H1 1367   6.507   2.752   2.176 -0.4691 -0.2272 -0.3820
  474TIP3    H2 1368   6.589   2.825   2.072 -0.7934  3.1217  1.5470
  475TIP3   OH2 1369   0.299   5.240   6.500  0.1838 -0.0172  0.3346
  475TIP3    H1 1370   0.250   5.158   6.501  0.3347 -0.1064  0.3343
  475TIP3    H2 1371   0.231   5.308   6.497  0.0418 -0.1224  0.9855
  476TIP3   OH2 1372   7.507   7.477   1.838 -0.1996  0.0002 -0.5374
  476TIP3    H1 1373   7.527   7.495   1.746  0.8606 -1.4811 -0.6308
  476TIP3    H2 1374   7.491   7.383   1.841  0.5413 -0.1047  0.9006
  477TIP3   OH2 1375   7.823   4.190   2.918 -0.4489  0.1341 -0.1049
  477TIP3    H1 1376   7.764   4.152   2.852 -1.2045  0.5056  0.3421
  477TIP3    H2 1377   7.768   4.198   2.997 -0.0271  1.2517  0.0844
  478TIP3   OH2 1378   8.108   1.306   2.108  0.5359  0.3236  0.4439
  478TIP3    H1 1379   8.156   1.254   2.044  0.5986 -1.4553  1.8412
  478TIP3    H2 1380   8.026   1.328   2.065  1.4543  1.0557 -0.9994
  479TIP3   OH2 1381   4.298   0.028   1.679  0.6101  0.0998  0.4725
  479TIP3    H1 1382   4.305  -0.032   1.605 -0.7298 -0.3014  0.6413
  479TIP3    H2 1383   4.254   0.105   1.643 -1.6224 -0.7613  1.1461
  480TIP3   OH2 1384   1.090   0.240   5.791 -0.6842  0.0596  0.0051
  480TIP3    H1 1385   1.078   0.164   5.734  2.1259 -0.2805 -0.2496
  480TIP3    H2 1386   1.184   0.256   5.791 -0.7653  1.2377  3.0506
  481TIP3   OH2 1387   0.932   7.548   2.252 -0.4973 -0.6247 -0.3711
  481TIP3    H1 1388   0.957   7.455   2.256  1.1525 -0.4201 -3.2198
  481TIP3    H2 1389   1.016   7.595   2.252 -1.2717  0.7992 -0.1913
  482TIP3   OH2 1390   4.572   5.765   1.581  0.2691  0.0533 -0.3151
  482TIP3    H1 1391   4.512   5.780   1.654  1.1512  0.0949  0.4125
  482TIP3    H2 1392   4.606   5.677   1.596 -0.9084 -0.6824 -1.6890
  483TIP3   OH2 1393   2.059   7.338   4.311 -0.0733 -0.5224 -0.4069
  483TIP3    H1 1394   2.114   7.358   4.386 -0.7355 -1.2583  0.3052
  483TIP3    H2 1395   2.050   7.242   4.313 -0.5264 -0.5045 -1.1130
  484TIP3   OH2 1396   4.800   0.589   6.623 -0.2661 -0.4894 -0.5796
  484TIP3    H1 1397   4.875   0.530   6.623 -0.3759 -0.6518  0.6749
  484TIP3    H2 1398   4.838   0.677   6.617  0.0238 -0.5720  0.0187
  485TIP3   OH2 1399   6.013   3.133   3.706 -0.0014 -0.5483 -0.1351
  485TIP3    H1 1400   5.986   3.120   3.615 -1.0771 -1.1189  0.2501
  485TIP3    H2 1401   5.967   3.212   3.733  1.5657  0.5505 -0.5447
  486TIP3   OH2 1402   6.702   3.127   2.098 -0.1206  0.5712 -0.1339
  486TIP3    H1 1403   6.643   3.148   2.026 -0.7106 -1.2919 -0.2492
  486TIP3    H2 1404   6.648   3.077   2.159  1.2460 -0.9613 -0.1127
  487TIP3   OH2 1405   4.615   3.742   6.540 -0.1493  0.2368  0.2149
  487TIP3    H1 1406   4.538   3.686   6.543 -0.8280  1.0341 -1.1585
  487TIP3    H2 1407   4.628   3.760   6.447  0.9930  1.0718  0.5100
  488TIP3   OH2 1408   5.894   3.606   3.613  0.0574  0.1854  0.9156
  488TIP3    H1 1409   5.922   3.602   3.704  0.6894 -0.2687  0.7074
  488TIP3    H2 1410   5.969   3.575   3.563  0.5268  2.4851  0.0789
  489TIP3   OH2 1411   2.310   7.829   2.842 -1.2197 -0.6428 -0.4796
  489TIP3    H1 1412   2.342   7.754   2.790 -0.7540 -0.3564 -0.6186
  489TIP3    H2 1413   2.243   7.869   2.787 -1.7591 -1.2000 -0.2275
  490TIP3   OH2 1414   4.170   3.595   2.916 -0.2651 -0.6778  0.4090
  490TIP3    H1 1415   4.137   3.506   2.912 -0.6641 -0.5048 -0.1756
  490TIP3    H2 1416   4.220   3.606   2.835 -3.2171  0.7905 -1.3717
  491TIP3   OH2 1417   6.860   3.011   4.281  0.5951 -0.0155 -0.0607
  491TIP3    H1 1418   6.776   3.054   4.270 -0.1765 -1.3578  0.3186
  491TIP3    H2 1419   6.842   2.937   4.338  2.3451  0.5485  1.3218
  492TIP3   OH2 1420   4.935   3.822   6.108  0.3725  0.4387 -0.0934
  492TIP3    H1 1421   4.934   3.823   6.012  1.0846 -1.5447 -0.1685
  492TIP3    H2 1422   5.007   3.764   6.130  0.3859  1.0821  1.6710
  493TIP3   OH2 1423   7.741   0.451   5.068  0.1818  0.0119 -0.0346
  493TIP3    H1 1424   7.698   0.504   5.001  2.3804 -0.3924 -1.8997
  493TIP3    H2 1425   7.719   0.361   5.044 -0.5412 -0.0769  0.9266
  494TIP3   OH2 1426   0.076   0.643   0.701  0.0719  0.5746 -0.6150
  494TIP3    H1 1427   0.064   0.725   0.652 -0.5188  0.6214 -0.3948
  494TIP3    H2 1428   0.162   0.612   0.673  0.4260  1.4126 -0.4953
  495TIP3   OH2 1429   0.314   1.077   6.711  0.0970  0.7693 -0.6079
  495TIP3    H1 1430   0.303   1.015   6.639 -1.8766  0.8139 -0.3921
  495TIP3    H2 1431   0.398   1.053   6.750 -0.3782 -1.4753 -0.8378
  496TIP3   OH2 1432   0.812   5.786   0.618  0.0125 -0.0619 -0.2889
  496TIP3    H1 1433   0.808   5.795   0.523  1.2029  0.2880 -0.3222
  496TIP3    H2 1434   0.904   5.797   0.639 -0.3358  0.6184  0.9870
  497TIP3   OH2 1435   7.584   7.115   1.288  0.3306  0.2970  0.5874
  497TIP3    H1 1436   7.556   7.199   1.326  1.2120  0.3858  1.0821
  497TIP3    H2 1437   7.664   7.137   1.240 -1.0394  0.3015 -1.8610
  498TIP3   OH2 1438   4.309   3.193   3.439 -0.5691  0.3373 -0.3320
  498TIP3    H1 1439   4.292   3.285   3.420  0.3714  0.3723 -1.1292
  498TIP3    H2 1440   4.314   3.152   3.353  0.9134 -0.0818 -0.0743
  499TIP3   OH2 1441   3.708   5.182   5.149  0.0140  0.1630  0.2558
  499TIP3    H1 1442   3.734   5.108   5.204 -2.2957 -0.1353  1.0399
  499TIP3    H2 1443   3.638   5.146   5.094  1.3884  0.8018 -2.0401
  500TIP3   OH2 1444   2.832   0.048   5.316  0.3896 -0.2727 -0.0232
  500TIP3    H1 1445   2.870   0.117   5.262 -1.2906  0.2251 -0.6243
  500TIP3    H2 1446   2.867   0.063   5.404  1.0549  0.5468 -0.4277
  501TIP3   OH2 1447   7.007   1.770   6.512 -0.3242  0.8027  0.4242
  501TIP3    H1 1448   7.090   1.804   6.479 -0.4426  0.6378 -0.0513
  501TIP3    H2 1449   6.947   1.844   6.506 -0.3304  0.7899  0.3265
  502TIP3   OH2 1450   1.803   6.371   5.122  0.1609 -0.7532  0.5023
  502TIP3    H1 1451   1.810   6.302   5.056  1.7573 -1.3820  1.2689
  502TIP3    H2 1452   1.715   6.407   5.109  0.2189 -1.2092 -1.5780
  503TIP3   OH2 1453   7.191   2.844   0.498  0.0610 -0.0391  0.0531
  503TIP3    H1 1454   7.198   2.783   0.572  1.9597 -0.8551 -0.7240
  503TIP3    H2 1455   7.164   2.927   0.537 -0.5202 -0.8481  1.4308
  504TIP3   OH2 1456   2.434   0.207   4.137  0.1987  0.5264 -0.3554
  504TIP3    H1 1457   2.379   0.129   4.137 -0.2649  0.8374  0.7700
  504TIP3    H2 1458   2.389   0.268   4.077 -0.3419  0.5403  0.0585
  505TIP3   OH2 1459   4.874   5.010   0.443 -0.0872 -0.6062 -0.2938
  505TIP3    H1 1460   4.941   4.943   0.428 -0.3464 -1.1860  0.9674
  505TIP3    H2 1461   4.909   5.088   0.402  0.4893 -1.3727 -1.3114
  506TIP3   OH2 1462   5.078   3.180   0.004  0.3735  0.7905  0.2411
  506TIP3    H1 1463   5.116   3.100   0.041 -0.9156 -0.3772 -0.8543
  506TIP3    H2 1464   5.153   3.231  -0.026  1.4216  1.2527  3.2410
  507TIP3   OH2 1465   7.314   0.942   4.008 -0.1121 -0.3758 -0.4383
  507TIP3    H1 1466   7.314   1.034   4.035 -1.0078 -0.4561 -0.1191
  507TIP3    H2 1467   7.372   0.898   4.070 -1.6156 -0.4438  1.0006
  508TIP3   OH2 1468   7.062   2.331   3.204 -0.0576  0.2125 -0.1681
  508TIP3    H1 1469   7.008   2.303   3.278  0.6839  0.4431  0.4712
  508TIP3    H2 1470   7.151   2.334   3.239  0.4507 -0.6669 -1.3447
  509TIP3   OH2 1471   3.101   6.007   1.674 -0.1962 -0.4803  0.1185
  509TIP3    H1 1472   3.012   5.973   1.668  0.0269 -0.8027 -1.7778
  509TIP3    H2 1473   3.140   5.991   1.588  1.0289  1.5415  0.2234
  510TIP3   OH2 1474   8.158   5.076   2.734  0.0522  0.8008 -0.3347
  510TIP3    H1 1475   8.242   5.079   2.688 -0.1744  2.6720 -0.7164
  510TIP3    H2 1476   8.151   5.162   2.776 -0.4131 -0.3068  2.0585
  511TIP3   OH2 1477   6.885   1.923   5.914  0.0568  0.5745 -0.3423
  511TIP3    H1 1478   6.964   1.869   5.911  0.0770  0.4803  1.0023
  511TIP3    H2 1479   6.915   2.012   5.900  0.1782  0.3718 -1.4263
  512TIP3   OH2 1480   3.238   4.277   4.876  0.0863 -0.6666  0.6405
  512TIP3    H1 1481   3.241   4.332   4.797  0.1941 -0.6699  0.6425
  512TIP3    H2 1482   3.188   4.328   4.939  2.2099  0.4859  1.4679
  513TIP3   OH2 1483   7.236   0.905   6.496  0.0690 -0.1527 -0.0328
  513TIP3    H1 1484   7.315   0.957   6.482  0.5119 -0.8063  0.0027
  513TIP3    H2 1485   7.174   0.937   6.430  0.2982  0.4882  0.0612
  514TIP3   OH2 1486   4.481   5.153   2.871 -0.0948 -0.3856 -0.3190
  514TIP3    H1 1487   4.453   5.225   2.927 -2.7873 -0.7615 -1.0706
  514TIP3    H2 1488   4.535   5.195   2.803  0.3655  0.5351  0.5916
  515TIP3   OH2 1489   0.225   6.746   4.008  0.0283 -0.2121 -0.0682
  515TIP3    H1 1490   0.314   6.753   4.041 -0.5136  1.0479  1.2067
  515TIP3    H2 1491   0.198   6.656   4.030  0.6426 -0.2777  0.4392
  516TIP3   OH2 1492   0.828   3.784   1.874 -0.5884 -0.2994  0.1165
  516TIP3    H1 1493   0.887   3.714   1.844  2.9170  1.5307  2.0461
  516TIP3    H2 1494   0.822   3.844   1.799  0.9127 -0.0417  0.1661
  517TIP3   OH2 1495   5.287   0.977   4.310 -0.0724 -0.5534  0.7122
  517TIP3    H1 1496   5.264   0.932   4.228  0.9386  1.0304 -0.4803
  517TIP3    H2 1497   5.382   0.982   4.309 -0.0872  0.1436  1.6418
  518TIP3   OH2 1498   7.245   5.122   6.048 -0.6007 -0.2294  0.1056
  518TIP3    H1 1499   7.191   5.046   6.069  0.4440 -0.8319  0.6818
  518TIP3    H2 1500   7.184   5.183   6.007 -1.7434 -0.8609  0.7806
  519TIP3   OH2 1501   0.806   7.235   1.628 -0.3496  0.0261  0.5172
  519TIP3    H1 1502   0.773   7.274   1.547 -0.7636 -1.3404  0.0072
  519TIP3    H2 1503   0.831   7.146   1.604  0.2542 -0.1549  1.7266
  520TIP3   OH2 1504   3.350   0.221   6.238  0.4535 -0.5519 -0.2900
  520TIP3    H1 1505   3.270   0.262   6.272  0.1242  0.0936 -1.7610
  520TIP3    H2 1506   3.418   0.246   6.300 -0.1717  0.3449  0.0530
  521TIP3   OH2 1507   0.182   2.578   3.773  0.3714  0.0184 -0.4622
  521TIP3    H1 1508   0.169   2.495   3.727 -0.1528 -0.2709  0.1873
  521TIP3    H2 1509   0.129   2.641   3.724  0.7955 -0.0145 -0.9764
  522TIP3   OH2 1510   2.968   6.595   5.717  0.1518 -0.0785 -0.1718
  522TIP3    H1 1511   2.913   6.542   5.775  1.1228 -0.0435  0.8209
  522TIP3    H2 1512   2.918   6.602   5.636  0.0993 -2.7433 -0.4490
  523TIP3   OH2 1513   0.582   6.295   0.837  0.2273  0.2940  0.3533
  523TIP3    H1 1514   0.622   6.237   0.902  1.3053  0.2502 -0.3437
  523TIP3    H2 1515   0.603   6.256   0.753 -0.1822  0.9795 -0.0787
  524TIP3   OH2 1516   0.037   6.789   0.392 -0.0980 -0.5567 -0.5424
  524TIP3    H1 1517   0.061   6.701   0.421  0.0242 -0.1872  0.5336
  524TIP3    H2 1518  -0.045   6.807   0.437  0.4099  0.2758  0.0724
  525TIP3   OH2 1519   6.987   1.657   3.032 -0.2683 -0.0198  0.3511
  525TIP3    H1 1520   7.028   1.727   2.981 -3.4192  0.2624 -2.1175
  525TIP3    H2 1521   7.022   1.576   2.994  1.4779  0.1212  1.5306
  526TIP3   OH2 1522   4.549   6.060   0.621 -0.4564  0.1641  0.4830
  526TIP3    H1 1523   4.524   6.003   0.693  0.8107 -0.7471  0.2420
  526TIP3    H2 1524   4.628   6.105   0.652  0.6961 -0.9829 -0.6507
  527TIP3   OH2 1525   8.266   5.188   0.217  0.4202 -0.1107  0.0361
  527TIP3    H1 1526   8.230   5.265   0.259  0.6097 -0.0159  0.0239
  527TIP3    H2 1527   8.340   5.220   0.165 -0.5206 -0.0480 -1.3008
  528TIP3   OH2 1528   7.528   1.300   2.624  0.1075  0.2422 -0.0137
  528TIP3    H1 1529   7.472   1.258   2.558 -0.5178  0.7409  0.1802
  528TIP3    H2 1530   7.503   1.257   2.706  2.4504 -1.9558 -0.3411
  529TIP3   OH2 1531   3.737   2.032   2.212 -0.2912 -0.0834  0.0439
  529TIP3    H1 1532   3.797   2.042   2.139  0.8882  0.8044  1.0891
  529TIP3    H2 1533   3.686   2.113   2.212  1.5517  1.1573  1.7615
  530TIP3   OH2 1534   3.675   7.478   5.477  0.1942  0.0914 -0.1869
  530TIP3    H1 1535   3.680   7.547   5.411 -1.4369 -0.0729 -0.5287
  530TIP3    H2 1536   3.595   7.430   5.455  0.0818 -0.4953  1.4055
  531TIP3   OH2 1537   1.320   3.856   6.550  0.3914  0.2692  0.5510
  531TIP3    H1 1538   1.293   3.767   6.572 -0.8018  0.3685 -0.4332
  531TIP3    H2 1539   1.332   3.856   6.455 -2.1253  1.7492  0.1382
  532TIP3   OH2 1540   3.493   4.496   4.284 -0.0838  0.2020  0.3698
  532TIP3    H1 1541   3.434   4.564   4.316  0.1449  0.7815 -0.3955
  532TIP3    H2 1542   3.485   4.501   4.188  0.2521 -0.5661  0.2955
  533TIP3   OH2 1543   5.356   7.781   0.291 -0.1314 -0.0767 -0.0575
  533TIP3    H1 1544   5.340   7.690   0.269  1.5774 -0.6732  0.9127
  533TIP3    H2 1545   5.275   7.827   0.269 -1.4508 -2.0175  0.5154
  534TIP3   OH2 1546   7.853   3.433   3.558  0.0691 -0.1162  0.2092
  534TIP3    H1 1547   7.817   3.362   3.612  0.8082  0.5402  1.6206
  534TIP3    H2 1548   7.776   3.474   3.519 -0.4776 -0.7262  0.6137
  535TIP3   OH2 1549   8.055   2.585   5.344 -0.6363  0.0037 -0.2162
  535TIP3    H1 1550   7.990   2.517   5.327 -0.9671  0.0820  0.7016
  535TIP3    H2 1551   8.018   2.637   5.416  2.1706 -2.4759  3.4186
  536TIP3   OH2 1552   0.062   2.951   1.475 -0.0675  0.6972 -0.2469
  536TIP3    H1 1553  -0.029   2.965   1.502  0.1714 -1.3267  1.9933
  536TIP3    H2 1554   0.114   2.979   1.550  1.0174 -0.0745 -0.6808
  537TIP3   OH2 1555   3.798   5.217   5.964 -0.7751 -0.4065 -0.1584
  537TIP3    H1 1556   3.764   5.253   6.047 -0.1936 -0.3920  0.0781
  537TIP3    H2 1557   3.810   5.294   5.909  0.8212 -0.1631  0.4760
  538TIP3   OH2 1558   7.100   3.743   6.118 -0.1418 -0.0534 -0.0664
  538TIP3    H1 1559   7.122   3.704   6.203  0.3694 -0.9315 -0.5891
  538TIP3    H2 1560   7.005   3.753   6.120 -0.2830 -1.2698  0.1191
  539TIP3   OH2 1561   3.418   4.508   1.125  0.2432  0.2618  0.2407
  539TIP3    H1 1562   3.416   4.434   1.064  0.4149 -0.6820  1.3528
  539TIP3    H2 1563   3.430   4.585   1.068  0.6207 -0.6001 -0.8960
  540TIP3   OH2 1564   7.602   3.007   5.231 -0.1961 -0.2005  0.3719
  540TIP3    H1 1565   7.535   2.940   5.246 -0.8149  0.1224 -0.7981
  540TIP3    H2 1566   7.563   3.088   5.264  0.1264 -0.2270  0.8239
  541TIP3   OH2 1567   2.366   0.910   1.969 -0.1617 -0.2885 -0.7121
  541TIP3    H1 1568   2.403   0.921   2.056  1.2647 -0.2179 -1.2894
  541TIP3    H2 1569   2.280   0.872   1.984  0.5630 -1.4954  0.6848
  542TIP3   OH2 1570   0.834   5.080   5.428 -0.2864  0.0845  0.3554
  542TIP3    H1 1571   0.809   5.003   5.377 -0.4374 -0.0341  0.6048
  542TIP3    H2 1572   0.928   5.089   5.413 -0.6281  1.1730 -1.4617
  543TIP3   OH2 1573   7.555   1.429   6.332  0.3866  0.2888  0.2023
  543TIP3    H1 1574   7.467   1.398   6.356  0.5246  0.6087  1.1722
  543TIP3    H2 1575   7.539   1.493   6.262 -0.0439 -0.5863 -0.5173
  544TIP3   OH2 1576   6.794   3.469   2.897  0.5115 -0.0343  0.1027
  544TIP3    H1 1577   6.701   3.473   2.920 -0.2944 -0.1528 -2.6951
  544TIP3    H2 1578   6.818   3.378   2.908  0.3642  0.0375  1.0531
  545TIP3   OH2 1579   7.290   0.889   0.646 -0.2743 -0.2192  0.2262
  545TIP3    H1 1580   7.329   0.953   0.586  0.6501 -0.5353  0.4830
  545TIP3    H2 1581   7.226   0.843   0.592  0.2759 -0.2418 -0.4278
  546TIP3   OH2 1582   7.157   1.733   4.367  0.2009 -0.0531 -0.6264
  546TIP3    H1 1583   7.163   1.650   4.320 -1.6065 -0.8362  0.4146
  546TIP3    H2 1584   7.076   1.773   4.336  0.4976  0.8069 -0.3210
  547TIP3   OH2 1585   2.598   3.108   2.288 -0.1582 -0.0200 -0.1142
  547TIP3    H1 1586   2.663   3.046   2.256 -1.1342 -0.5467 -1.1403
  547TIP3    H2 1587   2.514   3.069   2.264 -0.8108  2.4403 -2.3264
  548TIP3   OH2 1588   6.172   6.956   0.023 -0.0749 -0.5060 -0.5898
  548TIP3    H1 1589   6.144   6.868   0.049 -1.2039 -0.1402 -0.4986
  548TIP3    H2 1590   6.096   7.012   0.042  0.8781  0.6203  0.0676
  549TIP3   OH2 1591   1.723   0.247   2.293  0.3236  0.0811 -0.0985
  549TIP3    H1 1592   1.706   0.180   2.227  2.2942 -0.4396 -0.1166
  549TIP3    H2 1593   1.690   0.209   2.374  1.4535 -0.9557 -0.1012
  550TIP3   OH2 1594   7.136   2.767   5.317 -0.3707 -0.0369  0.0051
  550TIP3    H1 1595   7.163   2.677   5.297 -0.5799 -0.2453  0.6580
  550TIP3    H2 1596   7.042   2.768   5.301 -0.2263  0.3242 -0.9113
  551TIP3   OH2 1597   7.032   6.389   1.472  0.3070  0.0138  0.0667
  551TIP3    H1 1598   7.007   6.393   1.380  2.1679  1.2087 -0.4457
  551TIP3    H2 1599   7.115   6.437   1.476  0.4630 -0.3520  2.3016
  552TIP3   OH2 1600   6.626   3.513   3.522 -0.1954  0.0226 -0.4003
  552TIP3    H1 1601   6.673   3.467   3.453  0.5420 -0.5079  0.4400
  552TIP3    H2 1602   6.562   3.567   3.475  0.3504 -0.2500 -1.4940
  553TIP3   OH2 1603   2.482   1.830   4.597 -0.3489 -0.1344 -0.1314
  553TIP3    H1 1604   2.570   1.866   4.589 -0.5008  0.0633 -1.0664
  553TIP3    H2 1605   2.494   1.747   4.643  0.2233  0.2664  0.4587
  554TIP3   OH2 1606   6.862   0.501   6.165  0.3493  0.3542 -0.3496
  554TIP3    H1 1607   6.788   0.444   6.145  0.5553 -0.3171  0.7070
  554TIP3    H2 1608   6.939   0.448   6.147  0.5965  1.1540 -1.7398
  555TIP3   OH2 1609   3.830   0.592   6.462  0.2530 -0.2196 -0.4460
  555TIP3    H1 1610   3.812   0.686   6.453  1.0448  0.2693  2.0322
  555TIP3    H2 1611   3.750   0.557   6.502  0.7968 -0.0891  0.8177
  556TIP3   OH2 1612   4.622   3.478   0.257  0.2057  0.6837 -0.8542
  556TIP3    H1 1613   4.634   3.544   0.189  0.3842  0.9311 -0.5864
  556TIP3    H2 1614   4.701   3.484   0.311  0.0445  0.5285 -0.5959
  557TIP3   OH2 1615   5.435   1.956   1.082 -0.3613 -0.7564  0.9993
  557TIP3    H1 1616   5.377   1.950   1.005 -0.5523  0.2298  1.0446
  557TIP3    H2 1617   5.376   1.978   1.154  0.2221  2.1777  0.7059
  558TIP3   OH2 1618   8.185   2.526   2.720 -0.6820 -0.3252  0.0983
  558TIP3    H1 1619   8.199   2.432   2.707  0.3473 -0.2016  0.2161
  558TIP3    H2 1620   8.097   2.532   2.757 -0.8901 -1.2142 -0.2138
  559TIP3   OH2 1621   0.834   1.729   4.906 -0.4990  0.0762 -0.5399
  559TIP3    H1 1622   0.877   1.790   4.846  0.3062  0.3798  0.3383
  559TIP3    H2 1623   0.901   1.706   4.970 -1.9206  1.4697  1.5736
  560TIP3   OH2 1624   5.880   1.266   6.631  0.2370 -0.2522 -0.3715
  560TIP3    H1 1625   5.841   1.267   6.718 -2.1728  0.9256 -1.3570
  560TIP3    H2 1626   5.936   1.344   6.630  0.1019 -0.1431  0.0740
  561TIP3   OH2 1627   5.128   0.591   0.823  0.2036  0.2235  0.8611
  561TIP3    H1 1628   5.056   0.610   0.763  1.2483 -1.4953 -1.0679
  561TIP3    H2 1629   5.101   0.511   0.869  0.4155  0.1765  0.9068
  562TIP3   OH2 1630   5.619   0.308   5.822  0.3991 -0.3881  0.5434
  562TIP3    H1 1631   5.695   0.305   5.880  0.3863 -2.1367  0.5099
  562TIP3    H2 1632   5.581   0.220   5.827 -1.1749  0.2250 -0.0422
  563TIP3   OH2 1633   1.155   6.196   1.727  0.1750  0.1107 -0.1140
  563TIP3    H1 1634   1.240   6.203   1.770 -0.1368  1.5457  0.3182
  563TIP3    H2 1635   1.137   6.284   1.693 -0.1096 -0.6988 -2.2207
  564TIP3   OH2 1636   1.696   1.770   6.078  0.3813 -0.0492  0.1987
  564TIP3    H1 1637   1.621   1.818   6.044 -0.5001  0.0697  2.1607
  564TIP3    H2 1638   1.668   1.740   6.165  2.5318 -0.1615  0.9271
  565TIP3   OH2 1639   1.431   2.491   3.933 -0.0132  0.1434  0.2595
  565TIP3    H1 1640   1.473   2.569   3.896  0.6255 -0.2708  0.1033
  565TIP3    H2 1641   1.446   2.499   4.027  1.1255 -0.4018  0.1386
  566TIP3   OH2 1642   7.244   6.605   3.614 -0.1472  0.0694 -0.0909
  566TIP3    H1 1643   7.255   6.512   3.594  1.2502  0.1008  0.4234
  566TIP3    H2 1644   7.240   6.648   3.529 -0.1077 -0.3821 -0.3217
  567TIP3   OH2 1645   3.517   1.147   4.886 -0.1919 -0.0878  0.3500
  567TIP3    H1 1646   3.576   1.101   4.945 -0.2092  0.7423  1.0351
  567TIP3    H2 1647   3.535   1.240   4.902 -0.6701  0.1530 -0.4715
  568TIP3   OH2 1648   6.611   6.851   0.294 -0.0216 -0.1583 -0.6523
  568TIP3    H1 1649   6.520   6.855   0.324  0.9460  2.7944  2.5370
  568TIP3    H2 1650   6.645   6.770   0.332 -0.7998 -0.2684 -0.1726
  569TIP3   OH2 1651   0.932   1.967   5.638  0.2857 -0.1757  0.3990
  569TIP3    H1 1652   0.910   2.056   5.609 -0.5571  0.0367  1.6178
  569TIP3    H2 1653   0.857   1.914   5.612 -0.7255  0.1121  2.4982
  570TIP3   OH2 1654   3.420   2.410   6.313  0.1882  0.0449  0.0267
  570TIP3    H1 1655   3.448   2.396   6.222  1.1390 -0.2359  0.3577
  570TIP3    H2 1656   3.419   2.323   6.352 -0.0216  0.1890  0.3498
  571TIP3   OH2 1657   4.711   2.086   0.432  0.2973 -0.7165  0.6123
  571TIP3    H1 1658   4.735   2.163   0.483  0.4574  0.1149 -0.6713
  571TIP3    H2 1659   4.623   2.063   0.463 -1.0708  1.8433 -1.0363
  572TIP3   OH2 1660   3.261   5.698   3.961  0.6862  0.3078  0.0529
  572TIP3    H1 1661   3.180   5.647   3.973  1.2637 -1.4636 -2.6389
  572TIP3    H2 1662   3.329   5.632   3.949  2.0987  1.7565 -0.1977
  573TIP3   OH2 1663   7.991   6.746   3.235 -0.5562 -0.4092 -0.0246
  573TIP3    H1 1664   7.945   6.815   3.283  0.3059  0.1365  0.0244
  573TIP3    H2 1665   8.084   6.764   3.250 -0.3197 -1.9719  0.5367
  574TIP3   OH2 1666   3.028   6.120   5.888  0.0262 -0.3517 -0.5756
  574TIP3    H1 1667   2.948   6.070   5.869 -0.0025 -0.7368  0.4518
  574TIP3    H2 1668   2.998   6.210   5.894 -0.0129 -0.2551 -1.9505
  575TIP3   OH2 1669   0.659   0.396   4.176 -0.5222  0.1650 -0.4188
  575TIP3    H1 1670   0.653   0.329   4.243 -0.2703  0.0285 -0.5325
  575TIP3    H2 1671   0.645   0.479   4.223 -1.2580  0.0023 -0.3499
  576TIP3   OH2 1672   2.628   6.878   4.737  0.1084  0.3502  0.1381
  576TIP3    H1 1673   2.628   6.970   4.713  0.9875 -0.3929 -3.2733
  576TIP3    H2 1674   2.538   6.860   4.762 -0.1486  2.0464  0.5458
  577TIP3   OH2 1675   0.776   1.662   3.296 -0.2477  0.0821 -0.4188
  577TIP3    H1 1676   0.707   1.602   3.270 -0.5951  0.0123  0.6125
  577TIP3    H2 1677   0.851   1.606   3.314 -0.5667 -0.0654  0.5270
  578TIP3   OH2 1678   6.000   7.393   5.559  0.6802 -0.4671  0.5460
  578TIP3    H1 1679   6.048   7.385   5.641  0.9482 -1.3926  0.3143
  578TIP3    H2 1680   5.966   7.482   5.559  1.2194 -0.2548  1.3628
  579TIP3   OH2 1681   7.382   1.872   6.092 -0.5066  0.1540 -0.0907
  579TIP3    H1 1682   7.389   1.942   6.158 -1.6024 -0.9695  1.2810
  579TIP3    H2 1683   7.470   1.867   6.055 -0.0128  1.2666  0.8286
  580TIP3   OH2 1684   8.001   2.800   2.692  0.6582  0.7010  0.5624
  580TIP3    H1 1685   8.082   2.761   2.659  0.4693 -1.4607  2.4250
  580TIP3    H2 1686   7.952   2.825   2.613  1.0697 -2.3651 -0.7723
  581TIP3   OH2 1687   7.823   7.727   2.839 -0.2293 -0.1970 -0.1411
  581TIP3    H1 1688   7.771   7.789   2.788 -2.3110 -1.6944  0.0314
  581TIP3    H2 1689   7.889   7.694   2.777  0.5063  1.6515 -0.3943
  582TIP3   OH2 1690   4.682   2.753   3.085  0.1970 -0.1320  0.1961
  582TIP3    H1 1691   4.698   2.834   3.038 -2.0916  1.2999  1.6525
  582TIP3    H2 1692   4.673   2.686   3.017  2.2797  0.7523 -1.0305
  583TIP3   OH2 1693   3.765   2.407   1.799  0.7038  0.5381  0.5140
  583TIP3    H1 1694   3.775   2.495   1.762 -1.0350  0.8753  0.7736
  583TIP3    H2 1695   3.714   2.360   1.733  1.0469 -0.0887  0.6892
  584TIP3   OH2 1696   5.388   6.533   2.608 -0.4546 -0.5033  0.3295
  584TIP3    H1 1697   5.328   6.460   2.627  0.1902 -0.7887  1.3776
  584TIP3    H2 1698   5.437   6.545   2.689 -1.0437  1.5933  0.4239
  585TIP3   OH2 1699   0.201   6.867   0.177 -0.4042  0.1849 -0.3544
  585TIP3    H1 1700   0.135   6.857   0.246 -1.1234 -2.1472 -1.2525
  585TIP3    H2 1701   0.280   6.828   0.213  0.6509  3.0782  0.7622
  586TIP3   OH2 1702   5.271   0.100   0.691  0.0297 -0.5508 -0.2185
  586TIP3    H1 1703   5.237   0.171   0.637 -0.7036  0.5182  1.5263
  586TIP3    H2 1704   5.208   0.029   0.680 -0.8819  0.1572  0.2627
  587TIP3   OH2 1705   0.591   1.111   4.755 -0.3832 -0.2776  0.6489
  587TIP3    H1 1706   0.583   1.175   4.826 -1.3056  0.5455 -0.1678
  587TIP3    H2 1707   0.508   1.117   4.708  0.3905 -0.4493 -0.7947
  588TIP3   OH2 1708   4.341   2.832   3.536  0.0211 -0.2334 -0.2167
  588TIP3    H1 1709   4.359   2.880   3.616  0.7377 -0.5535 -0.1744
  588TIP3    H2 1710   4.415   2.852   3.479 -0.2289 -0.4094 -0.6080
  589TIP3   OH2 1711   5.481   6.689   0.114 -0.4791  0.0990  0.0883
  589TIP3    H1 1712   5.498   6.737   0.033  0.9943  0.6816  0.7243
  589TIP3    H2 1713   5.387   6.702   0.130 -0.2029  2.5094  0.0784
  590TIP3   OH2 1714   3.978   5.231   4.834  0.4721 -0.1947  0.1005
  590TIP3    H1 1715   4.057   5.258   4.787 -1.0570  4.6930 -0.2439
  590TIP3    H2 1716   3.996   5.251   4.926  0.2721 -0.9685  0.3192
  591TIP3   OH2 1717   4.449   4.672   6.733  0.4762 -0.6077  0.3207
  591TIP3    H1 1718   4.372   4.659   6.788  0.3385 -0.2289  0.2166
  591TIP3    H2 1719   4.486   4.755   6.762 -0.3012  0.2340 -0.9780
  592TIP3   OH2 1720   1.370   3.182   1.265 -0.1513  0.3015 -0.5216
  592TIP3    H1 1721   1.391   3.147   1.178 -0.4770  0.5930 -0.7179
  592TIP3    H2 1722   1.293   3.132   1.293 -0.7999  1.0681 -0.9303
  593TIP3   OH2 1723   8.035   3.579   0.501  0.3322 -0.1271 -0.1557
  593TIP3    H1 1724   8.045   3.671   0.525  0.0001 -0.7416  2.6576
  593TIP3    H2 1725   8.123   3.553   0.471  1.4685  0.2868  2.4740
  594TIP3   OH2 1726   1.334   0.787   2.042 -0.1760 -0.0526  0.3736
  594TIP3    H1 1727   1.274   0.810   1.971 -1.8185 -3.0350  0.6206
  594TIP3    H2 1728   1.371   0.870   2.070 -0.9166  1.4581 -2.6652
  595TIP3   OH2 1729   1.841   6.975   1.565 -0.0674  0.6333 -0.3275
  595TIP3    H1 1730   1.896   6.973   1.643 -1.2731 -1.4627  0.5550
  595TIP3    H2 1731   1.896   6.941   1.495  0.9916  2.4324 -0.4196
  596TIP3   OH2 1732   5.796   2.738   2.959  0.0943  0.0098  0.1694
  596TIP3    H1 1733   5.848   2.786   2.895  1.9326 -0.5679  1.1670
  596TIP3    H2 1734   5.788   2.650   2.922 -0.7187  0.2507 -0.2572
  597TIP3   OH2 1735   0.701   7.785   4.434 -0.1163  0.6275 -0.4259
  597TIP3    H1 1736   0.684   7.797   4.527 -0.1006  1.7958 -0.5564
  597TIP3    H2 1737   0.767   7.716   4.430  1.0696  1.6527  0.5370
  598TIP3   OH2 1738   2.272   2.260   0.376 -0.2773  0.1414  0.1622
  598TIP3    H1 1739   2.323   2.235   0.299  0.2821  0.1109  0.5369
  598TIP3    H2 1740   2.291   2.193   0.441 -1.0986 -0.0830  0.1909
  599TIP3   OH2 1741   6.353   7.312   1.214 -0.4528  0.3178 -0.2865
  599TIP3    H1 1742   6.303   7.364   1.151 -0.8780  0.0886 -0.1378
  599TIP3    H2 1743   6.298   7.309   1.292  0.2392  0.9399  0.2483
  600TIP3   OH2 1744   4.211   1.716   0.978 -0.1976 -0.0678 -0.0735
  600TIP3    H1 1745   4.150   1.649   0.946 -0.1015 -1.0767  1.7359
  600TIP3    H2 1746   4.264   1.671   1.043 -1.1320  2.0657  2.3549
  601TIP3   OH2 1747   6.875   6.068   0.012 -0.2860 -0.3934  0.0952
  601TIP3    H1 1748   6.874   6.092   0.105  0.0392  0.3531 -0.0874
  601TIP3    H2 1749   6.921   5.984   0.009 -1.2962 -0.9903  0.7330
  602TIP3   OH2 1750   2.269   1.290   5.293  0.2162 -0.0821  0.3184
  602TIP3    H1 1751   2.314   1.356   5.240  0.3045 -1.1423 -0.9720
  602TIP3    H2 1752   2.182   1.326   5.310  0.7378  0.9672  0.8530
  603TIP3   OH2 1753   3.581   4.133   2.535  0.0119 -0.2148  0.1183
  603TIP3    H1 1754   3.614   4.201   2.476  2.7429 -0.5121  1.1285
  603TIP3    H2 1755   3.507   4.094   2.488 -0.5904  2.3005 -1.2074
  604TIP3   OH2 1756   7.022   2.514   0.566 -0.1623 -0.2255 -0.2517
  604TIP3    H1 1757   6.990   2.514   0.656  1.5417  1.6035  0.4322
  604TIP3    H2 1758   6.966   2.576   0.520 -0.5309 -0.5660 -0.2684
  605TIP3   OH2 1759   6.650   5.174   0.394 -0.7585 -0.3596  0.0140
  605TIP3    H1 1760   6.620   5.250   0.343 -0.5203 -0.1801  0.1429
  605TIP3    H2 1761   6.743   5.166   0.373 -0.2720  0.6703  1.6171
  606TIP3   OH2 1762   6.849   4.281   3.064 -0.0310  0.0187  0.1161
  606TIP3    H1 1763   6.779   4.284   2.999 -0.5310 -0.9196  0.5871
  606TIP3    H2 1764   6.859   4.188   3.085  2.1281 -0.0159 -0.7318
  607TIP3   OH2 1765   1.891   3.095   6.362 -0.0525 -0.1431  0.3381
  607TIP3    H1 1766   1.820   3.034   6.380 -0.0187 -0.3630 -0.2770
  607TIP3    H2 1767   1.897   3.099   6.267  1.1406 -0.5592  0.3807
  608TIP3   OH2 1768   4.937   7.124   0.601  0.3059  0.7887  0.1219
  608TIP3    H1 1769   4.897   7.167   0.676  0.9467  0.7513  0.4915
  608TIP3    H2 1770   5.000   7.063   0.639 -0.6266 -0.5483 -0.3850
  609TIP3   OH2 1771   4.730   0.854   2.988  0.0428  0.1791  0.1670
  609TIP3    H1 1772   4.672   0.802   3.044 -0.6340 -1.6448 -2.1135
  609TIP3    H2 1773   4.671   0.914   2.943  0.4520  0.8783  0.5400
  610TIP3   OH2 1774   3.005   6.869   4.702 -0.0231  0.4738 -0.3071
  610TIP3    H1 1775   2.984   6.881   4.610  0.9223  0.0263 -0.5939
  610TIP3    H2 1776   2.944   6.801   4.732  0.1536  0.0948 -0.7945
  611TIP3   OH2 1777   2.903   1.295   5.638 -0.3234  0.4019  0.1163
  611TIP3    H1 1778   2.911   1.211   5.594  0.7561  0.8605 -0.5961
  611TIP3    H2 1779   2.822   1.333   5.603  0.0941  0.4051 -0.8711
  612TIP3   OH2 1780   0.666   0.998   6.282 -0.2129  0.2223  0.2737
  612TIP3    H1 1781   0.597   1.063   6.295 -1.6161 -1.1852  0.1723
  612TIP3    H2 1782   0.713   1.028   6.204 -1.5469  0.5373 -0.4331
  613TIP3   OH2 1783   7.021   6.362   0.235 -0.4435 -0.0455 -0.1630
  613TIP3    H1 1784   7.078   6.304   0.185 -0.7343 -1.6480  1.2783
  613TIP3    H2 1785   6.939   6.312   0.245 -1.3601  1.3491 -0.3872
  614TIP3   OH2 1786   0.449   1.966   4.616  0.3606  0.2229 -0.3801
  614TIP3    H1 1787   0.502   2.045   4.619 -0.0520  0.5675 -1.4538
  614TIP3    H2 1788   0.484   1.911   4.685  0.1680  1.6384  0.8899
  615TIP3   OH2 1789   1.166   7.322   3.464 -0.2172  0.2356  0.3085
  615TIP3    H1 1790   1.216   7.257   3.512  1.0830  1.0349  0.0729
  615TIP3    H2 1791   1.140   7.278   3.383 -0.2668 -0.3076  0.6142
  616TIP3   OH2 1792   4.428   0.477   2.749 -0.2357  0.4146  0.0692
  616TIP3    H1 1793   4.389   0.540   2.688 -0.8277 -0.5384 -0.5580
  616TIP3    H2 1794   4.521   0.498   2.749  0.0745 -0.6152 -2.5049
  617TIP3   OH2 1795   6.685   6.399   5.083 -0.4961 -0.2741  0.2204
  617TIP3    H1 1796   6.771   6.390   5.122 -1.2672 -1.3731  1.7839
  617TIP3    H2 1797   6.658   6.309   5.064 -0.7294  0.1359 -1.6287
  618TIP3   OH2 1798   6.341   6.977   3.287  1.1338 -0.4810 -0.3296
  618TIP3    H1 1799   6.402   7.041   3.325  2.3122 -2.2943  1.0108
  618TIP3    H2 1800   6.301   6.934   3.362  0.4392 -1.4010 -1.1995
  619TIP3   OH2 1801   1.359   3.270   3.333 -0.1205 -0.0819 -0.1204
  619TIP3    H1 1802   1.322   3.334   3.272  1.2401  0.6463 -0.2418
  619TIP3    H2 1803   1.284   3.233   3.378 -1.0928  0.1098 -1.5105
  620TIP3   OH2 1804   8.027   1.187   6.755  0.2132  1.0022  0.4392
  620TIP3    H1 1805   8.075   1.112   6.719 -0.7453  0.6957 -0.2547
  620TIP3    H2 1806   8.043   1.258   6.692 -2.4968  0.1219 -1.4229
  621TIP3   OH2 1807   7.579   0.537   0.831  0.1729  0.4102 -0.0223
  621TIP3    H1 1808   7.628   0.490   0.898 -1.4627  1.0829  1.7275
  621TIP3    H2 1809   7.583   0.629   0.858  0.3871  0.8489 -1.4596
  622TIP3   OH2 1810   1.483   0.080   5.518 -0.7240 -0.0767 -0.3260
  622TIP3    H1 1811   1.521   0.144   5.578 -0.5475 -0.5320  0.0562
  622TIP3    H2 1812   1.436   0.133   5.454  0.0664  0.4737 -0.4748
  623TIP3   OH2 1813   3.245   1.463   1.102 -0.2656  0.3391 -0.2344
  623TIP3    H1 1814   3.209   1.387   1.057  0.4704  0.1657 -0.5539
  623TIP3    H2 1815   3.221   1.537   1.047  0.0948  0.1926 -0.6009
  624TIP3   OH2 1816   7.349   2.463   5.890 -0.0474  0.2026 -0.0637
  624TIP3    H1 1817   7.438   2.434   5.912 -0.0629  0.4320  0.3248
  624TIP3    H2 1818   7.347   2.464   5.794  0.0794 -0.6665 -0.0813
  625TIP3   OH2 1819   3.474   3.986   5.263 -0.1892 -0.0102 -0.1026
  625TIP3    H1 1820   3.435   3.935   5.333 -0.0613  0.7547  0.5396
  625TIP3    H2 1821   3.463   3.932   5.185 -1.0519 -0.5194  0.3575
  626TIP3   OH2 1822   6.654   6.957   6.734 -0.0553  0.4593  0.0984
  626TIP3    H1 1823   6.634   6.889   6.670 -0.9121  0.8214 -0.0323
  626TIP3    H2 1824   6.748   6.949   6.748  0.2283  0.6085 -1.4944
  627TIP3   OH2 1825   7.509   1.327   1.583 -0.0071 -0.2422 -0.4206
  627TIP3    H1 1826   7.420   1.361   1.585 -0.7533 -2.1219  0.3344
  627TIP3    H2 1827   7.503   1.244   1.535  0.9850 -1.2223  1.0463
  628TIP3   OH2 1828   5.930   1.834   5.314 -0.2396 -0.1533  0.4860
  628TIP3    H1 1829   5.887   1.861   5.396  2.0006 -0.4233  1.8279
  628TIP3    H2 1830   5.940   1.739   5.323  0.9345 -0.0541  0.3904
  629TIP3   OH2 1831   2.604   4.009   1.651 -0.0419 -0.6162 -0.1219
  629TIP3    H1 1832   2.667   3.937   1.657  2.1280  1.2637  1.6602
  629TIP3    H2 1833   2.634   4.060   1.576 -0.0316 -0.2241  0.1484
  630TIP3   OH2 1834   4.065   1.071   6.542  0.1424 -0.3235  0.2412
  630TIP3    H1 1835   3.970   1.079   6.538  0.2477  2.9419  1.2919
  630TIP3    H2 1836   4.080   0.984   6.578 -2.4483 -0.6857  0.6663
  631TIP3   OH2 1837   4.590   1.704   0.802 -0.2721  0.6184 -0.0485
  631TIP3    H1 1838   4.531   1.639   0.765  2.1480 -0.1019 -3.0554
  631TIP3    H2 1839   4.654   1.652   0.851 -1.0687  1.2387  1.7181
  632TIP3   OH2 1840   7.267   5.935   3.114  0.3283  0.0974 -0.0692
  632TIP3    H1 1841   7.286   5.841   3.109 -1.7547 -0.3930  0.0418
  632TIP3    H2 1842   7.208   5.951   3.041  0.1539  1.1768  0.2908
  633TIP3   OH2 1843   3.188   5.988   2.356  0.8605  0.0225  0.2092
  633TIP3    H1 1844   3.176   6.001   2.262 -0.5384 -0.8173  0.2353
  633TIP3    H2 1845   3.273   6.026   2.376 -0.8890  5.1182 -0.4630
  634TIP3   OH2 1846   7.327   3.500   3.247 -0.0897 -0.3497 -0.3542
  634TIP3    H1 1847   7.273   3.442   3.300 -0.0711 -0.4887 -0.4849
  634TIP3    H2 1848   7.328   3.583   3.295 -0.8651 -0.1742 -0.6217
  635TIP3   OH2 1849   2.609   5.368   3.144  0.2256  0.0309 -0.3846
  635TIP3    H1 1850   2.640   5.280   3.122 -0.4629  0.2570 -2.5237
  635TIP3    H2 1851   2.514   5.360   3.151 -0.0445  0.8508 -2.3227
  636TIP3   OH2 1852   6.682   3.107   3.331 -0.1727  0.0387  0.0895
  636TIP3    H1 1853   6.649   3.021   3.304 -1.7020  0.6644 -0.1669
  636TIP3    H2 1854   6.686   3.158   3.250  0.9272  0.1627  0.2087
  637TIP3   OH2 1855   7.812   7.147   4.531 -0.0749  0.1266  0.3726
  637TIP3    H1 1856   7.742   7.210   4.512 -1.2403 -1.3540 -0.4692
  637TIP3    H2 1857   7.885   7.174   4.475 -1.2251 -0.3388 -1.4268
  638TIP3   OH2 1858   7.868   2.753   6.359 -0.0061 -0.0632 -0.1252
  638TIP3    H1 1859   7.901   2.800   6.436 -2.3661  1.5443  0.0339
  638TIP3    H2 1860   7.841   2.667   6.393  2.8189 -1.0468 -0.0873
  639TIP3   OH2 1861   7.943   0.573   0.184  0.5652 -0.1715 -0.0958
  639TIP3    H1 1862   7.949   0.588   0.278 -0.2735 -0.4042  0.0068
  639TIP3    H2 1863   7.874   0.633   0.155 -1.9382 -2.7610  0.1032
  640TIP3   OH2 1864   6.657   1.837   1.921  0.6270 -0.1308  0.2033
  640TIP3    H1 1865   6.615   1.890   1.853 -1.3458  0.6638  1.9132
  640TIP3    H2 1866   6.730   1.891   1.953 -0.4025  0.9342  0.8493
  641TIP3   OH2 1867   0.159   7.769   4.065  0.0948 -0.7783 -0.0427
  641TIP3    H1 1868   0.077   7.768   4.015 -0.5400 -0.6286  0.9669
  641TIP3    H2 1869   0.171   7.679   4.093  0.2107 -0.7785 -0.0941
  642TIP3   OH2 1870   6.598   6.885   5.345 -0.4214  0.2371  0.3180
  642TIP3    H1 1871   6.633   6.964   5.303  0.2383  0.0493  0.5065
  642TIP3    H2 1872   6.540   6.847   5.280 -0.9219  0.9994  0.3054
  643TIP3   OH2 1873   1.638   2.623   0.102  0.0251 -0.3376 -0.1365
  643TIP3    H1 1874   1.647   2.559   0.172 -1.5493 -1.0629 -0.5454
  643TIP3    H2 1875   1.686   2.586   0.028  2.2711  0.7482  0.6956
  644TIP3   OH2 1876   2.620   4.094   2.245 -0.2348 -0.2466 -0.6459
  644TIP3    H1 1877   2.698   4.124   2.199 -1.5923  0.7933 -2.4046
  644TIP3    H2 1878   2.610   4.155   2.318  0.8832 -0.7359 -0.0645
  645TIP3   OH2 1879   4.994   0.663   1.308  0.0011  0.2180  0.4320
  645TIP3    H1 1880   4.954   0.578   1.290  0.7501 -0.3932  1.5524
  645TIP3    H2 1881   4.926   0.727   1.287 -0.8275 -0.6961  0.2832
  646TIP3   OH2 1882   0.539   2.282   5.152 -0.5672 -0.0973  0.8402
  646TIP3    H1 1883   0.541   2.268   5.246 -2.3401 -2.1240  0.6722
  646TIP3    H2 1884   0.446   2.294   5.131 -0.3427 -0.7538 -0.7369
  647TIP3   OH2 1885   3.777   5.669   4.846  0.7086 -0.4761 -0.7296
  647TIP3    H1 1886   3.798   5.644   4.756  0.1236  0.3998 -1.1253
  647TIP3    H2 1887   3.698   5.618   4.866  0.9655 -0.8382 -0.6288
  648TIP3   OH2 1888   0.311   3.407   1.775 -0.0154  0.1429  0.3202
  648TIP3    H1 1889   0.364   3.471   1.821  0.6713  0.8281 -1.3504
  648TIP3    H2 1890   0.272   3.353   1.844  0.5927  1.4053  1.6864
  649TIP3   OH2 1891   3.752   3.308   3.679 -0.0309  0.3554 -0.3205
  649TIP3    H1 1892   3.678   3.319   3.738  1.3958  1.2874  1.4187
  649TIP3    H2 1893   3.776   3.397   3.654  1.7616  0.2722  0.8950
  650TIP3   OH2 1894   2.575   5.942   3.271 -0.0926  0.3861  0.3358
  650TIP3    H1 1895   2.584   6.007   3.201 -0.5188  1.4266  1.2164
  650TIP3    H2 1896   2.656   5.951   3.321  0.4655 -0.7521 -0.3091
  651TIP3   OH2 1897   2.030   2.727   0.190  0.1191  0.3096 -0.1056
  651TIP3    H1 1898   2.071   2.774   0.118 -0.3299 -1.7883 -1.8460
  651TIP3    H2 1899   2.102   2.704   0.249  0.6421  1.2090 -0.3826
  652TIP3   OH2 1900   7.008   6.985   3.976 -0.2212  0.7740  0.4003
  652TIP3    H1 1901   6.990   7.035   4.056  1.7481  0.9677  0.7720
  652TIP3    H2 1902   7.051   6.905   4.007 -1.6865 -0.3343 -0.3227
  653TIP3   OH2 1903   4.163   3.352   2.819 -0.6228  0.1549  0.5634
  653TIP3    H1 1904   4.087   3.362   2.762 -0.1688 -0.4846 -0.1899
  653TIP3    H2 1905   4.144   3.275   2.872  0.9677 -2.3736 -2.2065
  654TIP3   OH2 1906   6.364   1.309   2.492  0.0467 -0.1456  0.4026
  654TIP3    H1 1907   6.409   1.312   2.407 -1.5125  0.2531 -0.4417
  654TIP3    H2 1908   6.311   1.389   2.495  0.3847  0.0563  1.9501
  655TIP3   OH2 1909   4.025   2.545   2.428 -0.5366 -0.5347 -0.0323
  655TIP3    H1 1910   4.097   2.552   2.365 -1.0803  0.2674 -0.5871
  655TIP3    H2 1911   4.059   2.489   2.497  0.0247 -1.6002 -1.1184
  656TIP3   OH2 1912   6.014   4.254   1.737  0.0770  0.0249 -0.0988
  656TIP3    H1 1913   6.084   4.203   1.696 -0.2625  0.4714 -1.2843
  656TIP3    H2 1914   6.059   4.329   1.776  0.3188  0.0487 -0.4178
  657TIP3   OH2 1915   4.875   6.889   1.055 -0.3857 -0.0606 -0.1197
  657TIP3    H1 1916   4.815   6.833   1.105 -1.9662  2.1585  0.6344
  657TIP3    H2 1917   4.960   6.877   1.098 -0.9518 -0.9697  0.7866
  658TIP3   OH2 1918   1.973   3.599   0.598  0.0719  0.4280 -0.1654
  658TIP3    H1 1919   1.979   3.689   0.629 -0.6050  0.3089  0.3473
  658TIP3    H2 1920   1.895   3.598   0.542  1.4334  0.7031 -2.1576
  659TIP3   OH2 1921   7.760   4.772   2.522 -0.0160  0.1023  0.4394
  659TIP3    H1 1922   7.776   4.784   2.616 -0.5117 -1.6575  0.7830
  659TIP3    H2 1923   7.848   4.770   2.483  0.1935  0.8928  0.8351
  660TIP3   OH2 1924   3.716   5.826   1.632 -0.3154  0.0055 -0.2405
  660TIP3    H1 1925   3.806   5.803   1.606 -1.0570 -1.9765 -1.2470
  660TIP3    H2 1926   3.721   5.919   1.653  2.6286 -0.5707  2.5787
  661TIP3   OH2 1927   6.553   3.821   6.475 -0.0121 -0.0094  0.0267
  661TIP3    H1 1928   6.614   3.784   6.538 -1.0649 -0.7702  0.6400
  661TIP3    H2 1929   6.529   3.906   6.512 -1.5791 -0.9733  1.3512
  662TIP3   OH2 1930   3.780   0.759   4.256 -0.4665 -0.4358  0.2936
  662TIP3    H1 1931   3.687   0.739   4.248 -0.3779 -0.1769 -1.8843
  662TIP3    H2 1932   3.794   0.833   4.197  0.5844  1.5611  2.8126
  663TIP3   OH2 1933   2.046   1.036   5.893  0.2576  0.5833  0.0309
  663TIP3    H1 1934   1.950   1.036   5.898  0.3322  0.1742  2.1584
  663TIP3    H2 1935   2.067   1.116   5.844 -1.1586  0.5635 -0.6584
  664TIP3   OH2 1936   7.752   4.749   3.852 -0.3117  0.6073  0.0992
  664TIP3    H1 1937   7.756   4.778   3.760  0.8974  1.1253  0.3108
  664TIP3    H2 1938   7.727   4.827   3.900  0.4837  0.6956  0.3771
  665TIP3   OH2 1939   4.080   6.300   3.966  0.0793 -0.2188  0.1245
  665TIP3    H1 1940   4.082   6.289   4.061 -0.4711  0.8158  0.2706
  665TIP3    H2 1941   4.003   6.250   3.938 -0.0450 -0.1241  0.2908
  666TIP3   OH2 1942   4.999   3.039   2.632 -0.0935  0.1487 -0.1664
  666TIP3    H1 1943   4.976   3.132   2.632 -1.6211 -0.0704  3.3178
  666TIP3    H2 1944   5.089   3.037   2.663 -0.8767  0.5155  2.4220
  667TIP3   OH2 1945   4.054   1.263   4.074 -0.1396 -0.3259 -0.4468
  667TIP3    H1 1946   3.980   1.232   4.127 -0.6128 -1.3140 -1.6194
  667TIP3    H2 1947   4.131   1.230   4.119 -0.5177 -0.8566 -0.1745
  668TIP3   OH2 1948   3.128   6.024   2.846  0.0804  0.1898 -0.3798
  668TIP3    H1 1949   3.120   6.024   2.942 -1.7654  1.2339 -0.4830
  668TIP3    H2 1950   3.125   6.117   2.822  1.3802 -0.0083 -1.4309
  669TIP3   OH2 1951   3.787   2.617   2.289  0.2494  0.1240 -0.2500
  669TIP3    H1 1952   3.866   2.602   2.342  1.4193  0.0858 -1.9460
  669TIP3    H2 1953   3.805   2.699   2.242 -0.6507  0.0227 -0.7889
  670TIP3   OH2 1954   6.666   4.387   0.003 -0.3983 -0.0502  0.5500
  670TIP3    H1 1955   6.694   4.415   0.091 -0.5716 -0.4483  0.7348
  670TIP3    H2 1956   6.745   4.394  -0.050 -0.3121  0.2827  0.7153
  671TIP3   OH2 1957   6.363   1.856   3.523 -0.6013  0.1843  0.0158
  671TIP3    H1 1958   6.420   1.905   3.463 -0.4924  1.1500  0.8667
  671TIP3    H2 1959   6.406   1.771   3.533 -0.5256  0.0764 -1.1163
  672TIP3   OH2 1960   3.907   1.494   4.696 -0.2170  0.3425 -0.0925
  672TIP3    H1 1961   3.915   1.541   4.613 -2.1870 -0.6602 -0.9433
  672TIP3    H2 1962   3.812   1.491   4.712  0.1432  1.5127  2.8309
  673TIP3   OH2 1963   1.670   0.300   0.152 -0.1892  0.2721 -0.6014
  673TIP3    H1 1964   1.757   0.311   0.114 -0.7389  2.1878 -1.4382
  673TIP3    H2 1965   1.670   0.356   0.230 -0.2829 -0.7246  0.1429
  674TIP3   OH2 1966   7.243   4.828   3.636 -0.6872  0.2971 -0.5321
  674TIP3    H1 1967   7.274   4.750   3.683 -1.1463  0.3743 -0.0951
  674TIP3    H2 1968   7.182   4.869   3.696 -1.7212  0.0921 -1.4225
  675TIP3   OH2 1969   3.656   4.943   4.414 -0.8833 -0.3150 -0.2905
  675TIP3    H1 1970   3.707   5.023   4.422  0.4345 -0.8067 -2.7006
  675TIP3    H2 1971   3.676   4.893   4.493  1.8124 -0.1540 -0.7861
  676TIP3   OH2 1972   5.630   0.830   0.731 -0.5199  0.7216 -0.4218
  676TIP3    H1 1973   5.650   0.877   0.650 -0.2043 -1.4629 -1.7051
  676TIP3    H2 1974   5.542   0.796   0.717 -0.8223  1.0768  0.5611
  677TIP3   OH2 1975   2.122   5.701   5.134 -0.6801  0.4820 -0.3553
  677TIP3    H1 1976   2.113   5.790   5.101 -0.3650  0.8411  0.5006
  677TIP3    H2 1977   2.154   5.650   5.059  0.9812  1.4723 -0.3711
  678TIP3   OH2 1978   1.028   0.213   5.367 -0.2576  0.4540 -0.5152
  678TIP3    H1 1979   1.086   0.214   5.290  2.5965 -2.1601  1.3727
  678TIP3    H2 1980   0.963   0.146   5.347  0.0809  0.2295 -0.8864
  679TIP3   OH2 1981   4.959   7.506   2.749 -0.2381 -0.1539 -0.7637
  679TIP3    H1 1982   5.001   7.573   2.696  1.0022 -0.7039 -0.5162
  679TIP3    H2 1983   4.959   7.428   2.694  0.2125 -0.4827 -0.3137
  680TIP3   OH2 1984   2.300   6.700   1.951  0.0926  0.0236  0.2004
  680TIP3    H1 1985   2.369   6.636   1.973  1.4420  1.0623 -0.8465
  680TIP3    H2 1986   2.294   6.696   1.856 -0.1260  1.1463  0.1636
  681TIP3   OH2 1987   4.614   1.297   3.844  0.1583  0.0561  0.0749
  681TIP3    H1 1988   4.579   1.220   3.799  1.1910 -0.4893  0.1586
  681TIP3    H2 1989   4.647   1.262   3.927  2.4502  0.1934 -0.7110
  682TIP3   OH2 1990   8.145   0.167   6.697 -0.9060  0.5074  0.1986
  682TIP3    H1 1991   8.174   0.244   6.746  2.2271  0.7216 -1.6722
  682TIP3    H2 1992   8.143   0.097   6.762 -0.1479  1.4403  1.2835
  683TIP3   OH2 1993   0.738   3.231   3.146 -0.0792  0.3572 -0.2403
  683TIP3    H1 1994   0.800   3.159   3.152  0.7310  1.0663  0.0349
  683TIP3    H2 1995   0.776   3.301   3.199 -1.0757  0.8326 -0.1256
  684TIP3   OH2 1996   2.286   7.259   5.841 -0.1610  0.6906  0.1022
  684TIP3    H1 1997   2.235   7.294   5.914 -0.3334 -0.7840  0.7215
  684TIP3    H2 1998   2.292   7.165   5.858  0.5408  0.4372 -1.3354
  685TIP3   OH2 1999   0.788   1.696   2.834 -0.5047  0.3583  0.5117
  685TIP3    H1 2000   0.706   1.716   2.879 -0.7650  1.1652 -0.3010
  685TIP3    H2 2001   0.762   1.645   2.758 -0.0451 -1.2049  1.3628
  686TIP3   OH2 2002   8.126   2.220   0.364  0.1389 -0.3962  0.1052
  686TIP3    H1 2003   8.056   2.285   0.370  1.9113  1.7636 -0.9221
  686TIP3    H2 2004   8.081   2.136   0.363 -2.4976  0.9087 -1.3163
  687TIP3   OH2 2005   8.114   5.776   5.268 -0.0098  0.6357 -0.2224
  687TIP3    H1 2006   8.041   5.739   5.318 -1.7809  0.8412 -2.4898
  687TIP3    H2 2007   8.156   5.700   5.227 -0.3321  0.6699 -0.6302
  688TIP3   OH2 2008   7.497   6.618   6.746  0.2464 -0.0596  0.5983
  688TIP3    H1 2009   7.434   6.663   6.689  1.0967  0.2309 -0.1358
  688TIP3    H2 2010   7.501   6.673   6.825  1.4839  1.3807 -0.3983
  689TIP3   OH2 2011   2.570   6.605   2.306 -0.1812  0.6682 -0.0287
  689TIP3    H1 2012   2.581   6.530   2.248 -1.5195 -0.2802  0.8985
  689TIP3    H2 2013   2.497   6.582   2.363 -0.3008  2.4654  0.6276
  690TIP3   OH2 2014   6.731   5.648   6.363 -0.6525  0.5629  0.7197
  690TIP3    H1 2015   6.715   5.575   6.422  0.1122  0.0427  0.3021
  690TIP3    H2 2016   6.763   5.718   6.421  0.9080 -0.2102  0.8713
  691TIP3   OH2 2017   2.134   3.253   4.478 -0.6420 -0.2255  0.4136
  691TIP3    H1 2018   2.044   3.222   4.474 -0.9324  0.4064  1.4631
  691TIP3    H2 2019   2.130   3.343   4.446 -0.1838 -0.5436 -0.5710
  692TIP3   OH2 2020   2.803   4.497   6.124  0.2964 -0.1550  0.1383
  692TIP3    H1 2021   2.872   4.447   6.168  0.2762  0.3531  0.7599
  692TIP3    H2 2022   2.793   4.576   6.177 -0.5763 -0.0949 -0.1001
  693TIP3   OH2 2023   6.244   1.259   1.598 -0.1862  0.2427  0.0602
  693TIP3    H1 2024   6.293   1.191   1.644  0.5376  1.8374  1.7515
  693TIP3    H2 2025   6.298   1.278   1.521 -0.5837 -1.2872 -0.6474
  694TIP3   OH2 2026   3.018   6.436   6.103 -0.4848  0.0900  0.0537
  694TIP3    H1 2027   3.087   6.456   6.039 -1.9049  1.5894 -1.1017
  694TIP3    H2 2028   2.938   6.429   6.051 -1.7636  1.7304  1.6395
  695TIP3   OH2 2029   7.172   7.783   0.444  0.3428 -0.1785  0.1134
  695TIP3    H1 2030   7.242   7.821   0.390 -0.7991  1.9949  0.0656
  695TIP3    H2 2031   7.211   7.703   0.480  2.8997  0.9805  0.1661
  696TIP3   OH2 2032   6.890   2.000   5.147 -0.0153 -0.0868 -0.5286
  696TIP3    H1 2033   6.851   2.019   5.062 -0.9226  2.0776  0.2945
  696TIP3    H2 2034   6.817   1.967   5.200  0.4046 -0.8317 -0.4023
  697TIP3   OH2 2035   1.846   2.173   5.696 -0.2776  0.3354 -0.5404
  697TIP3    H1 2036   1.794   2.253   5.682 -2.5289 -0.9909 -0.2972
  697TIP3    H2 2037   1.834   2.122   5.616  0.5912 -0.0429 -0.4344
  698TIP3   OH2 2038   3.482   6.002   3.211  0.2923  0.0261 -0.1857
  698TIP3    H1 2039   3.541   5.927   3.200 -0.0335 -0.2356 -0.1511
  698TIP3    H2 2040   3.519   6.051   3.284 -0.3579 -0.9301  0.8170
  699TIP3   OH2 2041   1.295   0.106   6.473  0.1130  0.4096 -0.0289
  699TIP3    H1 2042   1.388   0.092   6.457  0.0466 -0.6810  0.4651
  699TIP3    H2 2043   1.292   0.177   6.537  0.6454 -0.0496  0.5177
  700TIP3   OH2 2044   2.039   4.952   6.606 -0.3849 -0.3998  0.5014
  700TIP3    H1 2045   1.975   5.021   6.588  0.1691 -0.1108 -0.4788
  700TIP3    H2 2046   2.043   4.947   6.701  1.0323  2.3978  0.6939
  701TIP3   OH2 2047   2.084   5.146   2.915  0.2951 -0.1098 -0.2300
  701TIP3    H1 2048   2.157   5.095   2.880  0.4245  0.0771 -0.2375
  701TIP3    H2 2049   2.048   5.193   2.839 -0.3707 -0.8487 -0.3806
  702TIP3   OH2 2050   1.498   3.485   6.664 -0.3295 -0.1358  0.2879
  702TIP3    H1 2051   1.483   3.567   6.711 -0.6019 -0.2437  0.3869
  702TIP3    H2 2052   1.516   3.513   6.574 -0.2781  0.0410  0.3516
  703TIP3   OH2 2053   0.955   6.334   5.212 -0.4032  0.1789 -0.8279
  703TIP3    H1 2054   0.968   6.399   5.143  0.9825  1.5578  0.6531
  703TIP3    H2 2055   0.924   6.385   5.288  1.0519 -0.7984  0.4784
  704TIP3   OH2 2056   6.630   7.732   1.670 -0.0933 -0.1596 -0.2809
  704TIP3    H1 2057   6.581   7.685   1.603 -1.6409 -0.9294  1.3373
  704TIP3    H2 2058   6.648   7.667   1.738  0.8613  0.7589  0.3847
  705TIP3   OH2 2059   8.003   1.169   0.475  0.2131  0.7364  0.0411
  705TIP3    H1 2060   8.017   1.256   0.512  2.2173  0.4068  0.1632
  705TIP3    H2 2061   7.925   1.178   0.420 -0.2218  2.3282  0.8720
  706TIP3   OH2 2062   2.771   7.125   4.441  0.7811 -0.0171  0.7107
  706TIP3    H1 2063   2.753   7.209   4.484 -0.6681  0.0977 -0.0418
  706TIP3    H2 2064   2.808   7.148   4.356 -0.8614 -0.0573 -0.0508
  707TIP3   OH2 2065   3.926   7.680   6.692 -0.0832 -0.0137 -0.0566
  707TIP3    H1 2066   3.883   7.751   6.740  1.2380  1.6849 -1.2673
  707TIP3    H2 2067   3.875   7.672   6.611  0.3441  0.2554 -0.3580
  708TIP3   OH2 2068   0.794   5.752   4.028  0.7221  0.2518 -0.1572
  708TIP3    H1 2069   0.738   5.675   4.018 -1.8165  2.1260 -1.5694
  708TIP3    H2 2070   0.837   5.740   4.113  0.1478 -2.4910 -0.1725
  709TIP3   OH2 2071   5.597   4.824   4.993 -0.4848  0.6139  0.1983
  709TIP3    H1 2072   5.603   4.761   4.921  2.1355 -0.5290  1.3107
  709TIP3    H2 2073   5.605   4.909   4.951  1.0208 -0.0310 -0.8948
  710TIP3   OH2 2074   1.392   3.266   2.329 -0.3127  0.0660 -0.2382
  710TIP3    H1 2075   1.389   3.340   2.269 -0.5777 -0.3288 -0.7235
  710TIP3    H2 2076   1.330   3.203   2.292 -1.6608  0.4451  1.3030
  711TIP3   OH2 2077   1.642   3.379   3.341  0.0349  0.0245 -0.4150
  711TIP3    H1 2078   1.715   3.319   3.326 -0.2218 -0.9044  1.7303
  711TIP3    H2 2079   1.566   3.322   3.350 -0.2596  0.6498  1.4050
  712TIP3   OH2 2080   7.618   4.995   4.217  0.6784 -0.0679  0.0708
  712TIP3    H1 2081   7.589   5.008   4.127 -0.3308  0.2053  0.4234
  712TIP3    H2 2082   7.630   5.083   4.252  2.5085 -0.1588 -0.2202
  713TIP3   OH2 2083   0.900   4.176   4.950  0.0408  0.0171  0.0127
  713TIP3    H1 2084   0.814   4.173   4.908  0.6530 -0.4521 -1.2949
  713TIP3    H2 2085   0.910   4.089   4.989  0.4694 -0.4246 -1.0441
  714TIP3   OH2 2086   0.356   5.858   0.325 -0.2771  0.0669 -0.4172
  714TIP3    H1 2087   0.396   5.820   0.404  1.5848  0.7607 -0.9544
  714TIP3    H2 2088   0.360   5.953   0.340  0.7647  0.2441 -1.5964
  715TIP3   OH2 2089   3.142   5.055   3.620 -0.2496 -0.6056 -0.2048
  715TIP3    H1 2090   3.133   5.088   3.709 -0.2311  2.7838 -1.3179
  715TIP3    H2 2091   3.059   5.010   3.602 -0.8011 -0.1154  1.0444
  716TIP3   OH2 2092   5.524   1.186   4.688 -0.8540 -0.1131 -0.0254
  716TIP3    H1 2093   5.489   1.155   4.772 -0.4920 -0.2578  0.0730
  716TIP3    H2 2094   5.527   1.281   4.696 -1.9057 -0.0360 -0.3012
  717TIP3   OH2 2095   0.292   7.195   3.331 -0.0518  0.2723  0.0270
  717TIP3    H1 2096   0.260   7.239   3.409 -1.5155 -0.6151 -0.0255
  717TIP3    H2 2097   0.334   7.264   3.280 -0.8874  1.2776  0.6514
  718TIP3   OH2 2098   5.236   7.090   6.682 -0.2670  0.4890  0.3564
  718TIP3    H1 2099   5.284   7.077   6.764 -0.2236  0.0010  0.2565
  718TIP3    H2 2100   5.189   7.172   6.695  0.2178  0.7278  0.6392
  719TIP3   OH2 2101   5.009   1.378   5.166  0.1065  0.2336 -1.0444
  719TIP3    H1 2102   5.067   1.308   5.136 -0.6774 -1.0108  0.2248
  719TIP3    H2 2103   4.928   1.365   5.116 -0.6806 -0.9441  0.4307
  720TIP3   OH2 2104   6.036   3.081   1.165 -0.0597  0.1682  0.5301
  720TIP3    H1 2105   6.113   3.061   1.219  0.3566  1.2883  0.3787
  720TIP3    H2 2106   6.067   3.071   1.075  0.2325  1.5926  0.4377
  721TIP3   OH2 2107   0.450   7.480   0.872  0.3989  0.4593  0.1269
  721TIP3    H1 2108   0.464   7.418   0.800 -3.1853  0.7906 -1.0430
  721TIP3    H2 2109   0.481   7.564   0.838  2.5142 -0.0752  0.6056
  722TIP3   OH2 2110   7.783   4.894   4.642  0.7767  0.0106 -0.0336
  722TIP3    H1 2111   7.815   4.969   4.591  0.3052 -0.7484 -1.5330
  722TIP3    H2 2112   7.831   4.899   4.724  2.5026  0.6387 -1.0164
  723TIP3   OH2 2113   1.565   5.265   6.632  0.1540 -0.0330  0.0337
  723TIP3    H1 2114   1.646   5.311   6.654  0.3774  0.4522 -1.6249
  723TIP3    H2 2115   1.583   5.173   6.653  1.0322  0.1112 -0.0330
  724TIP3   OH2 2116   4.176   5.443   2.224 -0.3244  0.3509  0.5668
  724TIP3    H1 2117   4.229   5.387   2.281 -1.8997 -1.1598  0.6252
  724TIP3    H2 2118   4.090   5.444   2.265 -0.9925  0.7491 -0.8031
  725TIP3   OH2 2119   7.175   4.051   1.834 -0.2036 -0.3776  0.0806
  725TIP3    H1 2120   7.113   4.094   1.776 -0.0999 -0.8478 -0.3914
  725TIP3    H2 2121   7.159   4.090   1.920 -0.9034 -0.2360 -0.1047
  726TIP3   OH2 2122   5.377   0.707   5.507 -0.1664  0.3199 -0.7429
  726TIP3    H1 2123   5.416   0.733   5.591 -1.5452 -2.4705  0.9099
  726TIP3    H2 2124   5.283   0.716   5.520 -0.3937  0.2194 -2.1562
  727TIP3   OH2 2125   6.700   6.855  -0.024  0.4246  0.2738  0.3590
  727TIP3    H1 2126   6.659   6.860   0.063 -0.1536  2.7926  0.0282
  727TIP3    H2 2127   6.794   6.862  -0.006  0.2445  2.3232  0.7825
  728TIP3   OH2 2128   3.999   0.537   2.501 -0.3909  0.0302 -0.0277
  728TIP3    H1 2129   3.909   0.521   2.530  0.1782  0.3984  2.1069
  728TIP3    H2 2130   4.017   0.628   2.527  1.0932 -0.5291  1.0208
  729TIP3   OH2 2131   6.171   5.089   3.506  0.1871 -0.0445  0.0011
  729TIP3    H1 2132   6.176   5.001   3.541 -0.9079 -0.0927  0.0717
  729TIP3    H2 2133   6.099   5.086   3.443  0.1123  0.8076  0.0285
  730TIP3   OH2 2134   7.266   5.469   3.330  0.1719 -0.1239 -0.3795
  730TIP3    H1 2135   7.257   5.560   3.357  0.2507 -0.0353 -0.6525
  730TIP3    H2 2136   7.351   5.465   3.286 -0.1486 -0.1596 -1.0222
  731TIP3   OH2 2137   6.672   0.986   0.383  0.0774 -0.2359  0.3215
  731TIP3    H1 2138   6.590   0.961   0.423  0.5839 -0.3473  1.3138
  731TIP3    H2 2139   6.683   1.079   0.404  0.6243 -0.4367  0.9546
  732TIP3   OH2 2140   4.146   4.886   5.729 -0.4299 -0.2814 -0.2098
  732TIP3    H1 2141   4.122   4.852   5.643 -1.3370  1.6613 -0.7849
  732TIP3    H2 2142   4.197   4.816   5.770  0.8728 -0.8836 -2.7069
  733TIP3   OH2 2143   0.720   7.439   6.104  0.4837  0.1535  0.2817
  733TIP3    H1 2144   0.752   7.433   6.013  0.4932 -0.1249  0.3017
  733TIP3    H2 2145   0.625   7.443   6.095  0.4702 -0.1340  0.2673
  734TIP3   OH2 2146   5.178   5.067   4.407 -0.6586 -0.1204  0.3067
  734TIP3    H1 2147   5.136   5.094   4.489 -0.4809 -1.0352  0.7181
  734TIP3    H2 2148   5.228   5.143   4.379  0.7316 -0.3608  2.0108
  735TIP3   OH2 2149   0.783   5.578   1.946 -0.1814 -0.7064  0.3766
  735TIP3    H1 2150   0.814   5.575   1.855 -1.8335  0.3702 -0.2612
  735TIP3    H2 2151   0.807   5.493   1.982  1.8369 -0.6061 -0.5942
  736TIP3   OH2 2152   5.093   5.231   5.386  0.1482 -0.3297  0.2050
  736TIP3    H1 2153   5.173   5.197   5.346 -0.3732 -0.8394 -0.4228
  736TIP3    H2 2154   5.116   5.245   5.478  0.2744 -2.8649  0.6484
  737TIP3   OH2 2155   3.323   5.157   5.669 -0.3764 -0.2712  0.0088
  737TIP3    H1 2156   3.370   5.077   5.645 -1.2973 -0.8707  0.1528
  737TIP3    H2 2157   3.389   5.211   5.713  0.0740 -1.2941  0.6371
  738TIP3   OH2 2158   5.966   4.745   1.039 -0.3865  0.1143 -0.2138
  738TIP3    H1 2159   5.931   4.774   1.124  0.5856  0.6902  0.0069
  738TIP3    H2 2160   6.060   4.741   1.053 -0.3064 -0.9764 -0.9257
  739TIP3   OH2 2161   3.774   6.512   4.173  0.2018 -0.5977  0.0110
  739TIP3    H1 2162   3.867   6.490   4.181 -0.2436 -2.1117  1.5699
  739TIP3    H2 2163   3.766   6.599   4.213  0.8198 -0.8161  0.6268
  740TIP3   OH2 2164   0.543   2.158   1.448  0.1069 -0.2784 -0.1748
  740TIP3    H1 2165   0.547   2.065   1.472  1.3066 -0.2679 -0.3020
  740TIP3    H2 2166   0.590   2.203   1.518 -3.3749  0.6785  1.8032
  741TIP3   OH2 2167   6.660   7.629   5.609  0.1741 -0.0254  0.3920
  741TIP3    H1 2168   6.618   7.598   5.689  1.0924  0.7026  1.1876
  741TIP3    H2 2169   6.638   7.564   5.543 -1.3419 -0.1868  1.0161
  742TIP3   OH2 2170   5.807   2.938   4.266 -0.4321 -0.3649 -0.4894
  742TIP3    H1 2171   5.720   2.972   4.287  0.2201 -0.4491  2.7980
  742TIP3    H2 2172   5.861   3.017   4.255 -0.4774 -0.3219 -0.4064
  743TIP3   OH2 2173   7.734   3.434   2.710  0.9763  0.2584 -0.0195
  743TIP3    H1 2174   7.641   3.427   2.692  1.1821 -0.6678 -0.8268
  743TIP3    H2 2175   7.739   3.465   2.801 -0.1011  0.7025 -0.0973
  744TIP3   OH2 2176   4.858   5.310   5.196 -0.1135 -0.0865 -0.3052
  744TIP3    H1 2177   4.901   5.225   5.187  3.4602  1.6385 -1.7517
  744TIP3    H2 2178   4.875   5.335   5.287  1.8230  0.3943 -0.7464
  745TIP3   OH2 2179   5.159   4.112   0.856  0.0103  0.3220 -0.4886
  745TIP3    H1 2180   5.127   4.188   0.808  1.2076  0.7616 -0.6213
  745TIP3    H2 2181   5.092   4.096   0.922  0.2915  2.3004  0.3793
  746TIP3   OH2 2182   8.171   6.340   4.069 -0.0053 -0.2859  0.3840
  746TIP3    H1 2183   8.096   6.352   4.127  1.2117 -1.0031  2.1965
  746TIP3    H2 2184   8.157   6.254   4.028 -0.9245  0.2752 -0.5272
  747TIP3   OH2 2185   0.619   5.849   3.656  0.3838 -0.5047  0.6845
  747TIP3    H1 2186   0.536   5.887   3.685  0.8938  1.0085  0.2338
  747TIP3    H2 2187   0.596   5.760   3.630 -1.3196  0.2228 -0.4586
  748TIP3   OH2 2188   5.188   1.720   0.591  0.9248 -0.5355  0.1394
  748TIP3    H1 2189   5.127   1.670   0.536  1.7180  0.1853 -1.4644
  748TIP3    H2 2190   5.155   1.810   0.588  2.1482 -0.0873 -0.9503
  749TIP3   OH2 2191   0.176   3.967   0.189 -0.4924 -0.1373 -0.6445
  749TIP3    H1 2192   0.109   3.900   0.201 -0.4126 -0.2117 -0.6053
  749TIP3    H2 2193   0.222   3.971   0.273  0.3514 -0.9788 -1.0421
  750TIP3   OH2 2194   5.003   2.358   6.477  0.2912  1.0028 -0.2197
  750TIP3    H1 2195   5.012   2.358   6.572 -2.6297  0.6326  0.1738
  750TIP3    H2 2196   5.065   2.292   6.447  1.8260  1.6606  1.3104
  751TIP3   OH2 2197   5.212   5.728   2.197  0.2484 -0.2763 -0.0282
  751TIP3    H1 2198   5.181   5.673   2.125 -1.6902 -0.5841  0.9681
  751TIP3    H2 2199   5.275   5.787   2.156 -0.2943 -0.8635 -1.8386
  752TIP3   OH2 2200   7.206   0.592   3.574  0.1259 -0.3335 -0.5172
  752TIP3    H1 2201   7.174   0.666   3.625  1.4011  0.4025 -0.7352
  752TIP3    H2 2202   7.160   0.517   3.609 -1.0416  0.5306 -0.1413
  753TIP3   OH2 2203   8.209   1.697   2.966  0.1195  0.1528  0.7340
  753TIP3    H1 2204   8.247   1.784   2.953  2.3838 -0.6539  1.3970
  753TIP3    H2 2205   8.229   1.650   2.885 -0.1929 -0.0641  0.7817
  754TIP3   OH2 2206   0.129   5.576   2.673  0.3099 -0.9537 -0.1678
  754TIP3    H1 2207   0.222   5.596   2.664  0.0041 -0.0842 -1.6381
  754TIP3    H2 2208   0.122   5.537   2.760  1.9262 -0.3625  0.2720
  755TIP3   OH2 2209   5.763   2.221   2.104  0.1140  0.8267  0.5683
  755TIP3    H1 2210   5.840   2.251   2.153  1.2034 -2.0720  0.8585
  755TIP3    H2 2211   5.785   2.131   2.079 -3.2921 -0.1973  0.8393
  756TIP3   OH2 2212   5.151   2.775   6.131  0.2154  0.0967 -0.7436
  756TIP3    H1 2213   5.106   2.691   6.124  2.5864 -1.2942 -0.6787
  756TIP3    H2 2214   5.083   2.837   6.156 -1.3674 -2.1051  0.8452
  757TIP3   OH2 2215   2.208   1.834   3.636 -0.0909 -0.7323 -0.1657
  757TIP3    H1 2216   2.179   1.882   3.559 -1.0491  0.6425  1.0113
  757TIP3    H2 2217   2.303   1.826   3.625  0.2353  2.1282 -0.0721
  758TIP3   OH2 2218   4.980   2.278   1.616  0.1572  0.1590  0.1182
  758TIP3    H1 2219   4.901   2.270   1.562 -0.0559  1.7451  0.1433
  758TIP3    H2 2220   5.033   2.201   1.593 -0.6213 -0.0116 -1.1978
  759TIP3   OH2 2221   7.220   6.203   0.083 -0.1792  0.3468  0.2252
  759TIP3    H1 2222   7.240   6.163  -0.002  1.8076  1.5405  0.0721
  759TIP3    H2 2223   7.246   6.138   0.148  2.7132  1.1249 -0.0229
  760TIP3   OH2 2224   6.420   0.836   0.865  0.1243 -0.3819  0.3903
  760TIP3    H1 2225   6.364   0.780   0.918 -0.5800  0.8936  1.0313
  760TIP3    H2 2226   6.506   0.831   0.907 -0.6032  1.2202  2.1871
  761TIP3   OH2 2227   7.346   3.447   2.337  0.9368  0.1866 -0.3714
  761TIP3    H1 2228   7.289   3.435   2.413  1.0507  1.0532 -0.1400
  761TIP3    H2 2229   7.371   3.358   2.312 -0.9537 -0.2574 -0.8332
  762TIP3   OH2 2230   8.093   2.145   3.151 -0.1268  0.3864 -0.4423
  762TIP3    H1 2231   8.083   2.150   3.056  1.0654 -0.7969 -0.6674
  762TIP3    H2 2232   8.013   2.104   3.183  0.9305 -2.7980 -1.4186
  763TIP3   OH2 2233   7.744   2.380   6.109  0.3545 -0.2261  1.0249
  763TIP3    H1 2234   7.723   2.297   6.151 -0.7089 -0.2560  0.4732
  763TIP3    H2 2235   7.676   2.391   6.043  1.2405  0.4425  0.1889
  764TIP3   OH2 2236   1.325   1.541   0.908 -0.7165  0.5136 -0.3133
  764TIP3    H1 2237   1.405   1.590   0.887 -0.0268  0.1652  1.3023
  764TIP3    H2 2238   1.258   1.608   0.918 -0.0602  1.0633  0.6731
  765TIP3   OH2 2239   1.938   1.052   3.343 -0.4007 -0.1234 -0.1520
  765TIP3    H1 2240   1.900   1.135   3.370 -0.6498  0.6606 -2.7302
  765TIP3    H2 2241   2.020   1.047   3.392 -0.8743  1.1098  0.8282
  766TIP3   OH2 2242   4.624   7.598   1.351  0.1914 -0.0293  0.8759
  766TIP3    H1 2243   4.599   7.527   1.292 -0.4141  0.5601  0.4071
  766TIP3    H2 2244   4.695   7.644   1.305 -0.4472  0.5785  0.4837
  767TIP3   OH2 2245   2.298   7.233   6.589  0.1739 -0.0021 -0.4620
  767TIP3    H1 2246   2.206   7.230   6.559  0.2616  0.2273 -0.7660
  767TIP3    H2 2247   2.292   7.241   6.684 -0.1122 -3.0364 -0.1175
  768TIP3   OH2 2248   4.038   4.882   2.705 -0.0922 -0.0033 -0.5367
  768TIP3    H1 2249   4.011   4.794   2.733  1.0335 -0.1294  0.2292
  768TIP3    H2 2250   3.964   4.915   2.655 -1.8739 -0.1175  1.8526
  769TIP3   OH2 2251   8.221   0.164   2.265 -0.1001 -0.6089 -0.7211
  769TIP3    H1 2252   8.260   0.093   2.216 -1.4244 -1.1326 -1.0607
  769TIP3    H2 2253   8.140   0.185   2.218 -1.5351 -1.2709  1.2927
  770TIP3   OH2 2254   3.870   0.615   5.096 -0.5046 -0.0518 -0.0661
  770TIP3    H1 2255   3.817   0.627   5.175 -1.9689 -3.9452 -0.1869
  770TIP3    H2 2256   3.958   0.598   5.128 -0.6530  0.4221  0.6076
  771TIP3   OH2 2257   4.741   1.793   0.391 -0.0709 -0.8045  0.2445
  771TIP3    H1 2258   4.743   1.701   0.364 -0.3327 -0.7774  0.1275
  771TIP3    H2 2259   4.719   1.790   0.484 -1.3592 -0.8183 -0.0417
  772TIP3   OH2 2260   3.655   5.116   0.644 -0.2341  0.1074  0.0197
  772TIP3    H1 2261   3.678   5.086   0.556  0.8428 -0.2778  0.4113
  772TIP3    H2 2262   3.569   5.156   0.634 -0.3430 -0.3676 -1.1140
  773TIP3   OH2 2263   6.690   5.373   5.812 -0.3549  0.4251 -0.1585
  773TIP3    H1 2264   6.627   5.346   5.879 -0.1297 -0.3599 -0.2584
  773TIP3    H2 2265   6.697   5.298   5.754 -0.0349  0.8573 -0.6878
  774TIP3   OH2 2266   2.565   5.463   0.332 -0.3299 -0.1404  0.2293
  774TIP3    H1 2267   2.545   5.377   0.369  1.1187 -0.7423 -0.3227
  774TIP3    H2 2268   2.521   5.463   0.247 -1.4553  0.2167  0.7902
  775TIP3   OH2 2269   7.716   5.303   5.078  0.2825  0.1850  0.1316
  775TIP3    H1 2270   7.762   5.266   5.154  0.1065 -1.4537 -0.5239
  775TIP3    H2 2271   7.625   5.275   5.090 -0.5738  3.1388  1.2562
  776TIP3   OH2 2272   2.464   4.180   3.781 -0.4334 -0.4528  0.4905
  776TIP3    H1 2273   2.454   4.091   3.815 -0.3472 -0.2046  1.1585
  776TIP3    H2 2274   2.407   4.182   3.704  0.5895 -1.5011 -0.3327
  777TIP3   OH2 2275   5.830   0.162   2.228  0.6953  0.7330 -0.2653
  777TIP3    H1 2276   5.830   0.066   2.219  1.7832  0.7491 -0.5517
  777TIP3    H2 2277   5.781   0.193   2.151  3.3246  0.5232 -2.1727
  778TIP3   OH2 2278   4.577   7.629   1.790 -0.3320 -0.3072  0.1089
  778TIP3    H1 2279   4.600   7.701   1.730 -4.2151  1.4715  0.4627
  778TIP3    H2 2280   4.610   7.658   1.875 -1.1425  0.7027  0.0980
  779TIP3   OH2 2281   5.269   7.431   4.737 -0.2138 -0.1042 -0.3686
  779TIP3    H1 2282   5.256   7.378   4.658  1.2607 -1.3778  0.1799
  779TIP3    H2 2283   5.287   7.367   4.806 -0.6054  1.0273  0.8339
  780TIP3   OH2 2284   8.202   4.886   3.184  0.2253 -0.1601  0.0822
  780TIP3    H1 2285   8.114   4.865   3.154  0.2611  0.7045 -0.6816
  780TIP3    H2 2286   8.197   4.977   3.214  0.9541  0.0492 -0.3940
  781TIP3   OH2 2287   7.766   5.031   4.981  0.4705  0.7362 -0.3541
  781TIP3    H1 2288   7.851   4.992   4.958  1.0698  0.9799  1.2998
  781TIP3    H2 2289   7.780   5.125   4.971 -0.0005  0.7202 -1.2596
  782TIP3   OH2 2290   6.089   4.437   1.915 -0.2495 -0.0779 -0.0931
  782TIP3    H1 2291   6.081   4.453   2.009  2.6982  0.5497  0.1384
  782TIP3    H2 2292   6.100   4.524   1.876 -1.8356 -0.2927 -1.1345
  783TIP3   OH2 2293   6.581   7.824   6.501  0.0694 -0.5302  0.3150
  783TIP3    H1 2294   6.649   7.887   6.478 -0.2642  0.1672  1.1817
  783TIP3    H2 2295   6.586   7.757   6.432  0.7591  0.1759 -0.3428
  784TIP3   OH2 2296   5.928   7.739   3.007 -0.1539 -0.3248  0.0834
  784TIP3    H1 2297   5.840   7.770   2.986 -0.0718 -0.4079 -0.4067
  784TIP3    H2 2298   5.943   7.667   2.946  0.5477  0.1902 -0.3689
  785TIP3   OH2 2299   5.528   4.003   2.659 -0.5020  0.4568 -0.2703
  785TIP3    H1 2300   5.503   3.946   2.586  1.7463 -0.1773 -0.6034
  785TIP3    H2 2301   5.605   3.962   2.697  0.0747  2.2964  0.6754
  786TIP3   OH2 2302   1.869   2.394   4.472  0.8764  0.2198  0.4351
  786TIP3    H1 2303   1.803   2.408   4.541 -0.3354 -0.0000 -0.6369
  786TIP3    H2 2304   1.893   2.302   4.480  0.9801  0.2730  0.7624
  787TIP3   OH2 2305   0.476   7.348   2.715 -0.0939  0.2014 -0.0224
  787TIP3    H1 2306   0.497   7.411   2.783 -1.6682 -0.5739  1.2588
  787TIP3    H2 2307   0.434   7.400   2.646  2.6767  1.2053 -1.1149
  788TIP3   OH2 2308   5.698   5.496   0.340  0.0848 -0.1010 -0.1584
  788TIP3    H1 2309   5.696   5.463   0.430 -2.3840  0.4801  0.0891
  788TIP3    H2 2310   5.772   5.556   0.338 -0.0175  0.1417  1.6033
  789TIP3   OH2 2311   7.703   0.281   4.203  0.2263  0.1015 -0.5238
  789TIP3    H1 2312   7.763   0.258   4.273  1.3528 -1.3586 -1.8943
  789TIP3    H2 2313   7.620   0.299   4.247  0.6436 -1.6941  1.1069
  790TIP3   OH2 2314   5.137   2.128   2.506 -0.7667 -0.0346 -0.0647
  790TIP3    H1 2315   5.095   2.072   2.572 -1.7216 -0.4489 -1.0021
  790TIP3    H2 2316   5.148   2.212   2.550 -1.4878 -0.2713  0.6002
  791TIP3   OH2 2317   8.034   5.231  -0.014 -0.1389  0.1772 -0.0294
  791TIP3    H1 2318   7.940   5.234  -0.032 -0.1379  0.4833  0.0111
  791TIP3    H2 2319   8.041   5.195   0.074 -0.1980 -0.2402 -0.1925
  792TIP3   OH2 2320   6.514   2.535   4.127  0.6183  0.0640  0.0039
  792TIP3    H1 2321   6.513   2.470   4.056 -0.2966  1.9275 -1.7987
  792TIP3    H2 2322   6.587   2.593   4.104 -0.0345  1.0062  0.2754
  793TIP3   OH2 2323   0.212   4.501   4.854  0.2211  0.2533  0.4541
  793TIP3    H1 2324   0.126   4.458   4.858  1.0713 -1.7596 -0.7631
  793TIP3    H2 2325   0.250   4.487   4.940 -0.0201 -0.3943  0.4629
  794TIP3   OH2 2326   8.235   2.538   5.934  0.2711  0.5057 -0.3447
  794TIP3    H1 2327   8.140   2.536   5.940  0.1511 -0.1854 -2.0128
  794TIP3    H2 2328   8.254   2.588   5.855  1.2302 -0.6035 -0.8595
  795TIP3   OH2 2329   6.288   5.749   1.375 -0.1139  0.2743  0.0452
  795TIP3    H1 2330   6.222   5.738   1.444  1.0055  1.2498  1.3197
  795TIP3    H2 2331   6.297   5.843   1.365  0.5448  0.1480 -0.6618
  796TIP3   OH2 2332   1.111   7.106   4.300 -0.2171  0.3148  0.7432
  796TIP3    H1 2333   1.082   7.133   4.213 -0.9498 -0.7951  0.6257
  796TIP3    H2 2334   1.197   7.067   4.287  0.0651  0.9564  0.6573
  797TIP3   OH2 2335   4.059   6.218   4.244  0.2980 -0.1968 -0.1606
  797TIP3    H1 2336   4.042   6.171   4.325 -1.7485 -0.0001 -0.4264
  797TIP3    H2 2337   3.977   6.212   4.195  0.8357  1.3902 -1.3358
  798TIP3   OH2 2338   2.151   6.227   2.681 -0.5833  0.8401  0.2541
  798TIP3    H1 2339   2.154   6.199   2.773 -0.6944  0.7250  0.2239
  798TIP3    H2 2340   2.129   6.147   2.633  1.9576  0.3062 -0.1455
  799TIP3   OH2 2341   3.220   5.293   0.983 -0.3967 -0.0350 -0.2675
  799TIP3    H1 2342   3.133   5.281   0.946 -0.4808 -0.8500  0.1650
  799TIP3    H2 2343   3.215   5.253   1.069 -0.0067  1.2333  0.3666
  800TIP3   OH2 2344   6.861   4.076   0.959 -0.3842  0.5150  0.1751
  800TIP3    H1 2345   6.899   4.062   0.873  2.4347  1.7546  1.0940
  800TIP3    H2 2346   6.882   3.997   1.008 -0.7292  0.3983  0.1375
  801TIP3   OH2 2347   3.511   0.435   0.490  0.5686 -0.1578  0.0987
  801TIP3    H1 2348   3.541   0.463   0.576 -0.5131  1.2668  0.0422
  801TIP3    H2 2349   3.571   0.363   0.466  2.4021  0.9924  0.9848
  802TIP3   OH2 2350   7.835   1.714   0.183 -0.3092  0.3856  0.2871
  802TIP3    H1 2351   7.749   1.680   0.161  0.7011 -1.4465 -1.1043
  802TIP3    H2 2352   7.895   1.668   0.124  1.7611  0.7675  1.9626
  803TIP3   OH2 2353   2.228   0.938   3.342 -0.4187 -0.0984 -0.0647
  803TIP3    H1 2354   2.318   0.916   3.318 -1.1500 -4.0466  0.0794
  803TIP3    H2 2355   2.181   0.943   3.259 -0.0615  2.3604 -0.1639
  804TIP3   OH2 2356   1.302   1.701   5.757 -0.2062  0.1394  0.1136
  804TIP3    H1 2357   1.383   1.750   5.742 -0.6047  1.3216  1.5476
  804TIP3    H2 2358   1.289   1.651   5.676 -1.1845  4.4129 -2.7196
  805TIP3   OH2 2359   1.658   0.868   3.090 -0.2027  0.1213  0.0582
  805TIP3    H1 2360   1.599   0.866   3.014 -1.2151 -0.4049  0.8402
  805TIP3    H2 2361   1.669   0.776   3.115 -0.4407  0.3282  0.9655
  806TIP3   OH2 2362   3.341   2.313   0.454  0.6688 -0.2791 -0.2986
  806TIP3    H1 2363   3.425   2.330   0.411  0.4490 -0.2063 -0.6953
  806TIP3    H2 2364   3.350   2.225   0.489  0.9411 -0.2417 -0.2668
  807TIP3   OH2 2365   4.274   1.821   4.358 -0.5627 -0.3065 -0.5677
  807TIP3    H1 2366   4.298   1.866   4.439 -0.6694 -0.2954 -0.5427
  807TIP3    H2 2367   4.180   1.806   4.366 -0.4642 -0.8613 -0.4153
  808TIP3   OH2 2368   7.771   7.005   1.051 -0.3874  0.2787  0.1408
  808TIP3    H1 2369   7.812   6.945   0.988 -2.3065 -0.4065 -0.5409
  808TIP3    H2 2370   7.716   6.948   1.105 -1.6849  1.3183 -0.0447
  809TIP3   OH2 2371   0.267   2.561   6.309 -0.2046  0.0342  0.4035
  809TIP3    H1 2372   0.361   2.575   6.297  0.3672 -3.0436  0.4201
  809TIP3    H2 2373   0.231   2.560   6.220  0.0116 -0.1836  0.3198
  810TIP3   OH2 2374   7.194   1.853   3.145  0.7208  0.0042 -0.1301
  810TIP3    H1 2375   7.162   1.891   3.063  0.6866 -1.2407 -0.7174
  810TIP3    H2 2376   7.252   1.782   3.118  4.3425  2.3455  0.8963
  811TIP3   OH2 2377   0.101   5.315   6.022 -0.0462 -0.6970  0.4975
  811TIP3    H1 2378   0.097   5.227   6.061 -0.1147 -0.5482  0.8342
  811TIP3    H2 2379   0.181   5.354   6.059  0.6980 -1.0861 -0.6720
  812TIP3   OH2 2380   5.434   6.476   0.988  0.7469 -0.1126 -0.5573
  812TIP3    H1 2381   5.415   6.384   1.007 -1.9747  0.3819 -0.4797
  812TIP3    H2 2382   5.481   6.475   0.905 -0.2589 -1.5585 -1.1492
  813TIP3   OH2 2383   0.471   7.584   1.922 -0.7400  0.4932  0.5337
  813TIP3    H1 2384   0.561   7.592   1.954 -0.8581  1.2251  0.7179
  813TIP3    H2 2385   0.441   7.499   1.953 -0.1390  0.2851  0.5459
  814TIP3   OH2 2386   5.279   2.304   0.503  0.3435 -0.6936  0.0961
  814TIP3    H1 2387   5.200   2.357   0.497  0.0778 -0.7194  2.6339
  814TIP3    H2 2388   5.257   2.222   0.458 -0.5396 -0.1308 -0.5143
  815TIP3   OH2 2389   0.337   6.798   1.540 -0.3261 -0.0627  0.0153
  815TIP3    H1 2390   0.252   6.766   1.510 -0.2417  0.0833 -0.3894
  815TIP3    H2 2391   0.345   6.764   1.629 -1.8455  1.8638  0.9429
  816TIP3   OH2 2392   7.816   7.495   0.682 -0.3709  0.6144  0.0658
  816TIP3    H1 2393   7.757   7.537   0.619  0.6129  0.9583 -0.6469
  816TIP3    H2 2394   7.762   7.481   0.760 -1.1035  1.9002 -0.1928
  817TIP3   OH2 2395   3.377   5.889   6.113 -0.0785 -0.1163 -0.0140
  817TIP3    H1 2396   3.426   5.903   6.195 -2.4130  1.5200  1.2230
  817TIP3    H2 2397   3.291   5.929   6.130 -1.0600 -0.8327 -2.8645
  818TIP3   OH2 2398   3.241   3.716   0.422 -0.0399  0.3122 -0.0759
  818TIP3    H1 2399   3.282   3.721   0.508  0.0046 -0.1114 -0.0679
  818TIP3    H2 2400   3.189   3.796   0.415  0.0004  0.3751  0.3235
  819TIP3   OH2 2401   6.088   6.593   2.019  0.3466  0.1344  0.2796
  819TIP3    H1 2402   6.012   6.547   1.984  0.2110  0.0730  0.6459
  819TIP3    H2 2403   6.129   6.530   2.079  0.4647  0.3016  0.3758
  820TIP3   OH2 2404   0.889   2.399   2.649  0.3009  0.6545 -0.1111
  820TIP3    H1 2405   0.849   2.381   2.733  0.3261  1.5122  0.0966
  820TIP3    H2 2406   0.861   2.488   2.627  0.1808  0.3914 -1.0742
  821TIP3   OH2 2407   1.330   1.885   1.361  0.1913  0.1969 -0.1092
  821TIP3    H1 2408   1.326   1.850   1.272 -1.9295  0.4312 -0.1666
  821TIP3    H2 2409   1.384   1.823   1.410  0.4812 -0.5152 -1.3122
  822TIP3   OH2 2410   5.377   5.549   2.445  0.5239  0.9395 -0.0759
  822TIP3    H1 2411   5.331   5.465   2.447 -0.4739  1.4835  1.5406
  822TIP3    H2 2412   5.354   5.587   2.360  0.1589  0.0329 -0.3917
  823TIP3   OH2 2413   3.107   2.449   5.529 -0.7853  0.1115 -0.3966
  823TIP3    H1 2414   3.029   2.496   5.500 -2.1305 -1.1080  1.0600
  823TIP3    H2 2415   3.079   2.357   5.535  0.5844 -0.2701  0.7060
  824TIP3   OH2 2416   7.248   2.593   3.816  0.1978 -0.4040 -0.0250
  824TIP3    H1 2417   7.287   2.555   3.894  1.9927  2.2174  0.4818
  824TIP3    H2 2418   7.323   2.619   3.762 -0.7775  2.8789 -0.0195
  825TIP3   OH2 2419   3.454   6.349   4.855 -0.2394 -0.0870 -0.2648
  825TIP3    H1 2420   3.372   6.358   4.904  0.0469  0.0481  0.1966
  825TIP3    H2 2421   3.430   6.367   4.764 -0.3237  2.0740  0.1401
  826TIP3   OH2 2422   1.082   2.769   5.897  0.2188 -0.1922  0.1779
  826TIP3    H1 2423   1.143   2.827   5.852  0.6218 -1.4212 -0.9404
  826TIP3    H2 2424   1.126   2.748   5.980  1.4416 -1.1973 -0.6849
  827TIP3   OH2 2425   0.618   2.601   1.720 -0.5069  0.0723 -0.4897
  827TIP3    H1 2426   0.639   2.647   1.639 -1.9825  1.0935 -0.3259
  827TIP3    H2 2427   0.620   2.670   1.787  1.3351 -0.8614  0.4906
  828TIP3   OH2 2428   7.164   6.694   2.258 -0.0246 -0.0658 -0.5009
  828TIP3    H1 2429   7.162   6.642   2.339  0.0853 -0.0882 -0.5126
  828TIP3    H2 2430   7.090   6.754   2.266 -0.0706 -0.1325 -0.4257
  829TIP3   OH2 2431   0.962   6.342   3.638 -0.1162  0.0925  0.1743
  829TIP3    H1 2432   0.981   6.297   3.720 -0.7009  1.2389  0.9599
  829TIP3    H2 2433   0.990   6.432   3.653 -1.6392  0.6728 -0.3336
  830TIP3   OH2 2434   7.306   0.860   2.335 -0.0891  0.1190  0.0821
  830TIP3    H1 2435   7.326   0.781   2.386  1.9094  1.5543  1.7137
  830TIP3    H2 2436   7.228   0.896   2.376 -2.3966 -2.0074 -2.0539
  831TIP3   OH2 2437   1.408   7.157   3.714  0.4395  0.3904  0.0853
  831TIP3    H1 2438   1.362   7.076   3.692  0.0253  0.1648  1.6752
  831TIP3    H2 2439   1.500   7.138   3.697  0.5689 -1.0363  1.9985
  832TIP3   OH2 2440   7.698   3.933   1.465  0.3743 -0.4535 -0.4766
  832TIP3    H1 2441   7.757   3.996   1.507  0.2471 -1.2450  0.9457
  832TIP3    H2 2442   7.612   3.954   1.502  0.5650 -2.4304  1.2668
  833TIP3   OH2 2443   1.990   1.401   0.628 -0.4704  0.1136  0.3403
  833TIP3    H1 2444   1.981   1.488   0.665  0.8357  2.1717 -3.6492
  833TIP3    H2 2445   2.078   1.373   0.653  1.0279  2.1624 -2.0961
  834TIP3   OH2 2446   6.291   2.244   4.356 -0.4031  0.5869 -0.5399
  834TIP3    H1 2447   6.216   2.284   4.399  0.7469  1.9012  0.3471
  834TIP3    H2 2448   6.313   2.304   4.285  0.2058  0.5745 -0.3706
  835TIP3   OH2 2449   1.420   5.357   4.578 -0.3106  0.2517 -0.6521
  835TIP3    H1 2450   1.366   5.291   4.535 -1.0891  1.3301 -1.4035
  835TIP3    H2 2451   1.484   5.307   4.629 -0.4804 -1.0628 -1.6797
  836TIP3   OH2 2452   1.608   5.222   4.763  0.0105 -0.0343 -0.4462
  836TIP3    H1 2453   1.697   5.191   4.749 -0.4610 -2.2280  0.9089
  836TIP3    H2 2454   1.584   5.187   4.849 -0.6355  4.2778  1.3526
  837TIP3   OH2 2455   5.275   7.469   5.875 -0.2052  0.1268  0.2781
  837TIP3    H1 2456   5.195   7.418   5.889  0.3961 -1.2554 -1.0983
  837TIP3    H2 2457   5.269   7.540   5.939 -1.2520 -1.4269  1.9924
  838TIP3   OH2 2458   2.559   4.100   0.432 -0.1018 -0.0261 -0.7190
  838TIP3    H1 2459   2.594   4.183   0.465  0.0245 -0.8130  1.2666
  838TIP3    H2 2460   2.632   4.061   0.384  0.5167  0.1225  0.0622
  839TIP3   OH2 2461   4.812   5.685   0.117 -0.3524  0.6942  0.3501
  839TIP3    H1 2462   4.809   5.589   0.117  1.3422  0.6171 -0.3087
  839TIP3    H2 2463   4.759   5.710   0.193 -0.0305 -0.7900  1.1067
  840TIP3   OH2 2464   5.543   4.451   1.939 -0.3007  0.1060 -0.3014
  840TIP3    H1 2465   5.512   4.458   1.849 -1.3300 -1.2642 -0.0978
  840TIP3    H2 2466   5.570   4.540   1.963 -0.4239  0.5733 -1.7977
  841TIP3   OH2 2467   0.967   3.575   4.219  0.2873  0.4149 -0.3376
  841TIP3    H1 2468   0.981   3.488   4.184  0.9446  0.0235  0.8256
  841TIP3    H2 2469   0.922   3.623   4.150 -0.9633 -1.1221 -0.6194
  842TIP3   OH2 2470   0.039   4.693   6.571  0.5577 -0.0518 -0.1272
  842TIP3    H1 2471   0.071   4.729   6.653  0.5576 -1.0663  0.3347
  842TIP3    H2 2472  -0.014   4.763   6.533  0.4952  0.3991  0.7691
  843TIP3   OH2 2473   7.826   2.268   4.933  0.4819  0.3168 -0.7193
  843TIP3    H1 2474   7.743   2.222   4.945  0.2313  0.7120 -0.9190
  843TIP3    H2 2475   7.886   2.201   4.901 -0.1547  0.3621 -2.0443
  844TIP3   OH2 2476   2.142   3.203   0.387  0.2193  0.1683 -0.2143
  844TIP3    H1 2477   2.153   3.297   0.379  2.6382 -0.0853 -0.6713
  844TIP3    H2 2478   2.148   3.170   0.298 -1.5134 -0.3846 -0.1643
  845TIP3   OH2 2479   5.788   3.207   2.980  0.3263 -0.3755 -0.5388
  845TIP3    H1 2480   5.830   3.122   2.988  0.3183 -0.2017  2.1365
  845TIP3    H2 2481   5.753   3.225   3.067 -0.4545  1.9726 -1.2638
  846TIP3   OH2 2482   5.335   1.315   1.120 -0.4368 -0.2401  0.1882
  846TIP3    H1 2483   5.291   1.353   1.044  0.0838  0.8943  0.4204
  846TIP3    H2 2484   5.283   1.343   1.194 -0.0490  0.0362  0.3627
  847TIP3   OH2 2485   1.477   5.444   2.556 -0.0489 -0.5830  0.0936
  847TIP3    H1 2486   1.402   5.388   2.538  0.4782 -1.2795  0.0097
  847TIP3    H2 2487   1.548   5.382   2.577  0.0678  0.0873  1.8310
  848TIP3   OH2 2488   5.634   5.451   3.569  0.0265 -0.0964 -0.0260
  848TIP3    H1 2489   5.603   5.405   3.492  1.2881  0.9812 -1.2283
  848TIP3    H2 2490   5.652   5.540   3.539 -1.0965  0.8545  1.9200
  849TIP3   OH2 2491   5.894   1.179   5.390 -0.2407  0.4625  0.0109
  849TIP3    H1 2492   5.863   1.092   5.363  1.9738 -0.0966 -0.9738
  849TIP3    H2 2493   5.876   1.183   5.484  0.1265 -1.3034  0.1876
  850TIP3   OH2 2494   5.326   0.790   1.094 -0.2609  0.5467 -0.1494
  850TIP3    H1 2495   5.368   0.856   1.149 -1.0938  1.7512 -0.9058
  850TIP3    H2 2496   5.392   0.722   1.083  1.2259  1.9945 -0.6255
  851TIP3   OH2 2497   3.688   0.759   1.798  0.1529 -0.1389  0.3734
  851TIP3    H1 2498   3.607   0.791   1.839 -1.3850  1.0670 -3.2551
  851TIP3    H2 2499   3.757   0.812   1.839 -1.0844  0.1672  2.1878
  852TIP3   OH2 2500   1.461   7.450   0.044 -0.1072 -0.3483  0.4594
  852TIP3    H1 2501   1.468   7.545   0.051 -0.6692 -0.2561 -0.1474
  852TIP3    H2 2502   1.424   7.422   0.128 -0.7454  0.0633  0.3251
  853TIP3   OH2 2503   1.702   5.641   2.492 -0.7613 -0.1495  0.1426
  853TIP3    H1 2504   1.773   5.601   2.542  0.2186  1.2178 -0.0914
  853TIP3    H2 2505   1.624   5.628   2.546 -0.3358 -1.6105  0.4364
  854TIP3   OH2 2506   6.311   7.708   2.970  0.3812  0.3357  0.1458
  854TIP3    H1 2507   6.254   7.776   2.933  0.8686  0.4219 -0.4745
  854TIP3    H2 2508   6.370   7.755   3.029 -0.3782  0.2030  1.0252
  855TIP3   OH2 2509   2.829   7.286   0.302  0.6121 -0.1392  0.0487
  855TIP3    H1 2510   2.798   7.267   0.390  0.0908  0.3772 -0.0161
  855TIP3    H2 2511   2.807   7.208   0.251  0.5036 -0.2554  0.2718
  856TIP3   OH2 2512   2.006   5.065   5.687 -0.0384  0.1193 -0.2333
  856TIP3    H1 2513   2.050   5.078   5.603  2.3172  1.0113  1.0335
  856TIP3    H2 2514   2.046   4.985   5.722 -1.6407 -0.7492 -0.2748
  857TIP3   OH2 2515   6.810   0.880   4.133 -0.6205  0.5263  0.2799
  857TIP3    H1 2516   6.861   0.917   4.060  1.8665  0.1219  1.6947
  857TIP3    H2 2517   6.765   0.956   4.171  2.0003  1.7186  1.2746
  858TIP3   OH2 2518   5.672   2.479   0.248  0.3049  0.0009 -0.5441
  858TIP3    H1 2519   5.744   2.435   0.203  0.3231 -1.4780  0.8584
  858TIP3    H2 2520   5.596   2.463   0.192  0.3879 -1.5422 -0.2403
  859TIP3   OH2 2521   0.419   3.076   6.310  0.2984  0.5513 -0.0314
  859TIP3    H1 2522   0.492   3.077   6.248  0.4528 -0.6396  0.1205
  859TIP3    H2 2523   0.353   3.022   6.268 -0.5003  1.5921 -0.1481
  860TIP3   OH2 2524   4.034   6.106   1.601 -0.6683  0.2503  0.0228
  860TIP3    H1 2525   4.034   6.202   1.602  2.2034  0.3184 -0.1511
  860TIP3    H2 2526   3.956   6.083   1.551 -0.3053  2.5493 -1.7661
  861TIP3   OH2 2527   4.920   4.347   5.713  0.2820  0.4258 -0.7071
  861TIP3    H1 2528   4.923   4.357   5.808 -0.3936 -0.5384 -0.5717
  861TIP3    H2 2529   4.841   4.394   5.687  0.7011  1.0693 -0.8628
  862TIP3   OH2 2530   7.914   3.326   2.063 -0.0929 -0.2627 -0.3441
  862TIP3    H1 2531   7.951   3.239   2.077 -0.2303 -0.7713 -2.7697
  862TIP3    H2 2532   7.819   3.312   2.061 -0.1312  0.0062 -0.4533
  863TIP3   OH2 2533   4.205   2.137   1.692 -0.2669 -0.6673  0.7122
  863TIP3    H1 2534   4.219   2.143   1.597  0.8998 -2.3187  0.7374
  863TIP3    H2 2535   4.272   2.195   1.729 -1.2842  0.6738  0.5542
  864TIP3   OH2 2536   2.141   5.959   5.040  0.0533  0.0375  0.1374
  864TIP3    H1 2537   2.218   6.011   5.065 -0.0927  1.6278 -2.3426
  864TIP3    H2 2538   2.071   6.024   5.029 -1.3560 -1.2407  1.1641
  865TIP3   OH2 2539   1.101   0.991   3.293 -0.1114  0.0156  0.0656
  865TIP3    H1 2540   1.091   0.896   3.297 -0.4916  0.0712  0.5767
  865TIP3    H2 2541   1.176   1.005   3.236 -0.3436 -0.5741 -0.3864
  866TIP3   OH2 2542   1.416   0.217   5.292 -0.6406 -0.4858 -0.1427
  866TIP3    H1 2543   1.326   0.203   5.264 -1.1501  0.8620  0.7352
  866TIP3    H2 2544   1.455   0.272   5.224 -0.5956 -0.7313 -0.3170
  867TIP3   OH2 2545   2.660   0.470   3.470 -0.2097  0.3388 -0.2267
  867TIP3    H1 2546   2.566   0.457   3.481  0.1538 -0.6482  2.2110
  867TIP3    H2 2547   2.671   0.565   3.464 -1.3519  0.4581 -0.6807
  868TIP3   OH2 2548   7.395   4.539   0.624 -0.1084  0.1245  0.4648
  868TIP3    H1 2549   7.352   4.617   0.591  1.6570  0.6445 -0.7134
  868TIP3    H2 2550   7.438   4.567   0.705  1.9146  0.8987 -0.7937
  869TIP3   OH2 2551   5.819   0.000   5.696  0.1157  0.3563 -0.0515
  869TIP3    H1 2552   5.777   0.032   5.616  0.6417 -0.1948 -0.5539
  869TIP3    H2 2553   5.767   0.038   5.767  0.5125  2.0656 -0.6254
  870TIP3   OH2 2554   6.399   1.868   2.311 -0.8937  0.0576  0.4533
  870TIP3    H1 2555   6.447   1.924   2.251  2.6829 -0.9480  2.1246
  870TIP3    H2 2556   6.387   1.920   2.390  2.6590 -1.3306  2.1038
  871TIP3   OH2 2557   6.206   3.723   4.905  0.0804  0.4093 -0.0589
  871TIP3    H1 2558   6.121   3.761   4.881  0.4051  0.3949 -1.2913
  871TIP3    H2 2559   6.224   3.758   4.992 -0.3206  1.9171 -0.5546
  872TIP3   OH2 2560   1.532   2.390   5.895  0.4135  0.1606  0.2468
  872TIP3    H1 2561   1.495   2.471   5.930  0.5240  0.6756 -0.7918
  872TIP3    H2 2562   1.583   2.418   5.820  0.1615 -0.9124 -0.3416
  873TIP3   OH2 2563   3.627   1.786   5.420 -0.7053  0.4968  0.3333
  873TIP3    H1 2564   3.600   1.791   5.329  1.0019  0.3620 -0.2113
  873TIP3    H2 2565   3.554   1.825   5.469 -1.1173  1.7182 -1.1838
  874TIP3   OH2 2566   6.074   6.848   1.211  0.3925  0.5459 -0.3909
  874TIP3    H1 2567   6.139   6.902   1.257 -0.1024  1.0021 -0.2305
  874TIP3    H2 2568   6.074   6.766   1.260 -0.5698  1.2413  0.8281
  875TIP3   OH2 2569   6.890   4.850   4.500  0.1407  0.3204 -0.0376
  875TIP3    H1 2570   6.816   4.839   4.440  0.7906 -0.3810 -0.7181
  875TIP3    H2 2571   6.942   4.771   4.490  1.4493  1.1713 -0.1932
  876TIP3   OH2 2572   4.433   2.071   0.294 -0.5574 -0.4008  0.6654
  876TIP3    H1 2573   4.439   2.058   0.389  1.0030 -1.1203  0.5080
  876TIP3    H2 2574   4.459   1.987   0.256 -1.6269 -0.2659 -0.4082
  877TIP3   OH2 2575   7.629   5.396   0.802 -0.6954 -0.5251 -0.6604
  877TIP3    H1 2576   7.539   5.414   0.775 -1.7125 -2.5096  1.1257
  877TIP3    H2 2577   7.651   5.314   0.757  0.0214 -0.3361 -0.6542
  878TIP3   OH2 2578   5.507   5.355   6.495 -0.5437 -0.3479  0.1653
  878TIP3    H1 2579   5.573   5.381   6.558  0.0842  1.6357 -1.2312
  878TIP3    H2 2580   5.465   5.278   6.534  0.7795 -0.0521  2.2836
  879TIP3   OH2 2581   0.907   5.358   6.255  0.1211 -0.3359 -0.6594
  879TIP3    H1 2582   0.822   5.314   6.264  0.6782 -1.2427  0.5966
  879TIP3    H2 2583   0.960   5.320   6.326  1.1247  1.2694 -0.5195
  880TIP3   OH2 2584   2.249   1.991   3.122  0.2142  0.0087 -0.1698
  880TIP3    H1 2585   2.231   1.963   3.212 -0.7456 -0.2302 -0.4216
  880TIP3    H2 2586   2.219   1.918   3.068 -2.6551  1.5412 -0.8653
  881TIP3   OH2 2587   2.683   3.103   4.389 -0.1162  0.2781  0.0669
  881TIP3    H1 2588   2.667   3.010   4.404 -0.4039  0.2392 -0.4368
  881TIP3    H2 2589   2.697   3.109   4.294 -0.1897  0.7580  0.0844
  882TIP3   OH2 2590   3.901   1.829   2.361 -0.5393 -0.1236  0.1348
  882TIP3    H1 2591   3.807   1.839   2.349 -0.5277 -0.0223  0.1300
  882TIP3    H2 2592   3.911   1.797   2.451 -0.6479 -1.1707 -0.2066
  883TIP3   OH2 2593   3.652   0.608   3.846 -0.1699  0.1241  0.1948
  883TIP3    H1 2594   3.673   0.695   3.811 -0.5405  0.6015  1.1237
  883TIP3    H2 2595   3.732   0.557   3.835  0.1620  0.6912 -0.0384
  884TIP3   OH2 2596   4.871   4.131   6.204 -0.2125 -0.0532  0.5876
  884TIP3    H1 2597   4.819   4.057   6.173  0.6029 -0.6452  0.5977
  884TIP3    H2 2598   4.928   4.094   6.271  0.4495  0.5102  0.3488
  885TIP3   OH2 2599   1.473   2.439   2.078 -0.0438 -0.9373 -0.1794
  885TIP3    H1 2600   1.516   2.441   2.163  0.6843  2.2974 -0.4918
  885TIP3    H2 2601   1.405   2.506   2.083 -2.0229 -2.7013 -1.2705
  886TIP3   OH2 2602   3.430   3.357   5.723 -0.2051 -0.0073 -0.6375
  886TIP3    H1 2603   3.464   3.404   5.646 -0.3106 -2.7553 -2.5198
  886TIP3    H2 2604   3.496   3.372   5.791  0.6564  1.3244 -1.6935
  887TIP3   OH2 2605   6.987   2.594   3.174 -0.3468  0.2907 -0.0930
  887TIP3    H1 2606   7.036   2.512   3.168 -0.5353  0.1302  0.4998
  887TIP3    H2 2607   7.011   2.643   3.095 -0.9758 -0.7472 -0.9496
  888TIP3   OH2 2608   8.302   6.608   6.557 -0.6726  0.1993 -0.2975
  888TIP3    H1 2609   8.227   6.664   6.541 -0.5663  0.1103 -1.1419
  888TIP3    H2 2610   8.346   6.601   6.472  1.7334  2.2909  0.6603
  889TIP3   OH2 2611   3.342   5.121   5.343  0.3481  1.0415  0.0505
  889TIP3    H1 2612   3.313   5.059   5.410  0.8330  0.1452 -0.5564
  889TIP3    H2 2613   3.423   5.159   5.379  0.1397  1.2110  0.3490
  890TIP3   OH2 2614   4.772   2.986   6.274 -0.1075 -0.1270 -0.2085
  890TIP3    H1 2615   4.754   2.902   6.316  0.0862  0.3555  0.8668
  890TIP3    H2 2616   4.689   3.032   6.276 -0.1834 -0.2372 -0.6870
  891TIP3   OH2 2617   5.832   3.357   3.725  0.7688  0.3545 -0.0596
  891TIP3    H1 2618   5.811   3.441   3.685  0.3259 -1.1137 -3.2176
  891TIP3    H2 2619   5.747   3.323   3.755  0.3264 -0.4593 -2.0864
  892TIP3   OH2 2620   6.510   2.070   0.873 -0.7000 -0.8201 -0.3509
  892TIP3    H1 2621   6.556   2.049   0.954 -1.9494 -0.0293  0.5862
  892TIP3    H2 2622   6.455   1.994   0.856  0.1810 -1.3486 -0.9467
  893TIP3   OH2 2623   1.213   6.095   0.563 -0.1938  0.2323  0.2596
  893TIP3    H1 2624   1.272   6.069   0.634  0.2720 -1.4079 -0.6676
  893TIP3    H2 2625   1.126   6.089   0.602  0.0607 -0.5376  0.7518
  894TIP3   OH2 2626   2.329   1.114   4.133  0.0191 -0.5120 -0.4203
  894TIP3    H1 2627   2.293   1.072   4.212  0.0858 -1.3272 -0.8140
  894TIP3    H2 2628   2.409   1.065   4.114  0.5453  0.3394 -0.4132
  895TIP3   OH2 2629   4.932   2.260   0.916  0.7129  0.2728  0.6483
  895TIP3    H1 2630   4.909   2.253   0.824 -1.0317 -0.9164  1.1314
  895TIP3    H2 2631   5.028   2.260   0.917  0.7890 -1.9120 -1.0515
  896TIP3   OH2 2632   5.105   5.534   4.067 -0.1638  0.4172 -0.1695
  896TIP3    H1 2633   5.029   5.525   4.010 -0.4508  0.3205  0.2177
  896TIP3    H2 2634   5.162   5.461   4.042 -0.3377  0.3097 -0.2557
  897TIP3   OH2 2635   3.719   1.358   6.482  0.2009 -0.3386 -0.0323
  897TIP3    H1 2636   3.626   1.372   6.500  0.6029  0.0745  1.9348
  897TIP3    H2 2637   3.758   1.446   6.489  0.8917 -0.6587  0.1943
  898TIP3   OH2 2638   5.755   1.612   0.987  0.0164 -0.2374 -0.2284
  898TIP3    H1 2639   5.728   1.682   1.047 -0.2945  0.5732 -1.2865
  898TIP3    H2 2640   5.744   1.532   1.037 -0.1156  0.4318  0.8408
  899TIP3   OH2 2641   7.079   4.896   4.961 -0.4897  0.3099 -0.4764
  899TIP3    H1 2642   7.005   4.869   4.907 -1.2748  0.0801  0.6764
  899TIP3    H2 2643   7.040   4.942   5.035  0.5907  1.0830 -0.3568
  900TIP3   OH2 2644   4.318   4.072   4.133  0.5171 -0.4521  0.0315
  900TIP3    H1 2645   4.294   4.007   4.199 -0.0961 -0.7052 -0.4288
  900TIP3    H2 2646   4.261   4.147   4.150 -0.1257 -0.7817 -0.6280
  901TIP3   OH2 2647   1.942   3.043   0.440 -0.1875 -0.1498 -0.1747
  901TIP3    H1 2648   1.873   3.089   0.487 -0.6403  0.6041 -1.5060
  901TIP3    H2 2649   2.005   3.111   0.416 -0.4132 -0.3346 -1.3922
  902TIP3   OH2 2650   7.976   3.206   1.809  0.3918  0.5344 -0.0998
  902TIP3    H1 2651   7.902   3.187   1.751  0.3757  0.3107 -0.0081
  902TIP3    H2 2652   7.953   3.290   1.850 -1.0575 -0.7228  1.8764
  903TIP3   OH2 2653   1.016   3.162   0.061  0.2462 -0.3771  0.0370
  903TIP3    H1 2654   1.094   3.203   0.098  0.2785 -1.3950  1.1337
  903TIP3    H2 2655   1.032   3.068   0.067 -1.4439 -0.6326  1.1437
  904TIP3   OH2 2656   8.216   4.009   5.789 -0.3092  0.3172  0.4699
  904TIP3    H1 2657   8.250   4.040   5.873 -0.9921  0.7529  0.5941
  904TIP3    H2 2658   8.280   4.040   5.725 -0.3455  0.9179  0.7201
  905TIP3   OH2 2659   4.816   0.392   1.754  0.0980  0.1250 -0.0127
  905TIP3    H1 2660   4.898   0.418   1.795  0.2035 -1.1615  0.6549
  905TIP3    H2 2661   4.771   0.474   1.733  1.5772  0.8456 -0.4664
  906TIP3   OH2 2662   7.944   0.794   1.750 -0.7087  0.1942  0.2589
  906TIP3    H1 2663   7.974   0.812   1.839 -1.8516  0.2205  0.6619
  906TIP3    H2 2664   7.959   0.701   1.737 -2.0048 -0.1637  1.0987
  907TIP3   OH2 2665   5.573   1.034   3.536 -0.6669 -0.2248  0.2362
  907TIP3    H1 2666   5.571   1.095   3.463 -0.8928  0.6695  0.9623
  907TIP3    H2 2667   5.631   0.964   3.508  0.7998  1.0559 -0.0599
  908TIP3   OH2 2668   3.337   4.906   4.677 -0.2707  0.4889 -0.0522
  908TIP3    H1 2669   3.317   4.816   4.651  0.9024  0.3504 -0.5799
  908TIP3    H2 2670   3.338   4.954   4.595  0.5262  0.6753  0.0592
  909TIP3   OH2 2671   1.905   2.746   6.024 -0.5318 -0.0613 -0.3923
  909TIP3    H1 2672   1.907   2.666   5.971 -0.0919  0.1519 -0.7030
  909TIP3    H2 2673   1.912   2.817   5.961 -0.6685  0.2191 -0.0975
  910TIP3   OH2 2674   6.661   3.518   5.050 -0.1764  0.6432 -0.3937
  910TIP3    H1 2675   6.656   3.607   5.086 -0.2185  0.4437  0.0979
  910TIP3    H2 2676   6.745   3.516   5.004 -0.2882  1.0148 -0.6226
  911TIP3   OH2 2677   6.767   0.455   1.581 -0.6569 -0.1168  0.7574
  911TIP3    H1 2678   6.837   0.513   1.612 -2.3678  2.2832  0.3929
  911TIP3    H2 2679   6.729   0.501   1.507 -2.0573 -1.8051  0.3619
  912TIP3   OH2 2680   7.730   3.066   4.668 -0.0403  0.3332 -0.4985
  912TIP3    H1 2681   7.699   3.078   4.758  1.7035  2.5562 -0.1118
  912TIP3    H2 2682   7.652   3.078   4.614 -0.6632  1.5017  0.6241
  913TIP3   OH2 2683   5.152   6.720   2.549  0.0708  0.1022  0.6622
  913TIP3    H1 2684   5.154   6.715   2.454 -0.6289  0.8208  0.5971
  913TIP3    H2 2685   5.214   6.653   2.579  0.8344  0.3643 -0.3068
  914TIP3   OH2 2686   7.441   1.892   4.671  0.0739  0.0803  0.0020
  914TIP3    H1 2687   7.369   1.832   4.690  0.9286 -0.4639  1.7284
  914TIP3    H2 2688   7.466   1.872   4.581 -0.0660 -1.7558  0.3344
  915TIP3   OH2 2689   6.805   3.752   6.090 -0.4280  0.2045  0.4215
  915TIP3    H1 2690   6.791   3.721   6.000 -1.9099  0.7813  0.4191
  915TIP3    H2 2691   6.782   3.677   6.145  1.4986 -0.4926  0.3252
  916TIP3   OH2 2692   1.129   7.178   0.359  0.5984  0.4117  0.1582
  916TIP3    H1 2693   1.091   7.252   0.406  0.5173 -0.1704  1.0207
  916TIP3    H2 2694   1.056   7.117   0.347  0.6983  0.4020 -0.4205
  917TIP3   OH2 2695   6.928   3.487   1.904 -0.1213  0.1055  0.1193
  917TIP3    H1 2696   6.843   3.494   1.947  0.0933  1.7862  0.3602
  917TIP3    H2 2697   6.991   3.505   1.974  0.4605 -1.2727 -0.0222
  918TIP3   OH2 2698   2.180   7.336   4.850 -0.3735 -0.5820 -0.2195
  918TIP3    H1 2699   2.241   7.397   4.891 -0.6256  0.0683 -0.7821
  918TIP3    H2 2700   2.106   7.330   4.910 -1.3345  1.3756 -1.1189
  919TIP3   OH2 2701   7.915   1.258  -0.020 -0.5035 -1.0622  0.1961
  919TIP3    H1 2702   7.844   1.289   0.037 -0.6478 -1.4334  0.2183
  919TIP3    H2 2703   7.970   1.204   0.036 -0.3299 -0.9627  0.1223
  920TIP3   OH2 2704   4.994   5.498   6.741  0.2432  0.1339 -0.1742
  920TIP3    H1 2705   5.090   5.494   6.735  0.2673  1.2487 -0.8060
  920TIP3    H2 2706   4.976   5.586   6.773 -0.5074 -0.7816  2.1106
  921TIP3   OH2 2707   1.681   2.058   4.416  0.1232  0.1472 -0.0342
  921TIP3    H1 2708   1.718   2.041   4.329 -0.5012 -0.8225 -0.1208
  921TIP3    H2 2709   1.590   2.082   4.400 -0.4822 -1.6749  0.4254
  922TIP3   OH2 2710   4.006   3.079   0.766  0.0938  0.0751 -0.6415
  922TIP3    H1 2711   3.953   3.139   0.819 -0.3996 -0.4881 -0.4870
  922TIP3    H2 2712   3.942   3.023   0.722  0.5589 -1.1663  0.2086
  923TIP3   OH2 2713   0.551   6.074   4.733 -0.0723 -0.6050  0.3164
  923TIP3    H1 2714   0.482   6.139   4.721  0.3735  1.1397  5.0829
  923TIP3    H2 2715   0.510   6.005   4.786  1.6124  0.4429  3.2058
  924TIP3   OH2 2716   4.918   4.112   5.560 -0.4397 -0.4450 -0.1060
  924TIP3    H1 2717   4.830   4.143   5.582 -0.5242 -1.0346  0.4068
  924TIP3    H2 2718   4.975   4.187   5.578 -0.8139 -0.1085 -0.2990
  925TIP3   OH2 2719   7.616   2.836   4.989  0.3335  0.0034 -0.1514
  925TIP3    H1 2720   7.704   2.838   4.950  0.2989  0.8532 -0.2040
  925TIP3    H2 2721   7.624   2.777   5.064  0.7528 -0.5436 -0.6211
  926TIP3   OH2 2722   5.676   6.453   2.091 -0.5461 -0.8719  0.1932
  926TIP3    H1 2723   5.701   6.546   2.089  1.0811 -1.2847 -1.2877
  926TIP3    H2 2724   5.581   6.453   2.077 -0.7227  0.5920  1.1479
  927TIP3   OH2 2725   3.850   1.609   3.748  0.9627 -0.5256  0.3079
  927TIP3    H1 2726   3.855   1.681   3.811  0.9483 -1.3181  1.2452
  927TIP3    H2 2727   3.796   1.544   3.791 -0.3791 -0.4620 -1.2005
  928TIP3   OH2 2728   6.096   1.903   3.476  0.4321 -0.5861  0.0511
  928TIP3    H1 2729   6.189   1.892   3.495  0.3035 -0.1493  0.9815
  928TIP3    H2 2730   6.084   1.998   3.470 -0.1943 -0.5759  1.2238
  929TIP3   OH2 2731   1.737   6.279   2.783  0.9025  0.2677  0.4885
  929TIP3    H1 2732   1.664   6.340   2.778  0.2405 -0.5513 -0.0292
  929TIP3    H2 2733   1.812   6.334   2.806  0.8271  1.7162 -2.3368
  930TIP3   OH2 2734   0.538   0.334   2.128  0.2040  0.2197  0.1884
  930TIP3    H1 2735   0.620   0.318   2.175 -0.2890  0.2339  1.0700
  930TIP3    H2 2736   0.542   0.275   2.053  0.4351 -0.7685  0.9545
  931TIP3   OH2 2737   5.405   2.831   3.243 -0.3679  0.1133  0.1257
  931TIP3    H1 2738   5.425   2.752   3.294 -0.3786  0.7396  1.1382
  931TIP3    H2 2739   5.488   2.853   3.201 -0.5637 -0.8801 -0.8163
  932TIP3   OH2 2740   6.944   3.893   3.684 -0.0235 -0.1483 -0.1904
  932TIP3    H1 2741   6.888   3.844   3.623 -1.6301  1.7897 -0.3942
  932TIP3    H2 2742   7.005   3.940   3.627 -0.1443  0.0378 -0.1662
  933TIP3   OH2 2743   3.062   2.151   1.456  0.0993  0.1097 -0.2663
  933TIP3    H1 2744   3.081   2.075   1.511 -0.0111  0.6441  0.5286
  933TIP3    H2 2745   3.010   2.209   1.512  0.5010  0.9378 -0.7314
  934TIP3   OH2 2746   0.484   6.679   2.359 -0.3949  0.2552 -0.0181
  934TIP3    H1 2747   0.521   6.753   2.407  1.4160  0.8099 -2.0848
  934TIP3    H2 2748   0.391   6.682   2.377 -0.2512  2.5688  0.6040
  935TIP3   OH2 2749   1.831   6.870   3.699 -0.1934  0.2318  0.9645
  935TIP3    H1 2750   1.833   6.784   3.657 -1.3348  0.0752  1.1974
  935TIP3    H2 2751   1.843   6.852   3.792 -0.0042  0.3670  0.9679
  936TIP3   OH2 2752   2.861   6.044   3.964 -0.6439  0.5222  0.5090
  936TIP3    H1 2753   2.873   6.025   3.871 -0.7458 -0.5504  0.7098
  936TIP3    H2 2754   2.768   6.061   3.973 -0.5306  1.3040  0.3053
  937TIP3   OH2 2755   1.584   4.085   1.598  0.1643 -0.0578  0.5748
  937TIP3    H1 2756   1.563   4.179   1.594 -1.0206 -0.3326  0.0956
  937TIP3    H2 2757   1.656   4.075   1.536 -0.3971  0.3634 -0.1640
  938TIP3   OH2 2758   5.577   5.905   0.285 -0.2682 -0.1519  0.5815
  938TIP3    H1 2759   5.516   5.831   0.280 -1.6467  1.0172 -1.8200
  938TIP3    H2 2760   5.521   5.982   0.272  1.6649  0.9913 -1.5223
  939TIP3   OH2 2761   1.667   1.812   4.580  0.5187 -0.3381  0.4681
  939TIP3    H1 2762   1.683   1.879   4.513  1.3666 -0.5481  0.4542
  939TIP3    H2 2763   1.602   1.754   4.541  1.2197 -0.6240 -0.2943
  940TIP3   OH2 2764   2.384   3.786   4.324 -0.2863 -0.0118 -0.1746
  940TIP3    H1 2765   2.320   3.857   4.329 -0.5495 -0.2227 -0.4721
  940TIP3    H2 2766   2.339   3.716   4.277  0.0273 -0.3151 -0.0308
  941TIP3   OH2 2767   2.610   1.486   5.930  0.8015 -0.0762  0.2907
  941TIP3    H1 2768   2.672   1.549   5.893  2.0035 -0.8763  0.8628
  941TIP3    H2 2769   2.658   1.444   6.001 -0.2396 -1.0865  0.4288
  942TIP3   OH2 2770   3.018   7.705   0.878 -0.0783  0.2086 -0.5048
  942TIP3    H1 2771   2.933   7.662   0.882 -0.8695  1.6616 -1.0308
  942TIP3    H2 2772   3.039   7.708   0.784 -1.8019  4.1110 -0.9622
  943TIP3   OH2 2773   0.178   1.137   3.716 -0.0539 -0.5194 -0.3339
  943TIP3    H1 2774   0.086   1.148   3.739 -0.0556  0.8136 -0.8758
  943TIP3    H2 2775   0.223   1.133   3.800 -0.5039 -0.0487 -0.0599
  944TIP3   OH2 2776   7.225   7.042   3.653  0.5380 -0.2488 -0.3477
  944TIP3    H1 2777   7.222   7.072   3.562  0.9034 -1.9333 -0.9572
  944TIP3    H2 2778   7.152   7.087   3.696  1.1474  1.5732 -1.1248
  945TIP3   OH2 2779   0.233  -0.000   4.377 -0.0715 -0.0363 -0.4449
  945TIP3    H1 2780   0.269  -0.052   4.449  0.3637 -0.2772 -0.8330
  945TIP3    H2 2781   0.292   0.075   4.369 -1.1156  0.9440  0.6090
  946TIP3   OH2 2782   8.003   7.251   4.995 -0.8183  0.5478  0.2172
  946TIP3    H1 2783   7.919   7.254   4.949 -0.7846 -1.4603 -0.0848
  946TIP3    H2 2784   8.067   7.282   4.931 -0.8143 -1.9204 -1.0965
  947TIP3   OH2 2785   2.965   2.640   3.637  0.1725 -0.3966 -0.1818
  947TIP3    H1 2786   3.009   2.720   3.611  0.2133 -0.5131 -0.4676
  947TIP3    H2 2787   2.886   2.636   3.583 -0.8770  0.4731  1.2137
  948TIP3   OH2 2788   5.118   3.859   2.494  0.2906 -0.3041  0.4058
  948TIP3    H1 2789   5.082   3.812   2.419  0.7060  0.6422 -0.4107
  948TIP3    H2 2790   5.051   3.852   2.561 -0.5173 -0.3461 -0.3826
  949TIP3   OH2 2791   5.311   6.991   5.884 -0.1247 -0.3010 -0.3486
  949TIP3    H1 2792   5.378   7.017   5.948  0.5072 -0.6547 -0.8506
  949TIP3    H2 2793   5.359   6.942   5.818 -1.0383 -1.3820 -0.2427
  950TIP3   OH2 2794   6.296   7.489   0.454  0.3671 -0.0047  0.0866
  950TIP3    H1 2795   6.329   7.399   0.456  0.5688 -0.0225  3.9716
  950TIP3    H2 2796   6.200   7.478   0.456  0.3737 -0.1223 -0.1954
  951TIP3   OH2 2797   0.597   0.975   2.021 -0.2247 -0.0297 -0.2774
  951TIP3    H1 2798   0.510   0.980   1.982  0.2996 -0.1157 -1.5046
  951TIP3    H2 2799   0.644   1.049   1.982  0.9401 -1.3358 -1.4132
  952TIP3   OH2 2800   3.484   3.850   0.937  0.0894 -0.5309 -0.1127
  952TIP3    H1 2801   3.453   3.760   0.937 -0.2748 -0.4498  1.7722
  952TIP3    H2 2802   3.561   3.849   0.995  1.2881  0.0222 -1.6328
  953TIP3   OH2 2803   2.398   2.653   1.463 -0.0653  0.0044 -0.3324
  953TIP3    H1 2804   2.356   2.581   1.511  0.7700  0.6276  1.4217
  953TIP3    H2 2805   2.428   2.612   1.382 -0.4859 -1.4012  0.1806
  954TIP3   OH2 2806   1.795   6.554   0.956 -0.3094 -0.0606 -0.2366
  954TIP3    H1 2807   1.745   6.608   0.895  0.0256  1.2128  0.5682
  954TIP3    H2 2808   1.729   6.510   1.009 -0.5907 -0.2946 -0.7788
  955TIP3   OH2 2809   7.441   0.614   6.328 -0.0838  0.3605  0.3567
  955TIP3    H1 2810   7.368   0.663   6.291  0.5991  1.5828  0.5827
  955TIP3    H2 2811   7.401   0.557   6.394 -0.8478  0.9135  0.3773
  956TIP3   OH2 2812   5.060   2.860   4.675 -0.0258 -0.1565 -0.7153
  956TIP3    H1 2813   5.059   2.953   4.650 -0.0281 -0.1903 -0.8436
  956TIP3    H2 2814   4.997   2.819   4.616 -1.7810  0.1434  0.8699
  957TIP3   OH2 2815   4.053   4.481   1.209 -0.0380  0.1773 -0.4650
  957TIP3    H1 2816   4.124   4.525   1.255 -1.5306  1.0718  1.0762
  957TIP3    H2 2817   4.096   4.410   1.161  1.8550  0.5474  0.5986
  958TIP3   OH2 2818   2.968   4.810   4.936  0.2686  0.0911  0.0997
  958TIP3    H1 2819   3.032   4.875   4.909  0.3182  0.0507  0.1200
  958TIP3    H2 2820   2.895   4.821   4.875  0.1016  0.4400  0.3580
  959TIP3   OH2 2821   4.016   3.294   3.844  0.3641 -0.2672  0.5759
  959TIP3    H1 2822   4.021   3.383   3.811  0.4166 -0.6515 -0.4968
  959TIP3    H2 2823   4.046   3.239   3.771 -1.7795 -1.3341  0.4049
  960TIP3   OH2 2824   8.295   6.512   0.676 -0.4463  0.3658 -0.1112
  960TIP3    H1 2825   8.240   6.564   0.735  0.5844  2.1059 -0.5898
  960TIP3    H2 2826   8.240   6.496   0.599 -0.8164  0.6910  0.0864
  961TIP3   OH2 2827   4.389   3.408   0.141 -0.4950  0.4796  0.2369
  961TIP3    H1 2828   4.475   3.437   0.173 -0.5307 -1.1955  2.0564
  961TIP3    H2 2829   4.336   3.399   0.220 -1.2649 -1.8422 -0.4503
  962TIP3   OH2 2830   6.945   2.988   6.239 -0.3073  0.4532 -0.2866
  962TIP3    H1 2831   6.897   2.998   6.157 -2.6275  0.3365  0.9628
  962TIP3    H2 2832   6.996   2.908   6.228 -1.4073 -0.1394 -1.2303
  963TIP3   OH2 2833   2.109   3.454   0.103  0.7617  0.1223  0.2829
  963TIP3    H1 2834   2.025   3.438   0.059  0.8211  0.1854  0.1465
  963TIP3    H2 2835   2.086   3.459   0.196  0.2157  2.6686  0.0728
  964TIP3   OH2 2836   4.908   2.593   0.771  0.1004  0.6513  0.3228
  964TIP3    H1 2837   4.953   2.610   0.853 -1.1310  1.7168  0.8200
  964TIP3    H2 2838   4.956   2.644   0.706  2.3337 -1.7825 -0.0873
  965TIP3   OH2 2839   4.178   3.650   1.216  0.2313 -0.8050 -0.0610
  965TIP3    H1 2840   4.210   3.737   1.194 -1.9106 -0.4653 -2.2261
  965TIP3    H2 2841   4.251   3.609   1.262  1.4549  1.9481  0.6600
  966TIP3   OH2 2842   6.947   0.227   6.662  0.5403 -0.1862  0.1519
  966TIP3    H1 2843   6.934   0.310   6.709 -0.5504  0.2857 -0.9161
  966TIP3    H2 2844   6.863   0.211   6.620  1.1551 -1.1549 -0.7378
  967TIP3   OH2 2845   1.264   0.272   4.000 -0.1278 -0.0418  0.2099
  967TIP3    H1 2846   1.349   0.305   3.969  1.3257 -1.2813  2.5117
  967TIP3    H2 2847   1.227   0.344   4.050  0.2169  0.0865  0.2868
  968TIP3   OH2 2848   1.085   6.959   1.124  0.2052  0.3214 -0.1598
  968TIP3    H1 2849   1.023   6.930   1.191  0.0797  0.9796  0.0106
  968TIP3    H2 2850   1.154   7.004   1.172 -0.7408  2.3114 -0.5809
  969TIP3   OH2 2851   5.429   0.626   3.506  0.0710  0.3331 -0.0027
  969TIP3    H1 2852   5.447   0.572   3.429 -0.7509 -4.1514  2.5935
  969TIP3    H2 2853   5.508   0.621   3.558 -1.7159 -3.3314  2.7539
  970TIP3   OH2 2854   7.375   2.144   3.088 -0.3881  0.1746 -0.0922
  970TIP3    H1 2855   7.325   2.066   3.113 -1.7980 -0.1831 -3.5023
  970TIP3    H2 2856   7.359   2.207   3.159 -1.1229 -1.7871  1.6020
  971TIP3   OH2 2857   5.304   3.862   5.959  0.3434  0.0724 -0.5714
  971TIP3    H1 2858   5.231   3.916   5.929  0.0530 -0.1221 -0.2281
  971TIP3    H2 2859   5.262   3.789   6.005  0.7631  0.9025  1.2186
  972TIP3   OH2 2860   8.020   6.037   3.173 -0.2681  0.1093 -0.0351
  972TIP3    H1 2861   8.098   6.076   3.213 -0.3586  0.8143 -0.5190
  972TIP3    H2 2862   7.988   5.974   3.237 -0.9499  1.8466  1.4209
  973TIP3   OH2 2863   4.537   5.586   2.823 -0.6953  0.0294  0.0197
  973TIP3    H1 2864   4.588   5.666   2.831  0.9701 -0.7132 -2.1788
  973TIP3    H2 2865   4.495   5.575   2.909  0.6416  2.1423  1.0140
  974TIP3   OH2 2866   1.281   2.150   1.133 -0.7590  0.0890  0.8310
  974TIP3    H1 2867   1.374   2.129   1.125 -0.5376  1.4897 -0.9715
  974TIP3    H2 2868   1.255   2.112   1.217  1.2329 -1.0308  1.0095
  975TIP3   OH2 2869   1.502   2.725   3.803  0.5237 -0.4320 -0.1660
  975TIP3    H1 2870   1.484   2.818   3.818  1.0191 -0.2625 -0.5884
  975TIP3    H2 2871   1.462   2.707   3.718  2.1790 -0.0793 -1.0578
  976TIP3   OH2 2872   2.907   5.321   5.843 -0.4281  0.5370  0.0441
  976TIP3    H1 2873   2.917   5.406   5.800 -1.9522  1.4232  1.3502
  976TIP3    H2 2874   2.938   5.335   5.933  0.0542 -0.5192  0.0672
  977TIP3   OH2 2875   4.304   0.041   5.741 -0.7581  0.0891  0.4039
  977TIP3    H1 2876   4.338   0.022   5.654 -1.6429 -2.4744  0.5185
  977TIP3    H2 2877   4.209   0.043   5.729 -0.8714 -0.0138  1.2436
  978TIP3   OH2 2878   2.893   4.289   4.967 -0.3769  0.6009 -0.3566
  978TIP3    H1 2879   2.810   4.242   4.974 -0.4387  0.3638 -2.1202
  978TIP3    H2 2880   2.929   4.289   5.056 -2.1925  0.6169  0.4196
  979TIP3   OH2 2881   4.537   5.278   0.830 -0.5218  0.6128 -0.1296
  979TIP3    H1 2882   4.477   5.219   0.783 -0.4561  0.3877  0.0673
  979TIP3    H2 2883   4.492   5.297   0.912  0.4750 -1.0365  0.8451
  980TIP3   OH2 2884   6.871   0.421   5.586  0.5092  0.1416 -0.1819
  980TIP3    H1 2885   6.914   0.363   5.650 -0.4720 -0.0485  0.3286
  980TIP3    H2 2886   6.779   0.394   5.587  0.1786  1.1969 -0.5087
  981TIP3   OH2 2887   0.636   0.064   3.211 -0.0819 -0.1236  0.4403
  981TIP3    H1 2888   0.657   0.138   3.154 -0.7085  0.2395  0.6766
  981TIP3    H2 2889   0.720   0.018   3.222  0.1029 -0.0445 -0.5461
  982TIP3   OH2 2890   3.508   6.932   2.237 -0.0407 -0.0904  0.0859
  982TIP3    H1 2891   3.579   6.873   2.263 -0.5571  0.1120  2.1093
  982TIP3    H2 2892   3.539   6.971   2.155  1.6686 -0.8389  0.3139
  983TIP3   OH2 2893   0.667   0.402   4.740 -0.8756  0.7043 -0.1384
  983TIP3    H1 2894   0.661   0.493   4.711 -0.1415  1.3750  1.6649
  983TIP3    H2 2895   0.761   0.385   4.748 -0.9610 -0.5654 -1.4120
  984TIP3   OH2 2896   2.174   6.249   0.510  0.2184 -0.6255 -0.4303
  984TIP3    H1 2897   2.086   6.255   0.548  0.8974 -0.5593  1.2233
  984TIP3    H2 2898   2.193   6.155   0.510  0.0910 -0.6550 -0.9536
  985TIP3   OH2 2899   5.934   1.840   1.182 -0.3124 -0.1280 -0.4148
  985TIP3    H1 2900   5.842   1.825   1.163  0.0500  0.3138 -2.8061
  985TIP3    H2 2901   5.976   1.843   1.096  2.1041 -1.2911  0.6289
  986TIP3   OH2 2902   6.002   6.945   0.574 -0.0331  0.0735  0.3709
  986TIP3    H1 2903   5.975   6.927   0.664 -1.6081  1.6926  0.2849
  986TIP3    H2 2904   5.921   6.940   0.523  0.5242  0.9823 -0.6475
  987TIP3   OH2 2905   3.637   0.061   6.154  0.9373  0.2265 -0.1380
  987TIP3    H1 2906   3.728   0.083   6.172  0.7311  0.3333  0.8499
  987TIP3    H2 2907   3.628  -0.031   6.180  0.9359 -0.0136 -0.9456
  988TIP3   OH2 2908   1.797   6.259   3.136  0.1981 -0.4099  0.4091
  988TIP3    H1 2909   1.875   6.248   3.190  0.8480  3.4981  0.5754
  988TIP3    H2 2910   1.825   6.236   3.048  1.5455  0.7580  0.5014
  989TIP3   OH2 2911   1.935   1.791   0.303  0.5187  0.5064 -0.7120
  989TIP3    H1 2912   1.984   1.839   0.371 -0.8054  0.8177  0.0503
  989TIP3    H2 2913   1.845   1.823   0.310 -0.1549 -1.1881 -1.0167
  990TIP3   OH2 2914   0.236   1.950   0.283 -0.0280 -0.0174 -0.4776
  990TIP3    H1 2915   0.320   1.938   0.238 -0.2342  1.4245 -1.3034
  990TIP3    H2 2916   0.227   2.044   0.294 -0.5965 -0.2532  1.4991
  991TIP3   OH2 2917   2.242   5.002   4.799  0.0634 -1.0530  0.3683
  991TIP3    H1 2918   2.266   5.070   4.736 -1.1214 -0.6970  0.2709
  991TIP3    H2 2919   2.244   4.921   4.748  0.0615 -0.8954  0.1128
  992TIP3   OH2 2920   6.894   5.185   5.385  0.0463  0.0751 -0.3736
  992TIP3    H1 2921   6.964   5.217   5.442 -2.4654  0.0139  3.0120
  992TIP3    H2 2922   6.865   5.263   5.337 -0.9392  1.3582  2.1301
  993TIP3   OH2 2923   8.002   1.496   1.855  0.4542 -0.0027 -0.0978
  993TIP3    H1 2924   7.955   1.559   1.801  0.4177  2.8490  2.9198
  993TIP3    H2 2925   7.934   1.435   1.885 -0.2480  0.7234 -0.1843
  994TIP3   OH2 2926   4.902   7.242   2.939 -0.0162 -0.7957 -0.3734
  994TIP3    H1 2927   4.836   7.252   3.007 -0.9460  0.0141 -1.3582
  994TIP3    H2 2928   4.878   7.161   2.893 -1.4404  0.3975 -1.8519
  995TIP3   OH2 2929   0.962   0.849   2.041 -0.6828 -0.2685 -0.5403
  995TIP3    H1 2930   0.867   0.843   2.047 -0.5854 -1.1671  0.6769
  995TIP3    H2 2931   0.993   0.816   2.126  0.6532  1.8494 -0.1398
  996TIP3   OH2 2932   1.118   3.051   6.590  0.4455 -0.2719 -0.8733
  996TIP3    H1 2933   1.184   3.028   6.656 -0.7479  0.4760  0.6329
  996TIP3    H2 2934   1.165   3.106   6.528  1.7922 -1.6409 -1.1351
  997TIP3   OH2 2935   1.891   2.658   0.488  0.0848 -0.9560 -0.3355
  997TIP3    H1 2936   1.947   2.585   0.462 -0.6574 -1.4006 -0.7286
  997TIP3    H2 2937   1.940   2.736   0.464  0.8284 -1.3222 -0.0350
  998TIP3   OH2 2938   1.753   7.524   3.423 -0.4036 -0.3821  0.5090
  998TIP3    H1 2939   1.774   7.607   3.466 -0.3782 -0.7697  1.2526
  998TIP3    H2 2940   1.798   7.530   3.338 -0.1640  0.2449  0.6692
  999TIP3   OH2 2941   2.070   2.964   6.669  0.0073  0.2829 -0.2009
  999TIP3    H1 2942   2.103   2.893   6.614 -1.6490 -0.9652  0.3402
  999TIP3    H2 2943   1.975   2.953   6.668 -0.3178  2.6837 -0.3216
 1000TIP3   OH2 2944   4.495   6.346   4.415 -0.0059  0.5833  0.4902
 1000TIP3    H1 2945   4.587   6.330   4.394 -0.2637  0.5168 -0.6495
 1000TIP3    H2 2946   4.481   6.438   4.392 -1.2425 -0.3839 -3.5235
 1001TIP3   OH2 2947   1.586   7.758   0.224  0.1416 -0.0547 -0.5780
 1001TIP3    H1 2948   1.508   7.811   0.205 -0.2161 -0.1681  0.4939
 1001TIP3    H2 2949   1.593   7.700   0.148 -0.2035  0.6522 -1.1771
 1002TIP3   OH2 2950   2.011   0.727   3.438 -0.1088  0.5974 -0.0221
 1002TIP3    H1 2951   2.015   0.752   3.346 -1.9613  0.0273 -0.2882
 1002TIP3    H2 2952   2.026   0.809   3.485 -0.5791  1.1648 -0.8329
 1003TIP3   OH2 2953   6.658   4.918   3.096  0.5379  0.0757 -0.2073
 1003TIP3    H1 2954   6.671   4.840   3.151 -0.1242 -0.1647 -0.3751
 1003TIP3    H2 2955   6.697   4.989   3.146  0.5850 -0.2630  0.2496
 1004TIP3   OH2 2956   0.567   2.626   3.388 -0.9408  0.3894 -0.0753
 1004TIP3    H1 2957   0.559   2.692   3.457  0.6829  0.0987  0.4573
 1004TIP3    H2 2958   0.611   2.553   3.431  1.1811  0.6401 -1.6310
 1005TIP3   OH2 2959   1.220   6.988   5.251 -0.1606 -0.5609  0.4793
 1005TIP3    H1 2960   1.144   7.038   5.222 -0.0096  0.2878  1.4950
 1005TIP3    H2 2961   1.295   7.033   5.211 -0.0717 -0.3336  0.8930
 1006TIP3   OH2 2962   4.535   2.376   4.972  0.0494  0.5738 -0.3270
 1006TIP3    H1 2963   4.521   2.465   5.005  2.4925  0.4422  1.3572
 1006TIP3    H2 2964   4.447   2.337   4.971 -0.8420  2.3863  0.8038
 1007TIP3   OH2 2965   8.274   4.982   2.209 -0.0182  0.2321  0.1818
 1007TIP3    H1 2966   8.184   4.965   2.180 -0.6719  2.7293  0.5190
 1007TIP3    H2 2967   8.285   4.925   2.285 -1.9996  1.1205  1.2284
 1008TIP3   OH2 2968   0.417   7.021   0.690 -0.3589  0.6749 -0.6969
 1008TIP3    H1 2969   0.334   7.006   0.643 -0.9736  0.3009  0.4711
 1008TIP3    H2 2970   0.438   6.935   0.727  0.4038  0.8425 -0.7451
 1009TIP3   OH2 2971   4.643   0.819   3.379  0.1816  0.1484  0.0670
 1009TIP3    H1 2972   4.712   0.877   3.346  0.7216 -0.2981  0.3893
 1009TIP3    H2 2973   4.571   0.830   3.317 -0.2380  2.1402  0.8289
 1010TIP3   OH2 2974   6.017   2.224   4.414  0.0237  0.2706 -0.6312
 1010TIP3    H1 2975   5.943   2.214   4.354  0.8843 -1.7677 -1.4275
 1010TIP3    H2 2976   6.034   2.136   4.446  1.8222  0.7749 -0.1049
 1011TIP3   OH2 2977   3.425   2.886   3.082 -0.7075 -0.2221 -0.1630
 1011TIP3    H1 2978   3.425   2.981   3.073  0.5711 -0.3002 -1.2274
 1011TIP3    H2 2979   3.439   2.853   2.993  0.3628 -1.3686  0.3972
 1012TIP3   OH2 2980   6.047   0.212   0.666 -0.1632 -0.4425  0.1287
 1012TIP3    H1 2981   6.002   0.286   0.707 -0.1228 -0.6035  0.4564
 1012TIP3    H2 2982   6.040   0.230   0.572 -2.0626 -1.1215  0.0901
 1013TIP3   OH2 2983   2.291   7.035   1.597  0.1941  0.0842  0.3801
 1013TIP3    H1 2984   2.378   7.057   1.565 -0.4664 -0.1715 -1.7485
 1013TIP3    H2 2985   2.295   6.942   1.616 -0.1047 -0.3714 -1.6061
 1014TIP3   OH2 2986   0.750   7.666   1.095  0.4289 -0.3334  0.2563
 1014TIP3    H1 2987   0.785   7.681   1.183 -1.2414 -3.2227  1.5816
 1014TIP3    H2 2988   0.679   7.730   1.086  2.2107  1.7033 -0.1410
 1015TIP3   OH2 2989   1.573   3.570   5.203 -0.3835 -0.5369  0.3376
 1015TIP3    H1 2990   1.548   3.535   5.289 -1.9570  0.4419  0.3294
 1015TIP3    H2 2991   1.498   3.551   5.147  0.7988 -1.5539 -0.9733
 1016TIP3   OH2 2992   1.642   6.397   3.481 -0.2556  0.3859  0.1581
 1016TIP3    H1 2993   1.560   6.420   3.437 -1.3380 -0.6284  1.5511
 1016TIP3    H2 2994   1.710   6.417   3.417 -1.8089 -2.4741 -2.6612
 1017TIP3   OH2 2995   8.202   5.125   3.330 -0.2262  0.0159 -0.4943
 1017TIP3    H1 2996   8.121   5.173   3.315 -0.9572 -0.3671  1.9684
 1017TIP3    H2 2997   8.262   5.190   3.367 -0.0597 -0.1798 -0.4162
 1018TIP3   OH2 2998   4.424   5.333   3.811 -0.1418  0.2878  0.0569
 1018TIP3    H1 2999   4.499   5.377   3.772  2.2849 -2.9282  0.6714
 1018TIP3    H2 3000   4.420   5.248   3.767 -3.1627  0.1456  0.4186
 1019TIP3   OH2 3001   3.519   7.195   3.295 -0.4566 -0.2015 -0.0907
 1019TIP3    H1 3002   3.468   7.119   3.266 -1.1225  0.2750 -0.1850
 1019TIP3    H2 3003   3.510   7.195   3.390 -3.3015  1.6605 -0.2371
 1020TIP3   OH2 3004   4.544   0.036   3.135  0.4531 -0.0794 -0.0156
 1020TIP3    H1 3005   4.457  -0.004   3.128  1.1875 -1.9771  1.0684
 1020TIP3    H2 3006   4.555   0.055   3.228  1.6352 -0.9355  0.0413
 1021TIP3   OH2 3007   0.491   1.106   5.919 -0.1298  0.2429 -0.2583
 1021TIP3    H1 3008   0.524   1.016   5.918 -0.3206  0.0787  2.0092
 1021TIP3    H2 3009   0.524   1.145   5.839  1.8129 -1.2151 -0.2396
 1022TIP3   OH2 3010   8.011   3.168   2.981  0.3035  0.3922 -0.1146
 1022TIP3    H1 3011   8.047   3.083   2.953  0.4488  0.9303 -1.6871
 1022TIP3    H2 3012   7.971   3.151   3.066  0.3407 -1.2470 -0.3985
 1023TIP3   OH2 3013   6.215   7.193   5.604 -0.1330 -0.0459 -0.3124
 1023TIP3    H1 3014   6.191   7.155   5.519 -0.5660 -1.2922  0.3465
 1023TIP3    H2 3015   6.138   7.178   5.659  1.1056 -1.6811  1.0648
 1024TIP3   OH2 3016   4.200   7.847   1.022  0.3519  0.1062  0.1108
 1024TIP3    H1 3017   4.242   7.776   0.972 -0.3364 -1.1655  1.2651
 1024TIP3    H2 3018   4.250   7.851   1.103 -0.2968  0.1838  0.5090
 1025TIP3   OH2 3019   1.118   4.302   3.808 -0.3619 -0.1733 -0.8398
 1025TIP3    H1 3020   1.082   4.387   3.786 -0.5019  0.0973  0.3368
 1025TIP3    H2 3021   1.158   4.270   3.727  1.2158  1.7626 -0.8911
 1026TIP3   OH2 3022   6.554   1.976   4.099  0.0759 -0.5632 -0.3330
 1026TIP3    H1 3023   6.569   1.967   4.005 -0.8397  1.8810 -0.8003
 1026TIP3    H2 3024   6.459   1.986   4.107  0.3574  3.4155  0.2615
 1027TIP3   OH2 3025   5.441   1.928   0.310 -0.2011 -0.0698  0.9086
 1027TIP3    H1 3026   5.415   1.907   0.220 -1.2062  2.0807  0.6269
 1027TIP3    H2 3027   5.498   1.856   0.336 -0.5782 -1.1876 -1.1417
 1028TIP3   OH2 3028   4.522   2.179   4.245  0.3917 -0.1710 -0.0406
 1028TIP3    H1 3029   4.463   2.117   4.202 -1.3422 -0.4436  2.4932
 1028TIP3    H2 3030   4.508   2.163   4.338  1.6333  2.4626  0.6748
 1029TIP3   OH2 3031   7.282   1.463   3.243  0.3407 -0.1210 -0.2167
 1029TIP3    H1 3032   7.316   1.438   3.329 -1.1691  0.4442  0.5836
 1029TIP3    H2 3033   7.258   1.380   3.202 -1.5200 -0.2718  1.0607
 1030TIP3   OH2 3034   0.886   6.625   6.139 -0.7196 -0.5517 -0.6115
 1030TIP3    H1 3035   0.852   6.537   6.125 -1.2498 -0.6069  0.9116
 1030TIP3    H2 3036   0.847   6.677   6.068 -1.9085 -1.1555 -0.4203
 1031TIP3   OH2 3037   4.806   1.058   2.411 -0.0221  0.4135  0.1224
 1031TIP3    H1 3038   4.777   1.147   2.428 -2.0369 -0.0667 -0.4472
 1031TIP3    H2 3039   4.852   1.063   2.327 -1.0286  0.7939 -0.4357
 1032TIP3   OH2 3040   1.508   1.814   2.983 -0.0216 -0.0343 -0.7546
 1032TIP3    H1 3041   1.552   1.837   3.065 -1.0184 -3.7283  1.0381
 1032TIP3    H2 3042   1.415   1.817   3.005 -0.2988 -1.0291 -1.7293
 1033TIP3   OH2 3043   2.487   1.018   1.744 -0.1201  0.5221 -0.2238
 1033TIP3    H1 3044   2.436   0.990   1.820  0.2996 -0.1257 -0.1742
 1033TIP3    H2 3045   2.478   0.947   1.681  0.7881  0.3502 -0.1801
 1034TIP3   OH2 3046   4.167   5.502   2.582 -0.0094  0.0281  0.2490
 1034TIP3    H1 3047   4.118   5.471   2.506  0.8280 -0.9211  0.0820
 1034TIP3    H2 3048   4.230   5.564   2.545  0.4596 -0.5033  0.1520
 1035TIP3   OH2 3049   1.087   2.016   5.059  0.1192 -0.2336  0.4524
 1035TIP3    H1 3050   1.048   1.992   5.143  0.5284 -0.6947  0.5142
 1035TIP3    H2 3051   1.158   1.953   5.047 -0.9652 -1.2332 -1.0174
 1036TIP3   OH2 3052   1.257   1.246   0.049 -0.2375  0.0985  0.2873
 1036TIP3    H1 3053   1.180   1.230   0.103 -1.3408  1.1237 -0.9127
 1036TIP3    H2 3054   1.308   1.165   0.055 -1.6574 -0.7914  0.7283
 1037TIP3   OH2 3055   1.271   5.228   2.226 -0.4115 -0.7003 -0.4970
 1037TIP3    H1 3056   1.366   5.215   2.226 -0.2719  0.1741  0.3065
 1037TIP3    H2 3057   1.240   5.176   2.153  0.4141 -3.0110  0.6881
 1038TIP3   OH2 3058   1.012   7.598   0.180  0.0034  0.2831  0.6799
 1038TIP3    H1 3059   0.919   7.620   0.173 -0.2124 -0.7885 -0.1033
 1038TIP3    H2 3060   1.015   7.504   0.164  0.9052 -0.2679  3.5211
 1039TIP3   OH2 3061   6.608   4.319   5.895 -0.4516  0.4936  0.1654
 1039TIP3    H1 3062   6.627   4.306   5.802  0.6264 -1.3782  0.6123
 1039TIP3    H2 3063   6.526   4.369   5.895 -1.2819 -0.7201 -1.7908
 1040TIP3   OH2 3064   7.797   0.377   6.220 -0.1490 -0.2653  0.3425
 1040TIP3    H1 3065   7.764   0.364   6.309 -0.8113 -0.3451  0.0907
 1040TIP3    H2 3066   7.807   0.472   6.212  1.2119 -0.3250  0.9468
 1041TIP3   OH2 3067   7.860   5.830   1.882 -0.3534 -0.4036 -0.0782
 1041TIP3    H1 3068   7.871   5.919   1.916 -2.6807  0.1964 -0.7234
 1041TIP3    H2 3069   7.886   5.838   1.790  1.8459 -1.0374  0.4288
 1042TIP3   OH2 3070   7.692   6.926   0.116 -0.0068  0.8061 -0.7621
 1042TIP3    H1 3071   7.662   6.976   0.192 -0.2988  1.1373 -1.0924
 1042TIP3    H2 3072   7.666   6.979   0.041  1.1167  0.9496 -1.0718
 1043TIP3   OH2 3073   1.352   4.498   2.596  0.2613 -0.0044 -0.3375
 1043TIP3    H1 3074   1.261   4.469   2.587  0.3636 -1.0661  1.6297
 1043TIP3    H2 3075   1.396   4.427   2.642  1.3099  1.8105  1.6825
 1044TIP3   OH2 3076   0.129   4.285   2.532  0.3892  0.0643 -0.2131
 1044TIP3    H1 3077   0.035   4.299   2.534  0.3923  0.2931  2.8603
 1044TIP3    H2 3078   0.158   4.305   2.621  3.3280 -0.1790 -1.0146
 1045TIP3   OH2 3079   6.944   7.099   6.388 -0.1480  0.5791  0.0120
 1045TIP3    H1 3080   7.019   7.071   6.441 -1.9629 -1.1751  1.7982
 1045TIP3    H2 3081   6.884   7.139   6.450 -1.1100  1.1337 -1.2273
 1046TIP3   OH2 3082   5.076   3.183   0.689  0.3306 -0.2843 -0.1853
 1046TIP3    H1 3083   5.164   3.148   0.682  1.4238  1.8576  1.6999
 1046TIP3    H2 3084   5.043   3.152   0.774 -0.6070 -0.7358 -0.6895
 1047TIP3   OH2 3085   4.278   7.150   0.275 -0.0051 -0.4396  0.2751
 1047TIP3    H1 3086   4.283   7.136   0.370 -0.9530 -1.1449  0.2408
 1047TIP3    H2 3087   4.363   7.185   0.251  0.3933 -0.6494  1.3291
 1048TIP3   OH2 3088   5.054   6.004   5.732 -0.1426 -0.2967  0.4385
 1048TIP3    H1 3089   4.968   6.032   5.703 -1.2678 -1.4420  2.4680
 1048TIP3    H2 3090   5.046   5.991   5.826  2.6746  0.9706  0.9706
 1049TIP3   OH2 3091   5.558   6.368   5.643  0.5023 -0.1409  0.8423
 1049TIP3    H1 3092   5.558   6.372   5.547  1.3308  0.2214  0.8485
 1049TIP3    H2 3093   5.526   6.280   5.663  2.7053 -1.1651  0.1754
 1050TIP3   OH2 3094   0.189   1.492   1.465  0.4625 -0.1186  0.5795
 1050TIP3    H1 3095   0.138   1.541   1.401  2.5056  0.3586 -0.7303
 1050TIP3    H2 3096   0.206   1.555   1.535 -0.1702 -0.1094  0.7398
 1051TIP3   OH2 3097   4.783   7.061   0.394 -0.0493 -0.1929 -0.1874
 1051TIP3    H1 3098   4.841   7.097   0.461 -0.2361  2.9317 -1.5265
 1051TIP3    H2 3099   4.825   7.082   0.311 -0.5813 -2.6121 -1.1623
 1052TIP3   OH2 3100   7.230   3.589   0.007 -0.1367 -0.0816 -0.8689
 1052TIP3    H1 3101   7.235   3.498  -0.021 -0.6544 -0.3663 -0.0669
 1052TIP3    H2 3102   7.230   3.585   0.103  4.1931  0.9671 -0.5786
 1053TIP3   OH2 3103   5.992   4.360   4.671  0.3724 -0.7282  0.1059
 1053TIP3    H1 3104   6.023   4.366   4.761 -0.9495 -0.2406  0.5618
 1053TIP3    H2 3105   6.056   4.305   4.627 -0.0617 -2.7842  1.8759
 1054TIP3   OH2 3106   1.440   2.134   5.886 -0.6487 -0.4957  0.3274
 1054TIP3    H1 3107   1.498   2.113   5.813 -0.6355 -0.9062  0.4566
 1054TIP3    H2 3108   1.471   2.220   5.917  0.9847 -1.4426  1.4655
 1055TIP3   OH2 3109   7.845   0.358   3.784 -0.1517 -0.2423 -0.1973
 1055TIP3    H1 3110   7.770   0.303   3.760  0.2526  0.1738 -2.6575
 1055TIP3    H2 3111   7.900   0.359   3.706  1.7221  0.6413  1.0693
 1056TIP3   OH2 3112   0.109   3.016   2.957 -0.0653 -0.5737  0.1628
 1056TIP3    H1 3113   0.143   2.947   2.900  0.0387 -0.3835 -0.0097
 1056TIP3    H2 3114   0.016   3.021   2.937  0.3881  1.3236 -2.0142
 1057TIP3   OH2 3115   6.810   3.704   5.811  0.9508 -0.1275  0.0013
 1057TIP3    H1 3116   6.764   3.787   5.803  1.9004  0.5530  1.3237
 1057TIP3    H2 3117   6.751   3.640   5.770 -0.5516  0.9115  0.4644
 1058TIP3   OH2 3118   7.042   0.260   5.751 -0.5256  0.0186 -0.2810
 1058TIP3    H1 3119   7.084   0.314   5.818  0.3196  1.1574 -1.6743
 1058TIP3    H2 3120   7.111   0.201   5.721 -0.2009  1.0505 -1.6983
 1059TIP3   OH2 3121   1.679   3.109   0.534  0.2421 -0.4346 -0.7241
 1059TIP3    H1 3122   1.620   3.166   0.484  1.7762  1.0152 -0.9897
 1059TIP3    H2 3123   1.623   3.039   0.567 -1.4274  0.3551 -1.7504
 1060TIP3   OH2 3124   0.801   0.614   3.643 -0.2919 -0.7451  0.1194
 1060TIP3    H1 3125   0.738   0.573   3.584  0.2100  0.7821 -1.5579
 1060TIP3    H2 3126   0.882   0.617   3.593  0.1819  0.5214  0.9137
 1061TIP3   OH2 3127   6.265   2.121   4.072  0.1212 -0.1181 -0.3662
 1061TIP3    H1 3128   6.245   2.090   4.160  2.6989  1.7105  0.9586
 1061TIP3    H2 3129   6.234   2.050   4.015  0.2416 -2.3074  2.0997
 1062TIP3   OH2 3130   1.715   6.635  -0.020 -0.1096 -0.8312  0.2591
 1062TIP3    H1 3131   1.659   6.712  -0.016  1.9143  0.8050 -1.1652
 1062TIP3    H2 3132   1.774   6.643   0.055 -0.7748 -1.7821  0.9151
 1063TIP3   OH2 3133   1.947   0.065   2.939  0.6334 -0.2098 -0.1390
 1063TIP3    H1 3134   1.855   0.056   2.966  1.0101 -0.6040  1.0610
 1063TIP3    H2 3135   1.997   0.052   3.019  1.7766 -0.6813 -0.8977
 1064TIP3   OH2 3136   3.186   5.805   5.602  0.2947 -0.0382  0.6688
 1064TIP3    H1 3137   3.182   5.710   5.616 -0.1184 -0.0004  0.7973
 1064TIP3    H2 3138   3.108   5.825   5.551  1.5367 -0.1057 -1.3727
 1065TIP3   OH2 3139   6.495   1.977   5.130  0.3736  0.4629 -0.3867
 1065TIP3    H1 3140   6.415   1.951   5.085  1.3191 -0.0143 -1.8982
 1065TIP3    H2 3141   6.564   1.963   5.065  1.7230  0.5591  0.9640
 1066TIP3   OH2 3142   4.919   2.300   0.616  0.1842 -0.0873 -0.3062
 1066TIP3    H1 3143   4.974   2.345   0.552  1.2153 -1.1550 -0.2152
 1066TIP3    H2 3144   4.840   2.353   0.623  0.9375  1.1377 -0.9310
 1067TIP3   OH2 3145   5.958   5.485   1.791  0.2651 -0.5890  0.4729
 1067TIP3    H1 3146   5.943   5.508   1.883 -0.8475  1.1659 -0.0864
 1067TIP3    H2 3147   5.871   5.476   1.754  0.6960 -0.8737 -0.5040
 1068TIP3   OH2 3148   5.172   6.550   4.642 -0.1120  0.3008  0.2572
 1068TIP3    H1 3149   5.248   6.498   4.616 -0.9601 -0.0771 -1.6661
 1068TIP3    H2 3150   5.163   6.535   4.736  2.0190  0.1608  0.4796
 1069TIP3   OH2 3151   5.689   3.772   0.300  0.1077 -0.7272 -0.4765
 1069TIP3    H1 3152   5.604   3.791   0.341  0.7894  1.5080  0.0093
 1069TIP3    H2 3153   5.746   3.749   0.373  0.6474  0.6735 -0.4339
 1070TIP3   OH2 3154   0.747   3.578   2.042 -0.0976 -0.1557  0.0684
 1070TIP3    H1 3155   0.790   3.496   2.019  0.0584 -0.0669  0.0456
 1070TIP3    H2 3156   0.788   3.643   1.985  1.2952  0.3277  1.5639
 1071TIP3   OH2 3157   3.857   1.842   0.229  0.0943  0.1095  0.7354
 1071TIP3    H1 3158   3.824   1.785   0.299  1.0019 -0.4003  0.7611
 1071TIP3    H2 3159   3.882   1.781   0.159  0.8850  0.4923  0.6824
 1072TIP3   OH2 3160   2.768   6.856   4.463 -0.3243 -0.8737  0.1354
 1072TIP3    H1 3161   2.729   6.809   4.537 -1.0139  0.1190  0.4318
 1072TIP3    H2 3162   2.740   6.947   4.476  1.6801 -0.2098  0.0615
 1073TIP3   OH2 3163   1.197   0.314   6.630  0.1011  0.1580 -0.0373
 1073TIP3    H1 3164   1.126   0.261   6.666  0.8679 -1.5663 -0.9809
 1073TIP3    H2 3165   1.164   0.344   6.545  0.5862 -0.8717 -0.5982
 1074TIP3   OH2 3166   0.095   3.105   1.233 -0.4697 -0.5395 -0.1610
 1074TIP3    H1 3167   0.090   3.065   1.319 -2.9777 -1.1758 -0.5469
 1074TIP3    H2 3168   0.168   3.167   1.240  0.3137 -1.6116  1.9365
 1075TIP3   OH2 3169   4.162   5.636   2.049  0.1969 -0.6378 -0.5619
 1075TIP3    H1 3170   4.085   5.618   1.995  1.4520 -2.2602 -1.8986
 1075TIP3    H2 3171   4.166   5.564   2.112  0.8131 -0.7573 -0.7317
 1076TIP3   OH2 3172   6.500   4.704   1.341  0.0075 -0.2852 -0.2851
 1076TIP3    H1 3173   6.444   4.676   1.413 -0.8247 -2.6933 -1.7495
 1076TIP3    H2 3174   6.573   4.642   1.342  0.2669 -0.0136 -1.1847
 1077TIP3   OH2 3175   4.776   6.537   0.905  0.2760  0.2742 -0.4782
 1077TIP3    H1 3176   4.831   6.608   0.872  0.2839 -0.3181 -1.8175
 1077TIP3    H2 3177   4.715   6.519   0.833 -0.6136 -0.1600  0.3709
 1078TIP3   OH2 3178   7.035   0.070   2.821 -0.5729  0.0678  0.3279
 1078TIP3    H1 3179   7.121   0.056   2.781  0.3197  1.3160  1.7031
 1078TIP3    H2 3180   7.047   0.045   2.912 -1.8465 -0.2585  0.4177
 1079TIP3   OH2 3181   0.928   0.736   5.050  0.1670  0.1206 -0.4039
 1079TIP3    H1 3182   1.020   0.717   5.068  0.4918  1.4869 -0.4830
 1079TIP3    H2 3183   0.919   0.726   4.955  0.1972 -0.1600 -0.3771
 1080TIP3   OH2 3184   4.148   7.274   1.810 -0.0456  0.2794 -0.0446
 1080TIP3    H1 3185   4.137   7.312   1.723 -2.1206 -0.2894 -0.0998
 1080TIP3    H2 3186   4.141   7.180   1.796  1.3502  0.0738  0.5389
 1081TIP3   OH2 3187   1.948   4.393   2.429  0.2907 -0.2866  0.4999
 1081TIP3    H1 3188   1.984   4.354   2.350 -0.6473 -2.7271  1.1708
 1081TIP3    H2 3189   1.871   4.442   2.399  1.2882  0.8383 -0.3243
 1082TIP3   OH2 3190   2.248   3.441   2.242 -0.1863 -0.3331  0.1611
 1082TIP3    H1 3191   2.186   3.477   2.178  0.5158 -1.4943 -1.2311
 1082TIP3    H2 3192   2.273   3.516   2.295 -1.9645  0.3764  0.0862
 1083TIP3   OH2 3193   2.669   2.600   4.175 -0.1689  0.3995  0.1648
 1083TIP3    H1 3194   2.704   2.688   4.165 -1.7523  0.9422 -0.7663
 1083TIP3    H2 3195   2.598   2.594   4.111 -0.5563 -1.3082  0.7019
 1084TIP3   OH2 3196   3.514   2.629   3.079  0.1918 -0.7963 -0.1466
 1084TIP3    H1 3197   3.487   2.716   3.109 -0.8910 -0.6728 -1.3600
 1084TIP3    H2 3198   3.606   2.622   3.103  0.4731  0.9540 -0.6006
 1085TIP3   OH2 3199   7.088   3.389   1.285 -0.0635 -0.0228  0.5500
 1085TIP3    H1 3200   7.040   3.462   1.247 -0.7887 -0.1160  1.2626
 1085TIP3    H2 3201   7.153   3.431   1.342  0.3927  0.0889 -0.0412
 1086TIP3   OH2 3202   4.164   2.009   0.138 -0.1885 -0.5067  0.3313
 1086TIP3    H1 3203   4.220   2.031   0.212 -1.1833  1.2360  0.6164
 1086TIP3    H2 3204   4.206   2.051   0.063  0.6452 -2.0026 -0.0752
 1087TIP3   OH2 3205   0.288   3.929   6.316 -0.0765  0.0011 -0.1616
 1087TIP3    H1 3206   0.359   3.892   6.265  0.8463  0.3352  0.8530
 1087TIP3    H2 3207   0.255   4.001   6.262  0.0704 -0.4116 -0.8162
 1088TIP3   OH2 3208   4.173   4.574   1.660  0.2171 -0.2462 -0.3175
 1088TIP3    H1 3209   4.253   4.522   1.652  0.3376  0.0284 -1.0128
 1088TIP3    H2 3210   4.195   4.642   1.724  0.7386  0.1678 -0.9213
 1089TIP3   OH2 3211   6.340   3.585   0.650 -0.0574 -0.0201 -0.9006
 1089TIP3    H1 3212   6.330   3.605   0.557 -2.4748  0.0532 -0.7034
 1089TIP3    H2 3213   6.408   3.519   0.654 -1.2354 -1.4525 -2.9499
 1090TIP3   OH2 3214   5.872   6.527   0.386 -0.3879 -0.2837  0.1140
 1090TIP3    H1 3215   5.830   6.471   0.452 -0.0178  0.1782  0.7571
 1090TIP3    H2 3216   5.800   6.570   0.341 -0.6315 -0.2387  0.5450
 1091TIP3   OH2 3217   6.168   5.903   4.704  0.2631 -0.0648  0.1605
 1091TIP3    H1 3218   6.095   5.846   4.682 -0.3372  1.5226 -2.3701
 1091TIP3    H2 3219   6.242   5.844   4.719 -0.7417 -1.5615 -0.5856
 1092TIP3   OH2 3220   0.475   5.228   6.717 -0.4239 -0.4218 -0.1120
 1092TIP3    H1 3221   0.489   5.134   6.727  0.5973 -0.2489  0.2115
 1092TIP3    H2 3222   0.423   5.236   6.637  0.2004 -1.2131 -0.6151
 1093TIP3   OH2 3223   2.821   0.964   2.590 -0.6752 -0.0176 -0.2505
 1093TIP3    H1 3224   2.742   1.010   2.618 -0.3550  1.1652 -1.1876
 1093TIP3    H2 3225   2.889   1.032   2.588  0.7235 -1.2594  1.8459
 1094TIP3   OH2 3226   1.698   0.659   4.542  0.1900  0.2577 -0.6708
 1094TIP3    H1 3227   1.740   0.740   4.571 -1.3339  1.1364 -0.8275
 1094TIP3    H2 3228   1.666   0.678   4.454 -0.7980 -0.2756 -0.4443
 1095TIP3   OH2 3229   4.744   1.602   6.045  0.5379 -0.0306 -0.7847
 1095TIP3    H1 3230   4.823   1.548   6.046  1.1365  0.7380 -2.1748
 1095TIP3    H2 3231   4.688   1.566   6.113  2.4033 -0.1215  0.7635
 1096TIP3   OH2 3232   7.444   6.507   1.105 -0.0894 -0.2094 -0.3803
 1096TIP3    H1 3233   7.523   6.538   1.148 -0.1140 -1.2417  0.4363
 1096TIP3    H2 3234   7.468   6.422   1.067 -0.6725 -0.3164 -0.5250
 1097TIP3   OH2 3235   3.709   2.060   3.190 -0.0729  0.5020  0.3593
 1097TIP3    H1 3236   3.789   2.082   3.143 -0.4937  0.4848 -0.3782
 1097TIP3    H2 3237   3.682   1.975   3.155 -0.3491  0.4441  0.6968
 1098TIP3   OH2 3238   7.421   3.056   6.378  0.0852 -0.0429 -0.4619
 1098TIP3    H1 3239   7.340   3.103   6.358 -0.0670  0.5134  1.3280
 1098TIP3    H2 3240   7.465   3.110   6.444  0.6766 -1.5954  0.4753
 1099TIP3   OH2 3241   3.632   4.319   0.680 -0.0999  0.7201  0.0081
 1099TIP3    H1 3242   3.633   4.384   0.751  1.0817 -0.1756  0.8585
 1099TIP3    H2 3243   3.602   4.238   0.722  2.1432 -0.2370 -0.0710
 1100TIP3   OH2 3244   1.141   7.358   5.179 -0.1749 -0.0991  0.3464
 1100TIP3    H1 3245   1.200   7.293   5.142  0.1210  0.6231 -0.4661
 1100TIP3    H2 3246   1.193   7.439   5.183 -0.4844  0.0679  1.4951
 1101TIP3   OH2 3247   4.454   1.989   0.553 -0.2085  0.0518 -0.2584
 1101TIP3    H1 3248   4.446   1.994   0.648  4.3116 -0.7067  0.3818
 1101TIP3    H2 3249   4.472   1.897   0.535 -2.2660 -0.0783 -2.1116
 1102TIP3   OH2 3250   6.238   4.810   2.468  0.1868 -0.0825  0.1386
 1102TIP3    H1 3251   6.160   4.845   2.426  1.4522  2.3220 -0.3541
 1102TIP3    H2 3252   6.306   4.874   2.451  1.9965 -1.4845  1.6180
 1103TIP3   OH2 3253   7.098   4.133  -0.002  0.2305 -0.0473  0.0333
 1103TIP3    H1 3254   7.171   4.089  -0.044  0.8142  1.1969 -0.2850
 1103TIP3    H2 3255   7.124   4.143   0.089  0.3045  0.0710 -0.0009
 1104TIP3   OH2 3256   4.670   1.848   6.238  0.1948  0.4749 -0.1008
 1104TIP3    H1 3257   4.593   1.887   6.197  1.3018  0.2474 -2.5070
 1104TIP3    H2 3258   4.738   1.852   6.171  1.1508 -3.0591  0.4931
 1105TIP3   OH2 3259   3.947   6.643   4.844  0.0421  0.0851  0.2465
 1105TIP3    H1 3260   3.985   6.630   4.757 -2.3741  0.2237 -0.9144
 1105TIP3    H2 3261   3.938   6.738   4.852  1.0849  0.1285  1.0596
 1106TIP3   OH2 3262   5.526   7.740   0.870 -0.4737  0.6700 -0.3716
 1106TIP3    H1 3263   5.452   7.777   0.918  0.6675 -0.1970  2.2844
 1106TIP3    H2 3264   5.490   7.663   0.826 -1.2682  0.5161  0.5092
 1107TIP3   OH2 3265   2.833   4.814   0.946  0.2213 -0.1144 -0.0198
 1107TIP3    H1 3266   2.749   4.768   0.952  0.3096 -0.0696  2.7462
 1107TIP3    H2 3267   2.898   4.744   0.934  0.0564 -0.4398  0.9285
 1108TIP3   OH2 3268   4.619   5.813   5.641  0.0588 -0.1981 -0.0375
 1108TIP3    H1 3269   4.592   5.727   5.675  0.7621 -0.3654  0.1158
 1108TIP3    H2 3270   4.607   5.873   5.714 -0.9801 -0.0416 -0.3125
 1109TIP3   OH2 3271   6.262   4.219   5.772 -0.3141 -0.2560  0.1725
 1109TIP3    H1 3272   6.308   4.140   5.800  0.2678 -0.1921 -0.5607
 1109TIP3    H2 3273   6.174   4.209   5.806 -0.2204 -1.1818  0.1728
 1110TIP3   OH2 3274   2.865   2.067   0.168  0.0677  0.5175 -0.2493
 1110TIP3    H1 3275   2.857   2.117   0.087 -0.9027  2.5834  1.0387
 1110TIP3    H2 3276   2.954   2.084   0.198  0.9723 -1.5029 -1.5827
 1111TIP3   OH2 3277   7.854   3.043   1.622 -0.5349  0.1562 -0.0426
 1111TIP3    H1 3278   7.803   3.036   1.541  0.7392 -0.6494 -0.8081
 1111TIP3    H2 3279   7.803   2.995   1.687 -1.0191 -0.1781 -0.6636
 1112TIP3   OH2 3280   8.287   3.812   0.290 -0.0191 -0.1802  0.4290
 1112TIP3    H1 3281   8.284   3.740   0.353 -1.5556 -1.0416 -0.5706
 1112TIP3    H2 3282   8.195   3.835   0.276  0.1137 -1.1710 -2.7649
 1113TIP3   OH2 3283   6.518   4.232   3.264  0.3222  0.1073 -0.2907
 1113TIP3    H1 3284   6.446   4.227   3.328  0.4645 -0.9567 -0.1847
 1113TIP3    H2 3285   6.478   4.269   3.186 -0.5609 -1.1721 -0.4845
 1114TIP3   OH2 3286   5.501   5.795   3.137  0.1268 -0.8246 -0.2090
 1114TIP3    H1 3287   5.577   5.738   3.124 -0.2829 -1.3178 -0.4758
 1114TIP3    H2 3288   5.435   5.738   3.177 -0.6918 -0.8504 -1.5407
 1115TIP3   OH2 3289   6.864   4.336   1.296 -0.7939  0.6298  0.6122
 1115TIP3    H1 3290   6.943   4.377   1.261 -0.6906  0.9206  1.1675
 1115TIP3    H2 3291   6.891   4.304   1.383 -1.0171 -0.1505  0.3925
 1116TIP3   OH2 3292   4.380   6.683   6.096 -1.0764 -0.4597  0.2815
 1116TIP3    H1 3293   4.360   6.624   6.024  0.5466  0.3860 -0.9314
 1116TIP3    H2 3294   4.473   6.704   6.085 -1.7912  3.1789 -0.0699
 1117TIP3   OH2 3295   7.247   4.933   4.722 -0.5803 -0.0073  0.1553
 1117TIP3    H1 3296   7.179   4.943   4.655 -0.2213  2.2222  0.0299
 1117TIP3    H2 3297   7.200   4.933   4.805 -0.7817  1.4713  0.0664
 1118TIP3   OH2 3298   5.704   2.220   1.705  0.0212  0.3883  0.1969
 1118TIP3    H1 3299   5.749   2.136   1.702  0.5411  0.6075  1.1895
 1118TIP3    H2 3300   5.757   2.278   1.651  0.8032  0.5690  1.1220
 1119TIP3   OH2 3301   2.420   7.473   0.400 -0.4274  0.0874 -0.1799
 1119TIP3    H1 3302   2.430   7.431   0.485 -0.7657 -0.6595 -0.4873
 1119TIP3    H2 3303   2.328   7.498   0.396  0.1456  2.5359  0.7181
 1120TIP3   OH2 3304   5.966   7.111   5.006  0.0224 -0.4013 -0.7746
 1120TIP3    H1 3305   5.919   7.043   4.957 -0.5495 -1.6009  1.2850
 1120TIP3    H2 3306   5.896   7.162   5.048  0.5080  0.3348 -0.8403
 1121TIP3   OH2 3307   3.965   4.908   0.361  0.4560  0.0071 -0.0755
 1121TIP3    H1 3308   4.039   4.901   0.300  0.5172 -0.9174  0.0798
 1121TIP3    H2 3309   3.889   4.922   0.305  0.4368 -1.3280 -0.4376
 1122TIP3   OH2 3310   5.462   2.321   4.439  0.5732  0.0147  0.5689
 1122TIP3    H1 3311   5.447   2.355   4.527  1.8717  0.6323  0.5757
 1122TIP3    H2 3312   5.441   2.228   4.446 -1.3027  0.4358  0.9986
 1123TIP3   OH2 3313   7.031   5.358   0.331 -0.1669  0.9559 -0.2109
 1123TIP3    H1 3314   7.047   5.378   0.424  0.5345  1.5410 -0.4478
 1123TIP3    H2 3315   6.995   5.270   0.332 -1.4604  1.4543  0.7232
 1124TIP3   OH2 3316   6.077   6.716   3.354 -0.2116  0.5136  0.0178
 1124TIP3    H1 3317   6.149   6.704   3.292 -0.1827 -0.2508  0.1836
 1124TIP3    H2 3318   6.101   6.793   3.405  0.6335  0.1068  0.2610
 1125TIP3   OH2 3319   6.246   5.178   4.858 -0.1055 -0.3738  0.1934
 1125TIP3    H1 3320   6.341   5.184   4.872 -0.2584  0.1900  1.0230
 1125TIP3    H2 3321   6.213   5.139   4.939 -0.6044 -0.4700 -0.0544
 1126TIP3   OH2 3322   1.176   3.314   5.942 -0.5005 -0.0664 -0.1097
 1126TIP3    H1 3323   1.110   3.373   5.905  0.5359  1.1899 -0.0050
 1126TIP3    H2 3324   1.167   3.234   5.890 -1.4203  0.4356 -0.7645
 1127TIP3   OH2 3325   0.821   2.255   4.169 -0.1252  0.7565 -0.2854
 1127TIP3    H1 3326   0.869   2.316   4.224 -0.0343 -1.5066  2.3334
 1127TIP3    H2 3327   0.877   2.178   4.163 -0.9021  0.2710 -2.1563
 1128TIP3   OH2 3328   7.957   4.317   6.046  0.7682 -0.8991  0.2710
 1128TIP3    H1 3329   7.960   4.289   5.955  0.8648  0.1382 -0.0560
 1128TIP3    H2 3330   8.049   4.328   6.071  0.7584 -1.6069  0.6352
 1129TIP3   OH2 3331   5.250   6.210   3.955 -0.1113  0.0218 -0.0783
 1129TIP3    H1 3332   5.311   6.233   4.025 -1.8627  0.7871  1.2719
 1129TIP3    H2 3333   5.293   6.137   3.909  2.1272  1.0143  0.3029
 1130TIP3   OH2 3334   6.037   5.031   1.841 -0.7059  0.2915 -0.1191
 1130TIP3    H1 3335   6.097   4.980   1.895 -0.8873 -0.1372 -0.3183
 1130TIP3    H2 3336   6.078   5.034   1.755 -0.6897  0.4939 -0.1048
 1131TIP3   OH2 3337   4.701   1.761   2.674  0.1130  0.3505 -0.0378
 1131TIP3    H1 3338   4.765   1.697   2.645  0.4981  1.8473 -2.7528
 1131TIP3    H2 3339   4.628   1.752   2.613 -0.5320  1.3775  0.5449
 1132TIP3   OH2 3340   0.667   3.013   1.594 -0.1280  0.1042  0.5924
 1132TIP3    H1 3341   0.653   3.070   1.519  0.6933  1.1582  1.2067
 1132TIP3    H2 3342   0.671   2.925   1.557 -1.8201  0.3607 -0.3332
 1133TIP3   OH2 3343   4.754   7.027   0.850  0.1439  0.4174 -0.2509
 1133TIP3    H1 3344   4.664   7.002   0.871  0.6802 -0.6089  0.9051
 1133TIP3    H2 3345   4.806   6.997   0.925  1.5284  0.5390 -1.1290
 1134TIP3   OH2 3346   4.127   0.739   3.954 -0.3127 -0.4295 -0.1959
 1134TIP3    H1 3347   4.220   0.737   3.932 -0.4543 -2.2253 -0.7805
 1134TIP3    H2 3348   4.083   0.738   3.869 -0.8621 -0.8916  0.0888
 1135TIP3   OH2 3349   0.995   3.709   6.770 -0.5468 -0.1792 -0.0033
 1135TIP3    H1 3350   0.977   3.802   6.756  0.0883 -0.3382 -2.3130
 1135TIP3    H2 3351   0.945   3.664   6.701  1.1855 -1.3097 -0.6062
 1136TIP3   OH2 3352   3.162   4.912   0.808  0.0185  0.0025 -0.4044
 1136TIP3    H1 3353   3.108   4.991   0.801  0.6924  0.5393  0.1596
 1136TIP3    H2 3354   3.243   4.943   0.849 -0.5641 -1.3663  2.0051
 1137TIP3   OH2 3355   3.754   6.814   1.733 -0.2050 -0.1353  0.0276
 1137TIP3    H1 3356   3.819   6.830   1.801  0.2485  0.2727 -0.4937
 1137TIP3    H2 3357   3.671   6.808   1.780 -0.2621  2.6263  0.4019
 1138TIP3   OH2 3358   3.942   3.630   1.820  0.1445  0.0093 -0.0257
 1138TIP3    H1 3359   3.924   3.540   1.792  0.1842  0.2864 -0.9888
 1138TIP3    H2 3360   3.868   3.681   1.786  1.3632  0.7280 -1.6921
 1139TIP3   OH2 3361   5.333   2.862   5.093  0.3362  0.2604 -0.0639
 1139TIP3    H1 3362   5.317   2.915   5.172 -1.4062  0.5728 -0.5905
 1139TIP3    H2 3363   5.428   2.847   5.094  0.6266  1.8442  1.0788
 1140TIP3   OH2 3364   5.017   7.443   5.846 -0.1734 -0.6713 -0.0169
 1140TIP3    H1 3365   4.962   7.386   5.792 -0.0502 -1.4760  0.6985
 1140TIP3    H2 3366   5.009   7.529   5.804 -2.1143 -0.7120  0.1569
 1141TIP3   OH2 3367   3.620   4.830   1.851  0.1056 -0.6253  0.5691
 1141TIP3    H1 3368   3.706   4.816   1.889  1.3163  1.4344 -1.2329
 1141TIP3    H2 3369   3.634   4.823   1.757 -1.6856 -0.1631  0.2318
 1142TIP3   OH2 3370   4.670   0.963   3.854  0.5447  0.3335 -0.2625
 1142TIP3    H1 3371   4.655   0.874   3.823  1.9174 -0.1481  0.3343
 1142TIP3    H2 3372   4.612   1.018   3.802 -1.0904 -1.0141  0.0584
 1143TIP3   OH2 3373   6.196   2.104   0.382  0.2118  0.1222  0.0278
 1143TIP3    H1 3374   6.177   2.068   0.296 -0.6433  1.9107 -0.5875
 1143TIP3    H2 3375   6.137   2.057   0.441 -0.2139 -0.1327 -0.5910
 1144TIP3   OH2 3376   4.347   1.387   2.848  0.3653 -0.6111 -0.0181
 1144TIP3    H1 3377   4.332   1.442   2.771 -0.3446 -0.6787  0.0635
 1144TIP3    H2 3378   4.287   1.422   2.914  1.6588  0.0728  0.8335
 1145TIP3   OH2 3379   3.801   0.511   0.951 -0.4844 -0.3763 -0.2478
 1145TIP3    H1 3380   3.808   0.558   1.034 -0.7121  0.5039 -0.7177
 1145TIP3    H2 3381   3.739   0.440   0.968 -0.7214 -0.0459  0.2690
 1146TIP3   OH2 3382   3.491   2.785   4.320  0.1487 -0.8597 -0.1502
 1146TIP3    H1 3383   3.412   2.805   4.270  0.7455 -0.4701 -0.9582
 1146TIP3    H2 3384   3.459   2.761   4.407 -0.8492 -0.6422 -0.4452
 1147TIP3   OH2 3385   3.370   1.353   2.627 -0.2403  0.0430  0.8490
 1147TIP3    H1 3386   3.327   1.287   2.573  1.7962 -1.1988  0.6558
 1147TIP3    H2 3387   3.347   1.330   2.717 -2.9777  1.6430  0.6782
 1148TIP3   OH2 3388   7.083   3.334   5.380  0.2009  0.3009  0.1261
 1148TIP3    H1 3389   7.020   3.275   5.422  0.0929  1.2889  1.3815
 1148TIP3    H2 3390   7.047   3.421   5.391  1.8235  0.9097  0.9765
 1149TIP3   OH2 3391   0.795   3.974   2.069 -0.6214  0.2164 -0.3977
 1149TIP3    H1 3392   0.823   3.895   2.023 -1.1568  1.5878 -3.3299
 1149TIP3    H2 3393   0.704   3.986   2.041 -1.2466  0.7591  1.7168
 1150TIP3   OH2 3394   7.892   3.647   3.299 -0.5497  0.1535  0.1924
 1150TIP3    H1 3395   7.863   3.700   3.373 -1.1638  0.6165 -0.3605
 1150TIP3    H2 3396   7.831   3.669   3.229  1.0512  1.0713 -0.9883
 1151TIP3   OH2 3397   6.382   7.572   5.408  0.2996 -0.8421 -0.5246
 1151TIP3    H1 3398   6.299   7.556   5.363  0.1462  2.2986 -1.6329
 1151TIP3    H2 3399   6.358   7.580   5.500 -0.7898  0.5782 -0.8941
 1152TIP3   OH2 3400   7.398   7.336   5.338 -0.6723  0.3861  0.1161
 1152TIP3    H1 3401   7.429   7.252   5.304 -1.5621  0.2467 -0.3852
 1152TIP3    H2 3402   7.454   7.401   5.294  0.8916  0.0288  1.4749
 1153TIP3   OH2 3403   3.653   0.292   5.220  0.3389 -0.1408  0.3071
 1153TIP3    H1 3404   3.668   0.382   5.250 -1.3983  0.4729 -0.5059
 1153TIP3    H2 3405   3.631   0.243   5.300  0.7048  0.2981  0.6777
 1154TIP3   OH2 3406   6.031   2.284   1.253  0.2133  0.0875 -0.1257
 1154TIP3    H1 3407   6.065   2.208   1.300 -0.5609 -1.4563 -1.9293
 1154TIP3    H2 3408   6.007   2.251   1.167 -2.4513  1.8300 -0.1973
 1155TIP3   OH2 3409   5.950   6.855   0.813  0.8498 -0.1113  0.2258
 1155TIP3    H1 3410   5.900   6.876   0.892 -3.5823 -0.3634 -2.1915
 1155TIP3    H2 3411   5.968   6.761   0.820  1.6282  0.1027  1.4181
 1156TIP3   OH2 3412   2.358   5.974   2.458 -0.9237  0.0701 -0.1780
 1156TIP3    H1 3413   2.264   5.968   2.477 -1.0858 -1.0390 -1.2630
 1156TIP3    H2 3414   2.394   6.020   2.535 -1.7732 -2.8803  2.1870
 1157TIP3   OH2 3415   4.859   2.217   2.884 -0.8163  0.2661 -0.2256
 1157TIP3    H1 3416   4.831   2.139   2.836 -1.2757  1.2093 -1.5544
 1157TIP3    H2 3417   4.905   2.182   2.961 -1.4535 -1.3026 -0.5020
 1158TIP3   OH2 3418   7.352   1.578   1.368 -0.0891 -0.2283 -0.6257
 1158TIP3    H1 3419   7.414   1.645   1.398 -0.7661  0.9538 -1.7582
 1158TIP3    H2 3420   7.334   1.526   1.446  2.5353 -0.8269 -0.2991
 1159TIP3   OH2 3421   2.246   1.710   3.925  0.5788  0.0544 -0.2227
 1159TIP3    H1 3422   2.318   1.747   3.977  0.0733  0.2606  0.3431
 1159TIP3    H2 3423   2.238   1.769   3.850  0.6032  0.3710  0.0238
 1160TIP3   OH2 3424   5.194   1.432   0.912 -0.0921  0.3744  0.3679
 1160TIP3    H1 3425   5.243   1.423   0.831  0.7035 -0.6391  0.9497
 1160TIP3    H2 3426   5.137   1.508   0.897 -0.7854 -0.4664 -1.5471
 1161TIP3   OH2 3427   0.728   4.546   1.323  0.2996  0.0212 -0.6608
 1161TIP3    H1 3428   0.720   4.462   1.367 -0.1725  0.7393  0.6933
 1161TIP3    H2 3429   0.822   4.559   1.313  0.3663 -0.8329 -1.2465
 1162TIP3   OH2 3430   4.208   3.397   5.046 -0.1458 -0.5281 -0.0339
 1162TIP3    H1 3431   4.270   3.406   5.118 -0.4808  1.9312  0.0267
 1162TIP3    H2 3432   4.258   3.416   4.967 -0.3466 -0.7003 -0.2072
 1163TIP3   OH2 3433   0.106   3.067   1.715  0.2213 -0.1555  0.1867
 1163TIP3    H1 3434   0.062   3.076   1.800 -1.9529  0.4001 -0.9259
 1163TIP3    H2 3435   0.113   3.157   1.683 -0.8011 -0.4967 -1.0678
 1164TIP3   OH2 3436   6.199   2.136   2.131 -0.0050  0.0842 -0.6865
 1164TIP3    H1 3437   6.182   2.168   2.220 -0.9903 -0.2289 -0.7518
 1164TIP3    H2 3438   6.273   2.076   2.141 -2.2637 -2.7075  0.5404
 1165TIP3   OH2 3439   2.475   0.160   0.843 -0.0355 -0.2876  0.4904
 1165TIP3    H1 3440   2.512   0.101   0.777 -1.0050 -1.1587  0.7032
 1165TIP3    H2 3441   2.462   0.242   0.796 -1.9352 -1.2702 -0.8127
 1166TIP3   OH2 3442   2.456   1.343   2.582  0.1969  0.1369 -0.7114
 1166TIP3    H1 3443   2.422   1.357   2.494 -0.2361 -0.2905 -0.6223
 1166TIP3    H2 3444   2.389   1.381   2.639  0.5712  0.5883 -0.5738
 1167TIP3   OH2 3445   0.171   2.699   5.033 -0.5841  0.3091 -0.6515
 1167TIP3    H1 3446   0.093   2.651   5.062  0.5219 -0.4273  1.2764
 1167TIP3    H2 3447   0.179   2.771   5.095  1.8020 -1.2541  1.0051
 1168TIP3   OH2 3448   1.114   5.448   4.541  0.3718  0.0368  0.2073
 1168TIP3    H1 3449   1.200   5.428   4.576 -0.2664 -1.7532  0.8780
 1168TIP3    H2 3450   1.067   5.488   4.614  0.2116 -0.2301  0.2504
 1169TIP3   OH2 3451   2.402   5.144   1.898  0.2082  0.0238 -0.7138
 1169TIP3    H1 3452   2.444   5.089   1.964 -0.2444 -0.6683 -0.9975
 1169TIP3    H2 3453   2.439   5.115   1.815 -1.9717 -1.7199 -1.1478
 1170TIP3   OH2 3454   8.059   3.281   3.656 -0.4876 -1.0157  0.2497
 1170TIP3    H1 3455   8.006   3.335   3.598 -1.3293 -1.8107  0.2553
 1170TIP3    H2 3456   8.020   3.194   3.651 -0.3222 -1.2030  1.6859
 1171TIP3   OH2 3457   8.260   1.569   3.205 -0.3583 -0.1526 -0.7447
 1171TIP3    H1 3458   8.185   1.566   3.264  0.2824  2.5944  0.3713
 1171TIP3    H2 3459   8.240   1.639   3.143  0.5690 -0.5060 -1.4788
 1172TIP3   OH2 3460   7.036   4.552   3.754  0.5083 -0.1210  0.3964
 1172TIP3    H1 3461   7.016   4.640   3.785  0.7487 -0.5963  1.9714
 1172TIP3    H2 3462   7.127   4.556   3.725 -0.1431  0.6990 -1.7785
 1173TIP3   OH2 3463   5.791   4.031   1.039 -0.9140 -0.3126 -0.4067
 1173TIP3    H1 3464   5.774   4.070   1.125 -0.6549  0.9297 -0.9014
 1173TIP3    H2 3465   5.788   3.936   1.055 -0.0493 -0.1157  1.1376
 1174TIP3   OH2 3466   1.160   5.150   1.924  0.1068  0.3680  0.1092
 1174TIP3    H1 3467   1.199   5.065   1.943  1.4389  0.9018 -0.1011
 1174TIP3    H2 3468   1.066   5.132   1.916  0.2385 -0.8992  1.0350
 1175TIP3   OH2 3469   4.714   6.805   5.191  0.4904  0.0386 -0.5533
 1175TIP3    H1 3470   4.703   6.717   5.226 -1.1424  0.1587 -0.6842
 1175TIP3    H2 3471   4.651   6.858   5.240  0.8166  0.9507 -1.0933
 1176TIP3   OH2 3472   1.543   5.028   6.047  0.6820 -1.2239 -0.1392
 1176TIP3    H1 3473   1.588   5.048   6.130 -1.2161 -3.0218  1.4194
 1176TIP3    H2 3474   1.527   5.114   6.008  0.5658 -0.2094  1.9672
 1177TIP3   OH2 3475   7.921   3.923   2.889 -0.5866  0.0254 -0.0712
 1177TIP3    H1 3476   7.907   4.014   2.914 -0.3462 -0.0689  0.4179
 1177TIP3    H2 3477   7.979   3.928   2.813 -1.2582  0.3084 -0.5825
 1178TIP3   OH2 3478   3.970   2.112   3.031  0.0180  0.1754 -0.0243
 1178TIP3    H1 3479   3.974   2.193   2.981  3.0949 -0.6155 -1.3033
 1178TIP3    H2 3480   3.956   2.044   2.965 -2.4453 -0.4251  1.0192
 1179TIP3   OH2 3481   4.894   0.671   0.662 -0.1216  0.7186 -0.2747
 1179TIP3    H1 3482   4.901   0.578   0.640  2.9876  0.7282  0.1796
 1179TIP3    H2 3483   4.829   0.674   0.732  0.3674 -1.2676  0.3277
 1180TIP3   OH2 3484   3.407   5.541   0.544  0.2302 -0.1476  0.5362
 1180TIP3    H1 3485   3.411   5.520   0.637  0.5885 -1.0576  0.3247
 1180TIP3    H2 3486   3.320   5.511   0.517 -0.3854  1.2826  0.8337
 1181TIP3   OH2 3487   5.514   2.064   1.361  0.2653 -0.1414  0.8355
 1181TIP3    H1 3488   5.605   2.031   1.361 -0.0036 -0.9268  0.1704
 1181TIP3    H2 3489   5.475   2.023   1.438  0.3383 -0.1857  0.8499
 1182TIP3   OH2 3490   8.098   5.414   5.475 -0.0299  0.2925  0.3840
 1182TIP3    H1 3491   8.168   5.438   5.536  1.2371 -1.5174 -0.2974
 1182TIP3    H2 3492   8.052   5.342   5.519 -0.3047  0.2404  0.0160
 1183TIP3   OH2 3493   1.108   3.777   3.539  0.2210  0.3144  0.0289
 1183TIP3    H1 3494   1.058   3.786   3.621 -0.6258 -0.5957 -0.3689
 1183TIP3    H2 3495   1.047   3.737   3.478  1.5673 -1.2576 -0.3504
 1184TIP3   OH2 3496   0.170   6.952   0.588  0.2672 -0.2493  0.0241
 1184TIP3    H1 3497   0.182   6.873   0.641  0.8372  0.1797  0.5476
 1184TIP3    H2 3498   0.128   6.920   0.508  0.6255 -1.1100  0.1597
 1185TIP3   OH2 3499   5.257   2.149   3.587  0.2255 -0.5291  0.4926
 1185TIP3    H1 3500   5.319   2.220   3.601 -0.4032 -0.0161  0.7006
 1185TIP3    H2 3501   5.312   2.072   3.574  0.9395  0.1657 -0.7434
 1186TIP3   OH2 3502   6.524   7.157   6.370 -0.0071  0.4735  0.0281
 1186TIP3    H1 3503   6.460   7.102   6.325 -1.1352  0.7564  1.2453
 1186TIP3    H2 3504   6.517   7.133   6.462  0.4689  1.6849  0.3995
 1187TIP3   OH2 3505   6.805   0.229   1.873  0.2133 -1.2781  0.6264
 1187TIP3    H1 3506   6.894   0.256   1.898 -0.0955  1.8107 -1.0550
 1187TIP3    H2 3507   6.817   0.175   1.795  0.6379 -0.9186  0.4369
 1188TIP3   OH2 3508   7.460   0.285   3.959  0.8890 -0.4088 -0.1797
 1188TIP3    H1 3509   7.390   0.226   3.931  2.1716 -2.9328  1.5733
 1188TIP3    H2 3510   7.533   0.266   3.900  1.3083 -0.5865  0.3849
 1189TIP3   OH2 3511   2.641   5.345   1.854  0.2352 -0.1379 -0.2853
 1189TIP3    H1 3512   2.626   5.252   1.836  0.4224  0.0519 -1.5359
 1189TIP3    H2 3513   2.679   5.347   1.942  0.0880 -1.2275 -0.1861
 1190TIP3   OH2 3514   2.848   4.514   4.538  1.0968 -0.3224 -0.1131
 1190TIP3    H1 3515   2.862   4.523   4.633  0.5567 -1.8703  0.1501
 1190TIP3    H2 3516   2.805   4.429   4.529  1.2701 -0.2540 -1.7792
 1191TIP3   OH2 3517   6.431   0.570   6.732  0.1213  0.2401  0.5885
 1191TIP3    H1 3518   6.464   0.660   6.731  0.5923  0.0683  0.2359
 1191TIP3    H2 3519   6.422   0.549   6.824  0.0163  0.6454  0.6736
 1192TIP3   OH2 3520   1.239   0.520   4.105  0.2758 -0.0588  0.0916
 1192TIP3    H1 3521   1.275   0.545   4.190 -0.9063  0.9616  0.3247
 1192TIP3    H2 3522   1.286   0.574   4.042  0.3547  0.0308  0.2263
 1193TIP3   OH2 3523   1.309   3.140   4.933  0.0527  0.1644  0.1765
 1193TIP3    H1 3524   1.313   3.223   4.884 -0.2340 -0.8614 -1.6697
 1193TIP3    H2 3525   1.224   3.142   4.977 -0.1965  0.6041 -0.3168
 1194TIP3   OH2 3526   0.602   0.507   0.497 -0.1857  0.1972  0.0026
 1194TIP3    H1 3527   0.627   0.438   0.436 -0.1565  0.1461  0.0715
 1194TIP3    H2 3528   0.566   0.577   0.442 -0.0874  0.1841 -0.0783
 1195TIP3   OH2 3529   4.872   5.378   1.220  0.4274  0.1386  0.1787
 1195TIP3    H1 3530   4.946   5.437   1.206 -0.0755  1.0219  1.1151
 1195TIP3    H2 3531   4.856   5.339   1.134  2.4606 -0.6731  0.1196
 1196TIP3   OH2 3532   5.051   7.738   1.372  0.0624  0.4368  0.4873
 1196TIP3    H1 3533   5.036   7.643   1.376  1.1197  0.2904  1.4161
 1196TIP3    H2 3534   4.992   7.768   1.303 -0.1211 -0.9364  0.0047
 1197TIP3   OH2 3535   7.014   4.719   1.267  0.1495 -0.0678  0.1461
 1197TIP3    H1 3536   7.062   4.719   1.350  0.0266  1.4795  0.2484
 1197TIP3    H2 3537   7.081   4.705   1.200  0.6570  1.1700  0.3567
 1198TIP3   OH2 3538   3.573   0.547   1.199 -0.1960 -0.2379 -0.1904
 1198TIP3    H1 3539   3.608   0.636   1.188 -0.4615 -0.1246 -0.1188
 1198TIP3    H2 3540   3.640   0.502   1.251  0.3720 -0.3498 -0.9868
 1199TIP3   OH2 3541   3.814   0.115   4.640  0.3305  0.0791  0.0434
 1199TIP3    H1 3542   3.840   0.088   4.728 -1.9666 -1.5447  0.3321
 1199TIP3    H2 3543   3.718   0.115   4.643  0.1968  1.8419 -1.9557
 1200TIP3   OH2 3544   4.579   7.627   3.952  0.4691 -0.1963  0.1294
 1200TIP3    H1 3545   4.543   7.540   3.970 -0.6539  0.4463  1.2141
 1200TIP3    H2 3546   4.653   7.635   4.012  0.7106 -0.4829 -0.1280
 1201TIP3   OH2 3547   7.481   3.281   4.387 -0.2965  0.5853  0.3389
 1201TIP3    H1 3548   7.572   3.256   4.370 -0.7621 -0.4828 -0.7956
 1201TIP3    H2 3549   7.486   3.348   4.455  1.3633  0.8945 -0.0479
 1202TIP3   OH2 3550   2.361   1.666   3.086 -0.0618  0.7573  0.3825
 1202TIP3    H1 3551   2.441   1.627   3.119 -0.2161 -0.9968 -1.1662
 1202TIP3    H2 3552   2.295   1.646   3.152  0.3529  0.4588  0.7053
 1203TIP3   OH2 3553   5.006   4.364   4.964 -0.6804 -0.8129  0.2802
 1203TIP3    H1 3554   4.928   4.310   4.977  0.2588 -1.9513  1.5260
 1203TIP3    H2 3555   5.072   4.303   4.930  0.1848 -0.3172  1.0187
 1204TIP3   OH2 3556   3.360   1.431   3.295  0.1397  0.2001  0.1023
 1204TIP3    H1 3557   3.341   1.357   3.352  0.6562  1.3117  1.7923
 1204TIP3    H2 3558   3.453   1.422   3.275  0.1814  0.3484  0.2324
 1205TIP3   OH2 3559   1.685   0.986   0.793 -0.3621 -0.0496  0.2050
 1205TIP3    H1 3560   1.638   0.989   0.876 -2.0586  2.6409 -0.7290
 1205TIP3    H2 3561   1.659   0.903   0.753 -0.2437 -0.9508  1.9096
 1206TIP3   OH2 3562   1.577   1.483   4.473  0.3849  0.4498 -0.6225
 1206TIP3    H1 3563   1.661   1.438   4.469  0.5631  0.8307 -1.4640
 1206TIP3    H2 3564   1.584   1.552   4.407  0.5392  2.4120  1.3308
 1207TIP3   OH2 3565   7.924   5.671   4.006  0.1370 -0.2480 -0.1192
 1207TIP3    H1 3566   7.890   5.760   4.007 -0.5419 -0.4695 -1.3167
 1207TIP3    H2 3567   7.911   5.639   4.095 -1.4644  0.1783 -0.1710
 1208TIP3   OH2 3568   7.621   6.146   4.801  0.0003  0.1328 -0.2194
 1208TIP3    H1 3569   7.537   6.187   4.781 -1.1495 -1.9778 -0.0500
 1208TIP3    H2 3570   7.644   6.098   4.721  0.7007  0.1622 -0.0405
 1209TIP3   OH2 3571   0.421   7.705   5.248  0.3614  0.6614 -0.1985
 1209TIP3    H1 3572   0.359   7.726   5.178 -0.8425 -0.3963  0.5068
 1209TIP3    H2 3573   0.369   7.655   5.311  1.0484  2.6745  2.1115
 1210TIP3   OH2 3574   4.354   4.590   2.215 -0.3707  0.1755  0.0737
 1210TIP3    H1 3575   4.263   4.614   2.226 -0.0820  0.7548  1.3060
 1210TIP3    H2 3576   4.398   4.672   2.191 -0.2239 -0.1857 -0.9762
 1211TIP3   OH2 3577   5.978   3.978   6.516 -0.0772 -0.2059 -0.0883
 1211TIP3    H1 3578   5.945   4.066   6.532  0.2443 -0.2011  0.5642
 1211TIP3    H2 3579   5.935   3.923   6.581 -0.3427 -0.5529 -0.5460
 1212TIP3   OH2 3580   0.225   2.584   2.709  0.2558  0.1842 -0.5849
 1212TIP3    H1 3581   0.185   2.579   2.622  2.3936  1.2828 -1.7233
 1212TIP3    H2 3582   0.246   2.493   2.731 -0.4553 -0.1203 -1.1186
 1213TIP3   OH2 3583   4.565   3.020   0.547  0.3455 -0.4884  0.1548
 1213TIP3    H1 3584   4.615   3.049   0.624  0.9977 -0.7042 -0.1781
 1213TIP3    H2 3585   4.572   3.092   0.485 -0.0333 -0.3849  0.2338
 1214TIP3   OH2 3586   6.011   6.079   3.484  0.2150  0.3654 -0.0706
 1214TIP3    H1 3587   6.086   6.124   3.445  1.1366 -0.8651  0.1796
 1214TIP3    H2 3588   5.984   6.016   3.417 -0.2272  0.4048  0.0690
 1215TIP3   OH2 3589   2.822   7.539   4.969 -0.1710  0.1428  0.6270
 1215TIP3    H1 3590   2.743   7.589   4.949 -0.2003  0.3353  1.2064
 1215TIP3    H2 3591   2.797   7.448   4.955  0.2592  0.3309 -1.7166
 1216TIP3   OH2 3592   6.559   3.145   5.475 -0.1877  0.3145  0.2925
 1216TIP3    H1 3593   6.473   3.172   5.507 -0.2927 -0.2686  0.5216
 1216TIP3    H2 3594   6.612   3.224   5.479 -0.2735  0.3219  1.6615
 1217TIP3   OH2 3595   5.798   0.216   1.958  0.5602  0.7802 -0.4995
 1217TIP3    H1 3596   5.773   0.137   1.911  0.0813  0.1638  0.7327
 1217TIP3    H2 3597   5.718   0.268   1.962  0.7305  1.0709 -0.8052
 1218TIP3   OH2 3598   2.289   1.987   0.470  0.0115 -0.3627 -0.2954
 1218TIP3    H1 3599   2.356   2.009   0.535 -0.8318  0.2332  0.3938
 1218TIP3    H2 3600   2.317   1.902   0.435  1.5231  0.2155 -0.5750
 1219TIP3   OH2 3601   6.303   7.229   1.756 -0.1122 -0.3501 -0.3260
 1219TIP3    H1 3602   6.359   7.261   1.826 -0.0816  0.7707 -0.8300
 1219TIP3    H2 3603   6.363   7.213   1.683 -0.2164 -0.9590 -0.2845
 1220TIP3   OH2 3604   7.659   2.778   4.582  0.4564 -0.3838 -0.2340
 1220TIP3    H1 3605   7.655   2.816   4.495  1.2629  0.3497  0.0399
 1220TIP3    H2 3606   7.577   2.803   4.623  0.2644 -0.3570 -0.6300
 1221TIP3   OH2 3607   8.065   6.614   2.333  0.3691 -0.5107 -0.3076
 1221TIP3    H1 3608   8.082   6.558   2.409 -1.1533 -1.7302 -0.8111
 1221TIP3    H2 3609   8.118   6.577   2.263  1.8621  0.6842  0.1531
 1222TIP3   OH2 3610   3.475   4.541   3.303 -0.0307 -0.0440 -0.3120
 1222TIP3    H1 3611   3.532   4.528   3.379 -0.7202 -0.6302  0.1139
 1222TIP3    H2 3612   3.400   4.589   3.337  0.0868  0.5162 -0.8213
 1223TIP3   OH2 3613   2.295   0.750   5.329 -0.0900  0.4076  0.2411
 1223TIP3    H1 3614   2.246   0.695   5.391 -0.8903 -0.3459 -1.0105
 1223TIP3    H2 3615   2.375   0.700   5.311 -0.3632  0.1106 -0.1554
 1224TIP3   OH2 3616   3.652   4.460   1.489 -0.1855  0.2587  0.3289
 1224TIP3    H1 3617   3.585   4.401   1.524 -0.5703  1.1872  1.2195
 1224TIP3    H2 3618   3.718   4.402   1.451 -1.8526 -0.6818 -1.3064
 1225TIP3   OH2 3619   4.368   1.566   0.320 -0.1618 -0.1535 -0.5169
 1225TIP3    H1 3620   4.306   1.623   0.276 -0.4979 -1.1314 -1.3500
 1225TIP3    H2 3621   4.339   1.477   0.298  0.1757 -0.6619  0.9711
 1226TIP3   OH2 3622   4.850   5.748   4.724  0.4302 -0.0966  0.5686
 1226TIP3    H1 3623   4.863   5.751   4.629  0.9039  0.0472  0.6353
 1226TIP3    H2 3624   4.931   5.708   4.758 -0.0392 -0.8156  0.8519
 1227TIP3   OH2 3625   1.846   4.742   4.750  0.3194  0.3353  0.7503
 1227TIP3    H1 3626   1.806   4.770   4.832 -1.4354  3.6911 -1.0391
 1227TIP3    H2 3627   1.773   4.742   4.687  1.5267 -2.4084 -0.8502
 1228TIP3   OH2 3628   3.039   2.178   5.540  0.3904  0.5289 -0.0386
 1228TIP3    H1 3629   2.944   2.165   5.533  0.3688  0.9356 -0.5809
 1228TIP3    H2 3630   3.075   2.089   5.544 -0.0128  0.3733  0.2203
 1229TIP3   OH2 3631   4.134   0.267   5.513 -0.1358 -0.6158 -0.6117
 1229TIP3    H1 3632   4.166   0.350   5.548  0.1958 -0.5366 -1.0936
 1229TIP3    H2 3633   4.053   0.251   5.560  0.0118 -0.2251 -0.2169
 1230TIP3   OH2 3634   5.547   3.714   5.954  0.3997  0.5622  0.1391
 1230TIP3    H1 3635   5.580   3.763   6.030  0.0422  0.3984  0.4067
 1230TIP3    H2 3636   5.462   3.754   5.936  0.8475  1.1595 -0.7120
 1231TIP3   OH2 3637   4.036   7.847   5.138 -0.1267  0.1492 -0.0748
 1231TIP3    H1 3638   3.971   7.817   5.202 -0.4791 -0.5783 -0.7647
 1231TIP3    H2 3639   4.077   7.767   5.105  0.7496  0.5683 -0.0502
 1232TIP3   OH2 3640   0.051   2.367   5.066  0.1740  0.1732 -0.3885
 1232TIP3    H1 3641   0.138   2.336   5.092  0.8836  1.4358 -1.1487
 1232TIP3    H2 3642  -0.001   2.287   5.059  0.7433 -0.4683  1.8559
 1233TIP3   OH2 3643   4.885   4.971   3.598 -0.0383  0.3182  0.9198
 1233TIP3    H1 3644   4.939   5.049   3.584  0.8883 -0.0349  2.3390
 1233TIP3    H2 3645   4.931   4.901   3.554  0.4224  0.1090  1.7239
 1234TIP3   OH2 3646   1.563   0.141   6.015 -0.3234 -0.2106  0.2050
 1234TIP3    H1 3647   1.477   0.114   6.047  0.4508 -0.5450  2.0935
 1234TIP3    H2 3648   1.625   0.101   6.075  1.1829 -0.0490 -1.1781
 1235TIP3   OH2 3649   0.130   7.280   0.084  0.4687 -0.4826  0.1358
 1235TIP3    H1 3650   0.056   7.334   0.055  0.5515 -0.7688 -0.6137
 1235TIP3    H2 3651   0.115   7.269   0.178  0.0489  0.2224  0.1604
 1236TIP3   OH2 3652   8.144   1.975   0.511 -0.3649  0.7420 -0.3061
 1236TIP3    H1 3653   8.216   1.957   0.571  0.4895 -1.8835 -1.9300
 1236TIP3    H2 3654   8.186   2.015   0.434 -0.9138  0.8924 -0.5332
 1237TIP3   OH2 3655   7.056   7.500   4.659  0.2982  0.0107  0.2351
 1237TIP3    H1 3656   6.979   7.479   4.711  1.5281 -1.4154  1.5708
 1237TIP3    H2 3657   7.030   7.485   4.568 -0.3056 -2.8853  0.8100
 1238TIP3   OH2 3658   2.979   5.388   0.816 -0.0445  0.7116 -0.1131
 1238TIP3    H1 3659   2.929   5.336   0.753 -1.2624  2.0499 -0.3160
 1238TIP3    H2 3660   3.029   5.450   0.763  3.3533 -1.6820 -0.0472
 1239TIP3   OH2 3661   0.716   0.144   5.998 -0.1330 -0.1013 -0.6552
 1239TIP3    H1 3662   0.759   0.201   5.934  0.6194 -1.6140 -1.5474
 1239TIP3    H2 3663   0.661   0.086   5.946 -0.8025 -0.2840  0.2265
 1240TIP3   OH2 3664   0.782   0.955   4.855  0.2182 -0.7366  0.1156
 1240TIP3    H1 3665   0.730   1.018   4.805  1.9676  0.9879  0.3216
 1240TIP3    H2 3666   0.862   0.943   4.803 -0.3579 -3.4388 -0.2790
 1241TIP3   OH2 3667   6.511   2.700   2.657  0.0275  0.0651  0.0233
 1241TIP3    H1 3668   6.455   2.753   2.602 -1.4072 -0.4173  0.9587
 1241TIP3    H2 3669   6.513   2.746   2.741  1.3641  0.2680 -0.0909
 1242TIP3   OH2 3670   1.865   4.712   1.139 -0.0540 -0.4757 -0.4994
 1242TIP3    H1 3671   1.776   4.699   1.170 -0.3503  2.0134 -0.0902
 1242TIP3    H2 3672   1.855   4.735   1.047  0.1403  0.0309 -0.3955
 1243TIP3   OH2 3673   5.010   4.033   6.443 -0.0856 -0.3982 -0.6158
 1243TIP3    H1 3674   5.025   3.942   6.418  0.9487  0.2867 -2.7251
 1243TIP3    H2 3675   4.917   4.036   6.466 -0.3685 -1.7902 -1.4322
 1244TIP3   OH2 3676   3.368   4.911   3.464  0.0335  0.2020 -0.4328
 1244TIP3    H1 3677   3.300   4.930   3.529  0.1114  0.4144 -0.4136
 1244TIP3    H2 3678   3.404   4.997   3.441  0.6729  0.0423 -0.0435
 1245TIP3   OH2 3679   3.801   4.162   0.989 -0.3622  0.3997  0.2218
 1245TIP3    H1 3680   3.789   4.070   0.966  2.4323  0.1773 -0.7979
 1245TIP3    H2 3681   3.845   4.160   1.075 -0.4966  0.7888  0.3023
 1246TIP3   OH2 3682   4.358   0.128   2.192  0.5939 -0.4409 -0.1031
 1246TIP3    H1 3683   4.386   0.055   2.137  1.6116  0.0724 -0.2983
 1246TIP3    H2 3684   4.321   0.191   2.131  1.1330 -0.1446 -0.1280
 1247TIP3   OH2 3685   6.530   3.509   6.416 -0.1045 -0.4344 -0.8308
 1247TIP3    H1 3686   6.578   3.477   6.492 -0.8569 -0.1745 -0.2304
 1247TIP3    H2 3687   6.517   3.602   6.433  1.1512  0.0065 -2.0677
 1248TIP3   OH2 3688   2.287   6.381   6.767 -0.0488  0.8543 -0.1118
 1248TIP3    H1 3689   2.263   6.358   6.677 -0.3228  1.8869 -0.3115
 1248TIP3    H2 3690   2.280   6.298   6.815  1.0124  0.0855 -1.2118
 1249TIP3   OH2 3691   0.939   6.836   5.406  0.0967 -0.2427 -0.0984
 1249TIP3    H1 3692   0.923   6.774   5.477  2.1575 -1.9280 -1.0069
 1249TIP3    H2 3693   1.027   6.872   5.424  0.4071 -0.2556 -1.4549
 1250TIP3   OH2 3694   5.258   3.787   4.072  0.4324  0.0117  0.4774
 1250TIP3    H1 3695   5.247   3.832   3.988  0.2407 -2.3948 -0.8765
 1250TIP3    H2 3696   5.349   3.803   4.097  0.3737  1.0938  0.0359
 1251TIP3   OH2 3697   1.305   4.436   2.173  0.0187 -0.4064  0.2496
 1251TIP3    H1 3698   1.353   4.494   2.232  1.3937 -1.3518  0.1193
 1251TIP3    H2 3699   1.220   4.424   2.215 -0.3057  1.6724  0.2700
 1252TIP3   OH2 3700   3.435   0.305   2.485  0.1025  0.2515  0.5634
 1252TIP3    H1 3701   3.470   0.239   2.546  0.9847 -0.5982 -0.7921
 1252TIP3    H2 3702   3.452   0.267   2.399 -0.3151  1.8216 -0.2260
 1253TIP3   OH2 3703   4.657   0.319   0.690  0.9125  0.4077  0.0460
 1253TIP3    H1 3704   4.578   0.348   0.644  0.5493  1.7141  1.4064
 1253TIP3    H2 3705   4.628   0.243   0.741 -0.2476  2.4324  2.6124
 1254TIP3   OH2 3706   7.818   5.245   6.593  0.4096  0.0523  0.3635
 1254TIP3    H1 3707   7.748   5.295   6.550 -0.7624 -2.4006 -0.7425
 1254TIP3    H2 3708   7.799   5.253   6.687 -1.0141 -0.0785  0.1010
 1255TIP3   OH2 3709   7.027   6.847   1.841  0.5670 -0.0328 -0.1895
 1255TIP3    H1 3710   6.999   6.789   1.770 -1.8407  0.5085  0.2484
 1255TIP3    H2 3711   7.052   6.929   1.797  0.3562 -0.1476 -0.5230
 1256TIP3   OH2 3712   0.423   1.237   5.449 -0.4478  0.0388 -0.3307
 1256TIP3    H1 3713   0.373   1.315   5.424  0.7711  1.2688  0.9168
 1256TIP3    H2 3714   0.481   1.267   5.519  2.5093 -1.0993 -2.0880
 1257TIP3   OH2 3715   2.362   0.211   3.657 -0.1555  0.0443 -0.0704
 1257TIP3    H1 3716   2.299   0.281   3.641 -0.7134 -0.0356  1.5687
 1257TIP3    H2 3717   2.309   0.131   3.656  0.4296 -0.3686 -1.6453
 1258TIP3   OH2 3718   7.697   5.109   5.587  0.0257 -0.3364  0.1290
 1258TIP3    H1 3719   7.725   5.083   5.499  0.5984 -1.5372  0.6350
 1258TIP3    H2 3720   7.604   5.089   5.590 -0.8964  3.0666 -1.3490
 1259TIP3   OH2 3721   5.615   3.503   6.557  0.0852  0.3636  0.3350
 1259TIP3    H1 3722   5.596   3.553   6.636  0.5560  1.5066 -0.2534
 1259TIP3    H2 3723   5.676   3.558   6.508 -0.8126  0.0570 -1.1921
 1260TIP3   OH2 3724   8.061   1.833   6.149  0.0416 -0.4827 -0.0307
 1260TIP3    H1 3725   8.054   1.881   6.067 -1.5921 -1.0426 -0.2637
 1260TIP3    H2 3726   8.126   1.765   6.132 -0.2989 -0.6125 -0.8974
 1261TIP3   OH2 3727   1.858   7.759   3.540  0.4171  0.3012  0.3643
 1261TIP3    H1 3728   1.921   7.739   3.609  0.8215 -2.2136 -0.6526
 1261TIP3    H2 3729   1.906   7.819   3.481  1.3287 -0.3558  0.4157
 1262TIP3   OH2 3730   4.465   4.372   5.757 -0.4951  0.2218 -0.5558
 1262TIP3    H1 3731   4.461   4.338   5.668  0.7024  0.2409 -0.6318
 1262TIP3    H2 3732   4.471   4.467   5.746  0.2379  0.1886 -0.4837
 1263TIP3   OH2 3733   4.556   1.833   2.905 -0.0551  0.2193 -0.1224
 1263TIP3    H1 3734   4.470   1.792   2.900  0.1952 -0.4149  0.4726
 1263TIP3    H2 3735   4.609   1.785   2.840  0.5384 -1.2232  1.3429
 1264TIP3   OH2 3736   2.289  -0.010   6.140 -0.2173 -0.2147 -0.0673
 1264TIP3    H1 3737   2.283   0.085   6.129 -0.9951 -0.4176 -1.5650
 1264TIP3    H2 3738   2.377  -0.024   6.177 -0.8972  1.2280  2.3602
 1265TIP3   OH2 3739   6.676   2.991   2.696  0.6829 -0.2730  0.3348
 1265TIP3    H1 3740   6.768   3.016   2.684  1.6424 -2.7906  1.5745
 1265TIP3    H2 3741   6.646   2.968   2.609  1.6579 -0.6778  0.0898
 1266TIP3   OH2 3742   6.111   7.085   4.707  0.1367 -0.6674 -0.0521
 1266TIP3    H1 3743   6.090   7.159   4.763 -0.2977  0.3193 -1.4648
 1266TIP3    H2 3744   6.045   7.019   4.730  1.0924 -1.0231  1.8630
 1267TIP3   OH2 3745   7.270   5.536   5.481  0.6136 -0.3774 -0.2866
 1267TIP3    H1 3746   7.280   5.616   5.429 -2.0288 -0.4075 -1.0110
 1267TIP3    H2 3747   7.288   5.465   5.420 -0.2471 -0.3760 -0.5473
 1268TIP3   OH2 3748   7.647  -0.027   6.591  0.0627  0.3519 -0.2229
 1268TIP3    H1 3749   7.564   0.013   6.565 -0.1544 -0.1588 -0.3105
 1268TIP3    H2 3750   7.696   0.045   6.632 -0.1806  0.8021 -0.7100
 1269TIP3   OH2 3751   4.378   1.288   4.186  0.8780  0.0605 -0.0783
 1269TIP3    H1 3752   4.300   1.280   4.242  0.8814  1.1911  0.1200
 1269TIP3    H2 3753   4.451   1.269   4.245  0.8215  0.2475  0.0534
 1270TIP3   OH2 3754   7.994   4.096   2.050 -0.4693 -0.2084  0.3153
 1270TIP3    H1 3755   7.933   4.078   1.978  0.1725 -2.7480  0.3188
 1270TIP3    H2 3756   8.031   4.182   2.029 -0.9516 -0.4801 -1.9400
 1271TIP3   OH2 3757   5.198   2.126   2.854  0.4380  0.3871 -0.2894
 1271TIP3    H1 3758   5.118   2.100   2.808  1.0976  0.1423 -1.3086
 1271TIP3    H2 3759   5.168   2.190   2.919 -0.8404 -0.9850  0.5420
 1272TIP3   OH2 3760   3.242   5.860   1.865  0.2112  0.0745  0.1001
 1272TIP3    H1 3761   3.196   5.910   1.797  0.6877 -0.0061 -0.2906
 1272TIP3    H2 3762   3.304   5.805   1.817  0.8819  0.3556  0.6221
 1273TIP3   OH2 3763   4.590   7.773   4.289  0.3351  0.2601 -0.2232
 1273TIP3    H1 3764   4.538   7.795   4.212  0.0376  2.0238  0.4385
 1273TIP3    H2 3765   4.583   7.850   4.346  1.1392 -0.7018  1.2499
 1274TIP3   OH2 3766   0.136   3.368   3.215 -0.7008  0.4073 -0.2975
 1274TIP3    H1 3767   0.141   3.274   3.235 -0.4966  0.4233 -0.2642
 1274TIP3    H2 3768   0.179   3.410   3.289  2.4820  0.3250 -1.9073
 1275TIP3   OH2 3769   5.014   4.446   6.384 -0.4396 -0.2770 -0.0142
 1275TIP3    H1 3770   5.055   4.360   6.378 -1.6629 -0.9329  0.4841
 1275TIP3    H2 3771   4.931   4.429   6.430  0.3636  1.5318  2.3270
 1276TIP3   OH2 3772   5.244   1.964   5.475  0.2788 -0.3594  0.1784
 1276TIP3    H1 3773   5.323   1.941   5.523 -1.4251 -2.1642  2.3980
 1276TIP3    H2 3774   5.263   2.049   5.436  2.9123 -0.2452  1.4849
 1277TIP3   OH2 3775   2.136   1.364   2.425  0.1241  0.6764  0.2586
 1277TIP3    H1 3776   2.158   1.384   2.516 -1.8770 -0.8123  1.1616
 1277TIP3    H2 3777   2.073   1.292   2.431 -1.0042  1.3253 -2.2516
 1278TIP3   OH2 3778   8.303   1.227   6.470  0.2435  0.3023  0.5434
 1278TIP3    H1 3779   8.374   1.170   6.497 -0.0885  0.2854  1.4058
 1278TIP3    H2 3780   8.225   1.170   6.470 -0.2605  0.9361  2.3130
 1279TIP3   OH2 3781   0.975   4.747   3.282 -0.2624  0.1975  0.2338
 1279TIP3    H1 3782   0.943   4.828   3.242  1.2340  1.5755  1.6876
 1279TIP3    H2 3783   1.065   4.738   3.250 -0.5108 -1.1096 -0.1675
 1280TIP3   OH2 3784   6.949   6.688   0.655 -0.2213  0.0135 -0.5201
 1280TIP3    H1 3785   6.949   6.777   0.688 -0.3865 -0.1539 -0.0578
 1280TIP3    H2 3786   7.035   6.677   0.614  0.1148  0.1170  0.1520
 1281TIP3   OH2 3787   2.813   1.891   1.505  0.4761  0.2909  0.0928
 1281TIP3    H1 3788   2.835   1.981   1.531  1.7177  0.0539 -0.0639
 1281TIP3    H2 3789   2.843   1.837   1.578  0.3031 -0.0499 -0.0856
 1282TIP3   OH2 3790   5.567   3.533   3.946  0.4034 -0.6471 -0.1524
 1282TIP3    H1 3791   5.559   3.472   3.873  0.2742 -0.4118 -0.3367
 1282TIP3    H2 3792   5.530   3.615   3.913  1.1593 -0.2832 -0.1244
 1283TIP3   OH2 3793   7.967   3.655   4.819 -0.5229 -0.4385  0.6179
 1283TIP3    H1 3794   7.892   3.707   4.789  0.4233 -0.2773 -1.6445
 1283TIP3    H2 3795   8.010   3.710   4.884 -0.9659  0.5364  0.1098
 1284TIP3   OH2 3796   0.955   3.855   2.448  0.2005 -0.1588  0.5339
 1284TIP3    H1 3797   0.897   3.929   2.465 -0.1943 -0.0675 -1.1022
 1284TIP3    H2 3798   0.900   3.778   2.458 -1.0795 -0.0303 -3.5726
 1285TIP3   OH2 3799   6.531   6.583   4.947 -0.2819 -0.0948 -0.0911
 1285TIP3    H1 3800   6.593   6.520   4.985 -0.1572  0.6677  1.0449
 1285TIP3    H2 3801   6.493   6.537   4.872  0.6281 -1.0971  0.0257
 1286TIP3   OH2 3802   7.255   2.835   5.541 -0.0894 -0.4668  0.3473
 1286TIP3    H1 3803   7.231   2.796   5.457  2.0769 -0.7476 -0.2005
 1286TIP3    H2 3804   7.177   2.826   5.595 -1.3602 -0.7602 -1.4577
 1287TIP3   OH2 3805   5.928   3.682   1.442  0.1500  0.6783 -0.1799
 1287TIP3    H1 3806   5.863   3.616   1.467 -1.5566  2.1450 -0.5303
 1287TIP3    H2 3807   6.007   3.632   1.422 -0.2052 -1.0476  2.2351
 1288TIP3   OH2 3808   1.775   6.109   6.685  0.9077  0.4082  0.0316
 1288TIP3    H1 3809   1.807   6.045   6.622 -0.7878  0.0796 -0.5386
 1288TIP3    H2 3810   1.704   6.065   6.731 -1.0212  2.1492 -1.0942
 1289TIP3   OH2 3811   8.055   4.983   2.450  0.2197 -0.2306 -0.1652
 1289TIP3    H1 3812   8.119   4.920   2.415  0.4156 -0.4383  0.5610
 1289TIP3    H2 3813   8.097   5.020   2.527 -0.1913  0.2722 -0.1785
 1290TIP3   OH2 3814   3.277   3.331   1.343  0.5206 -0.5325  0.4816
 1290TIP3    H1 3815   3.340   3.358   1.409  1.9030  0.2870 -1.0875
 1290TIP3    H2 3816   3.290   3.237   1.334 -2.1570 -1.4302  3.7643
 1291TIP3   OH2 3817   5.397   0.231   2.923  0.4017 -0.3383  0.3585
 1291TIP3    H1 3818   5.397   0.231   2.827  0.8933  0.8011  0.3437
 1291TIP3    H2 3819   5.467   0.169   2.946  0.2145 -0.6916 -0.0180
 1292TIP3   OH2 3820   7.830   4.545   1.059 -0.6357 -0.8958  0.2331
 1292TIP3    H1 3821   7.892   4.616   1.069  0.2169 -1.8060  1.7927
 1292TIP3    H2 3822   7.745   4.583   1.082 -0.4901  0.0398 -0.7181
 1293TIP3   OH2 3823   2.475   0.586   5.920 -0.0674 -0.0516  0.0693
 1293TIP3    H1 3824   2.438   0.597   5.832  0.6713 -0.1970 -0.2654
 1293TIP3    H2 3825   2.505   0.673   5.945  1.0958 -0.2901 -0.4536
 1294TIP3   OH2 3826   4.121   4.774   3.588 -0.0841 -0.2508 -0.1708
 1294TIP3    H1 3827   4.211   4.804   3.578 -0.0156  0.5844  2.3127
 1294TIP3    H2 3828   4.129   4.679   3.596  0.5117 -0.2393 -0.5437
 1295TIP3   OH2 3829   3.828   1.092   0.984  0.0357  0.2609 -0.9330
 1295TIP3    H1 3830   3.752   1.067   0.931  0.6986 -3.2561 -0.4627
 1295TIP3    H2 3831   3.809   1.058   1.071  1.6084  0.4625 -0.4827
 1296TIP3   OH2 3832   2.531   1.229   3.798 -0.0214  0.2876  0.4623
 1296TIP3    H1 3833   2.489   1.220   3.713 -0.0153  1.6558  0.2954
 1296TIP3    H2 3834   2.462   1.261   3.856  0.1306 -0.0361  0.8297
 1297TIP3   OH2 3835   7.951   6.381   4.255 -0.3905 -0.5238  0.6836
 1297TIP3    H1 3836   7.989   6.426   4.331  1.0675  0.0220 -0.3212
 1297TIP3    H2 3837   7.859   6.371   4.278  0.0469 -0.6289  2.6418
 1298TIP3   OH2 3838   2.787   6.308   5.266  0.3816  0.0830  0.3463
 1298TIP3    H1 3839   2.850   6.380   5.266  0.9929 -0.4297  0.1187
 1298TIP3    H2 3840   2.768   6.293   5.173  0.0433  0.1386  0.4088
 1299TIP3   OH2 3841   0.116   6.149   2.141 -0.3502 -0.4832  0.3218
 1299TIP3    H1 3842   0.087   6.080   2.082 -1.3464  1.2463 -1.3139
 1299TIP3    H2 3843   0.097   6.116   2.229 -2.3131 -1.6273 -0.4858
 1300TIP3   OH2 3844   7.545   2.498   0.782  0.1161  0.1096  0.2491
 1300TIP3    H1 3845   7.500   2.582   0.793  2.0044  1.5854 -2.1539
 1300TIP3    H2 3846   7.483   2.444   0.733 -0.2197  1.0124 -0.3515
 1301TIP3   OH2 3847   7.355   2.033   2.655 -0.7124 -0.0364  0.2856
 1301TIP3    H1 3848   7.436   2.045   2.606 -0.7433 -3.4769 -0.8577
 1301TIP3    H2 3849   7.289   2.082   2.606  0.0045 -0.2684 -0.9440
 1302TIP3   OH2 3850   6.469   1.960   6.601 -0.0637  0.3675  0.4350
 1302TIP3    H1 3851   6.415   1.885   6.626  1.3357 -0.7001  0.3720
 1302TIP3    H2 3852   6.506   1.935   6.516  1.2678  0.6611  0.9104
 1303TIP3   OH2 3853   4.523   4.713   4.252 -0.0294 -0.0170  0.3565
 1303TIP3    H1 3854   4.507   4.648   4.183  4.2984 -2.1994  1.0674
 1303TIP3    H2 3855   4.462   4.689   4.322  0.4815 -2.4859  0.0454
 1304TIP3   OH2 3856   6.518   1.623   3.568 -0.0666 -0.1827 -0.5406
 1304TIP3    H1 3857   6.517   1.575   3.485 -0.2910  1.2042 -1.3630
 1304TIP3    H2 3858   6.580   1.574   3.622  1.3998 -0.1564 -2.1093
 1305TIP3   OH2 3859   5.933   2.850   3.325  0.1018 -0.0638  0.1463
 1305TIP3    H1 3860   5.984   2.804   3.259  0.2076  1.2133 -0.6892
 1305TIP3    H2 3861   5.997   2.881   3.389  0.1403 -0.2228  0.1842
 1306TIP3   OH2 3862   5.139   0.259   1.532 -0.2279 -0.8636 -0.1206
 1306TIP3    H1 3863   5.154   0.225   1.620 -0.7070 -0.0382  0.3017
 1306TIP3    H2 3864   5.216   0.312   1.513 -0.8152  0.2623  0.4821
 1307TIP3   OH2 3865   7.639   0.175   0.039  0.2677  0.3289  0.0365
 1307TIP3    H1 3866   7.657   0.127   0.120 -0.2921  0.1188  0.0353
 1307TIP3    H2 3867   7.557   0.140   0.007  0.1831  0.8298 -0.3147
 1308TIP3   OH2 3868   5.968   1.153   0.298  0.0719  0.0966 -0.4389
 1308TIP3    H1 3869   5.907   1.110   0.238 -0.8532  3.3974 -2.1370
 1308TIP3    H2 3870   6.042   1.178   0.242  0.5596  0.7082  0.4583
 1309TIP3   OH2 3871   5.882   4.688   3.797  0.1423 -0.5059 -1.2220
 1309TIP3    H1 3872   5.939   4.617   3.765  0.3046 -0.4244 -1.1169
 1309TIP3    H2 3873   5.796   4.648   3.803  0.2198 -0.6768 -1.2294
 1310TIP3   OH2 3874   1.913   6.702   4.175  0.1717  0.3119  0.1607
 1310TIP3    H1 3875   1.888   6.655   4.255  0.5864  0.2581  0.2666
 1310TIP3    H2 3876   1.836   6.754   4.152  0.3912  1.1461  1.2047
 1311TIP3   OH2 3877   1.720   2.857   6.763  0.0292 -0.0128  0.2480
 1311TIP3    H1 3878   1.772   2.935   6.786 -1.2827  1.0459 -0.2414
 1311TIP3    H2 3879   1.742   2.840   6.672 -0.3195  0.3287  0.0945
 1312TIP3   OH2 3880   1.952   4.864   2.858 -0.5200  0.2984 -0.2835
 1312TIP3    H1 3881   1.986   4.776   2.842 -1.5159 -0.1433 -0.0661
 1312TIP3    H2 3882   1.959   4.876   2.952 -1.0316  0.1655 -0.2237
 1313TIP3   OH2 3883   0.943   4.498   3.165  0.7335  0.0393 -0.2496
 1313TIP3    H1 3884   0.952   4.582   3.210 -1.1436  1.0152 -1.5596
 1313TIP3    H2 3885   0.851   4.476   3.175  0.8136 -0.9462 -1.4857
 1314TIP3   OH2 3886   7.623   1.475   3.642  0.1155 -0.0477  0.1200
 1314TIP3    H1 3887   7.573   1.435   3.714 -0.4984  1.1899  0.4237
 1314TIP3    H2 3888   7.708   1.494   3.681  0.9911 -2.4199 -0.4774
 1315TIP3   OH2 3889   3.841   4.324   2.933 -0.3519 -0.0940  0.2708
 1315TIP3    H1 3890   3.795   4.351   3.013  0.7183 -0.1466  0.9224
 1315TIP3    H2 3891   3.771   4.303   2.872 -1.2143  1.5844  0.6216
 1316TIP3   OH2 3892   3.131   0.713   4.290 -0.2300 -0.1447 -0.6371
 1316TIP3    H1 3893   3.046   0.689   4.326  0.3453 -0.6552  0.4280
 1316TIP3    H2 3894   3.173   0.629   4.271  0.7767  0.0379  0.6546
 1317TIP3   OH2 3895   7.613   6.906   6.706 -0.3123  0.1850 -0.0164
 1317TIP3    H1 3896   7.690   6.947   6.746 -0.4779 -0.3972  0.9288
 1317TIP3    H2 3897   7.542   6.921   6.769 -0.5722 -0.7940 -0.0573
 1318TIP3   OH2 3898   6.185   7.152   2.024  0.3612  0.2182 -0.1693
 1318TIP3    H1 3899   6.213   7.096   1.951 -0.3633  0.2492 -0.4813
 1318TIP3    H2 3900   6.236   7.121   2.098 -0.7996 -1.6530 -0.0616
 1319TIP3   OH2 3901   0.316   5.189   0.977 -0.2375  0.1522  0.0229
 1319TIP3    H1 3902   0.271   5.192   1.062  0.6438 -0.6832  0.5409
 1319TIP3    H2 3903   0.365   5.271   0.974  0.4040 -0.1909  0.7228
 1320TIP3   OH2 3904   2.361   5.672   3.574  0.5373 -0.3168 -0.0067
 1320TIP3    H1 3905   2.386   5.590   3.618  1.8657 -0.5828 -1.1652
 1320TIP3    H2 3906   2.387   5.658   3.483 -0.3006  0.9678 -0.4545
 1321TIP3   OH2 3907   0.198   6.100   5.468 -0.0892 -0.0805 -0.3740
 1321TIP3    H1 3908   0.176   6.164   5.400  1.6630 -1.0039 -1.8981
 1321TIP3    H2 3909   0.123   6.041   5.471 -0.1942 -0.0225 -1.5315
 1322TIP3   OH2 3910   0.222   4.628   2.090 -0.0242 -0.1611 -0.6618
 1322TIP3    H1 3911   0.168   4.625   2.169 -0.4016 -0.1915 -0.9183
 1322TIP3    H2 3912   0.174   4.575   2.026  0.3647 -0.2788 -0.8580
 1323TIP3   OH2 3913   2.563   3.727   6.190  0.7074  0.2995 -0.2810
 1323TIP3    H1 3914   2.484   3.779   6.206  1.0107  0.2270  1.8138
 1323TIP3    H2 3915   2.575   3.729   6.095 -1.6015  0.5855 -0.6184
 1324TIP3   OH2 3916   2.040   4.452   1.269  0.3979 -0.6772  0.1297
 1324TIP3    H1 3917   1.978   4.514   1.230  0.9928 -0.2583 -0.1617
 1324TIP3    H2 3918   1.989   4.406   1.336 -0.0862  0.0114  0.2420
 1325TIP3   OH2 3919   2.958   4.915   6.526  0.1269 -0.4336 -0.6945
 1325TIP3    H1 3920   2.935   4.885   6.438 -1.0685 -1.8341  0.0543
 1325TIP3    H2 3921   2.916   4.853   6.585 -0.2641  1.2563  0.9149
 1326TIP3   OH2 3922   6.270   2.753   3.653  0.0378 -0.1517  0.3180
 1326TIP3    H1 3923   6.305   2.842   3.647  1.9511 -0.9019 -0.8703
 1326TIP3    H2 3924   6.242   2.744   3.744  1.2153  1.1852  0.8596
 1327TIP3   OH2 3925   7.736   6.153   3.329  0.4245 -0.8025  0.3086
 1327TIP3    H1 3926   7.829   6.173   3.325  0.6878 -1.9926  0.0632
 1327TIP3    H2 3927   7.711   6.137   3.238 -0.3883  0.9931  0.1745
 1328TIP3   OH2 3928   6.182   0.813   6.643 -0.3711  0.4002 -0.3483
 1328TIP3    H1 3929   6.235   0.826   6.564  1.2695  0.7392  0.7554
 1328TIP3    H2 3930   6.125   0.890   6.645 -1.6721 -0.4583 -2.0856
 1329TIP3   OH2 3931   7.734   5.245   5.994 -0.1705  0.7997  0.1797
 1329TIP3    H1 3932   7.800   5.176   5.983 -0.1997  0.9890 -1.2873
 1329TIP3    H2 3933   7.728   5.287   5.909 -2.7841  0.2511  0.0076
 1330TIP3   OH2 3934   6.000   2.182   5.607  0.6179  0.4481 -0.3212
 1330TIP3    H1 3935   5.907   2.162   5.594  0.3465  0.8539  0.8795
 1330TIP3    H2 3936   6.016   2.255   5.548  0.3520 -0.0599 -1.0389
 1331TIP3   OH2 3937   7.015   2.407   5.019  0.8069  0.2793 -0.0738
 1331TIP3    H1 3938   6.992   2.455   5.098 -1.2141 -1.6956  0.6585
 1331TIP3    H2 3939   6.932   2.369   4.989  1.7981 -0.3157 -2.2494
 1332TIP3   OH2 3940   6.320   6.714   2.374  0.1049  0.5710  0.4730
 1332TIP3    H1 3941   6.289   6.762   2.297  1.6464  0.7729 -0.0482
 1332TIP3    H2 3942   6.342   6.783   2.438  0.1651  0.4630  0.5691
 1333TIP3   OH2 3943   7.870   1.815   3.488  0.4794  0.0488 -0.0575
 1333TIP3    H1 3944   7.905   1.897   3.521  0.6388  0.5371 -1.3703
 1333TIP3    H2 3945   7.816   1.840   3.413 -0.7977 -0.9057  0.5079
 1334TIP3   OH2 3946   3.498   3.608   5.272 -0.3057 -0.1982 -0.0541
 1334TIP3    H1 3947   3.562   3.613   5.201 -0.8514  0.0235 -0.5309
 1334TIP3    H2 3948   3.413   3.620   5.230 -0.5229  1.9405  0.8646
 1335TIP3   OH2 3949   3.658   1.110   2.670  0.2440  0.2921 -0.1776
 1335TIP3    H1 3950   3.577   1.059   2.671  0.0054  0.6769  0.2707
 1335TIP3    H2 3951   3.712   1.066   2.604 -0.2566 -0.0732 -0.3582
 1336TIP3   OH2 3952   4.286   3.788   2.538  0.5884  0.0295  0.3071
 1336TIP3    H1 3953   4.305   3.810   2.447  0.9037 -0.7108  0.1902
 1336TIP3    H2 3954   4.224   3.856   2.566  1.0927  0.7298 -0.2146
 1337TIP3   OH2 3955   8.109   6.432   1.172 -0.1707  0.3324 -0.2819
 1337TIP3    H1 3956   8.201   6.449   1.154  0.0390 -0.9871 -0.5840
 1337TIP3    H2 3957   8.104   6.337   1.186 -1.5738  0.2808 -0.8781
 1338TIP3   OH2 3958   3.622   0.165   5.480 -0.3047  0.4594  0.8037
 1338TIP3    H1 3959   3.647   0.082   5.439  0.5409  1.2656 -0.3642
 1338TIP3    H2 3960   3.570   0.139   5.556 -1.4136 -1.1194 -0.4215
 1339TIP3   OH2 3961   3.832   4.453   0.986 -0.0638 -0.3187  0.4109
 1339TIP3    H1 3962   3.758   4.481   0.932  1.6173 -0.0037 -1.9232
 1339TIP3    H2 3963   3.832   4.358   0.980  0.3072 -0.2736 -0.4909
 1340TIP3   OH2 3964   6.011   6.304   3.292  0.5420 -0.5828  0.7010
 1340TIP3    H1 3965   5.958   6.377   3.259 -0.4976 -1.8719 -0.6369
 1340TIP3    H2 3966   6.067   6.343   3.359  1.4217  1.8567 -1.2829
 1341TIP3   OH2 3967   0.290   7.477   0.175 -0.0437  0.0128 -0.0595
 1341TIP3    H1 3968   0.228   7.528   0.227  0.1798  0.8729 -0.6141
 1341TIP3    H2 3969   0.236   7.424   0.118 -0.2736  0.2764 -0.0876
 1342TIP3   OH2 3970   6.064   0.136   2.397  0.4097  0.3927 -0.3230
 1342TIP3    H1 3971   5.983   0.138   2.346 -0.1192  0.6730  0.5056
 1342TIP3    H2 3972   6.071   0.047   2.429  0.4627  0.3537 -0.4425
 1343TIP3   OH2 3973   1.307   2.086   5.333  0.4141 -0.1984 -0.5879
 1343TIP3    H1 3974   1.332   2.158   5.275 -0.5446 -0.2068 -1.0409
 1343TIP3    H2 3975   1.228   2.117   5.377  0.6926 -0.5002  0.1401
 1344TIP3   OH2 3976   7.173   3.919   0.990 -0.0881  0.1082  0.3081
 1344TIP3    H1 3977   7.158   3.862   0.916 -2.2246  2.9482 -1.6649
 1344TIP3    H2 3978   7.230   3.988   0.956  0.2582  0.6106  1.8008
 1345TIP3   OH2 3979   3.708   2.062   0.972 -0.1206  0.1548  0.7144
 1345TIP3    H1 3980   3.697   2.152   0.941 -0.0075 -0.0203  0.1537
 1345TIP3    H2 3981   3.763   2.020   0.906 -1.8265 -0.8790 -0.1335
 1346TIP3   OH2 3982   4.315   4.388   1.394 -0.3010  0.0250  0.4019
 1346TIP3    H1 3983   4.267   4.352   1.469 -0.7855 -0.2073 -0.0095
 1346TIP3    H2 3984   4.310   4.319   1.328  0.3936  0.1068  0.2653
 1347TIP3   OH2 3985   0.933   6.423   4.180 -0.6072 -0.3245 -1.2579
 1347TIP3    H1 3986   0.916   6.382   4.265  0.9111  0.3009 -0.6252
 1347TIP3    H2 3987   0.846   6.446   4.148 -1.2004 -0.1769  0.3349
 1348TIP3   OH2 3988   7.848   1.356   2.038 -0.2674  0.2680  0.1886
 1348TIP3    H1 3989   7.836   1.270   1.999  2.2289 -1.7205  3.3076
 1348TIP3    H2 3990   7.772   1.368   2.094 -1.6485  1.1559 -1.7531
 1349TIP3   OH2 3991   3.684   1.941   0.492  0.3068 -0.1042  0.2890
 1349TIP3    H1 3992   3.608   1.980   0.534 -0.4253  2.2077 -2.8899
 1349TIP3    H2 3993   3.652   1.859   0.455 -0.9475  1.2009 -1.6673
 1350TIP3   OH2 3994   4.191   1.960   1.176 -0.1732  0.0669  0.2450
 1350TIP3    H1 3995   4.150   2.037   1.135 -1.0758  0.0145  1.0128
 1350TIP3    H2 3996   4.154   1.886   1.128  0.0886  0.0781  0.0258
 1351TIP3   OH2 3997   6.973   0.607   1.715  0.3564 -0.3507 -0.0462
 1351TIP3    H1 3998   7.063   0.587   1.686  0.4616 -1.1398  0.7967
 1351TIP3    H2 3999   6.983   0.631   1.807 -0.1501  0.8489 -0.2777
 1352TIP3   OH2 4000   2.553   4.567   6.656 -0.4074  0.3824  0.1979
 1352TIP3    H1 4001   2.490   4.638   6.671  0.0079  2.0677 -4.3149
 1352TIP3    H2 4002   2.632   4.595   6.701 -1.4768  0.5219  2.0935
 1353TIP3   OH2 4003   3.811   3.774   2.273 -0.0136 -0.5977 -0.2100
 1353TIP3    H1 4004   3.731   3.781   2.325 -0.7039  1.0034 -1.4192
 1353TIP3    H2 4005   3.881   3.768   2.338 -0.8475  1.1472  0.9276
 1354TIP3   OH2 4006   5.660   1.437   6.184  0.3171  0.0767  0.6474
 1354TIP3    H1 4007   5.644   1.456   6.277  0.1290  2.6971  0.1749
 1354TIP3    H2 4008   5.574   1.445   6.143  0.6942  0.9724 -0.0112
 1355TIP3   OH2 4009   0.675   2.014   3.886  0.3192 -0.0111  0.7260
 1355TIP3    H1 4010   0.599   2.028   3.943 -0.1868  1.1787 -0.2102
 1355TIP3    H2 4011   0.648   1.945   3.826 -0.4590  1.1458 -0.2997
 1356TIP3   OH2 4012   0.850   7.405   5.143  0.3106  0.0758 -0.4268
 1356TIP3    H1 4013   0.843   7.496   5.117  0.9323 -0.0115 -0.9250
 1356TIP3    H2 4014   0.943   7.393   5.165  0.3718 -0.6003 -1.0044
 1357TIP3   OH2 4015   1.672   1.193   0.260 -0.0278 -0.6729  0.3936
 1357TIP3    H1 4016   1.672   1.288   0.251 -1.3933 -0.8200 -2.1835
 1357TIP3    H2 4017   1.631   1.176   0.345 -1.1511  1.0125  0.2151
 1358TIP3   OH2 4018   8.191   3.038   1.900  0.1476  0.3191 -0.1473
 1358TIP3    H1 4019   8.191   2.965   1.839 -1.9252 -1.0313  1.3570
 1358TIP3    H2 4020   8.127   3.099   1.865  0.7790  0.7308 -0.6054
 1359TIP3   OH2 4021   5.351   1.400   6.433  0.5590  0.3190 -0.3151
 1359TIP3    H1 4022   5.361   1.494   6.448 -2.7172  0.5553  1.1751
 1359TIP3    H2 4023   5.381   1.359   6.515 -0.2292  0.2679 -0.0438
 1360TIP3   OH2 4024   0.161   4.984   6.451  0.4198 -0.1551  0.1950
 1360TIP3    H1 4025   0.074   4.944   6.451 -0.5051  1.6872 -1.5127
 1360TIP3    H2 4026   0.219   4.916   6.420 -0.8280 -0.7027 -1.0275
 1361TIP3   OH2 4027   2.375   3.530   4.147 -0.1000  0.1948 -0.1196
 1361TIP3    H1 4028   2.428   3.590   4.094 -0.8436 -0.4759 -1.6676
 1361TIP3    H2 4029   2.439   3.468   4.184  0.4666  0.8720  0.0688
 1362TIP3   OH2 4030   7.503   5.490   3.183 -0.0404 -0.0989  0.0512
 1362TIP3    H1 4031   7.582   5.522   3.140  1.1639 -1.4142  1.1741
 1362TIP3    H2 4032   7.509   5.395   3.175 -0.8569 -0.2768  1.2567
 1363TIP3   OH2 4033   0.883   0.997   0.915  0.4507  0.0500  0.4843
 1363TIP3    H1 4034   0.975   1.007   0.941  0.4690 -1.1259  0.9678
 1363TIP3    H2 4035   0.884   1.002   0.820  1.1080 -0.4479  0.4565
 1364TIP3   OH2 4036   1.311   7.253   5.910  0.4539 -0.3116  0.0785
 1364TIP3    H1 4037   1.325   7.316   5.981 -0.6547 -0.4956  0.4785
 1364TIP3    H2 4038   1.383   7.270   5.849  0.9312  0.4388  0.8214
 1365TIP3   OH2 4039   7.305   5.369   3.881 -0.1502  0.6373 -0.7893
 1365TIP3    H1 4040   7.232   5.420   3.846  0.1111  1.1958 -0.5408
 1365TIP3    H2 4041   7.377   5.384   3.819  0.1497  1.1862 -0.3210
 1366TIP3   OH2 4042   3.610   2.640   0.579 -0.0217 -0.4567 -0.1038
 1366TIP3    H1 4043   3.653   2.645   0.494  0.0473 -2.0165 -0.1872
 1366TIP3    H2 4044   3.517   2.629   0.559 -0.3934  1.7789  0.0750
 1367TIP3   OH2 4045   5.025   5.820   3.401  0.2378  0.5019 -0.7730
 1367TIP3    H1 4046   4.989   5.889   3.456  0.7190  1.2593 -1.3933
 1367TIP3    H2 4047   5.112   5.804   3.437 -0.4826 -0.9893  0.4227
 1368TIP3   OH2 4048   7.668   2.380   4.055  0.1755 -0.2732 -0.0187
 1368TIP3    H1 4049   7.747   2.342   4.016  0.5068  0.2927  0.0899
 1368TIP3    H2 4050   7.663   2.342   4.142  0.2440 -0.4295 -0.0836
 1369TIP3   OH2 4051   1.332   5.363   3.117  0.1485 -0.1361 -0.2979
 1369TIP3    H1 4052   1.406   5.359   3.177  0.3920 -0.7921 -0.6359
 1369TIP3    H2 4053   1.366   5.330   3.034 -0.9638 -2.1448 -0.0091
 1370TIP3   OH2 4054   0.633   3.179   1.391  0.2571  0.2031  0.2553
 1370TIP3    H1 4055   0.633   3.228   1.309  1.1210  0.8384  0.6067
 1370TIP3    H2 4056   0.549   3.201   1.432  0.2293  0.6428 -0.0262
 1371TIP3   OH2 4057   3.397   6.286   5.691 -0.7672 -0.1327  0.0150
 1371TIP3    H1 4058   3.312   6.329   5.683  0.2656  1.6978 -2.5123
 1371TIP3    H2 4059   3.380   6.195   5.668 -1.8417  0.5389 -2.0464
 1372TIP3   OH2 4060   6.444   7.641   5.017 -0.5750 -0.2363 -0.6535
 1372TIP3    H1 4061   6.411   7.730   5.018 -0.6571 -0.2649  0.7617
 1372TIP3    H2 4062   6.396   7.599   4.945 -0.7942  0.7495 -1.0996
 1373TIP3   OH2 4063   1.952   3.691   4.290  0.2140 -0.0617 -0.1067
 1373TIP3    H1 4064   1.878   3.631   4.302 -0.0506  0.1124 -0.8365
 1373TIP3    H2 4065   1.935   3.763   4.350  0.0936 -0.3011  0.1501
 1374TIP3   OH2 4066   6.942   4.964   5.206 -0.0699  0.3427  0.0719
 1374TIP3    H1 4067   7.031   4.992   5.226  0.3522 -0.4587 -0.6268
 1374TIP3    H2 4068   6.886   5.033   5.242  0.7373 -0.0055  2.0938
 1375TIP3   OH2 4069   2.745   4.151   6.683 -0.7571 -0.2531  0.1107
 1375TIP3    H1 4070   2.693   4.214   6.734 -0.4151 -0.5847  0.8791
 1375TIP3    H2 4071   2.749   4.073   6.738  0.0741 -0.4357 -0.2018
 1376TIP3   OH2 4072   5.385   2.090   2.008 -0.3355 -0.0192  0.2867
 1376TIP3    H1 4073   5.363   2.053   2.093 -3.6173  1.6974  0.3887
 1376TIP3    H2 4074   5.425   2.175   2.028  1.3783 -0.7424  0.0610
 1377TIP3   OH2 4075   8.071   7.508   4.627  0.1595 -0.2553 -0.3064
 1377TIP3    H1 4076   8.088   7.511   4.533  0.7139 -2.1920 -0.3134
 1377TIP3    H2 4077   7.976   7.501   4.633  0.0549  0.6452 -0.6692
 1378TIP3   OH2 4078   6.972   1.216   0.525 -0.1248  0.1967 -0.4969
 1378TIP3    H1 4079   6.941   1.144   0.580  0.4432 -0.1751 -0.6558
 1378TIP3    H2 4080   7.067   1.210   0.529 -0.0627 -0.2816 -2.0834
 1379TIP3   OH2 4081   3.353   7.304   4.569  0.9798 -0.0445 -1.0552
 1379TIP3    H1 4082   3.362   7.329   4.477  1.2204 -0.8065 -1.2489
 1379TIP3    H2 4083   3.270   7.342   4.597  0.4437 -0.5921 -1.8551
 1380TIP3   OH2 4084   3.882   4.336   0.503 -0.6971 -0.0416 -0.1047
 1380TIP3    H1 4085   3.959   4.284   0.483 -0.9760 -0.7892  0.7271
 1380TIP3    H2 4086   3.865   4.321   0.596 -2.3808 -0.6279 -0.4675
 1381TIP3   OH2 4087   1.888   7.736   0.524 -0.0977 -0.1065  0.7251
 1381TIP3    H1 4088   1.974   7.732   0.566  0.6278 -2.1674 -0.7500
 1381TIP3    H2 4089   1.837   7.668   0.567 -0.3041 -0.2615  0.2456
 1382TIP3   OH2 4090   0.746   4.812   4.247 -0.5315 -0.6499  0.0766
 1382TIP3    H1 4091   0.686   4.739   4.229  1.2216 -2.0590 -0.3892
 1382TIP3    H2 4092   0.765   4.850   4.162  1.0528 -1.7759 -0.1239
 1383TIP3   OH2 4093   1.182   3.230   2.770  0.4385  0.2428  0.2310
 1383TIP3    H1 4094   1.129   3.306   2.747 -0.4171 -0.7184 -1.1489
 1383TIP3    H2 4095   1.168   3.218   2.864 -0.6205  0.8710  0.1622
 1384TIP3   OH2 4096   0.747   2.898   2.625  0.0929  0.1122 -0.2153
 1384TIP3    H1 4097   0.697   2.862   2.551 -0.3426 -0.2748  0.2548
 1384TIP3    H2 4098   0.804   2.826   2.653  0.0725  0.1719 -0.0147
 1385TIP3   OH2 4099   2.916   1.044   0.979 -0.3443  0.3768 -0.3904
 1385TIP3    H1 4100   2.959   1.069   0.898 -1.2958  0.7117 -0.7980
 1385TIP3    H2 4101   2.979   1.067   1.048  0.4588  0.1053 -1.0164
 1386TIP3   OH2 4102   2.383   5.842   3.786 -0.3989 -0.0905  0.0040
 1386TIP3    H1 4103   2.384   5.816   3.694  0.9064 -0.5138  0.1159
 1386TIP3    H2 4104   2.306   5.898   3.795 -0.8271 -0.4627 -1.2242
 1387TIP3   OH2 4105   0.181   6.068   3.860 -0.5001  0.4751 -1.2075
 1387TIP3    H1 4106   0.156   6.132   3.927  1.5919  0.4409 -0.2943
 1387TIP3    H2 4107   0.099   6.045   3.817 -1.7110  1.6561  0.3214
 1388TIP3   OH2 4108   0.259   0.386   6.790 -0.5980 -0.1588  0.3694
 1388TIP3    H1 4109   0.194   0.333   6.838 -1.3056 -0.0535 -0.4545
 1388TIP3    H2 4110   0.236   0.375   6.698  1.2180 -0.9900 -0.0363
 1389TIP3   OH2 4111   1.865   6.540   6.421 -0.5632  0.1762 -0.1315
 1389TIP3    H1 4112   1.874   6.540   6.516 -0.8616  0.4704 -0.1021
 1389TIP3    H2 4113   1.777   6.575   6.405 -0.5850 -0.0391 -0.5071
 1390TIP3   OH2 4114   3.384   5.088   4.468  0.4727 -0.5941 -0.2734
 1390TIP3    H1 4115   3.471   5.055   4.442  0.8594  0.9432 -1.0467
 1390TIP3    H2 4116   3.342   5.109   4.385  0.1350  0.5419  0.1689
 1391TIP3   OH2 4117   5.142   1.759   3.628 -0.0008 -0.4068 -0.5429
 1391TIP3    H1 4118   5.154   1.783   3.720  0.2000 -1.3247 -0.3158
 1391TIP3    H2 4119   5.110   1.838   3.586  0.6900  0.2606  0.1548
 1392TIP3   OH2 4120   3.153   5.637   1.575  0.8031  0.4301  0.2559
 1392TIP3    H1 4121   3.225   5.640   1.513  0.5091 -1.9229 -0.2747
 1392TIP3    H2 4122   3.166   5.555   1.623 -1.4816 -0.0256  0.1800
 1393TIP3   OH2 4123   3.237   0.937   2.185 -0.2385  0.4300 -0.1872
 1393TIP3    H1 4124   3.158   0.991   2.194  0.2006  1.3421 -1.4821
 1393TIP3    H2 4125   3.207   0.857   2.143 -0.7792 -0.0384  1.0733
 1394TIP3   OH2 4126   0.285   5.100   2.457 -0.2397 -0.0627 -0.2405
 1394TIP3    H1 4127   0.229   5.129   2.385 -1.6207 -2.9639 -0.4751
 1394TIP3    H2 4128   0.241   5.130   2.536 -1.2100 -0.7998 -0.4890
 1395TIP3   OH2 4129   1.143   4.326   3.224  0.2165 -0.2315  0.2702
 1395TIP3    H1 4130   1.082   4.398   3.205  1.1404  0.2375 -1.1031
 1395TIP3    H2 4131   1.093   4.247   3.204 -0.3077  0.0973  0.2516
 1396TIP3   OH2 4132   4.230   6.118   2.683 -0.2485  0.3315  0.4365
 1396TIP3    H1 4133   4.238   6.026   2.709  1.1449  0.5385  0.8657
 1396TIP3    H2 4134   4.184   6.159   2.756 -4.0674 -0.5832 -1.2487
 1397TIP3   OH2 4135   3.843   2.760   3.933  0.0780 -0.6210  0.3326
 1397TIP3    H1 4136   3.819   2.670   3.911 -2.9077  0.1670 -0.0851
 1397TIP3    H2 4137   3.847   2.761   4.029  0.0929 -1.1743  0.3403
 1398TIP3   OH2 4138   3.781   0.844   6.284  0.0908  0.5253 -0.6930
 1398TIP3    H1 4139   3.755   0.925   6.327  1.7290  1.1568 -0.8075
 1398TIP3    H2 4140   3.874   0.857   6.263  0.2236 -1.1323 -1.2817
 1399TIP3   OH2 4141   7.258   6.252   4.259  0.5047  0.7869 -0.2896
 1399TIP3    H1 4142   7.176   6.279   4.218 -0.4515  0.7243  1.4875
 1399TIP3    H2 4143   7.251   6.282   4.350  2.0145 -0.1170  0.1730
 1400TIP3   OH2 4144   4.042   6.602   0.693 -0.0984  0.1724 -0.3037
 1400TIP3    H1 4145   4.075   6.597   0.783  0.8908  2.2602 -0.4811
 1400TIP3    H2 4146   4.076   6.523   0.651 -0.8580 -1.0161  1.1978
 1401TIP3   OH2 4147   1.764   5.654   0.098  0.8589 -0.0087  0.1739
 1401TIP3    H1 4148   1.679   5.610   0.092  1.6976 -1.6620 -0.3697
 1401TIP3    H2 4149   1.750   5.725   0.160 -1.0809  0.1886 -0.3947
 1402TIP3   OH2 4150   6.349   1.729   6.666  0.1377 -0.4025 -0.0058
 1402TIP3    H1 4151   6.370   1.742   6.759 -0.6142  0.8651  0.0065
 1402TIP3    H2 4152   6.254   1.734   6.662  0.1773 -0.2759 -0.8782
 1403TIP3   OH2 4153   2.192   0.248   1.009  0.2097  0.3786  0.0701
 1403TIP3    H1 4154   2.254   0.320   0.999  0.2241  0.5862  1.4056
 1403TIP3    H2 4155   2.222   0.181   0.947  0.9959  0.9900 -0.2159
 1404TIP3   OH2 4156   2.570   5.493   5.481 -0.2172  0.6280 -0.1567
 1404TIP3    H1 4157   2.558   5.451   5.567 -1.2964  1.7560  0.2737
 1404TIP3    H2 4158   2.513   5.443   5.422 -0.2630  0.4755  0.0146
 1405TIP3   OH2 4159   6.020   3.332   4.013  0.0258  0.3049  0.0185
 1405TIP3    H1 4160   5.977   3.417   4.009  1.7867  1.2448 -0.2404
 1405TIP3    H2 4161   6.098   3.343   3.958  0.4916 -1.3597  0.3044
 1406TIP3   OH2 4162   2.358   0.783   3.665 -0.8578  0.0582  0.3314
 1406TIP3    H1 4163   2.321   0.848   3.725 -0.5828 -0.9967  1.6988
 1406TIP3    H2 4164   2.427   0.830   3.617 -1.0104  0.8958  0.9232
 1407TIP3   OH2 4165   5.039   7.397   4.137  0.1385  0.1442 -0.5405
 1407TIP3    H1 4166   5.132   7.383   4.151  0.3927  2.0561 -0.1418
 1407TIP3    H2 4167   5.009   7.443   4.216 -0.6055  1.7928 -1.7328
 1408TIP3   OH2 4168   0.332   4.423   1.478 -0.3049  0.2513 -0.2231
 1408TIP3    H1 4169   0.333   4.335   1.441 -3.4617 -0.9047  2.0474
 1408TIP3    H2 4170   0.242   4.436   1.508  1.2068  2.1447  4.2640
 1409TIP3   OH2 4171   7.500   7.202   0.037 -0.1533  0.4642  0.3765
 1409TIP3    H1 4172   7.420   7.208   0.090 -0.1301  3.5171  0.2180
 1409TIP3    H2 4173   7.469   7.199  -0.053 -0.0916 -1.4428  0.3697
 1410TIP3   OH2 4174   5.591   1.733   4.565  0.4368 -0.0096  0.3333
 1410TIP3    H1 4175   5.643   1.760   4.641  1.1518 -1.7701  0.5119
 1410TIP3    H2 4176   5.650   1.742   4.491  0.2417  0.2287  0.2076
 1411TIP3   OH2 4177   1.461   5.209   0.326  0.2841  0.2335  0.5207
 1411TIP3    H1 4178   1.420   5.195   0.240  1.8118  1.1745 -0.4224
 1411TIP3    H2 4179   1.497   5.123   0.349  1.7579  0.4301 -0.8653
 1412TIP3   OH2 4180   0.509   1.965   0.156  0.0301 -0.1224  0.0153
 1412TIP3    H1 4181   0.562   2.031   0.111 -2.9679  2.1644 -0.4340
 1412TIP3    H2 4182   0.528   1.884   0.109  2.9951  0.5316 -0.1377
 1413TIP3   OH2 4183   6.175   6.775   5.643  0.3911 -0.9785 -0.2333
 1413TIP3    H1 4184   6.233   6.831   5.593 -1.3191  1.2399  0.1157
 1413TIP3    H2 4185   6.173   6.814   5.730 -0.1174 -2.1638  0.3058
 1414TIP3   OH2 4186   3.015   7.557   5.634 -0.0405 -0.3625 -0.2988
 1414TIP3    H1 4187   2.930   7.547   5.677 -0.2214  0.6356 -0.3953
 1414TIP3    H2 4188   3.028   7.652   5.627  1.3856 -0.4797  0.3105
 1415TIP3   OH2 4189   6.201   3.202   3.093  0.3493 -0.0762 -0.6224
 1415TIP3    H1 4190   6.243   3.281   3.126  2.1149 -1.1310 -0.2274
 1415TIP3    H2 4191   6.246   3.130   3.138 -1.7120 -1.2979 -0.4120
 1416TIP3   OH2 4192   1.056   0.986   6.268  0.2673 -0.1411 -0.7694
 1416TIP3    H1 4193   1.110   1.057   6.303 -1.6578  1.1032 -0.1798
 1416TIP3    H2 4194   1.007   1.026   6.197 -0.0432 -1.1917 -1.1631
 1417TIP3   OH2 4195   0.154   2.194   0.321 -0.2165 -0.1851 -0.3502
 1417TIP3    H1 4196   0.142   2.186   0.226 -0.1121 -0.6119 -0.3293
 1417TIP3    H2 4197   0.066   2.186   0.357 -0.3267  0.5753 -0.4507
 1418TIP3   OH2 4198   0.784   0.991   6.039 -0.0159 -0.4748  0.4058
 1418TIP3    H1 4199   0.720   0.928   6.003 -1.5792 -0.3897  2.8099
 1418TIP3    H2 4200   0.784   1.062   5.975 -1.6833 -0.8806 -0.1266
 1419TIP3   OH2 4201   1.498   1.037   4.795  0.2354  0.0263  0.2961
 1419TIP3    H1 4202   1.484   1.122   4.752  1.1147 -0.3204 -0.7114
 1419TIP3    H2 4203   1.428   0.981   4.760  1.0994 -0.3287 -0.9483
 1420TIP3   OH2 4204   1.125   0.435   0.340  0.2914 -0.2382  0.0292
 1420TIP3    H1 4205   1.189   0.443   0.410 -0.2991  1.1664  0.4458
 1420TIP3    H2 4206   1.050   0.393   0.381 -0.2238  0.9870  0.3930
 1421TIP3   OH2 4207   6.017   6.015   3.813 -0.0925 -0.2759  0.1813
 1421TIP3    H1 4208   6.041   6.038   3.723  0.3090 -1.7784 -0.1327
 1421TIP3    H2 4209   6.096   6.032   3.864 -0.5594  1.3343  0.4323
 1422TIP3   OH2 4210   0.935   6.710   5.181 -0.3053 -0.2693  0.3712
 1422TIP3    H1 4211   1.026   6.717   5.153 -0.2260  0.8613  0.8537
 1422TIP3    H2 4212   0.935   6.741   5.271 -1.3761  1.1187 -0.0622
 1423TIP3   OH2 4213   6.304   1.076   2.613 -0.2828  0.6214 -0.0768
 1423TIP3    H1 4214   6.326   1.163   2.580  0.2611  1.2137  1.7090
 1423TIP3    H2 4215   6.383   1.024   2.598  0.2665  1.1173  0.9941
 1424TIP3   OH2 4216   7.024   5.883   1.562  0.0427 -0.2242  0.2739
 1424TIP3    H1 4217   7.067   5.800   1.582  1.1973  0.5716  1.2807
 1424TIP3    H2 4218   7.040   5.898   1.469  2.8897  0.4993  0.7848
 1425TIP3   OH2 4219   0.662   0.429   1.227 -0.0647  0.2864 -0.1108
 1425TIP3    H1 4220   0.591   0.473   1.275  1.5746  1.4406  1.4012
 1425TIP3    H2 4221   0.684   0.489   1.156  0.2652  0.5747  0.2290
 1426TIP3   OH2 4222   5.280   1.490   3.643 -0.1440  0.3384 -0.2502
 1426TIP3    H1 4223   5.233   1.444   3.713 -0.8831  2.8895  1.0701
 1426TIP3    H2 4224   5.229   1.570   3.628  1.4453  1.1226 -1.8728
 1427TIP3   OH2 4225   7.909   1.435   2.780  0.1827 -0.1110  0.5289
 1427TIP3    H1 4226   7.841   1.456   2.717  1.3214  2.5016  0.0396
 1427TIP3    H2 4227   7.940   1.348   2.754 -0.8050  0.0159 -1.2042
 1428TIP3   OH2 4228   4.086   5.950   0.904  0.4140  0.2146  0.1169
 1428TIP3    H1 4229   4.120   5.861   0.891 -0.3784 -0.3488  1.6526
 1428TIP3    H2 4230   4.135   5.984   0.979 -0.1481  0.6145  0.3080
 1429TIP3   OH2 4231   5.565   0.021   0.670  0.1162  0.2176  0.1063
 1429TIP3    H1 4232   5.550  -0.070   0.697 -1.1673  0.4260  0.1499
 1429TIP3    H2 4233   5.479   0.053   0.645  0.3028  1.8523  1.3856
 1430TIP3   OH2 4234   7.284   5.462   1.466 -0.2028  0.0101  0.2717
 1430TIP3    H1 4235   7.374   5.432   1.453 -0.6978 -1.2633 -0.4040
 1430TIP3    H2 4236   7.286   5.555   1.444  1.1793  0.2906  1.4340
 1431TIP3   OH2 4237   6.533   4.535   1.059  0.6150  0.1446 -0.3033
 1431TIP3    H1 4238   6.616   4.581   1.047  1.3289 -1.2831 -0.9878
 1431TIP3    H2 4239   6.501   4.520   0.970 -0.5261  0.8944 -0.0420
 1432TIP3   OH2 4240   7.335   5.725   5.285 -0.2617 -0.2457  0.0037
 1432TIP3    H1 4241   7.392   5.797   5.312  0.2210 -0.3435 -0.7217
 1432TIP3    H2 4242   7.389   5.672   5.227 -0.4712 -1.4393  0.8511
 1433TIP3   OH2 4243   7.065   2.505   5.688  0.5737 -0.6528 -0.1782
 1433TIP3    H1 4244   7.024   2.482   5.605 -1.4290  2.8576 -0.3676
 1433TIP3    H2 4245   7.159   2.497   5.671  0.1887 -1.4282 -2.3011
 1434TIP3   OH2 4246   0.495   7.712   0.723  0.2051 -0.4129  0.4394
 1434TIP3    H1 4247   0.558   7.753   0.665  0.9012 -0.9061  0.8273
 1434TIP3    H2 4248   0.423   7.685   0.666  0.0378  0.7342  0.0921
 1435TIP3   OH2 4249   3.575   0.865   3.117  0.0017  0.6042 -0.2409
 1435TIP3    H1 4250   3.594   0.850   3.210  0.5949  2.1526 -0.0817
 1435TIP3    H2 4251   3.654   0.835   3.072  0.1456  0.8278 -0.1431
 1436TIP3   OH2 4252   1.598   3.734   1.458  0.1840  0.2395 -0.1722
 1436TIP3    H1 4253   1.603   3.653   1.509 -1.3597  0.2574  0.0639
 1436TIP3    H2 4254   1.685   3.771   1.463  0.8622 -1.2906 -0.0783
 1437TIP3   OH2 4255   5.973   3.213   6.473 -0.1976 -0.2541  0.1693
 1437TIP3    H1 4256   5.958   3.294   6.423 -0.0545  0.1121  0.7062
 1437TIP3    H2 4257   5.957   3.238   6.564 -0.2454 -0.8602  0.3293
 1438TIP3   OH2 4258   3.832   6.492   3.456 -0.1441  0.3100  0.0704
 1438TIP3    H1 4259   3.854   6.574   3.413  0.8206  0.4646  0.8211
 1438TIP3    H2 4260   3.902   6.432   3.432  1.4735  0.9167  2.8051
 1439TIP3   OH2 4261   0.570   1.772   4.777 -0.2703 -0.3127  0.2526
 1439TIP3    H1 4262   0.665   1.769   4.765 -0.1692 -3.9429  0.8615
 1439TIP3    H2 4263   0.558   1.782   4.871 -0.4993  0.0871  0.1825
 1440TIP3   OH2 4264   5.168   7.187   0.198 -0.0494 -0.0925 -0.6633
 1440TIP3    H1 4265   5.164   7.236   0.116  1.1763 -0.1333 -0.7554
 1440TIP3    H2 4266   5.223   7.112   0.179  1.0818  0.4260  0.4518
 1441TIP3   OH2 4267   7.587   7.467   0.848 -0.4776 -0.0199  0.6026
 1441TIP3    H1 4268   7.498   7.484   0.879 -0.7964 -1.2366  0.4076
 1441TIP3    H2 4269   7.607   7.380   0.881  0.7692  0.3558  0.8911
 1442TIP3   OH2 4270   5.310   4.255   1.837  0.5401 -0.9300 -0.2544
 1442TIP3    H1 4271   5.292   4.271   1.930  1.3046 -0.5813 -0.1569
 1442TIP3    H2 4272   5.239   4.301   1.791  0.6080 -0.4305  0.1349
 1443TIP3   OH2 4273   5.278   5.273   5.937  0.0360 -0.0560  0.3919
 1443TIP3    H1 4274   5.351   5.237   5.988  0.3915  0.2663  0.1174
 1443TIP3    H2 4275   5.204   5.273   5.998  0.7437  1.4705  1.3245
 1444TIP3   OH2 4276   2.147   0.548   4.528  0.0124 -0.0392 -0.3264
 1444TIP3    H1 4277   2.153   0.489   4.453  0.4603  1.0990 -1.2142
 1444TIP3    H2 4278   2.236   0.583   4.538 -0.0861 -0.0254  0.6324
 1445TIP3   OH2 4279   4.288   5.777   6.613  0.6910  0.8757  0.0082
 1445TIP3    H1 4280   4.231   5.771   6.689  0.9452  1.5012  0.2558
 1445TIP3    H2 4281   4.274   5.695   6.566  0.5826  0.4550  0.7634
 1446TIP3   OH2 4282   2.923   7.116   6.773  0.1906 -0.0439  0.2000
 1446TIP3    H1 4283   3.010   7.143   6.744 -0.0614  1.0291  0.3970
 1446TIP3    H2 4284   2.895   7.052   6.708  1.4037 -0.9408  0.5304
 1447TIP3   OH2 4285   6.332   6.529   2.724  0.1404  0.6301  0.3325
 1447TIP3    H1 4286   6.256   6.518   2.780 -0.2457  0.7164 -0.1734
 1447TIP3    H2 4287   6.309   6.484   2.643  1.0450 -0.2905  0.5536
 1448TIP3   OH2 4288   3.307   3.063   0.600  0.1201  0.1833  0.1258
 1448TIP3    H1 4289   3.370   3.118   0.554  0.0407  0.0699 -0.1217
 1448TIP3    H2 4290   3.358   3.020   0.669  0.4664 -0.4209 -0.4894
 1449TIP3   OH2 4291   6.886   3.885   0.723  0.0175 -0.4114 -0.3543
 1449TIP3    H1 4292   6.970   3.931   0.718 -1.2562  2.1326 -0.2612
 1449TIP3    H2 4293   6.854   3.883   0.633 -0.4520 -0.0565 -0.1985
 1450TIP3   OH2 4294   5.242   1.486   5.563 -0.5285 -0.0223 -0.0546
 1450TIP3    H1 4295   5.177   1.492   5.492 -1.7024 -1.7293  0.7887
 1450TIP3    H2 4296   5.205   1.539   5.633  0.2665  1.0583 -0.4323
 1451TIP3   OH2 4297   0.883   0.599   3.027 -0.2714  0.5275  0.0472
 1451TIP3    H1 4298   0.922   0.617   2.941 -0.9826 -1.2620 -0.7031
 1451TIP3    H2 4299   0.792   0.626   3.018 -0.3713  0.2444  0.1879
 1452TIP3   OH2 4300   5.523   3.258   5.895  0.1590 -0.0788 -0.2307
 1452TIP3    H1 4301   5.533   3.245   5.989  1.8321  0.8798 -0.2430
 1452TIP3    H2 4302   5.612   3.257   5.861 -0.3504  0.7133 -1.6526
 1453TIP3   OH2 4303   2.545   5.295   5.735  0.5737 -0.2334 -0.3076
 1453TIP3    H1 4304   2.474   5.290   5.800  0.6092  0.6455 -0.1898
 1453TIP3    H2 4305   2.625   5.278   5.786  0.5020 -0.7308 -0.3509
 1454TIP3   OH2 4306   6.291   4.733   3.207  0.1833  0.2163  0.1023
 1454TIP3    H1 4307   6.307   4.652   3.254 -0.3163  0.5470  0.8683
 1454TIP3    H2 4308   6.220   4.712   3.146  0.1795  0.0278  0.1728
 1455TIP3   OH2 4309   6.895   3.021   5.959  0.0788 -0.1706 -0.0332
 1455TIP3    H1 4310   6.874   3.106   5.920  0.9572  0.9635  1.7977
 1455TIP3    H2 4311   6.991   3.017   5.958  0.0521 -2.1728 -2.0602
 1456TIP3   OH2 4312   7.184   2.667   0.298  0.5636  0.7109 -0.6253
 1456TIP3    H1 4313   7.176   2.725   0.374  2.8039 -0.6509  0.7433
 1456TIP3    H2 4314   7.242   2.714   0.238  1.5184  0.3692  0.0161
 1457TIP3   OH2 4315   5.188   2.451   3.795 -0.2451  0.4449  0.2697
 1457TIP3    H1 4316   5.098   2.419   3.797 -0.1930  0.3281  1.9262
 1457TIP3    H2 4317   5.190   2.523   3.859  0.5430  1.2990 -0.6755
 1458TIP3   OH2 4318   3.449   2.997   6.313 -0.1285 -0.5200 -0.1594
 1458TIP3    H1 4319   3.405   2.934   6.256 -1.0955  0.0969 -0.1114
 1458TIP3    H2 4320   3.381   3.025   6.374 -0.1791  1.7968 -1.1939
 1459TIP3   OH2 4321   2.658   4.361   2.936 -0.5737  0.1365 -0.0654
 1459TIP3    H1 4322   2.743   4.403   2.950 -0.5386 -0.3222  1.2473
 1459TIP3    H2 4323   2.595   4.433   2.940 -0.3185  0.3757 -0.2824
 1460TIP3   OH2 4324   1.376   4.379   1.345  0.0234 -0.5072  0.1362
 1460TIP3    H1 4325   1.469   4.356   1.342  0.0654 -0.7681  2.2242
 1460TIP3    H2 4326   1.334   4.306   1.389 -0.8216  0.5325  1.1393
 1461TIP3   OH2 4327   2.223   4.417   0.377 -0.1107  0.1462 -0.5910
 1461TIP3    H1 4328   2.184   4.362   0.445 -2.5614  1.5867 -0.7610
 1461TIP3    H2 4329   2.267   4.487   0.425  1.1483 -0.6966 -0.4507
 1462TIP3   OH2 4330   5.147   5.428   5.150  0.5384 -0.0283  0.1502
 1462TIP3    H1 4331   5.134   5.362   5.218  0.4549  1.1337  1.3217
 1462TIP3    H2 4332   5.071   5.419   5.093  0.4019 -0.7685  0.4371
 1463TIP3   OH2 4333   6.344   6.167   4.596  0.3370 -0.1462  0.1459
 1463TIP3    H1 4334   6.433   6.155   4.630  0.6922  0.7326 -0.4398
 1463TIP3    H2 4335   6.294   6.096   4.636  1.2624 -0.5611  0.6136
 1464TIP3   OH2 4336   2.031   4.218   6.048 -0.7218 -0.1896  0.4337
 1464TIP3    H1 4337   2.043   4.192   6.140 -1.3689 -0.3690  0.4746
 1464TIP3    H2 4338   2.076   4.150   5.998 -0.0054  0.1357  0.6307
 1465TIP3   OH2 4339   4.903   4.107   5.017  0.7070  0.2279 -0.5926
 1465TIP3    H1 4340   4.988   4.063   5.014  0.4032 -0.3615 -0.6804
 1465TIP3    H2 4341   4.895   4.138   5.108  0.3954 -0.9741 -0.1927
 1466TIP3   OH2 4342   7.737   4.371   6.196 -0.2370 -0.1306 -0.2376
 1466TIP3    H1 4343   7.769   4.321   6.271 -0.2132  1.1626  0.6584
 1466TIP3    H2 4344   7.810   4.372   6.134  0.4826  0.4692  0.5968
 1467TIP3   OH2 4345   1.098   1.315   4.053  0.4614  0.8372  0.5521
 1467TIP3    H1 4346   1.043   1.391   4.034  0.4957  0.8354  0.4461
 1467TIP3    H2 4347   1.185   1.339   4.020  0.5460  0.8758  0.7968
 1468TIP3   OH2 4348   7.528   1.894   0.927 -0.0530 -0.1279  0.0394
 1468TIP3    H1 4349   7.496   1.825   0.870 -0.0334  0.5077 -0.7663
 1468TIP3    H2 4350   7.606   1.858   0.968 -0.1757 -0.6618 -0.1959
 1469TIP3   OH2 4351   5.636   7.565   0.228 -0.1273 -0.2780 -0.5845
 1469TIP3    H1 4352   5.681   7.605   0.303 -3.3955  2.3830  0.1801
 1469TIP3    H2 4353   5.691   7.588   0.153  1.0751  0.6791  0.5317
 1470TIP3   OH2 4354   1.947   2.671   6.272  0.3566 -0.3402  0.0621
 1470TIP3    H1 4355   1.986   2.585   6.255  1.5760  0.2544 -0.2477
 1470TIP3    H2 4356   1.926   2.705   6.186  1.1471  0.2400  0.0913
 1471TIP3   OH2 4357   7.002   0.915   4.401 -0.1681  0.3382  0.0704
 1471TIP3    H1 4358   7.091   0.919   4.436 -0.1045 -1.9014  0.2791
 1471TIP3    H2 4359   7.014   0.890   4.309 -0.5459  1.4510 -0.2966
 1472TIP3   OH2 4360   4.605   0.247   2.196  0.5508  0.1554 -0.0471
 1472TIP3    H1 4361   4.528   0.190   2.194 -0.0659  0.9208  0.9779
 1472TIP3    H2 4362   4.680   0.187   2.198 -0.0642 -0.6131  0.4332
 1473TIP3   OH2 4363   4.404   3.372   4.847 -0.2835 -0.1439  0.2635
 1473TIP3    H1 4364   4.443   3.429   4.914 -1.4367  0.2044  0.6679
 1473TIP3    H2 4365   4.464   3.377   4.773 -0.6621  2.1055  0.0546
 1474TIP3   OH2 4366   4.385   3.253   2.164 -0.2884 -0.1684  0.1922
 1474TIP3    H1 4367   4.306   3.301   2.190  0.2739  0.2529  1.2132
 1474TIP3    H2 4368   4.360   3.161   2.173 -0.8153 -0.0462  0.0285
 1475TIP3   OH2 4369   5.109   0.092   3.683 -0.0013 -0.0011  0.1708
 1475TIP3    H1 4370   5.199   0.119   3.662 -0.2418  0.8696  0.2015
 1475TIP3    H2 4371   5.056   0.167   3.658 -0.7321 -0.5404  0.0923
 1476TIP3   OH2 4372   5.574   6.870   1.188  0.3030 -0.5227  0.1895
 1476TIP3    H1 4373   5.530   6.921   1.119 -3.8093 -0.6921  2.3466
 1476TIP3    H2 4374   5.623   6.935   1.238  0.8656  0.0866 -1.1031
 1477TIP3   OH2 4375   7.829   4.494   4.517  0.4478 -0.5773  0.3405
 1477TIP3    H1 4376   7.827   4.588   4.502 -3.3947 -0.3435  1.2068
 1477TIP3    H2 4377   7.918   4.476   4.546  1.6693  2.5272 -1.0328
 1478TIP3   OH2 4378  -0.004   4.822   5.639 -0.6348 -0.2487  0.5113
 1478TIP3    H1 4379   0.063   4.753   5.644 -0.9323 -0.4882  1.4399
 1478TIP3    H2 4380  -0.041   4.826   5.727  0.7812  2.5205  1.0880
 1479TIP3   OH2 4381   5.800   4.401   5.378  0.1212  0.1163 -0.0155
 1479TIP3    H1 4382   5.735   4.353   5.326 -0.0034  0.4150 -0.1347
 1479TIP3    H2 4383   5.800   4.489   5.342  1.0618 -0.0446 -0.4461
 1480TIP3   OH2 4384   4.006   7.629   1.227 -0.1361 -0.2725  0.1605
 1480TIP3    H1 4385   3.923   7.649   1.271  0.8726  0.2878  1.9022
 1480TIP3    H2 4386   4.043   7.714   1.204  0.3558 -0.4758  0.1770
 1481TIP3   OH2 4387   0.091   4.900   1.925  0.2659 -0.2102 -0.7788
 1481TIP3    H1 4388   0.110   4.936   2.012  2.0364 -2.9140  0.0702
 1481TIP3    H2 4389   0.034   4.966   1.884  0.8793  2.0410  1.6876
 1482TIP3   OH2 4390   8.080   1.636   3.573 -0.3173 -0.3580 -0.1876
 1482TIP3    H1 4391   8.095   1.572   3.503 -1.1977 -0.9084  0.1004
 1482TIP3    H2 4392   7.992   1.669   3.556 -0.7633 -0.9007  0.9423
 1483TIP3   OH2 4393   2.768   0.769   4.368  0.2723  0.4847  0.0454
 1483TIP3    H1 4394   2.780   0.676   4.384 -0.1192  0.4498  0.1266
 1483TIP3    H2 4395   2.802   0.812   4.447  1.7036  0.4791 -0.5391
 1484TIP3   OH2 4396   6.851   7.212   4.578 -0.2234 -0.3712  0.0423
 1484TIP3    H1 4397   6.932   7.185   4.621 -0.1420 -0.6581 -0.2888
 1484TIP3    H2 4398   6.782   7.170   4.630 -0.1944  0.3006  0.6444
 1485TIP3   OH2 4399   4.449   3.158   6.765 -0.4500  0.0634  0.0336
 1485TIP3    H1 4400   4.390   3.120   6.701 -2.4711  1.2739  1.0765
 1485TIP3    H2 4401   4.505   3.085   6.793 -1.4496 -1.1278 -0.9628
 1486TIP3   OH2 4402   5.676   1.243   2.645 -0.2087  0.0985  0.1874
 1486TIP3    H1 4403   5.732   1.166   2.644 -1.0814 -0.5358 -0.3112
 1486TIP3    H2 4404   5.720   1.305   2.587 -0.7469 -0.9232 -1.3512
 1487TIP3   OH2 4405   4.739   0.540   5.014 -0.0899 -0.5224  0.0218
 1487TIP3    H1 4406   4.701   0.571   4.932  1.0201 -0.8883 -0.6555
 1487TIP3    H2 4407   4.814   0.597   5.029  0.2150 -0.9974  0.3321
 1488TIP3   OH2 4408   4.573   2.375   1.498  0.1792  0.4268  0.2734
 1488TIP3    H1 4409   4.658   2.340   1.472  0.2320  0.1304  0.8448
 1488TIP3    H2 4410   4.573   2.371   1.593  0.5827  2.8958  0.4505
 1489TIP3   OH2 4411   5.547   4.172   3.777 -0.0888 -0.2977  0.4204
 1489TIP3    H1 4412   5.623   4.153   3.723 -0.1416 -0.6496  0.4672
 1489TIP3    H2 4413   5.577   4.159   3.867  0.4107  1.7041  0.5828
 1490TIP3   OH2 4414   5.260   5.168   3.965  0.1950 -0.5385  0.2845
 1490TIP3    H1 4415   5.322   5.116   4.017 -0.4333 -2.2669 -0.6245
 1490TIP3    H2 4416   5.307   5.188   3.884 -0.7487 -2.9113 -0.9428
 1491TIP3   OH2 4417   6.891   5.095   0.937 -0.5971  0.1989  0.2188
 1491TIP3    H1 4418   6.815   5.038   0.923 -0.9818  0.1891  2.1078
 1491TIP3    H2 4419   6.876   5.134   1.023  1.6781 -0.0280  0.7739
 1492TIP3   OH2 4420   7.361   3.575   0.964  0.1675  0.0749  0.3846
 1492TIP3    H1 4421   7.308   3.501   0.936 -0.6267  1.1675 -1.1288
 1492TIP3    H2 4422   7.363   3.568   1.060 -3.5950  0.4863  0.6594
 1493TIP3   OH2 4423   5.086   6.362   5.223 -0.1792  0.1637 -0.1005
 1493TIP3    H1 4424   5.166   6.414   5.210  0.5038 -0.5058  1.1617
 1493TIP3    H2 4425   5.115   6.271   5.215 -0.8570 -0.0779  0.1511
 1494TIP3   OH2 4426   3.137   0.631   6.352 -0.4475  0.5116 -0.4121
 1494TIP3    H1 4427   3.140   0.583   6.269  1.6155  2.0805 -1.3208
 1494TIP3    H2 4428   3.114   0.720   6.328  2.6104  1.6052  0.2917
 1495TIP3   OH2 4429   1.725   5.545   4.616 -0.0012 -0.2046  0.1629
 1495TIP3    H1 4430   1.753   5.632   4.587  0.9152 -0.8303 -0.9246
 1495TIP3    H2 4431   1.754   5.486   4.546 -0.2506 -1.4368  1.0649
 1496TIP3   OH2 4432   8.225   0.997   6.704  0.3508 -0.0617  0.1650
 1496TIP3    H1 4433   8.290   0.979   6.772 -0.3823  0.4852  1.0392
 1496TIP3    H2 4434   8.171   0.918   6.700  1.2448 -0.6482 -0.7975
 1497TIP3   OH2 4435   3.569   2.294   3.142 -0.3939  0.3726  0.7768
 1497TIP3    H1 4436   3.589   2.203   3.161 -1.3720  0.0717  0.3969
 1497TIP3    H2 4437   3.650   2.341   3.163  0.3142 -0.6521  0.3913
 1498TIP3   OH2 4438   0.479   1.628   0.315 -0.4361  0.1330  0.1452
 1498TIP3    H1 4439   0.571   1.626   0.343 -0.6322 -1.5505  0.8362
 1498TIP3    H2 4440   0.480   1.674   0.231  0.9533  0.6223  0.4047
 1499TIP3   OH2 4441   5.399   7.272   3.572 -0.0752  0.3146  0.1022
 1499TIP3    H1 4442   5.405   7.196   3.514 -0.6041  1.8098 -2.0234
 1499TIP3    H2 4443   5.328   7.252   3.633  0.4088 -1.2434  0.1846
 1500TIP3   OH2 4444   4.382   7.563   2.508 -0.0770  0.4780  0.1366
 1500TIP3    H1 4445   4.353   7.599   2.424  1.4678  2.7774  0.4884
 1500TIP3    H2 4446   4.477   7.578   2.509  0.3221 -1.6881  1.3365
 1501TIP3   OH2 4447   0.663   4.363   2.432 -0.3195 -0.4915 -0.0363
 1501TIP3    H1 4448   0.611   4.324   2.502 -2.9036  0.9183 -1.0041
 1501TIP3    H2 4449   0.726   4.419   2.478 -1.2765 -0.3763  1.2005
 1502TIP3   OH2 4450   3.412   0.513   1.833  0.3618 -0.0570 -0.2248
 1502TIP3    H1 4451   3.427   0.426   1.870  1.6231 -0.1636 -0.9495
 1502TIP3    H2 4452   3.446   0.574   1.899 -0.8710 -0.0711  0.4553
 1503TIP3   OH2 4453   5.560   5.144   4.520  0.1152 -0.0021  0.7960
 1503TIP3    H1 4454   5.492   5.189   4.470  0.4893  1.9747  1.9871
 1503TIP3    H2 4455   5.569   5.059   4.476  0.0824  1.4152 -2.2085
 1504TIP3   OH2 4456   6.685   5.945   0.785  0.2350 -0.1203 -0.1781
 1504TIP3    H1 4457   6.722   5.971   0.869 -1.8203 -0.7414  0.9796
 1504TIP3    H2 4458   6.595   5.918   0.805  0.5616 -3.0880 -2.0715
 1505TIP3   OH2 4459   3.086   3.396   4.173  0.0995 -0.1388  0.1057
 1505TIP3    H1 4460   3.008   3.342   4.157  0.1949  0.1608 -1.4536
 1505TIP3    H2 4461   3.160   3.341   4.148  0.3365 -0.0537  0.6031
 1506TIP3   OH2 4462   1.379   5.658   1.911  0.0950  0.2970 -0.2836
 1506TIP3    H1 4463   1.308   5.712   1.878  0.8871  2.0031  0.6476
 1506TIP3    H2 4464   1.349   5.568   1.899 -0.5089  0.8107 -3.6341
 1507TIP3   OH2 4465   4.576   3.215   5.016 -0.2479  0.2301  0.4080
 1507TIP3    H1 4466   4.631   3.252   4.947 -0.1236  0.1906  0.4863
 1507TIP3    H2 4467   4.623   3.233   5.097 -0.0857 -0.2846  0.4306
 1508TIP3   OH2 4468   5.753   1.501   3.247  0.4487  0.1631  0.7180
 1508TIP3    H1 4469   5.809   1.470   3.176  0.5607 -1.5693  1.5105
 1508TIP3    H2 4470   5.714   1.582   3.213  0.5298 -0.5771 -1.3097
 1509TIP3   OH2 4471   7.126   2.968   5.086  0.4078  0.0324 -0.3359
 1509TIP3    H1 4472   7.185   2.938   5.018 -0.5342 -1.8284 -0.4007
 1509TIP3    H2 4473   7.051   3.004   5.039  0.9085  1.2185 -0.2541
 1510TIP3   OH2 4474   5.054   4.588   5.490  0.9498 -0.4275 -0.1567
 1510TIP3    H1 4475   4.977   4.540   5.459  0.1049  0.0510  1.1119
 1510TIP3    H2 4476   5.111   4.521   5.527  0.9759 -0.7409 -0.7571
 1511TIP3   OH2 4477   4.812   0.970   1.593 -0.0698 -0.5496  0.0540
 1511TIP3    H1 4478   4.745   0.958   1.525 -1.1846 -1.6436  1.3021
 1511TIP3    H2 4479   4.804   1.062   1.619  0.6192 -0.0127 -1.5046
 1512TIP3   OH2 4480   5.826   4.540   4.106 -0.0014 -0.4348  0.8260
 1512TIP3    H1 4481   5.830   4.487   4.026 -0.6116 -0.5367  0.8576
 1512TIP3    H2 4482   5.910   4.525   4.149  0.7015  0.3259 -0.2434
 1513TIP3   OH2 4483   1.238   4.092   6.174 -0.0324 -0.1222  0.2306
 1513TIP3    H1 4484   1.167   4.123   6.231 -0.4797  0.3972 -0.5988
 1513TIP3    H2 4485   1.310   4.153   6.190 -0.3220  0.3070 -0.1232
 1514TIP3   OH2 4486   2.467   6.705   2.841  0.2264  0.4809 -0.2399
 1514TIP3    H1 4487   2.513   6.671   2.917 -0.2200  0.1922 -0.0966
 1514TIP3    H2 4488   2.517   6.674   2.766 -1.7119 -3.0206 -0.2980
 1515TIP3   OH2 4489   1.817   0.481   4.232  0.4097  0.3359 -0.3670
 1515TIP3    H1 4490   1.889   0.535   4.263 -0.7375  1.5332  0.2732
 1515TIP3    H2 4491   1.739   0.536   4.239 -0.5561 -0.8323 -1.2766
 1516TIP3   OH2 4492   0.078   2.305   1.529  0.1125 -0.1431  0.4700
 1516TIP3    H1 4493   0.118   2.239   1.586  0.6377  0.6223  1.0044
 1516TIP3    H2 4494   0.152   2.345   1.483 -0.1491  0.4479  0.5599
 1517TIP3   OH2 4495   4.145   1.362   3.204  0.5554  0.8105 -0.6365
 1517TIP3    H1 4496   4.162   1.271   3.180  1.4482  1.4266 -2.4618
 1517TIP3    H2 4497   4.085   1.356   3.279  0.5980 -1.2615 -0.7195
 1518TIP3   OH2 4498   3.086   3.734   1.684 -0.4479  0.4919  0.5686
 1518TIP3    H1 4499   3.169   3.780   1.686  0.4380 -0.9592 -0.8408
 1518TIP3    H2 4500   3.109   3.641   1.688 -1.9724  0.0456 -0.1432
 1519TIP3   OH2 4501   4.907   0.081   2.651 -0.0789  0.1206  0.1037
 1519TIP3    H1 4502   4.849   0.156   2.646  0.6426  0.8134  1.4895
 1519TIP3    H2 4503   4.933   0.064   2.560 -1.5175  0.4991 -0.4010
 1520TIP3   OH2 4504   7.969   3.803   0.279 -0.0167  0.4204  0.1508
 1520TIP3    H1 4505   7.878   3.774   0.286 -0.1290  0.5014 -0.7934
 1520TIP3    H2 4506   7.994   3.826   0.368 -0.1627 -1.8364  0.8261
 1521TIP3   OH2 4507   3.110   0.954   2.822 -0.6365 -0.4550 -0.7069
 1521TIP3    H1 4508   3.117   0.969   2.728  2.0125  2.2517 -0.2405
 1521TIP3    H2 4509   3.188   0.902   2.844  0.3216  1.3242  0.2973
 1522TIP3   OH2 4510   2.556   5.158   4.749 -0.1157 -0.6650 -0.2032
 1522TIP3    H1 4511   2.499   5.149   4.826 -1.4186 -0.0234 -1.0757
 1522TIP3    H2 4512   2.643   5.174   4.787 -0.8545  0.4083  1.1490
 1523TIP3   OH2 4513   3.216   5.856   5.001  0.3329 -0.2859  0.0042
 1523TIP3    H1 4514   3.279   5.915   4.960 -1.0073  0.0810 -1.6459
 1523TIP3    H2 4515   3.268   5.782   5.030  1.6893  0.5475 -0.2283
 1524TIP3   OH2 4516   4.798   2.140   4.149  0.6780 -0.3354 -0.2565
 1524TIP3    H1 4517   4.830   2.109   4.234  0.3135  0.7884  0.3259
 1524TIP3    H2 4518   4.707   2.166   4.167  1.4343  2.6485 -0.2093
 1525TIP3   OH2 4519   0.924   1.172   6.635  0.0514  0.0279  0.1673
 1525TIP3    H1 4520   0.910   1.183   6.541 -1.8298 -0.3707  0.3611
 1525TIP3    H2 4521   0.972   1.251   6.661  1.5293 -0.3578 -1.2790
 1526TIP3   OH2 4522   3.041   0.305   3.305  0.1224  0.2469  0.2616
 1526TIP3    H1 4523   3.123   0.350   3.326  0.0449  0.4586  0.1078
 1526TIP3    H2 4524   3.004   0.355   3.233 -0.1039  0.1028  0.2781
 1527TIP3   OH2 4525   8.225   2.960   4.523 -0.3231  0.1849  0.4397
 1527TIP3    H1 4526   8.250   2.984   4.612 -1.0189 -1.8999  1.2580
 1527TIP3    H2 4527   8.131   2.941   4.529 -0.6202  1.0729 -0.9988
 1528TIP3   OH2 4528   7.029   3.761   5.675  0.5400  0.4913  0.9133
 1528TIP3    H1 4529   6.959   3.726   5.729 -0.8368 -1.8995 -2.1859
 1528TIP3    H2 4530   7.096   3.692   5.674  0.6160  0.5611 -0.2484
 1529TIP3   OH2 4531   1.503   5.333   1.842 -0.4133  0.2125  0.1664
 1529TIP3    H1 4532   1.413   5.365   1.833 -1.0961 -1.5851  0.0473
 1529TIP3    H2 4533   1.505   5.253   1.790  0.4635 -1.2191  2.2438
 1530TIP3   OH2 4534   4.357   0.047   2.926  0.1058  0.0381  0.4935
 1530TIP3    H1 4535   4.325   0.122   2.875  1.7282  0.2990 -0.2010
 1530TIP3    H2 4536   4.323  -0.030   2.880 -4.3036  0.1418  2.9221
 1531TIP3   OH2 4537   6.581   5.144   1.132 -0.2893  0.3302  0.5404
 1531TIP3    H1 4538   6.542   5.083   1.070  0.2551  0.8821 -0.3627
 1531TIP3    H2 4539   6.639   5.090   1.185 -2.5319 -0.5941  2.2080
 1532TIP3   OH2 4540   0.305   2.177   1.252 -0.1869 -0.3287  0.1613
 1532TIP3    H1 4541   0.246   2.248   1.226  0.9748 -0.0978 -2.1421
 1532TIP3    H2 4542   0.367   2.218   1.312 -0.2800  0.3190 -0.1714
 1533TIP3   OH2 4543   0.296   4.854   3.587  0.2568  0.3138  0.1953
 1533TIP3    H1 4544   0.259   4.920   3.646  1.9307  0.5522  1.0435
 1533TIP3    H2 4545   0.223   4.827   3.532 -1.2045  0.6310  1.8807
 1534TIP3   OH2 4546   7.048   0.380   3.687 -0.7504 -0.4351 -0.2047
 1534TIP3    H1 4547   7.054   0.309   3.623 -1.5051 -1.1131  0.4561
 1534TIP3    H2 4548   7.045   0.336   3.772 -0.9665  0.4011  0.2339
 1535TIP3   OH2 4549   3.634   2.853   3.325 -0.3621  0.0221  0.0650
 1535TIP3    H1 4550   3.723   2.884   3.311 -0.3994  0.5323  0.8916
 1535TIP3    H2 4551   3.643   2.783   3.389 -0.2748 -1.7740 -1.8195
 1536TIP3   OH2 4552   1.383   0.162   2.404 -0.2552 -0.6184 -0.2828
 1536TIP3    H1 4553   1.293   0.131   2.417 -0.9556  0.8793 -1.2934
 1536TIP3    H2 4554   1.401   0.215   2.482 -0.4503 -0.5098 -0.3093
 1537TIP3   OH2 4555   1.912   3.853   4.539 -0.2601  0.2133 -0.0499
 1537TIP3    H1 4556   1.979   3.856   4.607 -0.2458  0.1499 -0.0613
 1537TIP3    H2 4557   1.829   3.843   4.587 -0.1694 -0.8348 -0.0813
 1538TIP3   OH2 4558   3.836   6.173   3.559  0.2770 -0.5824  0.1345
 1538TIP3    H1 4559   3.883   6.159   3.641  0.1986  1.7343  0.6369
 1538TIP3    H2 4560   3.879   6.115   3.497  2.7627  0.2553  0.9534
 1539TIP3   OH2 4561   0.746   3.947   4.258  0.0247 -0.0472  0.4376
 1539TIP3    H1 4562   0.707   3.878   4.204 -1.0759 -1.5305  2.9708
 1539TIP3    H2 4563   0.757   3.907   4.344  1.4719  2.2795  1.4195
 1540TIP3   OH2 4564   6.703   7.717   0.912 -0.7895 -0.3977 -0.6366
 1540TIP3    H1 4565   6.743   7.664   0.981 -0.6529  0.8382  0.2683
 1540TIP3    H2 4566   6.712   7.807   0.943 -3.5688  0.0047 -0.7211
 1541TIP3   OH2 4567   8.321   2.700   5.706 -0.1708 -0.2961  0.7664
 1541TIP3    H1 4568   8.243   2.754   5.701 -0.5246 -0.8931 -1.3932
 1541TIP3    H2 4569   8.307   2.631   5.641  1.6027 -1.1513  1.2115
 1542TIP3   OH2 4570   6.084   6.130   3.088 -0.6107 -0.0466  0.0014
 1542TIP3    H1 4571   6.016   6.070   3.057 -0.5225 -1.3827  2.1754
 1542TIP3    H2 4572   6.039   6.187   3.150 -0.1261  0.3044  0.0325
 1543TIP3   OH2 4573   4.518   1.191   5.585  0.3381  0.2905 -0.1748
 1543TIP3    H1 4574   4.587   1.230   5.638 -0.0503  1.0860 -0.2488
 1543TIP3    H2 4575   4.543   1.210   5.495  0.1965  0.2903 -0.2150
 1544TIP3   OH2 4576   5.607   3.487   4.226 -0.1623 -0.3369  0.2378
 1544TIP3    H1 4577   5.549   3.527   4.290 -0.0318  1.5250 -0.7324
 1544TIP3    H2 4578   5.578   3.523   4.142  0.1093 -2.1751 -0.7014
 1545TIP3   OH2 4579   3.559   3.387   4.968  0.5920  0.0743  0.0834
 1545TIP3    H1 4580   3.577   3.468   5.017  0.5757  0.6749 -0.8717
 1545TIP3    H2 4581   3.645   3.352   4.947  0.6147 -0.8203  1.5104
 1546TIP3   OH2 4582   3.693   0.108   6.505 -0.4305 -0.3333  0.0171
 1546TIP3    H1 4583   3.657   0.193   6.480  0.1175  0.0112  0.3941
 1546TIP3    H2 4584   3.714   0.066   6.421  1.1044  0.6838 -0.1419
 1547TIP3   OH2 4585   5.312   3.112   4.390  0.3829 -0.3938 -0.0745
 1547TIP3    H1 4586   5.374   3.059   4.441  0.4952 -0.5033 -0.3189
 1547TIP3    H2 4587   5.343   3.103   4.299 -0.3926 -0.9956 -0.2867
 1548TIP3   OH2 4588   7.710   6.268   5.431 -0.2839 -0.0701 -0.2393
 1548TIP3    H1 4589   7.639   6.249   5.492  1.6600  0.8764  2.5447
 1548TIP3    H2 4590   7.733   6.184   5.393 -2.3929 -0.4914 -0.7221
 1549TIP3   OH2 4591   5.938   0.768   0.174  0.5476 -0.0741  0.9615
 1549TIP3    H1 4592   5.999   0.840   0.192  0.8299  0.9526 -3.1687
 1549TIP3    H2 4593   5.993   0.695   0.148  0.1704  0.2799 -0.9759
 1550TIP3   OH2 4594   1.089   7.677   2.700  0.0906  0.1876  0.7135
 1550TIP3    H1 4595   1.165   7.657   2.645  0.2862  0.7136  0.7794
 1550TIP3    H2 4596   1.020   7.700   2.639  0.2147  0.4600  0.6711
 1551TIP3   OH2 4597   4.351   2.594   0.450  0.2295  0.1265 -0.9361
 1551TIP3    H1 4598   4.368   2.559   0.362  1.6510  1.0139 -1.0426
 1551TIP3    H2 4599   4.255   2.592   0.458  0.1390 -1.3619 -1.9022
 1552TIP3   OH2 4600   7.106   0.311   4.017 -0.5850 -0.0775 -0.0217
 1552TIP3    H1 4601   7.076   0.317   4.108 -0.9072 -1.3140 -0.0355
 1552TIP3    H2 4602   7.075   0.226   3.987  1.8362 -0.9160 -0.4316
 1553TIP3   OH2 4603   0.271   3.274   6.468  0.6596 -0.1441 -0.2236
 1553TIP3    H1 4604   0.312   3.192   6.439  3.4121  1.3557 -0.9498
 1553TIP3    H2 4605   0.336   3.314   6.525 -1.5221  0.6154  1.8987
 1554TIP3   OH2 4606   4.700   2.435   0.673  0.5571 -0.2599  0.4508
 1554TIP3    H1 4607   4.766   2.479   0.727  0.3737  1.8447 -0.9085
 1554TIP3    H2 4608   4.707   2.478   0.588 -1.2124 -1.3783 -0.3084
 1555TIP3   OH2 4609   3.898   2.521   6.442  0.5204  0.7118  0.4818
 1555TIP3    H1 4610   3.957   2.456   6.480 -2.6668 -1.2179  2.6051
 1555TIP3    H2 4611   3.886   2.586   6.511 -0.3572  0.7002  0.3449
 1556TIP3   OH2 4612   3.251   6.550   2.048  0.2674  0.6994  0.2091
 1556TIP3    H1 4613   3.334   6.504   2.036  0.1611  0.6401 -0.3064
 1556TIP3    H2 4614   3.199   6.491   2.104  0.4039  0.5269  0.1532
 1557TIP3   OH2 4615   2.341   5.154   5.598 -0.0904 -0.2751 -0.0241
 1557TIP3    H1 4616   2.414   5.212   5.621 -0.8011  1.2127 -1.2879
 1557TIP3    H2 4617   2.295   5.139   5.681 -0.5086  1.9345  0.2174
 1558TIP3   OH2 4618   5.828   4.500   1.192  0.0255  0.4648 -0.1510
 1558TIP3    H1 4619   5.868   4.504   1.279  0.4409 -0.6328 -0.2702
 1558TIP3    H2 4620   5.890   4.450   1.139 -0.6079  0.4125 -0.8628
 1559TIP3   OH2 4621   0.411   0.440   3.336 -0.1287 -0.7376 -0.0825
 1559TIP3    H1 4622   0.415   0.379   3.410 -0.1742  0.7145  1.1605
 1559TIP3    H2 4623   0.502   0.462   3.317 -0.1891  0.7269  1.1576
 1560TIP3   OH2 4624   2.732   3.751   1.841  0.0357 -0.6306 -0.0876
 1560TIP3    H1 4625   2.679   3.806   1.898 -1.3057  0.1729 -1.9887
 1560TIP3    H2 4626   2.687   3.667   1.841 -2.0905  0.3565 -2.5629
 1561TIP3   OH2 4627   5.146   6.821   3.814 -0.8375  0.1720  0.3132
 1561TIP3    H1 4628   5.202   6.892   3.845 -0.0427  0.5883 -1.8428
 1561TIP3    H2 4629   5.057   6.857   3.818 -0.5256  1.0169  0.0366
 1562TIP3   OH2 4630   0.646   3.428   0.781  0.6370 -0.2171 -0.3965
 1562TIP3    H1 4631   0.603   3.358   0.730 -1.0198  0.5639 -0.1386
 1562TIP3    H2 4632   0.687   3.483   0.715  1.4145 -1.0637 -0.6436
 1563TIP3   OH2 4633   4.513   6.374   0.228 -0.1284 -0.3410  0.0345
 1563TIP3    H1 4634   4.594   6.364   0.277  0.4275  1.0488 -0.5349
 1563TIP3    H2 4635   4.514   6.302   0.165  0.7766 -0.2178 -0.1070
 1564TIP3   OH2 4636   0.659   3.703   4.541 -0.6585  0.4072  0.1969
 1564TIP3    H1 4637   0.592   3.755   4.584  0.4494  1.9601  0.1001
 1564TIP3    H2 4638   0.741   3.728   4.583  0.3420  1.2479 -2.0752
 1565TIP3   OH2 4639   5.312   2.593   0.334  0.2471  0.1056  0.6748
 1565TIP3    H1 4640   5.280   2.684   0.330 -0.2659 -0.0581  0.9318
 1565TIP3    H2 4641   5.238   2.544   0.370  0.5512 -0.4037  0.6066
 1566TIP3   OH2 4642   4.275   1.365   5.595  0.9354  0.1074 -0.4394
 1566TIP3    H1 4643   4.336   1.292   5.602  0.9055  0.1991  1.4808
 1566TIP3    H2 4644   4.293   1.418   5.673 -0.4768  0.9964 -0.6862
 1567TIP3   OH2 4645   7.214   5.646   3.942 -0.5988  0.3674 -0.5528
 1567TIP3    H1 4646   7.146   5.712   3.949  0.3497  1.2486  1.1553
 1567TIP3    H2 4647   7.228   5.634   3.848 -1.8180  1.5043 -0.8918
 1568TIP3   OH2 4648   6.991   3.025   2.007  0.4493  0.3858  0.2101
 1568TIP3    H1 4649   7.040   2.991   1.932 -1.6004 -0.6021 -0.7594
 1568TIP3    H2 4650   6.981   3.118   1.988  0.4078  0.2448 -0.4918
 1569TIP3   OH2 4651   6.946   4.029   5.760  0.3989  0.0046 -0.0981
 1569TIP3    H1 4652   6.992   3.958   5.716 -0.2569  0.2788 -1.2539
 1569TIP3    H2 4653   7.012   4.067   5.820  0.7138 -1.6267  0.6342
 1570TIP3   OH2 4654   2.829   4.543   2.505  0.3474  0.4060 -0.2542
 1570TIP3    H1 4655   2.821   4.635   2.482 -0.6905  0.7718  1.4204
 1570TIP3    H2 4656   2.745   4.504   2.480  1.1462 -0.3621 -1.9273
 1571TIP3   OH2 4657   7.667   4.249   5.826  0.5126 -0.3796  0.6290
 1571TIP3    H1 4658   7.716   4.193   5.887  1.9198 -0.3592 -0.4336
 1571TIP3    H2 4659   7.677   4.206   5.741 -1.5102 -0.4614  0.4039
 1572TIP3   OH2 4660   8.223   0.369   3.781  0.3419 -0.3235  0.9529
 1572TIP3    H1 4661   8.226   0.334   3.870  1.4410 -1.3347  0.5290
 1572TIP3    H2 4662   8.182   0.300   3.729  1.3054 -0.4649  0.3598
 1573TIP3   OH2 4663   5.085   7.432   3.782  0.1952 -0.3948 -0.1853
 1573TIP3    H1 4664   5.006   7.412   3.831 -0.2021  1.8807  0.2068
 1573TIP3    H2 4665   5.085   7.371   3.709 -0.9960 -1.5643  0.7575
 1574TIP3   OH2 4666   2.588   2.255   2.834 -0.5148  0.2011  1.0844
 1574TIP3    H1 4667   2.568   2.342   2.799  0.8011 -0.7497 -2.3846
 1574TIP3    H2 4668   2.503   2.212   2.839 -0.8597  0.6780 -0.2197
 1575TIP3   OH2 4669   0.077   1.074   2.607 -0.5374  0.0903 -0.4628
 1575TIP3    H1 4670   0.059   1.164   2.633  0.3134  0.4404 -1.0497
 1575TIP3    H2 4671   0.114   1.081   2.519 -0.5358 -0.8422 -0.5488
 1576TIP3   OH2 4672   4.328   1.624   4.709  0.5420  0.2920  0.6038
 1576TIP3    H1 4673   4.258   1.687   4.723 -0.5083 -0.9642  1.1720
 1576TIP3    H2 4674   4.325   1.605   4.615 -0.3015 -0.1933  0.7135
 1577TIP3   OH2 4675   5.526   0.158   4.248  0.3371 -0.2885  0.3957
 1577TIP3    H1 4676   5.478   0.107   4.183  0.1208 -0.4387  0.6732
 1577TIP3    H2 4677   5.588   0.096   4.286  0.1003 -0.3330  0.7064
 1578TIP3   OH2 4678   5.140   0.622   5.875 -0.2531 -0.4949 -0.1774
 1578TIP3    H1 4679   5.059   0.667   5.855 -1.1852 -1.8783  0.3218
 1578TIP3    H2 4680   5.168   0.657   5.959 -0.3907 -0.0928 -0.2992
 1579TIP3   OH2 4681   5.662   0.808   0.052  0.3870 -0.4652 -0.4449
 1579TIP3    H1 4682   5.740   0.790   0.105 -0.0667  0.4118  0.5673
 1579TIP3    H2 4683   5.597   0.839   0.115  0.1286  1.5692 -1.6227
 1580TIP3   OH2 4684   0.542   2.608   6.655  0.5883  0.5917 -0.0930
 1580TIP3    H1 4685   0.498   2.661   6.722  1.1701  0.0397  0.7445
 1580TIP3    H2 4686   0.474   2.589   6.591 -0.6542 -0.8725  1.5407
 1581TIP3   OH2 4687   4.914   0.345   3.669  0.0904  0.8967 -0.4500
 1581TIP3    H1 4688   4.928   0.427   3.718  1.0615  0.8872 -0.6950
 1581TIP3    H2 4689   4.851   0.296   3.723  1.3268  0.7728  0.9556
 1582TIP3   OH2 4690   7.731   0.909   4.751  0.1775 -0.6205 -0.0784
 1582TIP3    H1 4691   7.736   0.903   4.655  1.7245 -2.0850  0.0641
 1582TIP3    H2 4692   7.713   1.002   4.768  0.6284 -0.1956 -1.7574
 1583TIP3   OH2 4693   7.389   0.680   5.272  0.2977  0.5122 -0.0379
 1583TIP3    H1 4694   7.449   0.709   5.203  1.4633 -0.0539  0.7064
 1583TIP3    H2 4695   7.334   0.615   5.231  0.3140  0.9014 -0.6885
 1584TIP3   OH2 4696   2.294   4.051   0.358  0.6031 -0.2242 -0.5121
 1584TIP3    H1 4697   2.301   3.964   0.397 -0.1253 -1.1560 -2.3356
 1584TIP3    H2 4698   2.382   4.089   0.367  0.4207 -0.2834  2.1241
 1585TIP3   OH2 4699   0.922   4.109   3.692  0.7421  0.7405 -0.1356
 1585TIP3    H1 4700   0.922   4.195   3.734  0.5497  0.4639  0.4433
 1585TIP3    H2 4701   0.991   4.114   3.626  0.9393  1.2427  0.1043
 1586TIP3   OH2 4702   1.420   6.979   2.221  0.4813  0.3371  0.3370
 1586TIP3    H1 4703   1.439   7.058   2.272  0.2642  0.0098  0.9334
 1586TIP3    H2 4704   1.351   7.005   2.161 -0.4965  0.2769  1.4048
 1587TIP3   OH2 4705   3.059   0.889   0.270 -0.5993 -0.3002 -0.2464
 1587TIP3    H1 4706   3.119   0.953   0.309 -1.1198 -0.2453  0.4930
 1587TIP3    H2 4707   3.115   0.831   0.219  0.4516 -1.7040  2.3314
 1588TIP3   OH2 4708   4.476   1.244   2.645  0.8357 -0.4021  0.0910
 1588TIP3    H1 4709   4.449   1.325   2.689 -0.6466 -1.3940  1.1044
 1588TIP3    H2 4710   4.425   1.243   2.564  0.1305 -0.7656  0.5304
 1589TIP3   OH2 4711   3.282   0.832   1.707 -0.4707  0.3282  0.3164
 1589TIP3    H1 4712   3.357   0.820   1.649 -0.4170  0.4041  0.3677
 1589TIP3    H2 4713   3.206   0.831   1.650 -0.4753 -0.3166  0.3293
 1590TIP3   OH2 4714   7.544   1.474   5.938 -0.3849 -0.4458 -0.7402
 1590TIP3    H1 4715   7.628   1.521   5.936 -0.3525 -0.4836 -0.2813
 1590TIP3    H2 4716   7.488   1.526   5.994  0.4332 -2.2211  1.9248
 1591TIP3   OH2 4717   1.646   4.316   1.371  0.4290  0.2817  0.1386
 1591TIP3    H1 4718   1.689   4.376   1.432  0.2190 -0.8053  1.3972
 1591TIP3    H2 4719   1.714   4.297   1.306  0.5934  1.6230 -0.1150
 1592TIP3   OH2 4720   1.855   2.634   5.207  0.0861  0.1575  0.4885
 1592TIP3    H1 4721   1.889   2.629   5.117  0.6539 -0.3789  0.7288
 1592TIP3    H2 4722   1.768   2.674   5.197 -0.3049 -0.8703 -0.4079
 1593TIP3   OH2 4723   6.592   6.414   2.769  0.7020  0.3115  0.0381
 1593TIP3    H1 4724   6.526   6.483   2.757  0.1949 -0.4142 -1.4686
 1593TIP3    H2 4725   6.666   6.460   2.810  0.3111  1.7220 -0.7639
 1594TIP3   OH2 4726   0.085   4.007   5.071  0.2920  0.0183 -0.2721
 1594TIP3    H1 4727   0.084   4.095   5.110 -0.4708  0.0887 -0.4273
 1594TIP3    H2 4728   0.039   3.952   5.135 -0.3662 -0.0002 -0.7439
 1595TIP3   OH2 4729   7.006   3.232   1.014 -0.5354 -0.2910 -0.0905
 1595TIP3    H1 4730   6.924   3.208   0.971 -0.6898 -0.6120  0.3728
 1595TIP3    H2 4731   6.978   3.271   1.097 -0.2420  0.2499 -0.2421
 1596TIP3   OH2 4732   4.608   6.330   5.257  0.3238  0.3894  0.2734
 1596TIP3    H1 4733   4.595   6.240   5.228 -0.8505 -0.0677  2.0500
 1596TIP3    H2 4734   4.531   6.377   5.225  0.3551  0.4906  0.3427
 1597TIP3   OH2 4735   0.702   6.586   4.415  0.3421 -0.1240 -0.3615
 1597TIP3    H1 4736   0.614   6.611   4.442  0.3830  0.4291 -0.7038
 1597TIP3    H2 4737   0.704   6.603   4.321  0.6383 -0.6771 -0.4603
 1598TIP3   OH2 4738   4.775   5.162   6.442 -0.8355 -0.1574 -0.0050
 1598TIP3    H1 4739   4.826   5.148   6.362  1.8077  3.3450  0.8231
 1598TIP3    H2 4740   4.838   5.200   6.504 -3.3145 -0.5674  3.0091
 1599TIP3   OH2 4741   2.335   6.178   2.206  0.4104 -0.1797 -0.0962
 1599TIP3    H1 4742   2.420   6.183   2.163  1.1864  0.2040  1.4007
 1599TIP3    H2 4743   2.349   6.120   2.281 -0.8859 -0.8361 -0.3311
 1600TIP3   OH2 4744   1.013   7.270   1.982 -0.3472  0.1323  0.1194
 1600TIP3    H1 4745   0.927   7.297   1.951 -0.0745 -0.3026 -1.0650
 1600TIP3    H2 4746   1.008   7.175   1.987  1.0225 -0.2769 -3.2323
 1601TIP3   OH2 4747   4.556   0.446   6.618  0.1080  0.4331 -0.2187
 1601TIP3    H1 4748   4.637   0.483   6.582 -0.1053 -0.1004 -1.2996
 1601TIP3    H2 4749   4.530   0.379   6.554 -0.1472 -0.7548  1.0840
 1602TIP3   OH2 4750   6.863   7.312   1.670 -0.2774 -0.5481 -0.1847
 1602TIP3    H1 4751   6.770   7.320   1.651 -0.4182 -1.6385 -0.0149
 1602TIP3    H2 4752   6.898   7.259   1.599  0.0017 -1.0201  0.2936
 1603TIP3   OH2 4753   8.323   5.558   1.590 -0.1592 -0.0357  0.4953
 1603TIP3    H1 4754   8.317   5.608   1.671  0.3773  0.0888  0.4635
 1603TIP3    H2 4755   8.250   5.588   1.537  0.5748  1.2673  0.1714
 1604TIP3   OH2 4756   3.552   4.561   2.787 -0.5045 -0.1293  0.3180
 1604TIP3    H1 4757   3.466   4.535   2.753 -0.4365  0.1038 -0.0303
 1604TIP3    H2 4758   3.608   4.485   2.774 -0.7151 -0.3649  0.7580
 1605TIP3   OH2 4759   5.988   0.713   4.097 -0.1512 -0.3513 -0.5647
 1605TIP3    H1 4760   5.916   0.719   4.160 -0.6781 -1.6087 -1.0059
 1605TIP3    H2 4761   5.963   0.772   4.026 -0.5941 -0.5283 -0.5607
 1606TIP3   OH2 4762   4.937   7.416   1.721 -0.0386  0.0830 -0.4302
 1606TIP3    H1 4763   4.942   7.504   1.758 -0.9313  0.4864 -1.2221
 1606TIP3    H2 4764   4.858   7.417   1.667  1.0863 -0.5184 -2.1914
 1607TIP3   OH2 4765   4.947   4.945   2.482  0.2425  0.2671 -0.3677
 1607TIP3    H1 4766   4.920   5.017   2.539 -0.0131 -1.0533  1.2636
 1607TIP3    H2 4767   4.925   4.975   2.394 -0.4612  1.9064  0.3152
 1608TIP3   OH2 4768   5.766   7.599   5.869 -0.6181  0.0853 -0.0993
 1608TIP3    H1 4769   5.750   7.635   5.782  1.0496  0.8561 -0.1203
 1608TIP3    H2 4770   5.701   7.643   5.925 -1.0058  0.3781 -0.7654
 1609TIP3   OH2 4771   0.614   4.611   3.088  0.9323  0.5374 -0.2534
 1609TIP3    H1 4772   0.652   4.529   3.121 -0.6321  0.0886  0.5625
 1609TIP3    H2 4773   0.617   4.670   3.163 -1.4466 -0.0655  0.4107
 1610TIP3   OH2 4774   5.290   7.529   2.271  0.3347 -0.1475 -0.0437
 1610TIP3    H1 4775   5.286   7.541   2.366  1.1977  1.2842 -0.1683
 1610TIP3    H2 4776   5.322   7.612   2.237 -0.6749 -0.3746 -1.6732
 1611TIP3   OH2 4777   5.476   5.698   2.628  0.2536 -0.8053 -0.0254
 1611TIP3    H1 4778   5.447   5.623   2.577 -0.0352 -0.0949 -0.9374
 1611TIP3    H2 4779   5.397   5.730   2.671 -0.2544  0.7174 -1.9676
 1612TIP3   OH2 4780   5.368   5.096   3.386 -0.7690 -0.2376  0.1900
 1612TIP3    H1 4781   5.343   5.081   3.294  2.8730  1.6826 -1.3128
 1612TIP3    H2 4782   5.395   5.009   3.417 -1.9342 -0.8948 -0.5452
 1613TIP3   OH2 4783   2.767   3.157   6.410  0.4613  0.0823  0.2629
 1613TIP3    H1 4784   2.757   3.239   6.362  2.8034  1.3918  1.8462
 1613TIP3    H2 4785   2.753   3.181   6.501 -3.3760 -2.2457  0.5117
 1614TIP3   OH2 4786   1.375   5.631   4.523  0.0518  0.0049 -0.2374
 1614TIP3    H1 4787   1.430   5.552   4.529 -1.8248 -1.6739 -3.0883
 1614TIP3    H2 4788   1.437   5.701   4.500  1.4839 -1.0438  0.2624
 1615TIP3   OH2 4789   4.376   5.820   5.198  0.3170 -0.8053  0.0658
 1615TIP3    H1 4790   4.298   5.794   5.149  1.4676 -2.5399 -0.9467
 1615TIP3    H2 4791   4.449   5.798   5.140  1.5971  0.3111  1.1833
 1616TIP3   OH2 4792   2.484   3.335   0.283  0.2259 -0.2150  0.7025
 1616TIP3    H1 4793   2.453   3.362   0.369 -0.6360  0.1490  0.2943
 1616TIP3    H2 4794   2.404   3.332   0.229  0.8878  0.5514 -0.3449
 1617TIP3   OH2 4795   2.281   0.289   3.209  0.1921  0.0186 -0.2293
 1617TIP3    H1 4796   2.264   0.372   3.254 -0.6892 -0.1860 -0.1718
 1617TIP3    H2 4797   2.376   0.286   3.199  0.1625  1.8204 -1.6837
 1618TIP3   OH2 4798   5.043   5.733   2.694 -0.3084  0.0226 -0.2543
 1618TIP3    H1 4799   5.066   5.807   2.639 -1.8299 -0.0754 -1.0569
 1618TIP3    H2 4800   5.023   5.662   2.633 -1.1029 -0.3665  0.4354
 1619TIP3   OH2 4801   4.176   7.687   5.950 -0.1515  0.1373  0.2300
 1619TIP3    H1 4802   4.085   7.679   5.979 -0.2953  0.1530 -0.1994
 1619TIP3    H2 4803   4.174   7.659   5.858  0.0506  1.2640 -0.1417
 1620TIP3   OH2 4804   3.189   5.533   5.572 -0.4833 -0.2977  0.1799
 1620TIP3    H1 4805   3.236   5.462   5.617 -1.1426 -1.4433 -0.8801
 1620TIP3    H2 4806   3.144   5.490   5.499 -0.8384  1.2374 -0.5510
 1621TIP3   OH2 4807   0.652   2.855   1.854  0.1446 -0.2505 -0.1856
 1621TIP3    H1 4808   0.708   2.910   1.908 -0.1233  1.1286 -1.2814
 1621TIP3    H2 4809   0.649   2.898   1.769 -1.6140 -0.9228 -0.5157
 1622TIP3   OH2 4810   6.037   0.851   1.935 -0.1252 -0.4744  0.0077
 1622TIP3    H1 4811   5.996   0.840   2.021  0.1711 -0.7187  0.1184
 1622TIP3    H2 4812   6.019   0.769   1.889 -1.2617  0.0864 -0.5816
 1623TIP3   OH2 4813   8.118   5.534   4.758  0.0743  0.3323  0.6795
 1623TIP3    H1 4814   8.209   5.510   4.778 -0.0833 -0.4183  0.5099
 1623TIP3    H2 4815   8.105   5.507   4.667  0.1899  1.9804  0.1438
 1624TIP3   OH2 4816   8.015   5.079   1.349  0.2857 -0.4225 -0.6697
 1624TIP3    H1 4817   8.025   5.128   1.430 -0.6014  1.2968 -1.5362
 1624TIP3    H2 4818   8.087   5.015   1.350  0.6197 -0.0650  1.1717
 1625TIP3   OH2 4819   2.240   1.682   1.779 -0.2116  0.4986 -0.0112
 1625TIP3    H1 4820   2.236   1.591   1.807 -0.8969 -0.6093 -3.3405
 1625TIP3    H2 4821   2.329   1.710   1.799 -0.1958 -0.6191  1.6879
 1626TIP3   OH2 4822   8.256   2.102   4.959 -0.7621 -0.3419  0.0346
 1626TIP3    H1 4823   8.309   2.102   4.879 -0.5498  2.9025  0.0443
 1626TIP3    H2 4824   8.174   2.060   4.934  0.3021 -1.8990 -1.0533
 1627TIP3   OH2 4825   3.775   3.043   4.063  0.7163 -0.5895 -0.1790
 1627TIP3    H1 4826   3.740   3.127   4.031 -1.8357 -1.2096  0.7424
 1627TIP3    H2 4827   3.767   2.984   3.988 -0.1950 -0.7175  0.0170
 1628TIP3   OH2 4828   4.165   5.190   3.988 -0.0766  0.9752  0.2682
 1628TIP3    H1 4829   4.106   5.134   4.039  1.2111 -1.5006 -0.7572
 1628TIP3    H2 4830   4.236   5.210   4.048  0.9277 -1.0752 -0.1472
 1629TIP3   OH2 4831   0.638   1.840   4.431  0.1036  0.6752 -0.0915
 1629TIP3    H1 4832   0.559   1.865   4.479  1.9942  3.3066  1.9906
 1629TIP3    H2 4833   0.642   1.901   4.358  0.7470  1.3549  0.4895
 1630TIP3   OH2 4834   3.993   0.190   1.958  0.3833  0.0453 -0.5012
 1630TIP3    H1 4835   3.926   0.256   1.970  0.0679 -0.3342 -0.1401
 1630TIP3    H2 4836   3.980   0.157   1.869  0.4364  0.3471 -0.6210
 1631TIP3   OH2 4837   3.292   1.691   3.825 -0.0555 -0.4074  0.0051
 1631TIP3    H1 4838   3.301   1.740   3.744  0.0684  0.0411  0.2862
 1631TIP3    H2 4839   3.203   1.710   3.855 -0.0181 -0.3755  0.0974
 1632TIP3   OH2 4840   3.957   0.250   5.307 -0.5742 -0.7829  0.0696
 1632TIP3    H1 4841   4.042   0.262   5.349 -0.2003 -2.6185 -0.0846
 1632TIP3    H2 4842   3.904   0.323   5.339  0.7545 -0.1652  0.9454
 1633TIP3   OH2 4843   5.567   2.325   2.425  0.0015  0.1521  0.1799
 1633TIP3    H1 4844   5.515   2.284   2.494  0.2122 -1.4580 -0.5791
 1633TIP3    H2 4845   5.502   2.361   2.364 -0.3487 -2.4563 -1.1297
 1634TIP3   OH2 4846   3.503   0.789   5.781  0.6993  0.1019 -0.2660
 1634TIP3    H1 4847   3.418   0.758   5.751  1.1146  0.3954 -1.8009
 1634TIP3    H2 4848   3.536   0.719   5.838 -0.0333 -0.5607 -0.6464
 1635TIP3   OH2 4849   1.785   4.310   5.978 -0.5212  0.0575 -0.0106
 1635TIP3    H1 4850   1.763   4.230   5.930 -1.0117  0.3836 -0.3389
 1635TIP3    H2 4851   1.872   4.293   6.015  0.3780  0.1956 -1.9261
 1636TIP3   OH2 4852   0.820   6.336   1.485 -0.0041  0.1840 -0.0783
 1636TIP3    H1 4853   0.890   6.398   1.467  0.0436 -0.2209 -1.3673
 1636TIP3    H2 4854   0.827   6.270   1.416  0.0384 -1.3483  1.3258
 1637TIP3   OH2 4855   1.459   6.246   4.178  0.2082 -0.0230  0.1895
 1637TIP3    H1 4856   1.418   6.170   4.136  0.1898 -0.5851  1.1914
 1637TIP3    H2 4857   1.421   6.322   4.134 -2.2472 -0.4991  1.3339
 1638TIP3   OH2 4858   4.674   0.525   4.712  0.9536 -0.0959 -0.1219
 1638TIP3    H1 4859   4.648   0.601   4.659  0.1225 -0.9631 -1.0029
 1638TIP3    H2 4860   4.760   0.549   4.747 -0.0340  1.9717  1.0994
 1639TIP3   OH2 4861   8.054   5.345   4.481  0.2453  0.0634  0.4921
 1639TIP3    H1 4862   8.062   5.258   4.519 -2.9175 -0.2992  0.5732
 1639TIP3    H2 4863   8.139   5.387   4.498  2.3190 -3.3025 -0.5476
 1640TIP3   OH2 4864   5.657   6.901   0.658 -0.3774 -0.3529 -0.0366
 1640TIP3    H1 4865   5.681   6.852   0.579 -0.4828  0.0354 -0.3146
 1640TIP3    H2 4866   5.658   6.836   0.728  0.3025 -0.5892 -0.2500
 1641TIP3   OH2 4867   7.439   5.905   2.684 -0.1432  0.9282 -0.0473
 1641TIP3    H1 4868   7.526   5.941   2.664  0.6885 -1.1200 -0.4025
 1641TIP3    H2 4869   7.456   5.814   2.708 -2.3384 -0.1205 -2.0108
 1642TIP3   OH2 4870   1.433   6.440   1.408  0.4807  0.0591  0.3058
 1642TIP3    H1 4871   1.432   6.346   1.426  0.3805 -0.1893 -0.9213
 1642TIP3    H2 4872   1.365   6.476   1.466 -0.1575 -0.7571  0.0839
 1643TIP3   OH2 4873   0.891   0.494   0.986  0.4048 -0.2704  0.7365
 1643TIP3    H1 4874   0.898   0.431   0.915  1.4778 -1.2358  1.6539
 1643TIP3    H2 4875   0.806   0.536   0.973 -1.1787 -3.1260  1.0348
 1644TIP3   OH2 4876   1.967   0.611   2.301 -0.3186  0.6119 -0.2662
 1644TIP3    H1 4877   1.939   0.528   2.342  0.2963  0.4699 -0.1249
 1644TIP3    H2 4878   2.010   0.584   2.220 -1.0088  0.8606 -0.7207
 1645TIP3   OH2 4879   0.376   6.387   4.605  0.5377 -0.0854  0.3719
 1645TIP3    H1 4880   0.402   6.371   4.515 -1.0422  1.4833 -0.4053
 1645TIP3    H2 4881   0.438   6.453   4.637  0.6221 -0.0756  0.1858
 1646TIP3   OH2 4882   4.290   1.877   1.654 -0.5003 -0.0670  0.1009
 1646TIP3    H1 4883   4.320   1.954   1.701 -0.2344 -0.0995 -0.0129
 1646TIP3    H2 4884   4.205   1.902   1.618 -0.3522  0.2181 -0.0524
 1647TIP3   OH2 4885   6.724   5.841   1.971 -0.5203  0.2366 -0.1727
 1647TIP3    H1 4886   6.630   5.856   1.982 -0.7257 -1.4366  0.7888
 1647TIP3    H2 4887   6.730   5.748   1.950  0.9567  0.2364  0.1821
 1648TIP3   OH2 4888   1.005   5.550   5.412 -0.3449 -0.0842 -0.3997
 1648TIP3    H1 4889   0.993   5.644   5.427  0.7566 -0.0370  0.2641
 1648TIP3    H2 4890   1.084   5.545   5.359  0.1117 -0.6766  0.3222
 1649TIP3   OH2 4891   2.364   7.387   4.018  0.3532  0.5338 -0.0568
 1649TIP3    H1 4892   2.402   7.348   3.940 -0.4962 -1.4048  0.4349
 1649TIP3    H2 4893   2.269   7.379   4.005  0.1980  0.1105  1.1765
 1650TIP3   OH2 4894   6.264   5.184   2.693  0.0250 -0.4877  0.0088
 1650TIP3    H1 4895   6.170   5.172   2.708  0.0460 -0.1027  0.4788
 1650TIP3    H2 4896   6.293   5.239   2.766  0.3691  0.4498 -0.8177
 1651TIP3   OH2 4897   6.075   6.091   4.356  0.3465 -0.7974 -0.5924
 1651TIP3    H1 4898   6.022   6.071   4.433 -1.3761  0.0690 -1.4926
 1651TIP3    H2 4899   6.093   6.006   4.316  0.4854 -1.1755  0.2463
 1652TIP3   OH2 4900   0.806   5.303   2.038  0.1383  0.0753  0.0045
 1652TIP3    H1 4901   0.763   5.236   2.092  0.6410  0.0696  0.4055
 1652TIP3    H2 4902   0.893   5.313   2.077 -0.1463  1.4264  0.3657
 1653TIP3   OH2 4903   3.215   5.056   0.482 -0.4392  0.0383 -0.5907
 1653TIP3    H1 4904   3.252   4.977   0.521 -0.3162  0.4552  0.1619
 1653TIP3    H2 4905   3.268   5.072   0.404  0.2505 -0.0033 -0.1390
 1654TIP3   OH2 4906   6.154   0.492   5.128  0.1303 -0.1206  0.4213
 1654TIP3    H1 4907   6.236   0.530   5.096  0.3193  0.5890  1.6674
 1654TIP3    H2 4908   6.116   0.560   5.184 -1.6462 -0.2012 -0.6277
 1655TIP3   OH2 4909   6.925   4.301   3.635  0.1249 -0.0487  0.6922
 1655TIP3    H1 4910   6.971   4.384   3.625 -0.1655 -0.0444 -0.9519
 1655TIP3    H2 4911   6.872   4.293   3.556 -0.1876 -1.5992  1.0126
 1656TIP3   OH2 4912   4.829   6.431   4.127  0.1118  0.1259  0.6804
 1656TIP3    H1 4913   4.875   6.379   4.062  2.2474  1.1003  1.3078
 1656TIP3    H2 4914   4.822   6.374   4.204 -1.0788 -0.5093  0.1335
 1657TIP3   OH2 4915   6.768   2.306   1.091  0.2512 -0.0202  0.0106
 1657TIP3    H1 4916   6.707   2.381   1.092 -0.0821 -0.2747 -0.8167
 1657TIP3    H2 4917   6.715   2.233   1.123 -0.4578 -0.6570 -2.4558
 1658TIP3   OH2 4918   3.403   0.481   4.807 -0.5513  0.6655 -0.7431
 1658TIP3    H1 4919   3.455   0.469   4.887 -1.8278 -0.6914 -0.0765
 1658TIP3    H2 4920   3.464   0.521   4.745  1.1256 -0.3776  0.1675
 1659TIP3   OH2 4921   3.285   2.579   1.164 -0.2191  0.4074 -0.2130
 1659TIP3    H1 4922   3.293   2.644   1.233 -1.8130  0.3764  0.0485
 1659TIP3    H2 4923   3.369   2.581   1.118  0.3585  1.4133  0.8572
 1660TIP3   OH2 4924   6.708   0.490   0.468 -0.3646 -0.1050 -0.1385
 1660TIP3    H1 4925   6.777   0.471   0.532 -1.1404  1.3937  1.2098
 1660TIP3    H2 4926   6.632   0.514   0.521 -0.5644  2.9146 -1.6183
 1661TIP3   OH2 4927   2.204   2.200   2.727  0.3345  0.7048  0.2446
 1661TIP3    H1 4928   2.158   2.122   2.757  1.2989  0.3730  0.9201
 1661TIP3    H2 4929   2.199   2.196   2.632  0.6560 -0.3736  0.2582
 1662TIP3   OH2 4930   0.104   6.319   1.339 -0.4359 -0.3139 -0.1605
 1662TIP3    H1 4931   0.073   6.396   1.387 -1.2244 -0.3615 -0.5729
 1662TIP3    H2 4932   0.117   6.350   1.249  0.0179 -0.4760 -0.1524
 1663TIP3   OH2 4933   3.785   5.855   5.455  0.3681 -0.1635  0.4230
 1663TIP3    H1 4934   3.791   5.812   5.370  1.8522  0.5655  0.1213
 1663TIP3    H2 4935   3.706   5.819   5.495  0.5114 -1.7015 -0.6007
 1664TIP3   OH2 4936   5.695   6.915   5.048  0.1454  0.3275  0.2335
 1664TIP3    H1 4937   5.632   6.933   5.118 -0.2878 -1.5669  0.3806
 1664TIP3    H2 4938   5.758   6.854   5.087  1.2451  1.0575 -0.3561
 1665TIP3   OH2 4939   0.563   5.203   4.442 -0.6268 -0.1264 -0.3924
 1665TIP3    H1 4940   0.631   5.140   4.417  1.8205  2.2228 -0.1494
 1665TIP3    H2 4941   0.595   5.242   4.523 -1.4723  2.1089 -1.0515
 1666TIP3   OH2 4942   1.209   4.400   6.741  0.6522 -0.0103 -0.8002
 1666TIP3    H1 4943   1.268   4.332   6.707  1.1330  0.3228 -0.6342
 1666TIP3    H2 4944   1.252   4.431   6.820 -0.1650 -0.3557 -0.2060
 1667TIP3   OH2 4945   2.124   1.950   0.911  0.1283 -0.3011  0.3903
 1667TIP3    H1 4946   2.197   1.889   0.921  1.4111  1.2410  0.7468
 1667TIP3    H2 4947   2.084   1.955   0.998 -1.1567 -1.9942 -0.0524
 1668TIP3   OH2 4948   6.726   6.723   5.521  0.1342  0.5982  0.0033
 1668TIP3    H1 4949   6.778   6.656   5.476  1.5858  1.3267  0.5132
 1668TIP3    H2 4950   6.713   6.791   5.455  1.7303  1.3863  0.4509
 1669TIP3   OH2 4951   5.777   6.324   4.374  0.1509 -1.0818 -0.3962
 1669TIP3    H1 4952   5.710   6.260   4.400 -0.2546 -1.3447 -2.0080
 1669TIP3    H2 4953   5.763   6.338   4.281  1.0872  0.3858 -0.3501
 1670TIP3   OH2 4954   8.291   2.152   3.634  0.2379  0.5759  0.4626
 1670TIP3    H1 4955   8.284   2.059   3.611 -1.7998 -0.0317  3.0501
 1670TIP3    H2 4956   8.298   2.197   3.550  3.0494 -1.9451 -0.8650
 1671TIP3   OH2 4957   4.639   1.248   0.554  0.4866  0.0871  0.0248
 1671TIP3    H1 4958   4.727   1.253   0.517  0.3672  1.8254 -0.1013
 1671TIP3    H2 4959   4.620   1.337   0.584 -1.0312 -0.3649  0.5067
 1672TIP3   OH2 4960   0.397   3.495   0.827  0.1918  0.6901  0.1344
 1672TIP3    H1 4961   0.387   3.512   0.734 -0.7071 -1.6568 -0.2606
 1672TIP3    H2 4962   0.488   3.467   0.837  0.0496  0.1042 -0.1923
 1673TIP3   OH2 4963   4.623   1.199   1.614 -0.6324 -0.1855 -0.6721
 1673TIP3    H1 4964   4.663   1.279   1.580 -1.7291  0.1702 -1.1983
 1673TIP3    H2 4965   4.583   1.158   1.537  0.7437 -1.7764 -0.5944
 1674TIP3   OH2 4966   5.306   4.293   6.555  0.2702  0.2460  0.0890
 1674TIP3    H1 4967   5.229   4.278   6.500  1.1154  2.2558 -1.7780
 1674TIP3    H2 4968   5.270   4.313   6.641 -1.2571  0.0471 -0.4728
 1675TIP3   OH2 4969   8.163   0.852   1.342 -0.0566 -0.2736  0.2258
 1675TIP3    H1 4970   8.095   0.850   1.275 -0.7188 -2.0998  0.8851
 1675TIP3    H2 4971   8.194   0.761   1.347  3.5969  0.7149 -1.1358
 1676TIP3   OH2 4972   2.529   6.268   1.347 -0.1107  0.7302 -0.3104
 1676TIP3    H1 4973   2.577   6.273   1.430 -0.6381 -0.9308  0.1426
 1676TIP3    H2 4974   2.556   6.184   1.309 -1.7416  0.3026 -0.6024
 1677TIP3   OH2 4975   2.346   1.737   2.428  0.2571 -0.4275  0.2395
 1677TIP3    H1 4976   2.320   1.828   2.439  1.3964 -0.1296  0.5993
 1677TIP3    H2 4977   2.369   1.707   2.516 -0.1087 -1.0696  0.1279
 1678TIP3   OH2 4978   4.565   4.674   5.651 -0.0530 -0.3236 -0.0266
 1678TIP3    H1 4979   4.577   4.754   5.599  1.4462 -0.0171  0.7309
 1678TIP3    H2 4980   4.496   4.697   5.714  0.0811  0.2427 -0.0772
 1679TIP3   OH2 4981   0.997   4.999   3.597 -0.1037 -0.1424 -0.1468
 1679TIP3    H1 4982   1.086   4.992   3.563 -0.0336 -0.7881  0.1449
 1679TIP3    H2 4983   0.985   5.092   3.613  0.9554 -0.1514  0.9179
 1680TIP3   OH2 4984   4.492   2.088   4.529 -0.1047  0.4785 -0.4895
 1680TIP3    H1 4985   4.510   2.170   4.576 -0.9095 -0.0626  0.8421
 1680TIP3    H2 4986   4.397   2.089   4.516 -0.1433 -0.3302 -0.2924
 1681TIP3   OH2 4987   0.867   5.972   1.221  0.6014 -0.2116 -0.1007
 1681TIP3    H1 4988   0.854   5.899   1.160  1.4916  0.4892 -1.1612
 1681TIP3    H2 4989   0.939   5.943   1.277 -1.7289 -1.8553  2.2710
 1682TIP3   OH2 4990   2.147   4.491   1.945  0.0222 -0.2551  0.4461
 1682TIP3    H1 4991   2.223   4.468   1.997 -0.0627  0.9388  1.1310
 1682TIP3    H2 4992   2.132   4.414   1.889  0.8958 -1.0321  1.2482
 1683TIP3   OH2 4993   7.212   1.293   3.029  0.1164  0.5922 -0.2472
 1683TIP3    H1 4994   7.173   1.349   2.962 -1.2345  1.6467  1.3723
 1683TIP3    H2 4995   7.173   1.207   3.014 -0.6309  0.9613 -0.4522
 1684TIP3   OH2 4996   3.584   6.168   0.113  0.3949 -0.4707  0.1543
 1684TIP3    H1 4997   3.596   6.075   0.093  3.7013 -0.0240 -0.4233
 1684TIP3    H2 4998   3.609   6.176   0.205 -2.0598 -0.4201  0.8888
 1685TIP3   OH2 4999   7.444   2.304   2.768 -0.2063 -0.1541  0.3179
 1685TIP3    H1 5000   7.416   2.285   2.678 -0.2643  0.2479  0.2454
 1685TIP3    H2 5001   7.430   2.223   2.816 -1.7217  0.0971  0.3425
 1686TIP3   OH2 5002   0.357   3.193   0.202  0.3998 -0.0682 -0.3733
 1686TIP3    H1 5003   0.362   3.110   0.249 -0.1566  0.7823  1.2728
 1686TIP3    H2 5004   0.264   3.202   0.179  0.3453  0.3505 -0.0143
 1687TIP3   OH2 5005   0.293   1.855   6.303 -0.2194  0.1606 -0.2756
 1687TIP3    H1 5006   0.242   1.782   6.266 -0.1476  0.9661 -2.0687
 1687TIP3    H2 5007   0.347   1.814   6.371 -0.5219 -1.3721 -0.9075
 1688TIP3   OH2 5008   6.550   3.610   0.425  0.2118  0.0679 -0.3377
 1688TIP3    H1 5009   6.532   3.569   0.340 -0.5402 -1.2184  0.4010
 1688TIP3    H2 5010   6.614   3.553   0.467  1.6100  1.4164 -0.5313
 1689TIP3   OH2 5011   6.504   0.302   4.790  0.1223 -0.3711  0.1988
 1689TIP3    H1 5012   6.495   0.310   4.885 -0.8583  1.6394 -0.0033
 1689TIP3    H2 5013   6.496   0.208   4.772  0.3742 -0.7859  2.0886
 1690TIP3   OH2 5014   4.102   4.283   2.154 -0.2808 -0.0071  0.0163
 1690TIP3    H1 5015   4.068   4.344   2.219 -2.5960  0.7068 -1.7265
 1690TIP3    H2 5016   4.045   4.207   2.159  1.0911 -1.0530  0.4977
 1691TIP3   OH2 5017   3.732   0.531   2.522 -0.8679 -0.4916 -0.3965
 1691TIP3    H1 5018   3.685   0.610   2.496  1.6195  1.8724  1.7465
 1691TIP3    H2 5019   3.691   0.505   2.605 -1.1779 -1.0530 -0.7150
 1692TIP3   OH2 5020   1.617   4.596   6.655  0.0810 -0.3377 -0.0630
 1692TIP3    H1 5021   1.663   4.674   6.625 -2.3131  1.6176  1.0197
 1692TIP3    H2 5022   1.676   4.556   6.719  1.2526  0.7195 -0.4423
 1693TIP3   OH2 5023   6.871   1.386   2.586  0.4933 -0.1184 -0.0859
 1693TIP3    H1 5024   6.886   1.480   2.591  1.6090 -0.2850 -0.2232
 1693TIP3    H2 5025   6.901   1.353   2.671 -1.0044 -0.2175  0.4345
 1694TIP3   OH2 5026   1.115   5.746   4.495 -0.5337 -0.0787  0.3949
 1694TIP3    H1 5027   1.188   5.684   4.500 -0.4423  0.0179  0.2613
 1694TIP3    H2 5028   1.155   5.832   4.510 -0.7093 -0.0811  0.9134
 1695TIP3   OH2 5029   1.326   6.396   3.005  0.1195  0.3239  0.2960
 1695TIP3    H1 5030   1.380   6.440   2.939 -0.2577 -0.5908 -0.6488
 1695TIP3    H2 5031   1.247   6.449   3.010  0.1852  0.4469  0.0710
 1696TIP3   OH2 5032   0.764   4.583   1.922 -0.2293  0.2707  0.0782
 1696TIP3    H1 5033   0.761   4.515   1.989  0.8511 -1.5845 -1.6248
 1696TIP3    H2 5034   0.730   4.540   1.843 -1.4479  2.3542 -0.6267
 1697TIP3   OH2 5035   2.564   6.187   1.683 -0.4700 -0.5628 -0.6250
 1697TIP3    H1 5036   2.635   6.183   1.619  0.9231 -1.5482  0.8902
 1697TIP3    H2 5037   2.546   6.096   1.705 -0.8953 -0.2438  0.4007
 1698TIP3   OH2 5038   7.445   1.188   2.850 -0.1193  0.1312  0.0993
 1698TIP3    H1 5039   7.446   1.271   2.896 -2.4427  0.6643 -0.6809
 1698TIP3    H2 5040   7.400   1.128   2.909 -1.4726  0.3495 -0.6621
 1699TIP3   OH2 5041   1.817   7.615   1.367 -0.4506 -0.4668  0.4788
 1699TIP3    H1 5042   1.742   7.674   1.359  0.1200  0.2185 -0.0032
 1699TIP3    H2 5043   1.814   7.563   1.286 -1.4737 -1.7535  1.3104
 1700TIP3   OH2 5044   4.291   0.585   5.458 -0.0097  0.2050 -0.3221
 1700TIP3    H1 5045   4.248   0.544   5.533 -1.2603  0.1517 -1.0256
 1700TIP3    H2 5046   4.242   0.666   5.444  0.7931  0.6605 -0.5194
 1701TIP3   OH2 5047   6.746   5.586   2.212  0.1563 -0.8249  0.2570
 1701TIP3    H1 5048   6.692   5.515   2.248 -0.1574 -0.4570  0.5132
 1701TIP3    H2 5049   6.744   5.571   2.118  0.8177 -1.6777  0.3627
 1702TIP3   OH2 5050   2.134   6.207   4.102 -0.4358  0.3727 -0.1611
 1702TIP3    H1 5051   2.191   6.165   4.166 -1.1941 -0.4267  0.0200
 1702TIP3    H2 5052   2.046   6.182   4.129 -0.9653  2.3951  0.1623
 1703TIP3   OH2 5053   0.858   0.404   2.184  0.1626  0.2821 -0.3269
 1703TIP3    H1 5054   0.893   0.315   2.183  0.9528  0.5359  1.3816
 1703TIP3    H2 5055   0.906   0.449   2.115  1.1497 -0.1384  0.0649
 1704TIP3   OH2 5056   4.378   3.323   1.788 -0.0426 -0.4665  0.1789
 1704TIP3    H1 5057   4.300   3.309   1.734 -0.2446  0.7387  0.1328
 1704TIP3    H2 5058   4.351   3.299   1.877 -0.3094 -0.5184  0.0834
 1705TIP3   OH2 5059   1.744   7.613   4.975 -0.4300 -0.5692 -0.6374
 1705TIP3    H1 5060   1.729   7.694   4.925 -1.1287  1.5742  2.6975
 1705TIP3    H2 5061   1.693   7.546   4.929 -2.4255  1.6186 -1.8238
 1706TIP3   OH2 5062   6.049   6.476   0.177 -0.2905  0.1812  0.1891
 1706TIP3    H1 5063   6.103   6.552   0.157  1.9765 -1.5038 -0.5778
 1706TIP3    H2 5064   6.006   6.498   0.259 -2.0006  3.3579 -1.3565
 1707TIP3   OH2 5065   5.489   3.047   3.648  0.7139 -0.3501  0.0995
 1707TIP3    H1 5066   5.547   2.972   3.641 -0.2450 -1.0132 -1.2024
 1707TIP3    H2 5067   5.490   3.087   3.561 -1.0465 -0.6198 -0.0818
 1708TIP3   OH2 5068   3.914   0.187   6.693 -0.0139 -0.4117  0.5190
 1708TIP3    H1 5069   3.910   0.268   6.744 -0.9186 -0.2451  0.2038
 1708TIP3    H2 5070   3.823   0.159   6.687  0.1292 -0.6774 -0.6062
 1709TIP3   OH2 5071   2.456   3.818   6.744 -0.2786 -0.7057  0.4001
 1709TIP3    H1 5072   2.479   3.731   6.777 -1.0605 -0.6303  1.1692
 1709TIP3    H2 5073   2.406   3.801   6.664 -0.3159 -0.9537  0.4751
 1710TIP3   OH2 5074   5.178   7.164   3.731  0.0230 -0.2029  0.1306
 1710TIP3    H1 5075   5.177   7.203   3.819  0.4210 -0.4288  0.2371
 1710TIP3    H2 5076   5.220   7.079   3.743 -1.4811 -1.0061  0.0309
 1711TIP3   OH2 5077   2.282   1.513   5.901  0.6901 -0.1265  0.2370
 1711TIP3    H1 5078   2.335   1.457   5.957  0.5561 -0.6586 -0.1638
 1711TIP3    H2 5079   2.199   1.466   5.891 -0.3413  1.2350  1.8223
 1712TIP3   OH2 5080   0.840   1.011   5.729 -0.2563  0.0887 -0.5619
 1712TIP3    H1 5081   0.914   1.048   5.681 -0.6200  0.5175 -0.8099
 1712TIP3    H2 5082   0.768   1.072   5.712 -0.9130 -0.8048 -1.0885
 1713TIP3   OH2 5083   4.449   1.359   5.107 -0.0816 -0.2608 -0.2004
 1713TIP3    H1 5084   4.444   1.274   5.150 -2.1717 -1.6923 -2.9263
 1713TIP3    H2 5085   4.434   1.423   5.177 -1.0133 -2.2903  1.5518
 1714TIP3   OH2 5086   4.945   1.876   2.352  0.2625 -0.0713  0.4781
 1714TIP3    H1 5087   4.875   1.893   2.288  0.4011  1.1620  0.6181
 1714TIP3    H2 5088   5.016   1.935   2.325  0.9431 -0.7318  0.8105
 1715TIP3   OH2 5089   5.027   0.120   2.011 -0.0919 -0.0533  0.0264
 1715TIP3    H1 5090   5.086   0.068   1.957 -0.1782 -0.9960  0.8120
 1715TIP3    H2 5091   5.080   0.196   2.038  0.6135 -0.6281  0.3008
 1716TIP3   OH2 5092   6.207   0.761   0.455 -0.2192 -0.4349 -0.1732
 1716TIP3    H1 5093   6.159   0.680   0.468 -0.6277 -0.1849 -0.1020
 1716TIP3    H2 5094   6.251   0.750   0.371 -1.4550 -0.1582 -0.8841
 1717TIP3   OH2 5095   7.130   2.242   4.715 -0.1055  0.1349 -0.5169
 1717TIP3    H1 5096   7.211   2.212   4.757 -0.1482 -0.1957 -0.6686
 1717TIP3    H2 5097   7.152   2.329   4.681  0.0092  0.2970 -0.0421
 1718TIP3   OH2 5098   1.958   0.289   1.264 -0.2932  0.1752  0.6194
 1718TIP3    H1 5099   2.050   0.261   1.269 -0.8738 -2.3089 -1.0130
 1718TIP3    H2 5100   1.947   0.316   1.173 -1.4617 -0.6153  0.5207
 1719TIP3   OH2 5101   3.045   2.282   0.504 -0.2918 -0.4274 -0.0029
 1719TIP3    H1 5102   3.000   2.302   0.422 -1.9967 -0.7356  0.8005
 1719TIP3    H2 5103   3.138   2.278   0.481 -0.4913  1.7712 -1.4518
 1720TIP3   OH2 5104   5.767   3.988   6.740 -0.3865  0.3475  0.3535
 1720TIP3    H1 5105   5.735   3.986   6.650  0.1255 -0.2911  0.1782
 1720TIP3    H2 5106   5.691   4.012   6.792 -0.6707  0.7969 -0.2557
 1721TIP3   OH2 5107   2.398   5.087   2.748 -0.5886  0.0866 -0.4796
 1721TIP3    H1 5108   2.366   5.031   2.819  1.1410 -1.1650 -0.5941
 1721TIP3    H2 5109   2.450   5.028   2.694  2.0532  1.9224 -0.1503
 1722TIP3   OH2 5110   2.805   5.694   2.919 -0.2693 -0.6961  0.3266
 1722TIP3    H1 5111   2.894   5.722   2.899 -0.4810  0.1743  0.5344
 1722TIP3    H2 5112   2.764   5.680   2.834  0.5104 -2.6402  0.2356
 1723TIP3   OH2 5113   6.528   2.428   1.817 -0.0585 -0.2554  0.2644
 1723TIP3    H1 5114   6.460   2.464   1.760 -0.5049 -0.3709  0.7170
 1723TIP3    H2 5115   6.586   2.503   1.834 -0.7989  0.1885  0.9298
 1724TIP3   OH2 5116   5.406   0.994   2.703  0.5292 -0.3232  0.8479
 1724TIP3    H1 5117   5.334   0.932   2.713 -0.0539  0.0813 -0.6590
 1724TIP3    H2 5118   5.477   0.943   2.665  0.1425 -0.1573 -0.1282
 1725TIP3   OH2 5119   2.086   6.905   1.416 -0.2965  0.4986  0.1811
 1725TIP3    H1 5120   2.115   6.831   1.470  0.2833 -0.0333 -0.8336
 1725TIP3    H2 5121   2.167   6.945   1.384 -0.6234  1.1537  0.1480
 1726TIP3   OH2 5122   5.460   2.309   3.652  0.0156  0.2150  0.5242
 1726TIP3    H1 5123   5.551   2.282   3.666 -0.3053 -0.9509  0.4873
 1726TIP3    H2 5124   5.428   2.333   3.739 -0.1009 -0.9310  0.8158
 1727TIP3   OH2 5125   5.846   1.239   6.222 -0.4714 -0.1391  0.2996
 1727TIP3    H1 5126   5.770   1.291   6.196  0.6884  2.2736  1.3225
 1727TIP3    H2 5127   5.917   1.273   6.167 -0.1330 -2.5951 -0.9041
 1728TIP3   OH2 5128   5.583   4.489   4.277  0.3304 -0.1346 -0.2776
 1728TIP3    H1 5129   5.637   4.416   4.307  0.1388 -0.0287  0.3386
 1728TIP3    H2 5130   5.642   4.542   4.223  1.0431  0.3602  0.9622
 1729TIP3   OH2 5131   7.202   6.549   2.494  0.1899  0.0869  0.2186
 1729TIP3    H1 5132   7.297   6.543   2.480  0.1511  0.4974 -0.2482
 1729TIP3    H2 5133   7.170   6.461   2.479  0.5852 -0.2116  1.0785
 1730TIP3   OH2 5134   0.594   2.026   6.338  0.1855  0.1813 -0.1303
 1730TIP3    H1 5135   0.548   2.106   6.311 -1.6810 -0.5442  0.7061
 1730TIP3    H2 5136   0.655   2.055   6.405 -1.9715  0.6938  1.7461
 1731TIP3   OH2 5137   1.823   7.476   4.298  0.3353  0.4743  0.3972
 1731TIP3    H1 5138   1.895   7.415   4.315  0.7718  0.5861 -0.8756
 1731TIP3    H2 5139   1.863   7.563   4.306 -0.0256  0.5762  1.1488
 1732TIP3   OH2 5140   6.766   3.849   3.877  0.3410  0.3068 -0.1724
 1732TIP3    H1 5141   6.831   3.837   3.808  0.7447  2.2907 -0.1836
 1732TIP3    H2 5142   6.717   3.927   3.852 -1.6684 -0.7812  0.1589
 1733TIP3   OH2 5143   6.815   5.677   1.467 -0.0982  0.2877  0.0796
 1733TIP3    H1 5144   6.730   5.709   1.437  0.1710  0.9046 -0.0526
 1733TIP3    H2 5145   6.847   5.745   1.525  1.5424  1.4616 -2.0358
 1734TIP3   OH2 5146   5.866   2.810   1.027  0.4299 -0.6194 -0.6887
 1734TIP3    H1 5147   5.820   2.894   1.038  0.1336 -0.7082 -1.2027
 1734TIP3    H2 5148   5.813   2.762   0.964  1.3235 -0.6613 -1.4297
 1735TIP3   OH2 5149   5.917   6.874   5.349  0.1242 -0.4941 -0.4646
 1735TIP3    H1 5150   5.907   6.809   5.418 -1.0387 -2.3420 -2.2728
 1735TIP3    H2 5151   5.920   6.824   5.268  0.5423  1.6433 -1.8718
 1736TIP3   OH2 5152   5.853   5.401   5.467  0.2550  0.1843  0.0463
 1736TIP3    H1 5153   5.786   5.460   5.430  0.5871  0.6815  0.2254
 1736TIP3    H2 5154   5.932   5.421   5.417  1.0175  1.7029  1.7740
 1737TIP3   OH2 5155   0.592   4.368   5.368 -0.0409 -0.1984  0.0979
 1737TIP3    H1 5156   0.671   4.411   5.337  1.1942 -2.4442 -0.0664
 1737TIP3    H2 5157   0.623   4.288   5.410 -2.1577 -0.5680  1.0842
 1738TIP3   OH2 5158   6.607   2.539   1.039 -0.8410 -0.0520  0.2701
 1738TIP3    H1 5159   6.565   2.546   0.953 -2.7931 -0.4290  1.1360
 1738TIP3    H2 5160   6.534   2.530   1.101  0.4883  0.5448  2.0162
 1739TIP3   OH2 5161   6.316   1.906   5.330  0.3481 -0.0876  0.0242
 1739TIP3    H1 5162   6.372   1.955   5.271 -0.3132  1.1330  0.3623
 1739TIP3    H2 5163   6.375   1.874   5.399  1.0714 -1.2911 -1.1191
 1740TIP3   OH2 5164   5.144   3.176   5.250  0.5658  0.0180 -0.2082
 1740TIP3    H1 5165   5.106   3.253   5.293 -0.8867 -0.0620 -1.2808
 1740TIP3    H2 5166   5.227   3.163   5.295  0.6836  1.9911  0.2536
 1741TIP3   OH2 5167   2.543   2.852   3.939 -0.2649  0.0667 -0.2226
 1741TIP3    H1 5168   2.473   2.860   4.005  0.5919 -2.9388  1.2265
 1741TIP3    H2 5169   2.522   2.772   3.892  0.5572  0.8030 -1.9083
 1742TIP3   OH2 5170   6.152   5.549   5.409 -0.1525 -0.2908  0.8933
 1742TIP3    H1 5171   6.151   5.615   5.340  0.2697  0.4196  1.5443
 1742TIP3    H2 5172   6.235   5.563   5.455 -1.8372  1.6077  3.7200
 1743TIP3   OH2 5173   3.873   3.159   2.750 -0.1791  0.8352  0.1610
 1743TIP3    H1 5174   3.850   3.138   2.660  3.6197 -3.0981 -0.2254
 1743TIP3    H2 5175   3.807   3.114   2.803  0.9387 -2.1429 -0.7970
 1744TIP3   OH2 5176   2.299   7.824   5.921  0.6099 -0.5749 -0.0261
 1744TIP3    H1 5177   2.239   7.788   5.987 -0.6432  0.5002 -0.5479
 1744TIP3    H2 5178   2.309   7.754   5.857  0.3593 -0.9677  0.3604
 1745TIP3   OH2 5179   6.602   5.974   3.168 -0.5053  0.3776  0.1089
 1745TIP3    H1 5180   6.608   6.066   3.144 -0.3333 -0.2194 -2.3469
 1745TIP3    H2 5181   6.511   5.950   3.151 -0.9809  0.4069  2.2501
 1746TIP3   OH2 5182   7.960   4.555   4.887  0.1069  0.4520  0.0641
 1746TIP3    H1 5183   7.888   4.565   4.825  0.3536  1.8019 -0.0334
 1746TIP3    H2 5184   7.921   4.509   4.962 -0.2440 -1.0104 -0.9654
 1747TIP3   OH2 5185   6.867   5.516   5.539  0.1075  0.0448 -0.1404
 1747TIP3    H1 5186   6.782   5.555   5.560 -0.2309 -0.8635  0.2502
 1747TIP3    H2 5187   6.857   5.485   5.448  0.5745  1.3540 -0.6579
 1748TIP3   OH2 5188   7.816   1.832   0.995  0.0892 -0.1817 -0.3355
 1748TIP3    H1 5189   7.799   1.821   1.089  0.2564  1.2918 -0.1222
 1748TIP3    H2 5190   7.903   1.793   0.983 -0.3913 -1.3917 -0.1190
 1749TIP3   OH2 5191   6.897   7.288   2.858  0.2747 -0.9394  0.0954
 1749TIP3    H1 5192   6.941   7.209   2.889  0.6597 -0.6210  0.3781
 1749TIP3    H2 5193   6.962   7.358   2.871  0.1419 -0.6658 -0.6750
 1750TIP3   OH2 5194   3.889   4.638   4.555  0.0951  0.1178 -0.0640
 1750TIP3    H1 5195   3.813   4.694   4.571  0.1534  0.6418 -1.4617
 1750TIP3    H2 5196   3.855   4.567   4.500  0.3629 -0.3519  0.3627
 1751TIP3   OH2 5197   2.624   2.358   5.553  0.6733 -0.2043 -0.0255
 1751TIP3    H1 5198   2.539   2.389   5.522  0.0530 -1.1809  0.6191
 1751TIP3    H2 5199   2.651   2.424   5.616 -1.1036 -1.3280  2.0833
 1752TIP3   OH2 5200   6.411   7.124   6.697 -0.1812  0.4428 -0.4460
 1752TIP3    H1 5201   6.366   7.056   6.647  0.9038  0.2626 -1.2210
 1752TIP3    H2 5202   6.480   7.077   6.745 -1.2369  0.6059  1.3110
 1753TIP3   OH2 5203   1.626   4.819   3.652  0.5290 -0.1378  0.7668
 1753TIP3    H1 5204   1.591   4.794   3.737 -1.4380 -0.5919 -0.1117
 1753TIP3    H2 5205   1.655   4.736   3.613 -1.9062 -0.5349 -0.3808
 1754TIP3   OH2 5206   3.227   2.816   3.825  0.2185 -0.3935 -0.2194
 1754TIP3    H1 5207   3.191   2.838   3.738  2.1829 -0.6538 -1.1549
 1754TIP3    H2 5208   3.304   2.871   3.833 -0.2886  0.0987  1.6990
 1755TIP3   OH2 5209   4.360   4.948   3.545 -0.3852  0.2676 -0.1656
 1755TIP3    H1 5210   4.367   5.007   3.620  2.6118  1.0306 -0.8677
 1755TIP3    H2 5211   4.451   4.937   3.516 -1.1288 -2.5285 -1.7734
 1756TIP3   OH2 5212   2.350   2.205   2.951  0.0326  0.2545 -0.0296
 1756TIP3    H1 5213   2.319   2.133   3.006  2.4599 -1.1494 -0.3310
 1756TIP3    H2 5214   2.283   2.215   2.884 -0.3470 -1.8562 -0.0430
 1757TIP3   OH2 5215   1.975   6.671   6.201 -0.5030  0.2507 -0.8486
 1757TIP3    H1 5216   2.024   6.626   6.132 -1.6453 -1.1322 -0.8275
 1757TIP3    H2 5217   1.919   6.602   6.238 -0.2967  1.0861  1.1079
 1758TIP3   OH2 5218   5.321   1.751   3.386  0.3149 -0.3025 -0.3780
 1758TIP3    H1 5219   5.361   1.781   3.467  0.0846  0.7194 -0.6286
 1758TIP3    H2 5220   5.278   1.828   3.350  1.2147 -0.4851 -1.9599
 1759TIP3   OH2 5221   3.297   1.626   6.560  0.2388 -0.4580  0.4025
 1759TIP3    H1 5222   3.255   1.681   6.493  0.0793 -1.2578 -0.1688
 1759TIP3    H2 5223   3.251   1.646   6.641 -0.8458 -0.8769 -0.1015
 1760TIP3   OH2 5224   1.986   1.365   3.940  0.8796 -0.2118 -0.0458
 1760TIP3    H1 5225   2.035   1.350   3.860  0.2922  0.6161 -0.5737
 1760TIP3    H2 5226   1.897   1.336   3.920  1.0218 -1.2651  0.7502
 1761TIP3   OH2 5227   5.220   4.067   3.201 -0.1503 -0.2704  0.5575
 1761TIP3    H1 5228   5.154   4.048   3.134 -0.7016 -1.7047  1.4702
 1761TIP3    H2 5229   5.295   4.012   3.177  0.8735  1.5381 -0.6217
 1762TIP3   OH2 5230   0.798   7.099   2.855 -0.4544  0.0076  0.6533
 1762TIP3    H1 5231   0.866   7.135   2.798  0.2427  0.0198  1.4644
 1762TIP3    H2 5232   0.839   7.023   2.896 -1.6633 -1.2697 -0.4630
 1763TIP3   OH2 5233   5.019   3.045   5.946 -0.2680  0.1043 -0.3280
 1763TIP3    H1 5234   5.014   3.045   6.042 -0.8537 -0.0985 -0.3534
 1763TIP3    H2 5235   5.108   3.073   5.927  0.8307 -2.6181  0.3337
 1764TIP3   OH2 5236   6.977   1.331   3.190 -0.4486  0.0565  0.2135
 1764TIP3    H1 5237   7.036   1.324   3.115  0.4217 -0.9935  0.9606
 1764TIP3    H2 5238   6.936   1.245   3.197 -0.8082  0.2631  0.7137
 1765TIP3   OH2 5239   0.434   0.985   2.837  0.0227  0.1929  0.3881
 1765TIP3    H1 5240   0.444   0.971   2.743  2.0179  0.8823  0.4569
 1765TIP3    H2 5241   0.349   1.027   2.846 -1.0296 -1.5081 -0.8981
 1766TIP3   OH2 5242   4.145   1.470   5.371  0.2957 -0.1970  0.4193
 1766TIP3    H1 5243   4.159   1.426   5.455  2.9660 -2.4944 -1.0792
 1766TIP3    H2 5244   4.166   1.562   5.389  1.7073 -0.7794  2.0874
 1767TIP3   OH2 5245   0.262   5.954   0.037 -0.3014  0.0542  0.0444
 1767TIP3    H1 5246   0.287   5.872   0.079  1.1604  0.5130  0.1312
 1767TIP3    H2 5247   0.333   6.015   0.059 -0.8511  1.0559 -0.8530
 1768TIP3   OH2 5248   6.991   7.602   2.107 -0.5276  0.2202  0.1971
 1768TIP3    H1 5249   7.087   7.604   2.109 -0.5260  2.1871  0.6257
 1768TIP3    H2 5250   6.967   7.652   2.029 -1.1971  0.8533  0.7913
 1769TIP3   OH2 5251   5.597   0.237   2.474 -0.0144 -0.1957 -0.4611
 1769TIP3    H1 5252   5.692   0.227   2.468  0.0628  0.9800 -1.5068
 1769TIP3    H2 5253   5.570   0.271   2.389 -1.3725 -0.3795 -0.1386
 1770TIP3   OH2 5254   7.431   1.735   1.997  0.3844 -0.0006  0.2720
 1770TIP3    H1 5255   7.355   1.729   2.056  0.9726 -2.3438  0.9322
 1770TIP3    H2 5256   7.464   1.824   2.009 -1.4176  0.6175  1.0387
 1771TIP3   OH2 5257   5.984   2.143   2.904 -0.3221 -0.1495  0.5486
 1771TIP3    H1 5258   6.023   2.066   2.946 -1.5279 -0.9744  0.2164
 1771TIP3    H2 5259   5.890   2.128   2.910 -0.5562  0.6842 -0.6713
 1772TIP3   OH2 5260   2.443   7.363   3.334  0.5888  0.2773  0.1260
 1772TIP3    H1 5261   2.360   7.313   3.331  0.2673  0.8395 -0.4690
 1772TIP3    H2 5262   2.467   7.375   3.242  1.4717 -0.0864  0.2965
 1773TIP3   OH2 5263   4.410   1.042   6.063 -0.0539 -0.1604 -0.5362
 1773TIP3    H1 5264   4.485   0.986   6.042  0.2296  0.9079 -2.5842
 1773TIP3    H2 5265   4.361   0.992   6.129  1.8550 -1.3665  0.0390
 1774TIP3   OH2 5266   3.824   2.550   1.027 -0.2326  0.1046 -0.1371
 1774TIP3    H1 5267   3.839   2.577   0.936 -0.0121 -0.6820 -0.3449
 1774TIP3    H2 5268   3.865   2.464   1.033  0.2060  0.3690  0.8538
 1775TIP3   OH2 5269   1.057   5.582   1.455  0.2404 -0.6957  0.1992
 1775TIP3    H1 5270   0.969   5.593   1.420  0.1898 -1.2238  0.1610
 1775TIP3    H2 5271   1.056   5.497   1.497  1.2250 -1.5249 -1.3366
 1776TIP3   OH2 5272   4.648   0.419   3.779 -0.0620 -0.3727 -0.0775
 1776TIP3    H1 5273   4.648   0.475   3.856  2.3561 -0.8164  0.3220
 1776TIP3    H2 5274   4.632   0.478   3.706  0.1455  0.4533  0.5308
 1777TIP3   OH2 5275   0.048   0.853   3.708 -0.1704  0.2005  0.3744
 1777TIP3    H1 5276   0.049   0.949   3.704 -0.3387  0.1805 -0.2686
 1777TIP3    H2 5277   0.129   0.830   3.753 -0.2019  0.6463  0.6726
 1778TIP3   OH2 5278   1.145   6.470   5.731 -0.0129  0.1968 -0.7278
 1778TIP3    H1 5279   1.094   6.551   5.735 -0.8528 -0.3667  1.0774
 1778TIP3    H2 5280   1.216   6.483   5.795 -0.8073 -0.8812  0.4144
 1779TIP3   OH2 5281   4.393   5.617   1.874 -0.0957 -0.3523  0.4418
 1779TIP3    H1 5282   4.332   5.632   1.947 -0.3586  0.1664  0.1237
 1779TIP3    H2 5283   4.480   5.620   1.914 -0.2322  0.0991  0.7153
 1780TIP3   OH2 5284   7.602   4.662   6.236 -0.1696 -0.2579 -0.2171
 1780TIP3    H1 5285   7.678   4.715   6.260 -0.8215  0.8905 -0.6086
 1780TIP3    H2 5286   7.632   4.571   6.246  1.2056  0.1671 -0.2741
 1781TIP3   OH2 5287   1.797   4.670   4.392  0.0551 -0.5017  0.1356
 1781TIP3    H1 5288   1.760   4.710   4.314  1.4251  0.0402 -0.2618
 1781TIP3    H2 5289   1.750   4.712   4.465 -0.6102 -0.3654 -0.3671
 1782TIP3   OH2 5290   7.569   5.935   3.965 -0.3254  0.0241  0.5497
 1782TIP3    H1 5291   7.486   5.963   4.002 -1.2347 -2.3875  0.4977
 1782TIP3    H2 5292   7.547   5.860   3.910  1.8879 -0.8039  0.6828
 1783TIP3   OH2 5293   5.706   2.711   5.983  0.4496  0.1091  0.1803
 1783TIP3    H1 5294   5.712   2.706   5.888 -0.0196 -0.7871  0.1857
 1783TIP3    H2 5295   5.614   2.728   6.001  0.6519  0.9619  0.4619
 1784TIP3   OH2 5296   0.587   5.524   5.842 -0.0102 -0.2991  0.0916
 1784TIP3    H1 5297   0.554   5.519   5.932  0.6792 -0.7782  0.3250
 1784TIP3    H2 5298   0.603   5.433   5.818 -0.9789 -0.2472 -0.8283
 1785TIP3   OH2 5299   1.092   5.847   1.380 -0.5324  0.3740 -0.5268
 1785TIP3    H1 5300   1.083   5.902   1.457 -1.2965  0.9145 -0.9908
 1785TIP3    H2 5301   1.055   5.763   1.406  0.2275  0.2066  0.0397
 1786TIP3   OH2 5302   6.145   6.025   1.534 -0.5792 -0.5590 -0.6087
 1786TIP3    H1 5303   6.217   6.047   1.474 -0.0530 -1.6336 -0.3996
 1786TIP3    H2 5304   6.130   6.106   1.584  1.2191 -0.6015  0.0824
 1787TIP3   OH2 5305   1.478   0.311   2.617  0.0909 -0.1715 -0.2578
 1787TIP3    H1 5306   1.552   0.251   2.626  0.8561  0.8976  1.0910
 1787TIP3    H2 5307   1.515   0.397   2.637 -1.6828  0.2930  1.3671
 1788TIP3   OH2 5308   3.484   3.566   0.987  0.3062 -0.3310  0.0948
 1788TIP3    H1 5309   3.518   3.562   1.077 -0.8075 -0.6777  0.5208
 1788TIP3    H2 5310   3.551   3.523   0.934  0.1106 -1.9023  1.0475
 1789TIP3   OH2 5311   0.404   4.832   2.562 -0.2627 -0.0108  0.2009
 1789TIP3    H1 5312   0.390   4.739   2.544 -2.6635 -0.3901  3.1947
 1789TIP3    H2 5313   0.321   4.874   2.536  0.3820  1.1182 -0.0943
 1790TIP3   OH2 5314   0.249   6.465   2.807  0.8128  0.6724  0.1603
 1790TIP3    H1 5315   0.249   6.460   2.712 -0.9966  0.4399  0.1495
 1790TIP3    H2 5316   0.182   6.530   2.828  0.0809 -0.4204  1.3098
 1791TIP3   OH2 5317   0.715   3.206   6.500 -0.2928  0.1176 -0.3495
 1791TIP3    H1 5318   0.796   3.210   6.551 -1.4326 -0.5315  1.6285
 1791TIP3    H2 5319   0.737   3.152   6.424  1.2972  0.5412 -0.2189
 1792TIP3   OH2 5320   6.248   6.230   0.186  0.1985 -0.2904 -0.7399
 1792TIP3    H1 5321   6.295   6.299   0.139  0.6480 -0.3778 -0.4204
 1792TIP3    H2 5322   6.156   6.258   0.182 -0.2981 -1.8876 -4.4672
 1793TIP3   OH2 5323   6.961   7.806   6.734 -0.2970 -0.1355 -0.4279
 1793TIP3    H1 5324   6.912   7.732   6.769 -0.9185  0.8304  0.8192
 1793TIP3    H2 5325   6.899   7.850   6.676 -0.2225 -0.0721 -0.4600
 1794TIP3   OH2 5326   6.157   4.849   3.925 -0.0025 -0.1287  0.5833
 1794TIP3    H1 5327   6.082   4.792   3.939 -0.8257  1.0370  1.1270
 1794TIP3    H2 5328   6.181   4.835   3.833 -1.0086 -0.3916  0.3496
 1795TIP3   OH2 5329   8.055   0.738   4.391  0.7241  0.4493  0.4877
 1795TIP3    H1 5330   8.004   0.661   4.367 -0.4167  1.0052  1.0252
 1795TIP3    H2 5331   7.989   0.803   4.416  1.6420  1.7207 -0.3127
 1796TIP3   OH2 5332   3.865   3.353   2.431  0.6137  0.0919  0.3334
 1796TIP3    H1 5333   3.902   3.264   2.429  1.9820  0.4249 -4.6458
 1796TIP3    H2 5334   3.791   3.349   2.370  0.7107  2.3258 -0.0072
 1797TIP3   OH2 5335   4.590   3.100   1.793  0.0743  0.3883 -0.4775
 1797TIP3    H1 5336   4.553   3.026   1.841 -1.1220  0.7994 -0.7527
 1797TIP3    H2 5337   4.527   3.171   1.804 -0.1454  0.5567 -2.4971
 1798TIP3   OH2 5338   5.662   6.806   3.591  0.5583 -0.6758 -0.1129
 1798TIP3    H1 5339   5.745   6.817   3.638  0.4522  0.3871 -0.1477
 1798TIP3    H2 5340   5.653   6.887   3.541  0.0439 -1.2610 -0.9798
 1799TIP3   OH2 5341   7.353   2.917   4.304 -0.0962 -0.2524 -0.1610
 1799TIP3    H1 5342   7.425   2.952   4.251  0.7792  1.1625  1.8504
 1799TIP3    H2 5343   7.289   2.887   4.240  0.5065  2.1759 -2.0589
 1800TIP3   OH2 5344   1.011   1.959   0.563 -0.0058 -0.3238  0.3841
 1800TIP3    H1 5345   0.992   1.913   0.645  0.6591  0.5945  1.0708
 1800TIP3    H2 5346   0.971   1.904   0.496 -0.1054 -1.3812  1.2668
 1801TIP3   OH2 5347   7.558   4.553   3.930 -0.6239 -1.0168  0.0062
 1801TIP3    H1 5348   7.607   4.471   3.920 -0.1869 -0.6719 -0.7522
 1801TIP3    H2 5349   7.623   4.617   3.958 -0.7226 -0.6717 -0.5294
 1802TIP3   OH2 5350   4.846   5.584   2.868 -0.1777 -0.1599 -0.3942
 1802TIP3    H1 5351   4.928   5.633   2.860  0.2670 -1.0377 -1.4028
 1802TIP3    H2 5352   4.798   5.606   2.788 -0.2946 -0.7999 -0.5000
 1803TIP3   OH2 5353   8.244   1.601   1.835  0.1411 -0.4052  0.4634
 1803TIP3    H1 5354   8.155   1.577   1.862 -1.0642  1.9115 -1.1171
 1803TIP3    H2 5355   8.273   1.664   1.902 -0.9950  1.7269 -0.9198
 1804TIP3   OH2 5356   6.617   0.691   6.053  0.4190 -0.4421 -0.0807
 1804TIP3    H1 5357   6.701   0.700   6.098  0.1606  0.8718  0.2011
 1804TIP3    H2 5358   6.640   0.670   5.963  1.0926  0.5649 -0.1600
 1805TIP3   OH2 5359   3.878   0.815   4.883  0.5279  0.4621  0.2709
 1805TIP3    H1 5360   3.849   0.758   4.955  1.3992  0.0624  0.3270
 1805TIP3    H2 5361   3.798   0.843   4.840  0.0579 -0.4817  0.5051
 1806TIP3   OH2 5362   8.172   4.581   1.476  0.5217  0.5018 -0.0226
 1806TIP3    H1 5363   8.121   4.582   1.557 -0.6358  1.4860 -0.7320
 1806TIP3    H2 5364   8.124   4.638   1.416  1.5760  0.1317 -1.2787
 1807TIP3   OH2 5365   4.811   6.874   1.729 -0.7788 -0.7868 -0.0277
 1807TIP3    H1 5366   4.736   6.857   1.787  0.4937 -0.0836  1.9433
 1807TIP3    H2 5367   4.807   6.968   1.711 -0.4198 -0.7623  0.0151
 1808TIP3   OH2 5368   1.603   2.594   2.859 -0.3613 -0.1891  0.0379
 1808TIP3    H1 5369   1.578   2.512   2.902 -3.6040  0.8533  0.4149
 1808TIP3    H2 5370   1.537   2.657   2.887  1.1311  2.2057 -1.4503
 1809TIP3   OH2 5371   5.395   3.267   0.650 -0.5432  0.0946  0.1684
 1809TIP3    H1 5372   5.431   3.211   0.581 -1.4121  0.5308 -0.6597
 1809TIP3    H2 5373   5.373   3.207   0.720  1.5193 -0.2255  0.6140
 1810TIP3   OH2 5374   1.927   1.241   6.586  0.0184  0.0740 -0.6541
 1810TIP3    H1 5375   2.022   1.237   6.581 -0.0157 -0.8675 -0.8089
 1810TIP3    H2 5376   1.904   1.178   6.654 -0.4548  0.9267 -0.0041
 1811TIP3   OH2 5377   4.654   4.227   4.652 -0.0501  0.0680 -0.3588
 1811TIP3    H1 5378   4.618   4.296   4.596  2.1213  0.2869 -1.5801
 1811TIP3    H2 5379   4.592   4.155   4.643 -0.9383  0.9012 -1.2279
 1812TIP3   OH2 5380   4.053   2.532   3.961  0.5575 -0.1805  0.4531
 1812TIP3    H1 5381   4.140   2.572   3.953 -0.6982  2.4086 -1.9893
 1812TIP3    H2 5382   4.009   2.582   4.029 -0.5187  1.8390 -1.5964
 1813TIP3   OH2 5383   7.552   3.265   5.388 -0.2485  0.6993  0.0502
 1813TIP3    H1 5384   7.630   3.317   5.405  0.0999  0.5020 -0.8845
 1813TIP3    H2 5385   7.555   3.195   5.453  0.9811  0.0299 -0.6872
 1814TIP3   OH2 5386   6.155   6.471   6.093 -0.4720 -0.2652  0.1603
 1814TIP3    H1 5387   6.095   6.545   6.080  1.2627  1.3052  0.5657
 1814TIP3    H2 5388   6.149   6.421   6.011  0.3670  1.9393 -1.3486
 1815TIP3   OH2 5389   0.301   5.495   0.327 -0.3702  0.5912 -0.1369
 1815TIP3    H1 5390   0.293   5.585   0.360 -2.2097  1.1109 -1.8085
 1815TIP3    H2 5391   0.304   5.441   0.406 -2.7576  1.8978  0.9552
 1816TIP3   OH2 5392   8.074   0.365   0.031  0.0345 -0.3345 -0.2366
 1816TIP3    H1 5393   8.137   0.425  -0.009  0.8877  0.1937  1.7601
 1816TIP3    H2 5394   8.020   0.421   0.087 -1.0356 -1.0611 -0.5024
 1817TIP3   OH2 5395   4.588   1.441   6.203 -0.0745 -0.2664 -0.9331
 1817TIP3    H1 5396   4.500   1.420   6.235 -0.2585 -0.0129 -1.2623
 1817TIP3    H2 5397   4.604   1.375   6.135 -0.6419  0.6106 -1.9499
 1818TIP3   OH2 5398   3.694   4.892   1.037 -0.1133 -0.0827  0.3610
 1818TIP3    H1 5399   3.611   4.877   1.082  0.5949 -1.7654  1.1939
 1818TIP3    H2 5400   3.753   4.923   1.106  0.0179  0.9278 -0.1893
 1819TIP3   OH2 5401   3.663   0.422   6.643  0.4405  0.2318  0.3123
 1819TIP3    H1 5402   3.617   0.399   6.724  0.1117 -0.0111  0.0571
 1819TIP3    H2 5403   3.750   0.451   6.673  0.4586 -0.2272  0.7224
 1820TIP3   OH2 5404   2.330   3.311   5.945 -0.0514 -0.5288 -0.1819
 1820TIP3    H1 5405   2.257   3.370   5.928 -0.2135 -0.3328  1.1278
 1820TIP3    H2 5406   2.348   3.270   5.860 -1.6177 -0.5087 -0.5528
 1821TIP3   OH2 5407   2.349   3.072   3.662 -0.1387 -0.3204 -0.0270
 1821TIP3    H1 5408   2.312   2.984   3.674  0.5989 -0.6064  0.1965
 1821TIP3    H2 5409   2.402   3.087   3.740  0.0972  0.1446 -0.2745
 1822TIP3   OH2 5410   2.539   1.317   3.296  0.3891 -0.7542  0.0249
 1822TIP3    H1 5411   2.628   1.327   3.330 -0.0854  0.0977  1.0973
 1822TIP3    H2 5412   2.530   1.385   3.230  0.8041 -1.4067 -0.7213
 1823TIP3   OH2 5413   7.706   2.242   3.751  0.2851 -0.1678  0.0098
 1823TIP3    H1 5414   7.771   2.250   3.821  2.9897 -1.6810 -2.1356
 1823TIP3    H2 5415   7.719   2.319   3.697 -0.0501 -0.2494 -0.1940
 1824TIP3   OH2 5416   6.914   7.010   6.683 -0.0447 -0.7176  0.7109
 1824TIP3    H1 5417   6.967   6.948   6.633  1.6709  0.7224  0.6528
 1824TIP3    H2 5418   6.977   7.053   6.741 -1.0651  1.4221  0.3025
 1825TIP3   OH2 5419   6.763   3.043   0.933  0.2264  0.1847  0.4366
 1825TIP3    H1 5420   6.856   3.023   0.944 -0.2574 -1.4956  1.8690
 1825TIP3    H2 5421   6.726   2.964   0.896 -0.7911  0.5118  0.7372
 1826TIP3   OH2 5422   5.293   4.055   2.182 -0.1767 -0.3450 -0.1006
 1826TIP3    H1 5423   5.286   4.151   2.180 -0.8361 -0.3923 -1.2641
 1826TIP3    H2 5424   5.207   4.024   2.153 -0.3010 -1.3201  1.2404
 1827TIP3   OH2 5425   3.167   2.232   2.316 -0.0361 -0.5912 -0.3103
 1827TIP3    H1 5426   3.250   2.265   2.280 -0.5175 -0.7703 -1.6308
 1827TIP3    H2 5427   3.174   2.249   2.410  2.1823 -2.0412 -0.1198
 1828TIP3   OH2 5428   3.988   0.854   3.197  0.0763 -0.1730 -0.0624
 1828TIP3    H1 5429   3.995   0.774   3.250  0.3698  0.5443  1.0320
 1828TIP3    H2 5430   3.998   0.925   3.261  0.7477  0.7298 -1.1460
 1829TIP3   OH2 5431   0.214   4.779   5.180  0.2672 -0.0967  0.0555
 1829TIP3    H1 5432   0.265   4.831   5.118  2.5898 -1.7724  0.4179
 1829TIP3    H2 5433   0.267   4.777   5.259 -0.8432 -1.1080  0.8130
 1830TIP3   OH2 5434   0.479   1.679   2.651  0.1586 -0.1879 -0.2165
 1830TIP3    H1 5435   0.460   1.769   2.627 -1.2478 -0.1800  0.8144
 1830TIP3    H2 5436   0.442   1.669   2.739  0.5410 -1.6874 -0.1983
 1831TIP3   OH2 5437   6.228   6.221   3.708  0.1932  0.6326 -0.1313
 1831TIP3    H1 5438   6.220   6.221   3.613  0.4808  0.7413 -0.1577
 1831TIP3    H2 5439   6.161   6.283   3.737 -1.2174 -0.8238 -0.1287
 1832TIP3   OH2 5440   2.988   2.493   0.935 -0.2783  0.3363 -0.5590
 1832TIP3    H1 5441   3.006   2.559   0.868  0.3664  0.2540 -0.4748
 1832TIP3    H2 5442   2.958   2.417   0.886  0.7133  0.0911 -0.8119
 1833TIP3   OH2 5443   3.271   3.205   3.048  0.5518 -0.2037  0.1343
 1833TIP3    H1 5444   3.366   3.204   3.059  0.6563  1.3722 -0.4283
 1833TIP3    H2 5445   3.257   3.223   2.956 -0.3392 -2.1596 -0.1736
 1834TIP3   OH2 5446   4.463   2.712   4.333  0.3286 -0.1149 -0.4896
 1834TIP3    H1 5447   4.519   2.640   4.303  0.0621 -0.2013 -0.7916
 1834TIP3    H2 5448   4.520   2.788   4.335 -0.0617  0.3430 -3.1616
 1835TIP3   OH2 5449   7.669   1.307   3.070  0.1616 -0.1350  0.0829
 1835TIP3    H1 5450   7.733   1.236   3.068  0.0756 -0.2141  0.1251
 1835TIP3    H2 5451   7.588   1.266   3.101 -0.8162 -0.7337 -2.9100
 1836TIP3   OH2 5452   1.114   6.348   2.376 -0.3309 -0.0687  0.6064
 1836TIP3    H1 5453   1.072   6.267   2.405 -1.1051 -0.4882 -1.5715
 1836TIP3    H2 5454   1.053   6.417   2.402 -0.3964 -0.3009  1.0881
 1837TIP3   OH2 5455   1.493   0.080   3.812  0.6973 -0.0198  0.9076
 1837TIP3    H1 5456   1.432   0.039   3.751  1.4725 -1.2037  0.9029
 1837TIP3    H2 5457   1.438   0.137   3.866 -0.2252 -0.1632  0.1465
 1838TIP3   OH2 5458   5.027   0.707   1.640  0.0290 -0.2407 -0.6410
 1838TIP3    H1 5459   4.998   0.663   1.560 -0.2248 -1.8973  0.3330
 1838TIP3    H2 5460   5.056   0.793   1.610  0.8368 -1.1507 -2.6753
 1839TIP3   OH2 5461   5.097   2.235   4.488 -0.6294 -0.1063 -0.6044
 1839TIP3    H1 5462   5.138   2.165   4.537 -2.2767 -0.0970  0.8798
 1839TIP3    H2 5463   5.016   2.197   4.453 -0.9823  0.7375 -0.7406
 1840TIP3   OH2 5464   1.692   0.981   2.657  0.1749  0.5524  0.2030
 1840TIP3    H1 5465   1.729   1.065   2.683  0.4675  0.7548 -0.7952
 1840TIP3    H2 5466   1.604   1.002   2.625  0.0234  0.3900  0.5101
 1841TIP3   OH2 5467   6.791   1.142   6.184 -0.4532  0.1567  1.0024
 1841TIP3    H1 5468   6.737   1.170   6.110  2.4906  0.0579 -1.3795
 1841TIP3    H2 5469   6.835   1.222   6.213  1.1047 -0.3508  0.1827
 1842TIP3   OH2 5470   4.286   2.859   5.360  0.8079  0.2901  0.4868
 1842TIP3    H1 5471   4.276   2.908   5.441 -0.2640  1.0696 -0.0763
 1842TIP3    H2 5472   4.259   2.770   5.381  1.2539  0.3147  1.1591
 1843TIP3   OH2 5473   3.683   0.975   3.585 -0.0413  0.2534 -0.0911
 1843TIP3    H1 5474   3.600   0.990   3.629 -0.4928  1.3871 -1.2874
 1843TIP3    H2 5475   3.742   0.947   3.655 -1.2699 -0.0487  0.8627
 1844TIP3   OH2 5476   6.507   1.376   3.860 -0.7222  0.6539 -0.0531
 1844TIP3    H1 5477   6.523   1.388   3.954 -2.4815  0.5457  0.2978
 1844TIP3    H2 5478   6.572   1.431   3.817 -1.0353  2.1337  1.2662
 1845TIP3   OH2 5479   6.834   7.790   3.169 -0.1315 -0.2548 -0.1048
 1845TIP3    H1 5480   6.864   7.746   3.248 -1.0114 -0.3106  0.2090
 1845TIP3    H2 5481   6.814   7.719   3.108  0.1455 -0.2250 -0.2332
 1846TIP3   OH2 5482   3.885   2.301   2.332 -0.8883 -0.5247  0.1936
 1846TIP3    H1 5483   3.950   2.355   2.376 -0.9318 -1.1283  1.0138
 1846TIP3    H2 5484   3.863   2.350   2.253 -0.0498  0.0766  0.3203
 1847TIP3   OH2 5485   4.896   5.887   1.669 -0.3789  0.6308  0.0676
 1847TIP3    H1 5486   4.883   5.854   1.580 -0.7543  0.9770 -0.0055
 1847TIP3    H2 5487   4.973   5.839   1.700 -1.0506 -0.4980  0.0474
 1848TIP3   OH2 5488   2.503   7.582   1.442  0.1538  0.0237 -0.1148
 1848TIP3    H1 5489   2.472   7.671   1.425  0.2092 -0.1310 -1.0857
 1848TIP3    H2 5490   2.456   7.555   1.521 -0.3009  0.7015 -0.1430
 1849TIP3   OH2 5491   1.344   7.195   5.089 -0.1226  0.1194 -0.6462
 1849TIP3    H1 5492   1.350   7.193   4.993 -1.1337 -0.0092 -0.7106
 1849TIP3    H2 5493   1.435   7.192   5.118  0.1636 -1.4110 -1.5754
 1850TIP3   OH2 5494   4.646   3.274   2.229  0.2862  0.1888  0.0610
 1850TIP3    H1 5495   4.557   3.260   2.196  0.5173 -1.8194  0.1907
 1850TIP3    H2 5496   4.686   3.333   2.164 -0.4209 -0.7421 -1.2690
 1851TIP3   OH2 5497   5.006   5.242   5.874  0.1711  0.2068 -0.2660
 1851TIP3    H1 5498   5.030   5.321   5.827  0.6545  0.0716 -0.2517
 1851TIP3    H2 5499   5.010   5.266   5.966 -1.5322  0.6942 -0.2731
 1852TIP3   OH2 5500   2.715   2.129   1.157 -0.6471 -0.1389  0.5136
 1852TIP3    H1 5501   2.800   2.173   1.155 -1.3936  1.4791  1.6472
 1852TIP3    H2 5502   2.732   2.044   1.197  0.5924 -0.3015 -0.2948
 1853TIP3   OH2 5503   1.457   3.376   0.766  0.7237 -0.3921  0.4425
 1853TIP3    H1 5504   1.506   3.294   0.761  1.5437  0.0802  0.5730
 1853TIP3    H2 5505   1.468   3.416   0.680 -0.0765 -0.6334  0.2198
 1854TIP3   OH2 5506   2.548   1.841   3.988 -0.0723 -0.4542  0.5082
 1854TIP3    H1 5507   2.594   1.819   4.069  1.1064 -1.5026 -0.4017
 1854TIP3    H2 5508   2.581   1.779   3.924  0.4413  1.5175 -1.2603
 1855TIP3   OH2 5509   1.464   1.114   5.664  0.5671 -0.1133  0.7426
 1855TIP3    H1 5510   1.415   1.173   5.721  0.6614  0.5264  0.1627
 1855TIP3    H2 5511   1.402   1.091   5.594  1.5324  2.0097 -0.9344
 1856TIP3   OH2 5512   6.550   0.677   1.956 -0.6999 -0.0461 -0.2089
 1856TIP3    H1 5513   6.464   0.717   1.942  0.0702  2.4175  1.4499
 1856TIP3    H2 5514   6.534   0.610   2.023 -1.1717  1.4135  1.2176
 1857TIP3   OH2 5515   2.719   2.658   2.011  0.6552 -0.4206 -0.1703
 1857TIP3    H1 5516   2.728   2.753   2.008  0.8559 -0.4402 -0.1958
 1857TIP3    H2 5517   2.644   2.639   1.954  1.2735 -0.3602 -1.0316
 1858TIP3   OH2 5518   4.201   5.996   3.230  0.2900 -0.3215  0.4353
 1858TIP3    H1 5519   4.242   5.913   3.255  1.7168 -0.2361 -1.3932
 1858TIP3    H2 5520   4.127   5.971   3.176  0.0678 -0.4113  0.7772
 1859TIP3   OH2 5521   0.317   7.268   4.478  0.4088 -0.1021 -0.7327
 1859TIP3    H1 5522   0.386   7.305   4.533 -2.0121  3.2785  0.3888
 1859TIP3    H2 5523   0.284   7.193   4.528  1.6895 -0.3005 -0.1527
 1860TIP3   OH2 5524   3.349   5.129   0.259  0.5330  0.0335 -0.1548
 1860TIP3    H1 5525   3.334   5.218   0.227 -0.8658 -0.7597 -1.8608
 1860TIP3    H2 5526   3.370   5.079   0.180  1.4930 -1.1399  0.8008
 1861TIP3   OH2 5527   1.751   6.112   4.921 -0.0915 -0.5999 -0.5892
 1861TIP3    H1 5528   1.739   6.017   4.931 -0.6058 -0.4693  0.0613
 1861TIP3    H2 5529   1.688   6.137   4.854  0.6962 -0.8575 -1.4517
 1862TIP3   OH2 5530   2.604   5.483   3.661  0.2892 -0.1235  0.1508
 1862TIP3    H1 5531   2.635   5.392   3.668 -0.0995 -0.2189  0.7012
 1862TIP3    H2 5532   2.657   5.521   3.592  1.3461 -0.4006  0.7929
 1863TIP3   OH2 5533   0.389   5.493   1.972 -0.5386  0.2274 -0.0971
 1863TIP3    H1 5534   0.433   5.482   2.056 -1.4681  0.0223  0.3761
 1863TIP3    H2 5535   0.441   5.559   1.926  0.7001 -0.5676  0.1176
 1864TIP3   OH2 5536   1.263   5.056   3.519 -0.1609 -0.6506 -0.1151
 1864TIP3    H1 5537   1.248   5.147   3.497 -0.7610 -0.8731 -0.6526
 1864TIP3    H2 5538   1.323   5.024   3.452 -0.5940 -0.8624 -0.4053
 1865TIP3   OH2 5539   5.061   0.752   3.238 -0.0905 -0.0629 -0.1546
 1865TIP3    H1 5540   5.048   0.679   3.177 -1.3629  0.6694 -0.7841
 1865TIP3    H2 5541   5.015   0.725   3.317  0.6294 -0.5279  0.1256
 1866TIP3   OH2 5542   0.889   7.801   3.592  0.2342 -0.5592  0.3548
 1866TIP3    H1 5543   0.808   7.773   3.550  0.6138 -1.3215  0.1158
 1866TIP3    H2 5544   0.948   7.726   3.585  1.1927  0.1981 -0.0715
 1867TIP3   OH2 5545   4.900   2.785   2.048 -0.0579 -0.6689 -0.4768
 1867TIP3    H1 5546   4.887   2.844   1.974  3.0295  0.4832 -0.2470
 1867TIP3    H2 5547   4.924   2.842   2.121 -2.7755 -1.7854  1.4593
 1868TIP3   OH2 5548   5.822   4.886   1.939  0.2111 -0.0814  0.9946
 1868TIP3    H1 5549   5.739   4.909   1.899 -0.5755 -0.9878  2.0429
 1868TIP3    H2 5550   5.883   4.954   1.910 -0.5023 -0.2424 -1.0356
 1869TIP3   OH2 5551   4.972   7.557   4.371 -0.3690 -0.5464  0.1733
 1869TIP3    H1 5552   4.909   7.627   4.351 -0.5279 -1.1342 -1.5900
 1869TIP3    H2 5553   4.973   7.553   4.466 -2.4699 -0.0202  0.2888
 1870TIP3   OH2 5554   6.549   3.815   0.710 -0.5697  0.3880  0.8197
 1870TIP3    H1 5555   6.607   3.796   0.637  0.3990 -2.1635  2.0850
 1870TIP3    H2 5556   6.473   3.758   0.696 -1.0342  0.9343  1.0769
 1871TIP3   OH2 5557   2.349   3.423   2.831 -0.3973 -0.6809 -0.4711
 1871TIP3    H1 5558   2.402   3.382   2.899 -0.2842  1.0655  0.5365
 1871TIP3    H2 5559   2.283   3.357   2.809  0.1404 -1.6218  0.6643
 1872TIP3   OH2 5560   2.787   0.187   1.076  0.2716 -0.1657 -0.4393
 1872TIP3    H1 5561   2.813   0.273   1.109  1.0038 -0.7419  0.5632
 1872TIP3    H2 5562   2.846   0.172   1.002  0.0370  0.2517 -0.7161
 1873TIP3   OH2 5563   3.929   3.871   4.742  0.4003 -0.3349 -0.4733
 1873TIP3    H1 5564   3.991   3.928   4.696  0.7194 -0.3810 -0.1098
 1873TIP3    H2 5565   3.982   3.829   4.810 -0.0730 -0.2160 -0.0218
 1874TIP3   OH2 5566   1.526   5.515   4.156 -0.1387 -0.0249 -0.3937
 1874TIP3    H1 5567   1.556   5.514   4.065 -0.8953  0.4454 -0.6583
 1874TIP3    H2 5568   1.467   5.590   4.161 -0.7764 -0.5556  0.2606
 1875TIP3   OH2 5569   7.553   3.527   0.412 -0.4657 -0.0712  0.3673
 1875TIP3    H1 5570   7.591   3.581   0.481 -1.2297  2.9026 -1.3721
 1875TIP3    H2 5571   7.626   3.472   0.382  0.2002 -0.4810  2.5897
 1876TIP3   OH2 5572   0.220   5.124   6.158 -0.0629  0.5510  0.7455
 1876TIP3    H1 5573   0.242   5.146   6.249 -2.1494  0.6400  1.2793
 1876TIP3    H2 5574   0.292   5.070   6.128 -0.1494 -0.9758  3.0667
 1877TIP3   OH2 5575   2.876   5.095   5.674  0.9066  0.5123 -0.1008
 1877TIP3    H1 5576   2.904   5.177   5.716 -1.2710  1.1505  0.2621
 1877TIP3    H2 5577   2.853   5.038   5.747 -0.9104  0.8843 -0.3194
 1878TIP3   OH2 5578   4.666   1.014   5.367  0.0492 -0.0878  0.8001
 1878TIP3    H1 5579   4.666   0.919   5.355 -0.8080 -0.1528  1.2837
 1878TIP3    H2 5580   4.679   1.026   5.461 -0.6440  0.2557  0.8531
 1879TIP3   OH2 5581   7.949   7.570   3.855  0.5625  0.1468  0.5201
 1879TIP3    H1 5582   7.949   7.505   3.784 -1.0325 -0.5236  1.0872
 1879TIP3    H2 5583   8.013   7.636   3.827  0.6212 -0.5516 -1.1199
 1880TIP3   OH2 5584   0.549   2.231   4.108  0.5280  0.0501 -0.4602
 1880TIP3    H1 5585   0.538   2.326   4.117 -1.3748 -0.1132 -0.5390
 1880TIP3    H2 5586   0.632   2.212   4.151 -0.8894  1.2623  3.1847
 1881TIP3   OH2 5587   4.792   1.579   0.981 -0.4028  0.3770  0.0715
 1881TIP3    H1 5588   4.780   1.484   0.973 -0.1708  0.2947  0.6685
 1881TIP3    H2 5589   4.879   1.595   0.944  0.1601  0.1580  1.2589
 1882TIP3   OH2 5590   1.424   4.188   2.905 -0.0299  0.1954 -0.0340
 1882TIP3    H1 5591   1.379   4.143   2.834 -0.2320  1.0821 -0.4766
 1882TIP3    H2 5592   1.515   4.159   2.898  0.2124  1.2176 -1.4429
 1883TIP3   OH2 5593   4.699   4.064   3.495  0.3524  0.3473  0.3143
 1883TIP3    H1 5594   4.761   4.132   3.520  0.6256  0.6017 -0.9893
 1883TIP3    H2 5595   4.698   4.066   3.400 -1.6007  0.2791  0.3072
 1884TIP3   OH2 5596   7.819   5.064   3.434 -0.1635  0.1904  0.1414
 1884TIP3    H1 5597   7.780   5.021   3.358 -0.6761  0.2726  0.3497
 1884TIP3    H2 5598   7.869   5.137   3.397  0.8813 -0.6929 -0.2237
 1885TIP3   OH2 5599   5.866   6.270   5.355 -0.0526 -0.0017  1.3788
 1885TIP3    H1 5600   5.934   6.295   5.293 -2.8582 -1.2415 -2.6584
 1885TIP3    H2 5601   5.798   6.336   5.344 -1.8912 -1.9034  0.7189
 1886TIP3   OH2 5602   2.091   6.288   3.140  0.5160 -0.4099  0.3540
 1886TIP3    H1 5603   2.135   6.265   3.058 -0.5329  0.0542 -0.3631
 1886TIP3    H2 5604   2.148   6.355   3.179 -0.4743  1.6758 -1.5361
 1887TIP3   OH2 5605   4.897   7.762   4.766 -0.4497 -0.8151 -0.2450
 1887TIP3    H1 5606   4.926   7.771   4.857  0.8000  0.0538 -0.7075
 1887TIP3    H2 5607   4.941   7.684   4.734 -0.1492 -0.5950 -0.3729
 1888TIP3   OH2 5608   7.111   3.535   0.634  0.7182  0.2996 -0.4939
 1888TIP3    H1 5609   7.027   3.546   0.590  0.2981  0.5433  0.3520
 1888TIP3    H2 5610   7.092   3.549   0.727  1.7245  0.5344 -0.3096
 1889TIP3   OH2 5611   6.352   3.034   0.956 -0.0487  0.5504  0.3395
 1889TIP3    H1 5612   6.257   3.027   0.940  0.0014  1.6130 -0.5114
 1889TIP3    H2 5613   6.376   2.949   0.993 -1.1965 -0.0254 -0.1766
 1890TIP3   OH2 5614   4.896   3.346   2.579  0.2453 -0.4433  0.1486
 1890TIP3    H1 5615   4.983   3.340   2.539  0.2436 -0.1559  0.0993
 1890TIP3    H2 5616   4.870   3.437   2.566  0.2613 -0.3392  0.8358
 1891TIP3   OH2 5617   0.025   0.325   5.329 -0.2188  0.4120 -0.3994
 1891TIP3    H1 5618   0.068   0.294   5.249 -0.1292  0.5841 -0.4177
 1891TIP3    H2 5619   0.092   0.373   5.376 -0.9020  2.5524 -1.4473
 1892TIP3   OH2 5620   0.867   2.892   0.814  0.3480  0.3789 -0.2234
 1892TIP3    H1 5621   0.833   2.978   0.787 -1.0738  0.4521  1.6062
 1892TIP3    H2 5622   0.902   2.907   0.902  0.5287 -0.8252 -0.0847
 1893TIP3   OH2 5623   4.659   0.497   1.325 -0.1363  0.5036 -0.5932
 1893TIP3    H1 5624   4.616   0.429   1.272 -1.0537  0.7814 -0.2274
 1893TIP3    H2 5625   4.728   0.451   1.372 -0.3836 -0.0704 -0.7849
 1894TIP3   OH2 5626   7.634   6.085   5.219  0.8016 -0.3055 -0.1672
 1894TIP3    H1 5627   7.660   6.015   5.159  0.7323 -0.5168  0.0441
 1894TIP3    H2 5628   7.667   6.165   5.180 -1.6687 -0.0541 -1.9747
 1895TIP3   OH2 5629   0.206   3.715   2.176  0.4265 -0.3642  0.0230
 1895TIP3    H1 5630   0.199   3.750   2.087  0.4892  0.4991  0.3531
 1895TIP3    H2 5631   0.117   3.685   2.197  0.4067 -0.5476 -0.3133
 1896TIP3   OH2 5632   1.423   7.660   3.789 -0.3425  0.4595  0.0550
 1896TIP3    H1 5633   1.403   7.710   3.867 -1.3010  2.7095 -1.5426
 1896TIP3    H2 5634   1.511   7.688   3.764 -0.3443  0.3194 -0.1135
 1897TIP3   OH2 5635   8.224   3.303   0.656 -0.1696 -0.1023  0.5678
 1897TIP3    H1 5636   8.241   3.242   0.728 -0.2388 -0.4707  0.2758
 1897TIP3    H2 5637   8.247   3.389   0.691  3.1323 -0.6125 -0.0624
 1898TIP3   OH2 5638   6.500   4.936   5.873 -0.3279 -0.0358 -0.2999
 1898TIP3    H1 5639   6.535   4.871   5.935  0.7127  0.2842 -0.5264
 1898TIP3    H2 5640   6.409   4.911   5.860  0.1809 -1.7831 -0.7780
 1899TIP3   OH2 5641   5.110   0.471   5.339 -0.4268 -0.1759 -0.5145
 1899TIP3    H1 5642   5.194   0.436   5.370 -1.0332  0.1817  1.7211
 1899TIP3    H2 5643   5.045   0.410   5.373 -1.1166 -0.3874 -2.1398
 1900TIP3   OH2 5644   6.352   3.661   4.055 -0.1394 -0.2305 -0.2157
 1900TIP3    H1 5645   6.347   3.749   4.019 -0.6354 -0.3628 -0.4890
 1900TIP3    H2 5646   6.350   3.673   4.150 -2.1240 -0.0055 -0.2254
 1901TIP3   OH2 5647   4.447   4.288   3.600 -0.2745  0.0254 -0.3415
 1901TIP3    H1 5648   4.527   4.319   3.559 -0.1148 -0.9704 -0.8312
 1901TIP3    H2 5649   4.472   4.267   3.690  0.2939 -1.2342 -0.7634
 1902TIP3   OH2 5650   0.776   2.436   6.695  0.0592 -0.0556  0.1571
 1902TIP3    H1 5651   0.776   2.369   6.763 -0.3623 -1.7025 -1.3986
 1902TIP3    H2 5652   0.691   2.479   6.703  0.4282  0.4914  1.3234
 1903TIP3   OH2 5653   2.029   6.882   2.967 -0.0180  0.4769 -0.4873
 1903TIP3    H1 5654   1.967   6.870   2.894 -0.6024 -2.3990  0.3514
 1903TIP3    H2 5655   2.092   6.811   2.955 -0.6392 -0.6429  2.2294
 1904TIP3   OH2 5656   4.618   5.595   4.710  0.7540 -0.1465  0.1483
 1904TIP3    H1 5657   4.700   5.644   4.719  1.4091 -0.7814 -1.8551
 1904TIP3    H2 5658   4.644   5.511   4.673 -0.8435 -0.1521 -1.0648
 1905TIP3   OH2 5659   4.311   2.553   4.505  0.0083  0.1680 -0.4954
 1905TIP3    H1 5660   4.367   2.576   4.431  2.4099 -2.2712  0.3986
 1905TIP3    H2 5661   4.355   2.592   4.581 -0.9459  0.3862 -0.0450
 1906TIP3   OH2 5662   6.957   3.616   4.079  0.0943  0.2894 -0.0203
 1906TIP3    H1 5663   6.866   3.615   4.050 -0.5948  0.9054  1.9752
 1906TIP3    H2 5664   6.957   3.569   4.162  1.6530  0.0842 -0.1033
 1907TIP3   OH2 5665   6.368   6.026   1.393  0.6943  0.1192  0.6861
 1907TIP3    H1 5666   6.456   5.998   1.420  1.5751  0.3840 -1.6621
 1907TIP3    H2 5667   6.379   6.054   1.302 -1.6278  1.2024  0.6791
 1908TIP3   OH2 5668   3.992   2.395   0.709  0.2828 -0.2072 -0.2327
 1908TIP3    H1 5669   3.984   2.399   0.614 -0.1095 -0.5464 -0.2171
 1908TIP3    H2 5670   4.082   2.423   0.727  0.4347 -0.3774 -0.7178
 1909TIP3   OH2 5671   6.576   0.780   5.122  0.1588 -0.6828  0.1876
 1909TIP3    H1 5672   6.648   0.719   5.105  0.9621  0.3335 -0.1886
 1909TIP3    H2 5673   6.612   0.866   5.099 -1.5283 -0.2547 -1.0745
 1910TIP3   OH2 5674   6.852   1.532   2.293 -0.0756  0.0639 -0.2522
 1910TIP3    H1 5675   6.808   1.607   2.333 -2.4808 -0.1070 -2.3752
 1910TIP3    H2 5676   6.883   1.565   2.209  1.2236 -0.6625 -0.0863
 1911TIP3   OH2 5677   3.317   3.184   4.745 -0.3567 -0.7697  0.2954
 1911TIP3    H1 5678   3.270   3.135   4.678 -0.7344 -0.5659  0.4085
 1911TIP3    H2 5679   3.254   3.193   4.816  0.2885 -1.6935  1.0194
 1912TIP3   OH2 5680   0.385   6.031   1.015  0.1887 -0.4620 -0.0135
 1912TIP3    H1 5681   0.470   6.043   0.973  0.6126  0.0186  0.9530
 1912TIP3    H2 5682   0.379   5.937   1.032  0.8760 -0.3992  0.6143
 1913TIP3   OH2 5683   1.304   0.209   3.279  0.3127 -0.3811  0.3406
 1913TIP3    H1 5684   1.322   0.115   3.273 -1.6741 -0.7468 -0.9916
 1913TIP3    H2 5685   1.246   0.217   3.354  1.3855 -0.0365  1.1448
 1914TIP3   OH2 5686   2.093   1.580   3.614  0.1002 -0.4142  0.0961
 1914TIP3    H1 5687   2.107   1.668   3.650  0.1836  0.3229 -1.6483
 1914TIP3    H2 5688   2.004   1.583   3.578 -0.7321 -1.7609  1.9172
 1915TIP3   OH2 5689   0.528   6.438   2.243 -0.4421  0.4385 -0.6240
 1915TIP3    H1 5690   0.576   6.470   2.167 -0.7454  0.0753 -0.9692
 1915TIP3    H2 5691   0.524   6.513   2.302  0.6695  0.4394 -0.5220
 1916TIP3   OH2 5692   7.092   0.798   4.142 -0.5429  0.8990  0.6650
 1916TIP3    H1 5693   7.122   0.720   4.095  2.0341  1.3371  1.4164
 1916TIP3    H2 5694   7.066   0.859   4.073  0.9079  0.6694 -0.1351
 1917TIP3   OH2 5695   6.920   2.026   4.831 -0.5449  0.1639  0.0720
 1917TIP3    H1 5696   6.957   2.111   4.807  2.1199 -0.5601  1.2779
 1917TIP3    H2 5697   6.992   1.964   4.820 -2.0994 -1.7814  0.2787
 1918TIP3   OH2 5698   0.838   6.633   2.203 -0.9724 -0.3559  0.0138
 1918TIP3    H1 5699   0.855   6.576   2.278 -0.2647 -1.2000 -0.7598
 1918TIP3    H2 5700   0.918   6.686   2.196 -0.9463 -0.4328 -0.2732
 1919TIP3   OH2 5701   5.741   1.646   0.726 -0.5449 -0.0998 -0.4613
 1919TIP3    H1 5702   5.653   1.645   0.689  0.1385  0.2010 -2.2227
 1919TIP3    H2 5703   5.728   1.631   0.819 -2.4026 -0.7082 -0.7681
 1920TIP3   OH2 5704   4.625   2.131   1.984  0.1605 -0.2799 -0.3874
 1920TIP3    H1 5705   4.562   2.191   1.943  1.0511  0.1436 -1.1529
 1920TIP3    H2 5706   4.708   2.178   1.981  0.6892 -1.1854 -0.1562
 1921TIP3   OH2 5707   7.822   7.732   4.316 -0.0478 -0.3386 -0.1371
 1921TIP3    H1 5708   7.800   7.640   4.301 -0.4723 -0.4340  0.9562
 1921TIP3    H2 5709   7.866   7.760   4.236  1.7444 -2.0045  0.1843
 1922TIP3   OH2 5710   1.623   3.733   0.653  0.2693 -0.4275 -0.0629
 1922TIP3    H1 5711   1.669   3.700   0.576  2.7597  0.8244  0.7816
 1922TIP3    H2 5712   1.685   3.722   0.725 -1.4115 -0.1688  1.4960
 1923TIP3   OH2 5713   3.393   5.451   4.295  0.0460 -0.2690 -0.1224
 1923TIP3    H1 5714   3.392   5.503   4.214  1.4308  0.3570  0.2423
 1923TIP3    H2 5715   3.474   5.401   4.290  0.9605  0.9713  1.6084
 1924TIP3   OH2 5716   2.468   3.038   6.302  0.2654 -0.2669 -1.2110
 1924TIP3    H1 5717   2.469   3.103   6.232  0.5433  0.5105 -0.5051
 1924TIP3    H2 5718   2.543   3.061   6.357 -0.4701 -0.2828 -0.1598
 1925TIP3   OH2 5719   4.084   7.538   0.186 -0.4406 -0.2293  0.0856
 1925TIP3    H1 5720   4.033   7.528   0.106 -1.3243 -2.8357  0.8702
 1925TIP3    H2 5721   4.045   7.613   0.231 -0.9652  0.2658 -1.1647
 1926TIP3   OH2 5722   1.993   7.572   3.839 -0.2274  0.5449 -0.0615
 1926TIP3    H1 5723   1.898   7.574   3.855 -0.3378 -0.5708 -0.5241
 1926TIP3    H2 5724   2.028   7.516   3.908  0.0212  0.5004 -0.2227
 1927TIP3   OH2 5725   3.025   7.415   5.395 -0.0873 -0.2224  0.2730
 1927TIP3    H1 5726   2.977   7.481   5.345  0.5558  0.3454  0.3790
 1927TIP3    H2 5727   3.020   7.445   5.486 -0.4666 -0.7520  0.4278
 1928TIP3   OH2 5728   6.288   0.989   3.646 -0.1359 -0.2126  0.0468
 1928TIP3    H1 5729   6.365   1.046   3.653 -0.3254  0.5329 -2.7297
 1928TIP3    H2 5730   6.227   1.039   3.592 -1.8478 -1.5609  0.6555
 1929TIP3   OH2 5731   2.053   6.494   0.904  0.5801 -0.5365 -0.1177
 1929TIP3    H1 5732   2.083   6.518   0.991  0.6674 -1.4184  0.0988
 1929TIP3    H2 5733   1.963   6.528   0.899  1.3519  1.5995 -0.5595
 1930TIP3   OH2 5734   7.102   1.145   6.761  0.1024  0.7961 -0.2549
 1930TIP3    H1 5735   7.114   1.142   6.666  0.4148 -0.0760 -0.1991
 1930TIP3    H2 5736   7.173   1.090   6.796  0.1540  1.3292  0.4977
 1931TIP3   OH2 5737   8.113   3.684   3.075  0.2286 -0.1396  0.2076
 1931TIP3    H1 5738   8.021   3.708   3.084  0.0910  0.0095 -1.2328
 1931TIP3    H2 5739   8.136   3.716   2.987  1.1690 -1.6775 -0.1249
 1932TIP3   OH2 5740   5.507   5.225   5.022  0.2375 -0.5378  0.8809
 1932TIP3    H1 5741   5.562   5.171   4.966  1.4996  0.9133  0.6752
 1932TIP3    H2 5742   5.456   5.278   4.961  1.1754  0.6113  1.0578
 1933TIP3   OH2 5743   5.597   5.726   1.773 -0.3848 -0.4761 -0.8370
 1933TIP3    H1 5744   5.666   5.744   1.837 -1.3737  1.1488 -0.1453
 1933TIP3    H2 5745   5.643   5.706   1.692  0.9304  1.4863 -0.6365
 1934TIP3   OH2 5746   0.627   2.192   4.662  0.3416  0.3955  0.5191
 1934TIP3    H1 5747   0.625   2.145   4.746 -2.3766  1.5703  1.2130
 1934TIP3    H2 5748   0.546   2.243   4.661 -0.1676 -0.1781 -3.1869
 1935TIP3   OH2 5749   0.723   0.750   2.104  0.2111  0.4456  0.1542
 1935TIP3    H1 5750   0.663   0.808   2.057  0.0349 -0.2325 -0.4806
 1935TIP3    H2 5751   0.677   0.666   2.106  1.5893 -0.4124 -1.3561
 1936TIP3   OH2 5752   0.423   7.247   6.476  0.3720  0.5175  0.1955
 1936TIP3    H1 5753   0.409   7.160   6.438  0.4131 -0.1830  1.7325
 1936TIP3    H2 5754   0.491   7.286   6.421 -0.1165 -0.1456 -0.9164
 1937TIP3   OH2 5755   3.067   4.847   2.784 -0.2908  0.7289 -0.4035
 1937TIP3    H1 5756   3.152   4.879   2.756 -0.7768  1.7506 -0.7745
 1937TIP3    H2 5757   3.051   4.770   2.729  0.5162  0.3399 -0.1100
 1938TIP3   OH2 5758   7.387   4.198   4.053 -0.8023 -0.3147 -0.3744
 1938TIP3    H1 5759   7.311   4.249   4.082 -0.1247 -0.2077  1.2649
 1938TIP3    H2 5760   7.376   4.113   4.095  1.1074  0.4064  1.7670
 1939TIP3   OH2 5761   7.900   0.909   2.873 -0.4595 -0.0427 -0.6528
 1939TIP3    H1 5762   7.962   0.883   2.805  0.4376 -1.7104  0.7200
 1939TIP3    H2 5763   7.816   0.918   2.828 -0.0975 -2.0616 -1.8484
 1940TIP3   OH2 5764   1.157   3.306   0.804  0.2875 -0.4703 -0.4794
 1940TIP3    H1 5765   1.227   3.337   0.862  1.0057 -0.1110 -1.5160
 1940TIP3    H2 5766   1.177   3.345   0.719 -2.8359  2.1918 -0.1994
 1941TIP3   OH2 5767   8.146   5.252   4.178 -0.5591 -0.6892  0.1914
 1941TIP3    H1 5768   8.108   5.286   4.259 -2.3960 -2.0296 -0.0565
 1941TIP3    H2 5769   8.080   5.269   4.111  1.4951  1.6883 -1.4142
 1942TIP3   OH2 5770   2.597   5.776   5.525 -0.6847  0.0843 -0.0880
 1942TIP3    H1 5771   2.513   5.808   5.492 -0.8910  0.6804  0.9644
 1942TIP3    H2 5772   2.589   5.680   5.525 -1.4256  0.1423  0.1295
 1943TIP3   OH2 5773   2.053   2.104   3.657 -0.4698 -0.0639  0.0039
 1943TIP3    H1 5774   2.143   2.131   3.637 -0.1818 -0.0335  1.2482
 1943TIP3    H2 5775   2.004   2.123   3.577 -0.1917  3.7238  0.5227
 1944TIP3   OH2 5776   1.301   1.198   6.342 -0.7511  0.2331 -0.7288
 1944TIP3    H1 5777   1.287   1.201   6.437 -1.0601 -4.4794 -0.3667
 1944TIP3    H2 5778   1.391   1.226   6.330 -1.1050  2.2230  0.7069
 1945TIP3   OH2 5779   5.776   4.193   0.782  0.3599 -0.1890  0.2442
 1945TIP3    H1 5780   5.728   4.146   0.851  1.2135 -0.3309  0.7557
 1945TIP3    H2 5781   5.727   4.274   0.770 -0.5595 -0.7535  0.0658
 1946TIP3   OH2 5782   2.329   6.156   4.360 -0.0191  0.3583 -0.0249
 1946TIP3    H1 5783   2.424   6.168   4.358 -0.1198  1.1537 -2.0113
 1946TIP3    H2 5784   2.300   6.209   4.435  1.1622 -0.7203  1.2540
 1947TIP3   OH2 5785   3.332   7.330   5.888 -0.0576 -0.2287 -0.4379
 1947TIP3    H1 5786   3.249   7.341   5.934 -0.6811 -1.4839 -1.1969
 1947TIP3    H2 5787   3.369   7.248   5.923 -0.4414 -1.0924 -1.9427
 1948TIP3   OH2 5788   4.792   4.830   6.245  0.1708  0.3473 -0.1673
 1948TIP3    H1 5789   4.708   4.855   6.208  0.2290  1.4384  0.3786
 1948TIP3    H2 5790   4.848   4.812   6.169 -0.7566 -1.1815 -0.5201
 1949TIP3   OH2 5791   7.461   7.780   2.273 -0.2068 -0.0495 -0.2862
 1949TIP3    H1 5792   7.500   7.706   2.227  0.9645  0.5851 -0.3409
 1949TIP3    H2 5793   7.432   7.839   2.203  1.4433  0.8477 -0.2579
 1950TIP3   OH2 5794   3.676   7.512   0.230 -0.0145 -0.4476 -0.0164
 1950TIP3    H1 5795   3.709   7.424   0.249 -1.6524 -0.8880  0.9515
 1950TIP3    H2 5796   3.698   7.527   0.138  0.9845 -1.5338  0.0274
 1951TIP3   OH2 5797   7.364   2.505   4.064 -0.2818 -0.1556  0.3892
 1951TIP3    H1 5798   7.318   2.454   4.130 -0.9947  0.5863  0.4754
 1951TIP3    H2 5799   7.446   2.532   4.106 -0.2104 -0.6528  0.5709
 1952TIP3   OH2 5800   4.837   1.661   1.233 -0.2982  0.3558  0.3851
 1952TIP3    H1 5801   4.838   1.635   1.141 -2.2358 -0.1428  0.4672
 1952TIP3    H2 5802   4.851   1.755   1.232  0.7365  0.2087 -0.3306
 1953TIP3   OH2 5803   5.641   4.261   4.930  0.1822  0.2236  0.1220
 1953TIP3    H1 5804   5.552   4.239   4.903  0.2111  0.6388 -0.3317
 1953TIP3    H2 5805   5.637   4.265   5.025  0.0733 -1.2613  0.2065
 1954TIP3   OH2 5806   7.566   5.490   1.436 -0.5739 -0.6153 -0.5049
 1954TIP3    H1 5807   7.598   5.562   1.382  1.3516 -1.5262 -0.7034
 1954TIP3    H2 5808   7.548   5.419   1.373  0.6879 -1.3360 -0.1101
 1955TIP3   OH2 5809   4.581   6.352   2.054  0.5573 -0.2129 -0.1131
 1955TIP3    H1 5810   4.579   6.290   1.981 -0.8782 -0.7723  0.3565
 1955TIP3    H2 5811   4.616   6.301   2.128  0.9210  0.0158 -0.1270
 1956TIP3   OH2 5812   0.233   0.798   2.235 -0.1830 -0.3375  0.6631
 1956TIP3    H1 5813   0.264   0.887   2.219  2.0859 -0.9913  1.0702
 1956TIP3    H2 5814   0.189   0.773   2.154 -1.7997  1.4890  0.9242
 1957TIP3   OH2 5815   0.532   2.504   4.186  0.3911 -0.4769  0.0086
 1957TIP3    H1 5816   0.575   2.531   4.267  0.5052 -1.9839  0.4882
 1957TIP3    H2 5817   0.439   2.516   4.203  0.4699  0.2269 -0.0400
 1958TIP3   OH2 5818   3.404   5.527   1.419  0.5876 -0.1870 -0.4331
 1958TIP3    H1 5819   3.496   5.548   1.404  0.4812  0.4475 -0.2436
 1958TIP3    H2 5820   3.405   5.446   1.470  1.0842  0.3358  0.4220
 1959TIP3   OH2 5821   6.784   3.997   4.366  0.1219 -0.4374 -0.0143
 1959TIP3    H1 5822   6.782   3.946   4.285  0.6025  0.3722 -0.5394
 1959TIP3    H2 5823   6.819   4.082   4.341 -0.0002 -0.0752  0.9910
 1960TIP3   OH2 5824   6.761   0.826   1.299  0.1454  0.1753 -0.1069
 1960TIP3    H1 5825   6.727   0.845   1.386 -3.0872  0.1257 -1.2130
 1960TIP3    H2 5826   6.763   0.911   1.255 -0.0361 -0.0549 -0.5641
 1961TIP3   OH2 5827   8.087   1.868   6.424  0.5579  0.0690 -0.2225
 1961TIP3    H1 5828   8.062   1.884   6.334  1.0478  2.3694 -0.0039
 1961TIP3    H2 5829   8.023   1.805   6.456 -2.1373  2.2416 -1.0020
 1962TIP3   OH2 5830   7.099   2.933   1.770  0.2926 -0.1285 -0.3738
 1962TIP3    H1 5831   7.170   2.951   1.709 -0.6645 -0.7240 -1.7144
 1962TIP3    H2 5832   7.025   2.984   1.736  0.0784  0.5339  1.0349
 1963TIP3   OH2 5833   6.746   6.408   1.622 -0.2682  0.0688 -0.2564
 1963TIP3    H1 5834   6.833   6.444   1.602  0.4445 -1.8629 -0.8573
 1963TIP3    H2 5835   6.733   6.427   1.715  0.6076  0.7694 -0.2620
 1964TIP3   OH2 5836   2.502   5.779   1.486  0.2167 -0.2017  0.7029
 1964TIP3    H1 5837   2.590   5.812   1.465 -0.5017  1.3398 -0.0665
 1964TIP3    H2 5838   2.454   5.785   1.404 -1.2387  1.1125  1.6042
 1965TIP3   OH2 5839   3.687   3.879   1.135  0.1020 -0.8461  0.5860
 1965TIP3    H1 5840   3.737   3.902   1.057 -1.0979  2.5935  0.6902
 1965TIP3    H2 5841   3.743   3.905   1.208 -0.7039  0.5035  0.7445
 1966TIP3   OH2 5842   5.836   0.394   0.428  0.5644  0.4151 -0.3159
 1966TIP3    H1 5843   5.836   0.357   0.340  0.5928  0.7770 -0.4698
 1966TIP3    H2 5844   5.823   0.488   0.415 -2.6495  0.1641  0.1794
 1967TIP3   OH2 5845   1.669   3.872   4.655 -0.1718  0.0211 -0.1609
 1967TIP3    H1 5846   1.605   3.939   4.630  0.9568  1.0533 -0.3917
 1967TIP3    H2 5847   1.632   3.832   4.734 -0.1022  2.1095  0.9944
 1968TIP3   OH2 5848   1.951   2.525   5.825 -0.2619 -0.2999  0.2267
 1968TIP3    H1 5849   1.888   2.555   5.760  0.4797 -0.7642 -0.7357
 1968TIP3    H2 5850   2.027   2.581   5.812 -0.8868  1.1547  2.2629
 1969TIP3   OH2 5851   6.746   2.990   0.521 -0.2018 -0.0875 -0.1051
 1969TIP3    H1 5852   6.809   2.974   0.592 -1.1467  1.1133  1.0590
 1969TIP3    H2 5853   6.661   2.967   0.559 -0.6148 -0.4758 -1.2351
 1970TIP3   OH2 5854   6.487   1.470   0.781 -0.0192 -0.1870 -0.0570
 1970TIP3    H1 5855   6.399   1.480   0.743 -1.3860 -2.0298  2.3193
 1970TIP3    H2 5856   6.506   1.377   0.773  1.5190  0.1101 -0.0747
 1971TIP3   OH2 5857   4.684   7.518   0.747  0.0484  0.7050 -0.1309
 1971TIP3    H1 5858   4.733   7.516   0.666  0.7689  1.1783  0.2884
 1971TIP3    H2 5859   4.693   7.429   0.783  2.2065  1.2476  0.8646
 1972TIP3   OH2 5860   7.658   0.601   3.761  0.0228  0.1188  0.6441
 1972TIP3    H1 5861   7.709   0.668   3.806 -1.0297  0.1506  1.8315
 1972TIP3    H2 5862   7.720   0.529   3.748  1.2180  1.3374 -0.8279
 1973TIP3   OH2 5863   2.819   7.567   1.833  0.4770  0.2492 -0.0135
 1973TIP3    H1 5864   2.805   7.659   1.853  0.3291  0.6496 -1.8109
 1973TIP3    H2 5865   2.789   7.557   1.743  0.5805 -1.5451  0.1153
 1974TIP3   OH2 5866   2.901   7.256   4.221  0.3275  0.2157  0.1521
 1974TIP3    H1 5867   2.894   7.169   4.182 -0.6263  0.3547 -0.0061
 1974TIP3    H2 5868   2.865   7.315   4.154  0.4790  0.6679  0.4676
 1975TIP3   OH2 5869   2.801   2.796   3.997 -0.1506  0.5668  0.3125
 1975TIP3    H1 5870   2.711   2.807   3.966  0.7749  0.7639 -2.5116
 1975TIP3    H2 5871   2.840   2.734   3.936  0.9816 -1.5628  3.0094
 1976TIP3   OH2 5872   6.530   4.448   6.506  0.7098 -0.5193 -0.3960
 1976TIP3    H1 5873   6.532   4.530   6.458 -1.1989  0.2612  0.7257
 1976TIP3    H2 5874   6.522   4.380   6.439  2.3311  0.1702 -1.3264
 1977TIP3   OH2 5875   2.156   6.724   2.266  0.1557  0.0479  0.0635
 1977TIP3    H1 5876   2.098   6.665   2.314  1.1443 -1.3951 -0.4539
 1977TIP3    H2 5877   2.101   6.800   2.245 -0.9034 -0.2779  1.5010
 1978TIP3   OH2 5878   2.535   4.574   0.612 -0.4946  0.0278 -0.1194
 1978TIP3    H1 5879   2.449   4.586   0.573  0.1349  0.1680 -1.5102
 1978TIP3    H2 5880   2.587   4.531   0.544  0.3184 -0.7833  0.9754
 1979TIP3   OH2 5881   0.993   5.666   4.716 -0.2928  0.2735  0.3799
 1979TIP3    H1 5882   1.015   5.671   4.623 -2.3187 -2.1096 -0.3161
 1979TIP3    H2 5883   0.953   5.751   4.736 -0.5506  0.5300 -1.1204
 1980TIP3   OH2 5884   7.166   7.864   4.211 -0.0839 -0.1888  0.0154
 1980TIP3    H1 5885   7.220   7.827   4.281 -0.3809  0.5349  0.6412
 1980TIP3    H2 5886   7.140   7.789   4.159  1.7634 -0.5417 -0.4768
 1981TIP3   OH2 5887   3.246   6.310   2.544  0.0805  0.1750  0.4498
 1981TIP3    H1 5888   3.253   6.329   2.450  2.0797 -1.2852  0.2497
 1981TIP3    H2 5889   3.249   6.396   2.586  2.0447  0.7536 -0.7321
 1982TIP3   OH2 5890   6.505   2.870   1.218 -0.2400  0.1097  0.0211
 1982TIP3    H1 5891   6.537   2.954   1.185 -0.8510  0.4648  0.3234
 1982TIP3    H2 5892   6.471   2.825   1.140  0.3476  0.0153 -0.1875
 1983TIP3   OH2 5893   4.748   2.022   2.738  0.0546  0.0094  0.2141
 1983TIP3    H1 5894   4.694   2.061   2.670  2.3126 -0.4723 -1.9937
 1983TIP3    H2 5895   4.721   1.931   2.742  0.2727 -0.0862 -0.4415
 1984TIP3   OH2 5896   6.180   6.925   3.510  0.3615 -0.2919 -0.1715
 1984TIP3    H1 5897   6.141   7.007   3.539  1.0810 -0.0225  0.0550
 1984TIP3    H2 5898   6.214   6.885   3.590  1.3122 -0.1079 -0.4774
 1985TIP3   OH2 5899   7.326   3.796   5.743  0.2182 -0.2095 -0.9491
 1985TIP3    H1 5900   7.246   3.843   5.768  1.7337  1.9457  0.2049
 1985TIP3    H2 5901   7.307   3.704   5.760 -1.7087  0.3354  0.1439
 1986TIP3   OH2 5902   0.266   0.041   5.337  0.5525  0.7052 -0.0519
 1986TIP3    H1 5903   0.171   0.040   5.340  0.5544 -0.1998 -0.1041
 1986TIP3    H2 5904   0.291   0.124   5.378 -0.2901  1.5465 -1.1702
 1987TIP3   OH2 5905   6.966   3.022   2.663 -0.5267  0.3577  0.1408
 1987TIP3    H1 5906   7.014   3.062   2.736  1.3432  0.1998 -0.9385
 1987TIP3    H2 5907   6.988   3.076   2.587 -3.1969  1.0921 -0.2280
 1988TIP3   OH2 5908   0.471   6.230   3.481  0.3602  0.0830  0.1105
 1988TIP3    H1 5909   0.555   6.275   3.491  0.7691 -0.1502 -1.9021
 1988TIP3    H2 5910   0.447   6.244   3.390  0.5967 -3.8780 -0.7353
 1989TIP3   OH2 5911   5.520   4.375   4.576 -0.3896 -0.4336 -0.6191
 1989TIP3    H1 5912   5.602   4.402   4.619  0.3289 -1.1040 -1.5467
 1989TIP3    H2 5913   5.479   4.458   4.549 -0.9463  0.0255  1.4476
 1990TIP3   OH2 5914   7.237   0.581   5.827  0.3973 -0.2725  0.5499
 1990TIP3    H1 5915   7.274   0.601   5.742 -0.1305  0.8166  0.5589
 1990TIP3    H2 5916   7.274   0.647   5.886  1.1314 -1.3060  1.2676
 1991TIP3   OH2 5917   3.758   2.353   0.432  0.5545 -0.4626  0.2364
 1991TIP3    H1 5918   3.793   2.274   0.391  0.8163  0.2219 -0.9176
 1991TIP3    H2 5919   3.671   2.364   0.393  0.9425  0.3827 -0.4451
 1992TIP3   OH2 5920   6.221   5.398   6.443  0.4809  0.4583 -0.0179
 1992TIP3    H1 5921   6.286   5.435   6.383  0.4360 -1.3608 -1.2866
 1992TIP3    H2 5922   6.266   5.389   6.526  0.9390  1.8972 -0.0902
 1993TIP3   OH2 5923   7.333   0.340   6.349  0.1712 -0.1744  0.2079
 1993TIP3    H1 5924   7.261   0.281   6.371 -0.2086  1.5494  4.3837
 1993TIP3    H2 5925   7.407   0.283   6.332 -1.1822 -1.8865 -0.2003
 1994TIP3   OH2 5926   3.805   4.289   5.960 -0.5350  0.1171  0.0204
 1994TIP3    H1 5927   3.755   4.238   5.896  0.3146  2.2794 -2.5651
 1994TIP3    H2 5928   3.740   4.345   6.003 -1.2173 -1.8470  1.6610
 1995TIP3   OH2 5929   0.013   6.640   3.287 -0.4724 -0.2717  0.0714
 1995TIP3    H1 5930   0.085   6.676   3.235 -0.9649  0.0629 -0.3848
 1995TIP3    H2 5931   0.013   6.692   3.368 -1.7977  1.4639 -0.9789
 1996TIP3   OH2 5932   3.591   0.607   0.184  0.1741  0.2895  0.2446
 1996TIP3    H1 5933   3.568   0.517   0.162 -2.3499  0.9602 -0.2635
 1996TIP3    H2 5934   3.515   0.640   0.233  2.2433  1.2936  3.0726
 1997TIP3   OH2 5935   1.962   4.691   1.977 -0.1009 -0.0320 -0.5636
 1997TIP3    H1 5936   2.001   4.605   1.963 -1.8663 -0.7921 -1.1239
 1997TIP3    H2 5937   1.911   4.707   1.898 -1.9518  0.2990  0.6388
 1998TIP3   OH2 5938   6.116   7.109   2.681 -0.2667 -0.5880 -0.2074
 1998TIP3    H1 5939   6.115   7.016   2.659 -1.5027 -0.9753  1.3076
 1998TIP3    H2 5940   6.172   7.114   2.759 -0.4104 -0.0898 -0.1374
 1999TIP3   OH2 5941   5.153   2.308   2.121 -0.6388  0.3927 -0.2092
 1999TIP3    H1 5942   5.225   2.357   2.160 -0.7185  1.1167 -0.9375
 1999TIP3    H2 5943   5.174   2.304   2.028 -0.5846 -1.0754 -0.1544
 2000TIP3   OH2 5944   4.527   2.909   3.383 -0.3106  0.3153  0.8850
 2000TIP3    H1 5945   4.534   2.993   3.338 -1.0309 -0.1654 -0.1681
 2000TIP3    H2 5946   4.609   2.864   3.363 -0.4290  0.2938  0.4420
 2001TIP3   OH2 5947   5.399   7.067   3.334 -0.4613 -0.1467  0.5943
 2001TIP3    H1 5948   5.368   7.108   3.253 -0.4117 -1.2953 -0.0234
 2001TIP3    H2 5949   5.490   7.045   3.316 -0.6684 -1.1006  0.6787
 2002TIP3   OH2 5950   6.667   2.426   0.472  0.1652 -0.4316 -0.7202
 2002TIP3    H1 5951   6.728   2.495   0.498  1.0929 -1.0484 -1.2105
 2002TIP3    H2 5952   6.627   2.398   0.554  2.1153 -1.4768 -0.0488
 2003TIP3   OH2 5953   1.142   2.994   2.617 -0.1005  0.0975 -0.4932
 2003TIP3    H1 5954   1.185   3.065   2.664 -1.1299  1.4836 -1.5557
 2003TIP3    H2 5955   1.124   3.030   2.530 -2.6579 -0.6548 -0.3574
 2004TIP3   OH2 5956   5.935   4.240   5.544  0.6108 -0.9023  0.3490
 2004TIP3    H1 5957   5.916   4.305   5.477 -1.0509  0.0781  1.6753
 2004TIP3    H2 5958   5.913   4.283   5.627  0.9971 -2.6120  1.4070
 2005TIP3   OH2 5959   4.260   2.635   2.752 -0.5134 -0.3577 -0.0069
 2005TIP3    H1 5960   4.259   2.546   2.786  0.5784 -0.7410 -0.9310
 2005TIP3    H2 5961   4.351   2.650   2.726 -0.3857  1.4686  1.2334
 2006TIP3   OH2 5962   6.325   4.539   0.128  0.0461  0.0827  0.1045
 2006TIP3    H1 5963   6.259   4.494   0.182 -0.5431  0.2192 -0.4814
 2006TIP3    H2 5964   6.394   4.474   0.116 -0.6437 -0.5707 -0.4615
 2007TIP3   OH2 5965  -0.001   6.759   5.171 -0.4296 -0.4511  0.1997
 2007TIP3    H1 5966   0.044   6.837   5.204 -0.6457 -0.3649  0.2910
 2007TIP3    H2 5967  -0.029   6.783   5.083 -0.4149 -0.4593  0.1930
 2008TIP3   OH2 5968   1.600   5.031   5.635  0.1972 -0.2199  0.3795
 2008TIP3    H1 5969   1.595   5.001   5.544  0.2697  1.2443 -0.1256
 2008TIP3    H2 5970   1.672   4.981   5.672 -1.0457 -2.2650  0.2273
 2009TIP3   OH2 5971   2.378   4.907   6.243  0.2468 -0.1066  0.1905
 2009TIP3    H1 5972   2.401   4.930   6.154  0.7878  0.5347  0.4896
 2009TIP3    H2 5973   2.377   4.811   6.244  0.9045 -0.1228 -0.3366
 2010TIP3   OH2 5974   0.912   1.449   4.311  0.1414  0.0269 -0.6586
 2010TIP3    H1 5975   0.926   1.365   4.268 -0.9074 -0.0198 -0.9246
 2010TIP3    H2 5976   0.926   1.514   4.243  3.8104  0.3119  0.1456
 2011TIP3   OH2 5977   0.370   1.922   3.160  0.0188 -0.7916  0.0131
 2011TIP3    H1 5978   0.450   1.878   3.188 -0.3899 -0.1676  2.3903
 2011TIP3    H2 5979   0.300   1.859   3.177 -0.3782  0.0683  1.7642
 2012TIP3   OH2 5980   1.205   3.716   2.708 -0.1080 -0.4462 -0.0532
 2012TIP3    H1 5981   1.253   3.637   2.686 -0.7257 -0.9694  0.4333
 2012TIP3    H2 5982   1.161   3.696   2.790 -2.1214 -0.4422 -1.0541
 2013TIP3   OH2 5983   6.068   5.758   2.179 -0.2483  0.2926  0.1003
 2013TIP3    H1 5984   6.003   5.826   2.196 -0.9753 -0.7728  1.8965
 2013TIP3    H2 5985   6.108   5.782   2.096 -1.3761  2.1974  0.0677
 2014TIP3   OH2 5986   2.531   3.350   3.021 -0.0551 -0.1611 -0.1897
 2014TIP3    H1 5987   2.514   3.402   3.099 -1.2113  0.9084 -1.0915
 2014TIP3    H2 5988   2.601   3.290   3.046 -1.8327 -1.3537  2.3168
 2015TIP3   OH2 5989   3.146   7.151   6.608  0.3736 -0.0302 -0.3305
 2015TIP3    H1 5990   3.185   7.141   6.521 -0.1502 -0.2042 -0.5544
 2015TIP3    H2 5991   3.220   7.156   6.668  0.7484 -1.4005 -0.6319
 2016TIP3   OH2 5992   0.895   6.764   0.587 -0.2188  0.5508 -0.3793
 2016TIP3    H1 5993   0.831   6.806   0.645  0.4775  0.8954  0.1525
 2016TIP3    H2 5994   0.860   6.676   0.573 -1.2440  1.0070 -0.7908
 2017TIP3   OH2 5995   4.024   0.255   2.276 -0.0512 -0.2442  0.4176
 2017TIP3    H1 5996   4.029   0.194   2.202  2.0899 -0.4075  0.6317
 2017TIP3    H2 5997   3.937   0.240   2.313 -0.5984 -1.2488 -1.1316
 2018TIP3   OH2 5998   7.422   1.545   2.829  0.0404 -0.3237 -0.4947
 2018TIP3    H1 5999   7.510   1.541   2.866  0.6194 -2.5279 -1.8864
 2018TIP3    H2 6000   7.425   1.616   2.766  1.0128 -0.7600 -0.9475
 2019TIP3   OH2 6001   4.886   4.699   6.754  0.5615  0.0320  0.3239
 2019TIP3    H1 6002   4.845   4.782   6.727  0.6045 -0.1352 -0.2730
 2019TIP3    H2 6003   4.980   4.719   6.755  0.5803 -0.0410  0.0631
 2020TIP3   OH2 6004   4.892   4.849   0.194  0.1059  0.2656  0.1823
 2020TIP3    H1 6005   4.950   4.831   0.268  0.7501 -1.2360 -0.6576
 2020TIP3    H2 6006   4.951   4.862   0.119 -0.5758 -2.2428 -0.8898
 2021TIP3   OH2 6007   6.466   1.531   1.820  0.7035  0.1391  0.3026
 2021TIP3    H1 6008   6.505   1.618   1.821 -1.2130  1.0622  2.2294
 2021TIP3    H2 6009   6.372   1.546   1.818  0.3189 -1.9443 -0.9892
 2022TIP3   OH2 6010   5.290   2.903   3.769 -0.0101  0.4075  0.0740
 2022TIP3    H1 6011   5.346   2.826   3.763  0.3768  0.7498 -0.9077
 2022TIP3    H2 6012   5.332   2.969   3.714 -0.9368  0.9458 -0.0265
 2023TIP3   OH2 6013   4.044   3.786   2.046 -0.2058 -0.1588  0.2934
 2023TIP3    H1 6014   4.137   3.782   2.021 -0.5313 -1.0958 -0.9031
 2023TIP3    H2 6015   4.002   3.720   1.990 -1.0074 -2.7703  3.6351
 2024TIP3   OH2 6016   5.269   6.010   4.840  0.4585 -0.7338 -0.0713
 2024TIP3    H1 6017   5.314   5.950   4.780 -0.8000 -1.8929  0.1050
 2024TIP3    H2 6018   5.286   5.973   4.927  0.5193 -0.2380  0.1324
 2025TIP3   OH2 6019   3.776   0.586   0.393 -0.0986  0.0191  0.2762
 2025TIP3    H1 6020   3.738   0.501   0.412 -0.4580  0.2509  0.5966
 2025TIP3    H2 6021   3.730   0.616   0.315 -0.5601  0.2840  0.6433
 2026TIP3   OH2 6022   6.281   5.274   2.984 -0.0689  0.1650 -0.7063
 2026TIP3    H1 6023   6.209   5.333   3.008  1.1834  1.4057  0.1978
 2026TIP3    H2 6024   6.307   5.235   3.068  0.3155 -0.2706 -1.0287
 2027TIP3   OH2 6025   4.143   7.725   2.597  0.6239 -0.1287  0.0158
 2027TIP3    H1 6026   4.174   7.789   2.661  0.1895  1.5466 -1.4015
 2027TIP3    H2 6027   4.223   7.683   2.565  1.0860  0.9657 -0.3135
 2028TIP3   OH2 6028   2.503   2.167   1.834  0.5664 -0.1731 -0.1912
 2028TIP3    H1 6029   2.589   2.169   1.877  1.5177  1.1741 -1.9811
 2028TIP3    H2 6030   2.450   2.229   1.884  0.6868 -0.8784  0.8258
 2029TIP3   OH2 6031   3.528   5.497   4.912 -0.0467 -0.0225  0.4175
 2029TIP3    H1 6032   3.596   5.433   4.892  0.4383  0.4521  0.5419
 2029TIP3    H2 6033   3.447   5.457   4.879  0.6054  0.3995 -1.8154
 2030TIP3   OH2 6034   1.769   1.890   2.657 -0.0784 -0.4895  0.3640
 2030TIP3    H1 6035   1.735   1.957   2.716 -2.9824  0.3902 -2.0314
 2030TIP3    H2 6036   1.724   1.810   2.683 -0.9838 -0.2082 -0.2866
 2031TIP3   OH2 6037   4.385   2.775   1.552 -0.1409 -0.1186 -0.7569
 2031TIP3    H1 6038   4.472   2.814   1.559 -1.3728  3.3643 -2.1812
 2031TIP3    H2 6039   4.366   2.743   1.641  1.6374  1.3118  0.2242
 2032TIP3   OH2 6040   7.767   7.537   6.706 -0.0770 -0.2444 -0.1464
 2032TIP3    H1 6041   7.734   7.485   6.779  0.4320 -0.6150 -0.1767
 2032TIP3    H2 6042   7.805   7.473   6.646  1.6897  0.2321  0.3905
 2033TIP3   OH2 6043   1.337   1.222   2.325 -0.1323 -0.2823 -0.1700
 2033TIP3    H1 6044   1.406   1.280   2.295 -1.2011  0.8851 -0.4392
 2033TIP3    H2 6045   1.273   1.221   2.254 -0.3543 -1.4380  0.0222
 2034TIP3   OH2 6046   4.334   7.448   0.479 -0.7410  0.3929 -0.2637
 2034TIP3    H1 6047   4.264   7.501   0.518 -1.5217  0.8570 -2.1380
 2034TIP3    H2 6048   4.302   7.358   0.485 -0.7614  0.4367  0.3137
 2035TIP3   OH2 6049   6.560   7.386   2.098  0.0093 -0.1491  0.0276
 2035TIP3    H1 6050   6.620   7.346   2.161  1.0357  0.4181 -0.5593
 2035TIP3    H2 6051   6.560   7.326   2.023 -0.9264 -0.6393  0.4057
 2036TIP3   OH2 6052   2.009   5.423   4.073  0.5749 -0.3974 -0.2509
 2036TIP3    H1 6053   1.918   5.396   4.068  0.3973  0.0710  0.3013
 2036TIP3    H2 6054   2.006   5.518   4.084  1.1970 -0.1037 -2.2709
 2037TIP3   OH2 6055   4.005   5.938   5.819 -0.6242 -0.2841 -0.4796
 2037TIP3    H1 6056   3.950   5.920   5.743  0.7412 -0.9041 -1.3496
 2037TIP3    H2 6057   4.042   5.853   5.843 -1.3179 -0.1734  1.1247
 2038TIP3   OH2 6058   5.686   0.612   4.946 -0.4715  0.3021 -0.5630
 2038TIP3    H1 6059   5.696   0.594   4.852 -3.4430 -0.3545 -0.8449
 2038TIP3    H2 6060   5.592   0.613   4.960 -0.1614  2.4111  2.0871
 2039TIP3   OH2 6061   7.550   1.486   5.232 -0.0863  0.1741 -0.0852
 2039TIP3    H1 6062   7.599   1.440   5.164  1.6297  1.4425  0.2387
 2039TIP3    H2 6063   7.523   1.568   5.191 -1.3012 -0.1659 -0.0068
 2040TIP3   OH2 6064   1.896   3.285   3.363 -0.3769 -0.4814  0.0832
 2040TIP3    H1 6065   1.887   3.325   3.449 -0.2290 -0.0730 -0.0883
 2040TIP3    H2 6066   1.910   3.192   3.381  0.8699 -0.2172  0.5515
 2041TIP3   OH2 6067   4.205   0.521   4.456  0.2445 -0.5544  0.0828
 2041TIP3    H1 6068   4.210   0.490   4.366 -0.7538  0.2299 -0.2661
 2041TIP3    H2 6069   4.263   0.463   4.505  4.0420  1.3871 -1.6622
 2042TIP3   OH2 6070   4.006   0.320   0.086  0.4177  0.2812  0.3515
 2042TIP3    H1 6071   3.939   0.358   0.030  1.6591  0.9215 -0.7513
 2042TIP3    H2 6072   4.040   0.394   0.136 -0.0444 -0.1314  1.3041
 2043TIP3   OH2 6073   6.260   6.206   6.504  0.6513 -0.5634  0.1039
 2043TIP3    H1 6074   6.309   6.239   6.429  1.6824 -1.4194  0.3744
 2043TIP3    H2 6075   6.213   6.130   6.470 -1.1608  0.6966 -0.3462
 2044TIP3   OH2 6076   3.355   3.995   5.756 -0.2174  0.1343 -0.0602
 2044TIP3    H1 6077   3.383   3.904   5.741  0.3367  0.3721 -0.5137
 2044TIP3    H2 6078   3.325   4.025   5.671 -1.6330 -0.0223  0.3633
 2045TIP3   OH2 6079   7.984   4.445   0.293  0.2376  0.2312  0.2283
 2045TIP3    H1 6080   8.050   4.390   0.335 -2.1756 -1.5530  1.9917
 2045TIP3    H2 6081   7.967   4.515   0.357  0.7004  0.9192 -0.3950
 2046TIP3   OH2 6082   8.257   0.016   3.983 -0.0143  0.1376  0.2560
 2046TIP3    H1 6083   8.212   0.099   3.997 -1.9329 -0.4327 -1.9383
 2046TIP3    H2 6084   8.305   0.001   4.064 -1.6103  2.1419  1.6712
 2047TIP3   OH2 6085   3.928   0.122   3.517 -0.3816 -0.1326 -0.2417
 2047TIP3    H1 6086   3.989   0.121   3.590  1.2527  0.5850 -1.5273
 2047TIP3    H2 6087   3.968   0.063   3.452 -2.6646 -2.1545  0.0670
 2048TIP3   OH2 6088   1.334   5.326   0.866 -0.2980 -0.6792  0.1913
 2048TIP3    H1 6089   1.390   5.342   0.941  0.4836  1.1206 -0.7097
 2048TIP3    H2 6090   1.385   5.268   0.809 -0.9711 -2.2038  1.0944
 2049TIP3   OH2 6091   2.411   3.957   0.906 -0.0847  0.3215 -0.4289
 2049TIP3    H1 6092   2.399   4.023   0.975  1.0444  0.0361  0.0542
 2049TIP3    H2 6093   2.445   4.006   0.832  1.1947  0.2327  0.0792
 2050TIP3   OH2 6094   7.458   1.745   5.184  0.4559 -0.2045 -0.2503
 2050TIP3    H1 6095   7.380   1.793   5.156  0.5145 -1.2059 -2.2839
 2050TIP3    H2 6096   7.466   1.765   5.277 -2.0974  0.0908 -0.0251
 2051TIP3   OH2 6097   4.529   1.847   0.148 -0.3523  0.3168  0.1411
 2051TIP3    H1 6098   4.612   1.877   0.110 -0.9372  1.2776 -0.4076
 2051TIP3    H2 6099   4.549   1.759   0.180  0.6541  0.1734 -0.7837
 2052TIP3   OH2 6100   7.070   1.658   1.364 -0.4331 -0.6595 -0.1487
 2052TIP3    H1 6101   7.130   1.631   1.295 -0.7435  1.1095 -1.1781
 2052TIP3    H2 6102   6.984   1.627   1.335 -0.4723 -0.4621 -0.2442
 2053TIP3   OH2 6103   3.024   4.566   1.204 -0.1947  0.2611 -0.2783
 2053TIP3    H1 6104   2.936   4.599   1.187 -1.1767 -2.5235 -1.2533
 2053TIP3    H2 6105   3.061   4.551   1.117 -0.2349 -2.0083  0.0322
 2054TIP3   OH2 6106   3.747   4.447   4.388  0.3633 -0.1985 -0.0425
 2054TIP3    H1 6107   3.765   4.451   4.294  0.7038  1.7070  0.0618
 2054TIP3    H2 6108   3.652   4.457   4.395  0.3428 -0.3006 -0.1860
 2055TIP3   OH2 6109   6.218   6.803   3.765  0.0510 -0.3864  0.0755
 2055TIP3    H1 6110   6.252   6.772   3.849  0.4216  1.4150  0.6254
 2055TIP3    H2 6111   6.173   6.726   3.728  1.8448 -1.8911  0.8338
 2056TIP3   OH2 6112   2.182   7.123   0.345 -0.5347 -0.1922  0.0887
 2056TIP3    H1 6113   2.162   7.041   0.390 -0.1176 -0.1412  0.3769
 2056TIP3    H2 6114   2.276   7.135   0.358 -0.7236  0.7176  0.6938
 2057TIP3   OH2 6115   0.592   5.764   1.245 -0.2821  0.1812  0.1479
 2057TIP3    H1 6116   0.542   5.682   1.240  0.6107 -0.4680  1.3638
 2057TIP3    H2 6117   0.525   5.831   1.262 -0.7052 -0.8226  2.9149
 2058TIP3   OH2 6118  -0.007   5.983   0.119 -0.2646 -0.6537  0.0418
 2058TIP3    H1 6119   0.088   5.979   0.113 -0.3874 -2.3400 -1.6649
 2058TIP3    H2 6120  -0.027   6.077   0.113  1.2982 -0.1278  1.9152
 2059TIP3   OH2 6121   7.702   5.425   1.756 -0.1909  0.3499  0.2635
 2059TIP3    H1 6122   7.700   5.505   1.807  0.5561  1.6243 -1.5921
 2059TIP3    H2 6123   7.671   5.450   1.669  0.2806 -1.3083 -0.4364
 2060TIP3   OH2 6124   3.604   5.863   0.510  0.1732  0.2659 -0.1653
 2060TIP3    H1 6125   3.532   5.895   0.565  0.0278  0.7498 -0.6297
 2060TIP3    H2 6126   3.683   5.892   0.555  0.0803 -0.1858  0.2990
 2061TIP3   OH2 6127   2.532   6.537   4.966 -0.3783  0.4889  0.2187
 2061TIP3    H1 6128   2.523   6.546   4.871  1.3580 -0.6430 -0.0965
 2061TIP3    H2 6129   2.586   6.458   4.977 -1.7831 -0.2689  2.1936
 2062TIP3   OH2 6130   6.648   4.163   6.475 -0.6032  0.2206 -0.8660
 2062TIP3    H1 6131   6.719   4.130   6.420 -0.7371 -0.8589 -0.4100
 2062TIP3    H2 6132   6.575   4.177   6.414 -0.3184  0.3583 -1.1758
 2063TIP3   OH2 6133   6.192   4.058   0.761  0.1001 -0.0535  0.0868
 2063TIP3    H1 6134   6.166   4.150   0.752  2.3569  0.5571 -0.7675
 2063TIP3    H2 6135   6.232   4.036   0.677 -0.1348 -1.7587  0.3832
 2064TIP3   OH2 6136   5.992   0.649   1.765 -0.0774  0.4291 -0.2615
 2064TIP3    H1 6137   5.929   0.596   1.716 -0.4310  0.4093  0.2068
 2064TIP3    H2 6138   6.067   0.591   1.779 -1.0269 -0.4534  1.4782
 2065TIP3   OH2 6139   4.382   5.337   2.420  0.2672 -0.3271 -0.3396
 2065TIP3    H1 6140   4.375   5.367   2.510 -0.3877 -2.4470  0.3578
 2065TIP3    H2 6141   4.476   5.333   2.403  0.3875  0.3105  0.1282
 2066TIP3   OH2 6142   0.386   5.091   0.310 -0.7537  0.6032 -0.3010
 2066TIP3    H1 6143   0.380   5.131   0.397 -2.4071 -0.1381 -0.0377
 2066TIP3    H2 6144   0.473   5.051   0.307 -0.8073  0.3436  1.1517
 2067TIP3   OH2 6145   8.054   1.887   5.122  0.3771  0.1225 -0.4569
 2067TIP3    H1 6146   8.118   1.867   5.190  0.1723 -0.6671 -0.4777
 2067TIP3    H2 6147   8.027   1.801   5.088  0.1909  0.4847 -1.2678
 2068TIP3   OH2 6148   3.653   5.760   2.450  0.1330 -0.1081  0.2055
 2068TIP3    H1 6149   3.597   5.693   2.490 -0.2023 -0.0354 -0.1436
 2068TIP3    H2 6150   3.622   5.767   2.360  0.2141  0.4691  0.2180
 2069TIP3   OH2 6151   3.358   5.583   4.563 -0.3600  0.0003  0.1108
 2069TIP3    H1 6152   3.448   5.574   4.594  0.1931  0.3894 -1.3316
 2069TIP3    H2 6153   3.358   5.543   4.476 -1.6839 -0.3521  0.2445
 2070TIP3   OH2 6154   7.849   6.025   2.107  0.5019  0.0349 -0.4906
 2070TIP3    H1 6155   7.852   5.992   2.197  0.5069  0.9579 -0.1438
 2070TIP3    H2 6156   7.935   6.064   2.093  0.5393 -0.2019 -0.9425
 2071TIP3   OH2 6157   2.525   5.848   5.888  0.3308 -0.3654  0.0845
 2071TIP3    H1 6158   2.529   5.761   5.847 -1.8828 -0.6625  0.4048
 2071TIP3    H2 6159   2.501   5.907   5.817 -1.1907 -0.5204  0.4394
 2072TIP3   OH2 6160   0.834   1.204   3.800  0.1380 -0.1153 -0.3711
 2072TIP3    H1 6161   0.760   1.151   3.829 -1.2497  1.4421 -0.9393
 2072TIP3    H2 6162   0.855   1.172   3.712 -0.7961  0.3517 -0.7745
 2073TIP3   OH2 6163   0.344   4.792   0.121 -0.2080 -0.1608 -0.2660
 2073TIP3    H1 6164   0.252   4.820   0.128 -0.1547 -0.2628  1.0805
 2073TIP3    H2 6165   0.382   4.851   0.055 -0.3025  2.4746  1.8553
 2074TIP3   OH2 6166   7.785   7.364   3.199 -0.0322 -0.1293 -0.4852
 2074TIP3    H1 6167   7.876   7.346   3.176 -0.5769  0.1950 -3.1191
 2074TIP3    H2 6168   7.743   7.390   3.117 -2.9875 -2.0662  0.2638
 2075TIP3   OH2 6169   5.398   6.743   5.008  0.3033  0.0089  0.0593
 2075TIP3    H1 6170   5.422   6.667   4.954  0.1793 -0.1961  0.2938
 2075TIP3    H2 6171   5.375   6.810   4.944 -0.3201 -0.3866 -0.1441
 2076TIP3   OH2 6172   5.248   0.790   3.652  0.3129  0.0453 -0.0413
 2076TIP3    H1 6173   5.288   0.877   3.656 -1.9240  1.3314 -2.4246
 2076TIP3    H2 6174   5.314   0.736   3.608  0.8852  1.1196 -0.5479
 2077TIP3   OH2 6175   3.702   5.090   3.184 -0.1875 -0.2972 -0.2183
 2077TIP3    H1 6176   3.610   5.112   3.195 -0.3760  1.3544 -3.6708
 2077TIP3    H2 6177   3.702   5.023   3.115  1.1641 -1.1585  0.5741
 2078TIP3   OH2 6178   4.591   2.369   3.605 -0.4681 -0.2054 -0.2630
 2078TIP3    H1 6179   4.526   2.382   3.674 -0.9316 -0.0009 -0.7270
 2078TIP3    H2 6180   4.543   2.325   3.535 -0.0657 -0.1984 -0.5487
 2079TIP3   OH2 6181   3.647   3.619   3.773 -0.0603  0.4159  0.2807
 2079TIP3    H1 6182   3.631   3.704   3.732  1.7541  0.1164 -1.1154
 2079TIP3    H2 6183   3.564   3.572   3.762  0.0649  0.6707 -2.2889
 2080TIP3   OH2 6184   6.917   7.222   0.681  0.2393  0.0043 -0.3703
 2080TIP3    H1 6185   6.852   7.234   0.612  0.7252  0.3575 -0.7742
 2080TIP3    H2 6186   6.900   7.293   0.743  0.5584  0.4056 -0.7344
 2081TIP3   OH2 6187   2.353   5.305   3.382 -0.0586 -0.2166  0.4472
 2081TIP3    H1 6188   2.351   5.217   3.420  0.4046 -0.1185  0.7158
 2081TIP3    H2 6189   2.329   5.293   3.291 -2.4117 -0.3121  1.0285
 2082TIP3   OH2 6190   0.774   1.279   1.663  0.6721 -0.2783 -0.0701
 2082TIP3    H1 6191   0.718   1.330   1.722  1.9248  1.7607 -0.5303
 2082TIP3    H2 6192   0.823   1.345   1.614  1.6423 -1.9601 -1.4673
 2083TIP3   OH2 6193   1.222   2.417   1.743 -0.2046  0.4239 -0.1438
 2083TIP3    H1 6194   1.310   2.443   1.715 -0.2575  0.3503 -0.3776
 2083TIP3    H2 6195   1.195   2.486   1.804  1.2309 -1.0534  2.3634
 2084TIP3   OH2 6196   1.627   6.107   5.825  0.2957 -0.1048 -0.2911
 2084TIP3    H1 6197   1.719   6.104   5.853  0.8470  1.2997 -1.8153
 2084TIP3    H2 6198   1.629   6.148   5.739 -1.6389 -1.4022 -1.0318
 2085TIP3   OH2 6199   0.102   5.268   3.386  0.0239  0.1217 -0.0160
 2085TIP3    H1 6200   0.168   5.199   3.383  0.1589  0.2341  0.3708
 2085TIP3    H2 6201   0.133   5.333   3.322 -1.2808 -1.2062 -2.1021
 2086TIP3   OH2 6202   6.675   5.332   5.057 -0.3867  0.4400  0.1588
 2086TIP3    H1 6203   6.580   5.345   5.058 -0.4421  0.2050 -0.9531
 2086TIP3    H2 6204   6.708   5.395   4.993 -0.2648 -2.1734 -2.5424
 2087TIP3   OH2 6205   4.939   2.683   0.220 -0.6611  0.3031 -0.0211
 2087TIP3    H1 6206   4.850   2.690   0.254 -1.7164  1.9865 -2.8086
 2087TIP3    H2 6207   4.928   2.656   0.129  1.7258  0.0920 -0.3015
 2088TIP3   OH2 6208   5.416   0.607   4.919 -0.0753  0.2823  0.1232
 2088TIP3    H1 6209   5.426   0.582   4.827 -2.0790 -0.1612 -0.0202
 2088TIP3    H2 6210   5.378   0.529   4.961 -1.3963  1.2662  0.8135
 2089TIP3   OH2 6211   8.236   0.303   2.609 -0.1965 -0.4010  0.5908
 2089TIP3    H1 6212   8.157   0.351   2.630  1.1089  2.4283 -0.4736
 2089TIP3    H2 6213   8.280   0.356   2.542  1.9731 -2.5052  0.1896
 2090TIP3   OH2 6214   3.949   0.908   0.080 -0.6816  0.5512  0.8508
 2090TIP3    H1 6215   3.878   0.918   0.016 -0.4850  4.0553  0.9753
 2090TIP3    H2 6216   4.026   0.885   0.028 -1.7428 -3.2560  0.7106
 2091TIP3   OH2 6217   5.173   1.866   4.443  0.7153 -0.2620  0.1822
 2091TIP3    H1 6218   5.146   1.817   4.365  1.0043  0.3873 -0.3432
 2091TIP3    H2 6219   5.091   1.884   4.489  0.2340  1.3119 -1.1730
 2092TIP3   OH2 6220   3.063   1.526   5.809  0.0448 -0.0398 -0.6552
 2092TIP3    H1 6221   3.133   1.471   5.773  0.1493 -0.9193  0.7961
 2092TIP3    H2 6222   2.993   1.464   5.831  0.2345  0.3439  1.1827
 2093TIP3   OH2 6223   7.002   6.350   5.532 -0.4745 -0.6062 -0.0844
 2093TIP3    H1 6224   6.957   6.364   5.449 -1.3238 -3.5275 -0.2248
 2093TIP3    H2 6225   6.933   6.352   5.598 -0.0004  0.2990  0.4042
 2094TIP3   OH2 6226   5.370   5.892   1.344  0.5223  0.0107 -0.1156
 2094TIP3    H1 6227   5.359   5.811   1.394 -1.4527 -0.9359 -1.9495
 2094TIP3    H2 6228   5.349   5.962   1.407  0.8881 -0.9366  1.1160
 2095TIP3   OH2 6229   2.716   0.733   4.916  0.1244  0.4477 -0.4851
 2095TIP3    H1 6230   2.743   0.676   4.845  1.7227 -0.4137  0.7499
 2095TIP3    H2 6231   2.781   0.803   4.917  2.1136 -1.2780  2.0981
 2096TIP3   OH2 6232   7.446   2.630   4.851 -0.1846 -0.0804 -0.6683
 2096TIP3    H1 6233   7.435   2.717   4.812 -1.4234  1.2322  2.2625
 2096TIP3    H2 6234   7.529   2.636   4.899  0.2777 -0.9329 -1.3332
 2097TIP3   OH2 6235   3.388   1.852   1.832  0.4944  0.4087 -0.1197
 2097TIP3    H1 6236   3.384   1.830   1.739  1.2282 -1.0960  0.1773
 2097TIP3    H2 6237   3.471   1.817   1.862  1.4933  3.1215  0.5978
 2098TIP3   OH2 6238   6.382   0.727   4.496  0.1249  0.0040  0.5532
 2098TIP3    H1 6239   6.330   0.649   4.479 -0.9294  1.1241 -1.8504
 2098TIP3    H2 6240   6.320   0.789   4.536 -0.2806  1.0666 -1.5929
 2099TIP3   OH2 6241   1.429   4.439   1.922  0.0135 -0.4561 -0.2701
 2099TIP3    H1 6242   1.523   4.442   1.936 -0.1638 -0.7147  1.1043
 2099TIP3    H2 6243   1.391   4.452   2.008 -1.2165 -0.3636 -0.8016
 2100TIP3   OH2 6244   7.437   0.213   3.518  0.3235  0.0122  0.0942
 2100TIP3    H1 6245   7.386   0.275   3.465 -1.8089 -0.5238  1.3902
 2100TIP3    H2 6246   7.522   0.209   3.475  0.1306  2.8583 -0.7874
 2101TIP3   OH2 6247   3.832   4.480   4.108 -0.4074  0.0626  0.4841
 2101TIP3    H1 6248   3.857   4.500   4.018  1.0781  0.6800  1.0127
 2101TIP3    H2 6249   3.797   4.391   4.104  1.5447 -0.7190 -0.3889
 2102TIP3   OH2 6250   3.430   6.677   6.563 -0.3081 -0.2607 -0.3584
 2102TIP3    H1 6251   3.360   6.636   6.613 -1.1769  1.6232  0.0411
 2102TIP3    H2 6252   3.413   6.771   6.568  2.4552  0.3168  0.0472
 2103TIP3   OH2 6253   5.912   6.344   2.852 -0.3645  0.0796  0.3961
 2103TIP3    H1 6254   5.998   6.328   2.813 -1.3618  1.4524 -2.7211
 2103TIP3    H2 6255   5.897   6.438   2.838 -2.1923 -0.0383  1.2827
 2104TIP3   OH2 6256   5.671   7.768   1.131 -0.0697  0.3461 -0.1825
 2104TIP3    H1 6257   5.642   7.740   1.044 -1.2555  0.0895  0.2670
 2104TIP3    H2 6258   5.699   7.858   1.120 -1.0065  0.5907 -0.6814
 2105TIP3   OH2 6259   4.137   2.389   5.696  0.2035 -0.5362  0.2396
 2105TIP3    H1 6260   4.061   2.423   5.744 -0.0032  0.2701 -0.6228
 2105TIP3    H2 6261   4.099   2.342   5.621  0.5428  0.7293 -0.7611
 2106TIP3   OH2 6262   5.140   6.577   1.209  0.1997  0.2304 -0.0383
 2106TIP3    H1 6263   5.117   6.488   1.236 -1.0269  0.6766  0.4882
 2106TIP3    H2 6264   5.233   6.574   1.190 -0.1351 -1.6057 -1.7772
 2107TIP3   OH2 6265   3.754   4.669   2.533 -0.5394 -0.3272  0.7371
 2107TIP3    H1 6266   3.799   4.749   2.507 -1.6838  0.3082  0.6416
 2107TIP3    H2 6267   3.797   4.600   2.483  1.2258  0.0245  1.6601
 2108TIP3   OH2 6268   2.459   2.037   1.441 -0.5632 -0.7229  0.4595
 2108TIP3    H1 6269   2.399   2.008   1.509 -0.2447 -0.2634  0.9376
 2108TIP3    H2 6270   2.516   2.100   1.484  0.7898 -1.7336  0.2355
 2109TIP3   OH2 6271   2.739   1.996   4.579  0.3950 -0.6774 -0.4959
 2109TIP3    H1 6272   2.776   2.068   4.528 -0.7591 -1.4477 -2.5688
 2109TIP3    H2 6273   2.813   1.960   4.628  1.1345  1.3933 -0.0027
 2110TIP3   OH2 6274   5.825   2.146   4.208 -0.1186  0.5098 -0.5964
 2110TIP3    H1 6275   5.858   2.066   4.248  0.3761  1.5799  1.2931
 2110TIP3    H2 6276   5.892   2.170   4.143  1.3608  1.0130  1.0344
 2111TIP3   OH2 6277   3.385   3.786   3.651  0.5447  0.5036  0.3316
 2111TIP3    H1 6278   3.293   3.811   3.664 -0.3450 -2.6421  0.8712
 2111TIP3    H2 6279   3.387   3.749   3.563  0.7009 -1.5592  1.1543
 2112TIP3   OH2 6280   0.506   7.584   3.993 -0.4418  0.3399  0.0661
 2112TIP3    H1 6281   0.508   7.637   4.073  0.9842 -0.8944  0.9029
 2112TIP3    H2 6282   0.550   7.502   4.017 -0.2206 -0.1796 -1.9105
 2113TIP3   OH2 6283   8.057   5.165   6.476 -0.5026  0.3179  0.1619
 2113TIP3    H1 6284   8.096   5.117   6.549  1.0025  0.8975 -0.2176
 2113TIP3    H2 6285   7.963   5.162   6.492 -0.2508 -0.3405  1.6289
 2114TIP3   OH2 6286   5.278   5.705   1.526 -0.2211  0.0243  0.4211
 2114TIP3    H1 6287   5.201   5.663   1.488 -1.1814 -0.4370  2.7050
 2114TIP3    H2 6288   5.257   5.715   1.619  1.6819  1.7538  0.7473
 2115TIP3   OH2 6289   5.170   4.753   2.469  0.4914 -0.4019  0.4933
 2115TIP3    H1 6290   5.091   4.798   2.498  1.2092  0.7390  0.7233
 2115TIP3    H2 6291   5.220   4.739   2.550 -0.1414 -2.5264  0.5817
 2116TIP3   OH2 6292   4.677   5.292   4.166 -0.3430 -0.1960  0.4933
 2116TIP3    H1 6293   4.766   5.329   4.162  0.1293 -1.3520 -0.4592
 2116TIP3    H2 6294   4.679   5.235   4.243  0.2977 -1.4859 -0.4336
 2117TIP3   OH2 6295   7.973   7.254   0.894  0.1772 -0.0321  0.1666
 2117TIP3    H1 6296   8.007   7.177   0.849  1.9101  1.7823 -1.8874
 2117TIP3    H2 6297   8.027   7.262   0.973 -0.1152 -0.9737  0.4692
 2118TIP3   OH2 6298   1.631   2.721   4.958  0.3843  0.4164 -0.0540
 2118TIP3    H1 6299   1.593   2.707   4.871 -1.1990 -0.0567  0.6791
 2118TIP3    H2 6300   1.599   2.806   4.985 -1.2888 -0.5178  1.0901
 2119TIP3   OH2 6301   3.658   2.438   3.478  0.2500  0.2590 -0.0140
 2119TIP3    H1 6302   3.638   2.529   3.499  0.2830  0.5138 -1.0759
 2119TIP3    H2 6303   3.717   2.442   3.403 -0.3077 -0.6420 -0.5224
 2120TIP3   OH2 6304   5.727   7.259   6.679 -0.1870 -0.5989  0.2126
 2120TIP3    H1 6305   5.639   7.234   6.652 -1.7451  2.7826  1.4747
 2120TIP3    H2 6306   5.770   7.288   6.599 -0.7393 -0.9732 -0.2229
 2121TIP3   OH2 6307   0.331   5.352   3.640  0.4382  0.3183  0.3116
 2121TIP3    H1 6308   0.258   5.292   3.658  1.9717 -1.5731  0.5781
 2121TIP3    H2 6309   0.349   5.393   3.725  0.3154  0.0594  0.4644
 2122TIP3   OH2 6310   1.858   6.504   3.304 -0.0367  0.0776  0.8796
 2122TIP3    H1 6311   1.930   6.450   3.335 -0.5212 -0.7306  0.6384
 2122TIP3    H2 6312   1.892   6.549   3.227 -0.2785 -1.5868 -0.2466
 2123TIP3   OH2 6313   7.006   6.861   3.514 -0.4711  0.3418  0.0476
 2123TIP3    H1 6314   6.945   6.859   3.589  1.3597 -0.2195  1.5993
 2123TIP3    H2 6315   7.093   6.865   3.554  0.5271  1.6987 -2.1075
 2124TIP3   OH2 6316   0.651   1.771   2.078 -0.6719  0.2985  0.6245
 2124TIP3    H1 6317   0.706   1.703   2.118  0.4159  0.2773 -0.8262
 2124TIP3    H2 6318   0.706   1.849   2.078 -0.5947  0.2646 -0.9069
 2125TIP3   OH2 6319   6.892   3.469   4.875  0.6348  0.5616 -0.3687
 2125TIP3    H1 6320   6.954   3.533   4.839 -0.1973  1.1612 -0.7870
 2125TIP3    H2 6321   6.918   3.386   4.836  1.3920  0.7368 -0.2526
 2126TIP3   OH2 6322   6.300   5.901   1.728  0.3798 -0.2790  0.8726
 2126TIP3    H1 6323   6.224   5.909   1.670 -1.3482  1.1751  3.2020
 2126TIP3    H2 6324   6.375   5.916   1.670 -1.2066  0.6398 -1.0770
 2127TIP3   OH2 6325   3.579   5.620   2.779  0.8271  0.7557 -0.6142
 2127TIP3    H1 6326   3.540   5.694   2.826 -1.9064 -2.2254  2.4325
 2127TIP3    H2 6327   3.520   5.604   2.706  0.5403  0.7392 -0.3841
 2128TIP3   OH2 6328   3.343   6.776   3.861 -0.5685  0.6640 -0.3648
 2128TIP3    H1 6329   3.424   6.826   3.871 -0.1453  0.3029 -1.7502
 2128TIP3    H2 6330   3.303   6.778   3.948  0.2727  1.9554  0.0286
 2129TIP3   OH2 6331   5.931   6.893   3.185 -0.0095 -0.2007  0.3199
 2129TIP3    H1 6332   5.986   6.842   3.244 -1.6773  0.1130  2.2485
 2129TIP3    H2 6333   5.980   6.974   3.171  0.1944 -0.0574  1.7358
 2130TIP3   OH2 6334   0.539   3.900   1.984 -0.1993 -0.4497  0.0111
 2130TIP3    H1 6335   0.561   3.839   1.913 -2.8579 -0.4104 -0.9542
 2130TIP3    H2 6336   0.463   3.948   1.952  0.7633  2.2483  1.4245
 2131TIP3   OH2 6337   7.066   2.249   1.687  0.1014  0.1096 -0.2396
 2131TIP3    H1 6338   7.069   2.155   1.704  0.8158 -0.0111 -0.9611
 2131TIP3    H2 6339   6.973   2.267   1.673 -0.0660 -0.4546  0.0946
 2132TIP3   OH2 6340   1.711   3.482   3.093  0.1933  0.0693 -0.3577
 2132TIP3    H1 6341   1.762   3.427   3.034  1.8012 -0.6089  1.5466
 2132TIP3    H2 6342   1.724   3.443   3.179 -2.3857  0.7796  0.4361
 2133TIP3   OH2 6343   6.551   1.369   2.994 -0.5509  0.3264  0.0437
 2133TIP3    H1 6344   6.536   1.300   3.058  0.4961  0.2354  0.2190
 2133TIP3    H2 6345   6.595   1.438   3.044 -0.2864  0.5151 -0.4429
 2134TIP3   OH2 6346   1.313   7.034   1.962  0.0148 -0.4616 -0.1348
 2134TIP3    H1 6347   1.278   7.078   1.884  0.3325 -0.7278 -0.4309
 2134TIP3    H2 6348   1.314   6.941   1.938  1.2055 -0.4311 -0.2469
 2135TIP3   OH2 6349   5.778   3.732   5.251 -0.2109 -0.0630  0.7334
 2135TIP3    H1 6350   5.683   3.742   5.242 -0.1189  2.3650  1.6810
 2135TIP3    H2 6351   5.809   3.720   5.162 -1.3589 -0.6359  0.3851
 2136TIP3   OH2 6352   4.813   0.165   6.559 -0.0400  0.6297 -0.4944
 2136TIP3    H1 6353   4.907   0.167   6.540  0.9668  1.1590  3.6251
 2136TIP3    H2 6354   4.782   0.084   6.519  3.0399 -1.5595  1.1425
 2137TIP3   OH2 6355   5.969   2.092   6.356 -0.0802  0.1508 -0.0524
 2137TIP3    H1 6356   6.005   2.180   6.367 -0.8511  0.3758  0.7576
 2137TIP3    H2 6357   5.875   2.105   6.345 -0.2050 -0.5733  0.1000
 2138TIP3   OH2 6358   4.583   6.428   0.716 -0.2584  0.4640 -0.0100
 2138TIP3    H1 6359   4.644   6.355   0.711 -0.4092  0.0985  2.2973
 2138TIP3    H2 6360   4.587   6.469   0.630  0.6117 -1.6244 -1.0363
 2139TIP3   OH2 6361   2.948   3.847   6.055 -0.3866 -0.5719  0.2103
 2139TIP3    H1 6362   2.949   3.753   6.036 -0.3224 -0.7275  0.9678
 2139TIP3    H2 6363   2.897   3.854   6.135 -0.1899  0.0195  0.2831
 2140TIP3   OH2 6364   0.657   1.721   0.046  0.0940  0.2805 -0.1537
 2140TIP3    H1 6365   0.715   1.712  -0.030 -1.1155 -1.5577 -0.9461
 2140TIP3    H2 6366   0.690   1.657   0.109 -1.0380 -0.7960 -0.6218
 2141TIP3   OH2 6367   5.179   5.497   3.169  0.1051  0.3103  0.0916
 2141TIP3    H1 6368   5.261   5.493   3.120  1.0133  1.0276  1.4800
 2141TIP3    H2 6369   5.146   5.585   3.154 -1.0307 -0.3245 -1.3617
 2142TIP3   OH2 6370   1.571   0.268   4.337 -0.0773 -0.1322 -0.1666
 2142TIP3    H1 6371   1.560   0.246   4.429 -2.5250 -0.9616 -0.5854
 2142TIP3    H2 6372   1.597   0.186   4.295  0.2158  0.0504 -0.3527
 2143TIP3   OH2 6373   4.756   3.127   0.711  0.2925  0.0518 -0.5969
 2143TIP3    H1 6374   4.813   3.151   0.785  0.0656 -1.1166 -0.0171
 2143TIP3    H2 6375   4.700   3.204   0.699  1.5437  0.9821 -0.7699
 2144TIP3   OH2 6376   7.778   6.874   4.517  0.0960 -0.2274  0.2200
 2144TIP3    H1 6377   7.706   6.838   4.569 -0.8683 -0.4288 -1.2078
 2144TIP3    H2 6378   7.765   6.969   4.519  0.0710 -0.2336  0.3491
 2145TIP3   OH2 6379   0.811   3.691   5.441  0.2666 -0.2088  0.3037
 2145TIP3    H1 6380   0.828   3.752   5.513  1.7132 -0.9191  0.6129
 2145TIP3    H2 6381   0.846   3.735   5.364  1.6892 -0.7683  0.5930
 2146TIP3   OH2 6382   6.873   5.298   6.392  0.1943  0.0821  0.3851
 2146TIP3    H1 6383   6.887   5.230   6.327  0.0699 -0.3913  0.8446
 2146TIP3    H2 6384   6.801   5.265   6.446  0.2815  0.4755  0.7458
 2147TIP3   OH2 6385   5.311   7.323   4.159 -0.0196 -0.4662 -0.1132
 2147TIP3    H1 6386   5.321   7.246   4.104 -0.0872 -0.6412  0.1197
 2147TIP3    H2 6387   5.340   7.396   4.104 -1.1079 -0.5063 -0.7560
 2148TIP3   OH2 6388   0.909   0.773   6.369  0.1685  0.5595  0.3462
 2148TIP3    H1 6389   0.813   0.776   6.363  0.2166  0.5080 -0.5645
 2148TIP3    H2 6390   0.938   0.853   6.325  0.5069  1.5965  2.3173
 2149TIP3   OH2 6391   6.177   0.937   0.162 -0.9345  0.5544 -0.4274
 2149TIP3    H1 6392   6.273   0.936   0.170 -0.7716  1.0896 -1.9561
 2149TIP3    H2 6393   6.154   1.029   0.171 -1.0939  0.6789 -1.8958
 2150TIP3   OH2 6394   3.150   1.883   0.079 -0.5202  0.1837  0.5861
 2150TIP3    H1 6395   3.056   1.876   0.068 -0.3178 -0.7706 -0.7976
 2150TIP3    H2 6396   3.186   1.865  -0.008  0.8503  3.6813  0.2485
 2151TIP3   OH2 6397   5.973   3.369   3.213  0.0923  0.4672  0.2423
 2151TIP3    H1 6398   6.028   3.325   3.149  0.8451  0.2799  1.0023
 2151TIP3    H2 6399   5.899   3.403   3.162  0.4935  0.0214 -0.6577
 2152TIP3   OH2 6400   4.718   5.767   0.638  0.2644  0.4401  0.2735
 2152TIP3    H1 6401   4.654   5.806   0.698  0.1315  0.4468  0.1265
 2152TIP3    H2 6402   4.765   5.703   0.692  0.4730  0.7889  0.5128
 2153TIP3   OH2 6403   4.433   6.234   5.907 -0.5116  0.0371 -0.0216
 2153TIP3    H1 6404   4.440   6.218   6.001  0.7421  1.5341  0.1865
 2153TIP3    H2 6405   4.511   6.285   5.885 -0.7041 -0.3929 -1.9099
 2154TIP3   OH2 6406   1.019   0.055   5.601  0.0817  0.0575 -0.2287
 2154TIP3    H1 6407   1.074  -0.023   5.597  0.1001  0.0328  0.3385
 2154TIP3    H2 6408   1.053   0.113   5.533 -0.7073 -0.9139 -1.4887
 2155TIP3   OH2 6409   6.839   7.513   3.589 -0.4871 -0.1197 -0.2760
 2155TIP3    H1 6410   6.755   7.499   3.545 -0.8539 -1.1716  0.7100
 2155TIP3    H2 6411   6.893   7.439   3.561  0.2020  0.6512 -1.0574
 2156TIP3   OH2 6412   7.726   1.248   2.409 -0.6487 -0.1182  0.0086
 2156TIP3    H1 6413   7.675   1.246   2.490 -0.7814 -1.0712 -0.0930
 2156TIP3    H2 6414   7.719   1.160   2.374  0.0411  0.0810 -0.6536
 2157TIP3   OH2 6415   0.232   6.595   0.459  0.0278  0.4160 -0.2963
 2157TIP3    H1 6416   0.192   6.624   0.541 -0.5673 -0.0773 -0.4102
 2157TIP3    H2 6417   0.178   6.522   0.430  1.5809 -0.9219  0.0551
 2158TIP3   OH2 6418   6.806   0.789   0.610  0.4169  0.4754  0.2430
 2158TIP3    H1 6419   6.827   0.789   0.517  0.8318 -1.0494  0.3196
 2158TIP3    H2 6420   6.735   0.726   0.619  0.0526  0.9623  0.9031
 2159TIP3   OH2 6421   6.101   1.448   5.368  0.2559 -0.6911 -0.0618
 2159TIP3    H1 6422   6.052   1.374   5.332 -1.4504  0.4603 -0.2115
 2159TIP3    H2 6423   6.190   1.435   5.336 -0.0065 -2.6080 -0.1684
 2160TIP3   OH2 6424   1.474   2.134   4.894 -0.3340  0.3261  0.2587
 2160TIP3    H1 6425   1.461   2.226   4.873 -1.1315  0.2484  0.3943
 2160TIP3    H2 6426   1.508   2.134   4.984 -0.9095  0.4585  0.4758
 2161TIP3   OH2 6427   7.771   7.758   0.293  0.3172  0.3712  0.0667
 2161TIP3    H1 6428   7.808   7.681   0.250  0.3530  0.0475  0.6704
 2161TIP3    H2 6429   7.714   7.798   0.226 -0.2109 -0.5421 -0.0416
 2162TIP3   OH2 6430   6.042   0.295   1.794 -0.1176  0.2006  0.2216
 2162TIP3    H1 6431   5.984   0.262   1.724  0.5502 -0.4471 -0.0396
 2162TIP3    H2 6432   5.987   0.296   1.872 -0.1595 -1.6741  0.2703
 2163TIP3   OH2 6433   6.619   4.292   4.077 -0.2392 -0.1975 -0.1139
 2163TIP3    H1 6434   6.578   4.285   4.164 -0.7503 -0.0741 -0.3386
 2163TIP3    H2 6435   6.552   4.336   4.024 -0.2740 -1.0616 -0.7980
 2164TIP3   OH2 6436   7.492   3.438   3.908 -0.3568  0.0195  0.3499
 2164TIP3    H1 6437   7.586   3.423   3.922 -0.3565 -1.3458 -0.8553
 2164TIP3    H2 6438   7.483   3.533   3.902  0.7156  0.2669  1.8799
 2165TIP3   OH2 6439   0.250   1.387   3.018  0.5503 -0.6756  0.1526
 2165TIP3    H1 6440   0.248   1.402   3.113 -0.1578 -1.7006  0.3162
 2165TIP3    H2 6441   0.158   1.382   2.993  0.6736 -3.3240 -0.0704
 2166TIP3   OH2 6442   5.937   7.773   0.860  0.0706  0.3753 -0.5023
 2166TIP3    H1 6443   6.028   7.792   0.836  0.7787 -1.5780  0.4010
 2166TIP3    H2 6444   5.935   7.782   0.956 -0.7550  0.6467 -0.5370
 2167TIP3   OH2 6445   4.925   1.057   3.811  0.5304  0.5351  1.1813
 2167TIP3    H1 6446   4.841   1.014   3.828  1.4882 -1.5063  1.1601
 2167TIP3    H2 6447   4.909   1.111   3.734 -0.6794 -0.1337  0.9227
 2168TIP3   OH2 6448   7.111   3.287   0.445 -0.3439 -0.9666  0.7452
 2168TIP3    H1 6449   7.112   3.367   0.496 -1.3665  0.4545 -1.2985
 2168TIP3    H2 6450   7.203   3.264   0.433 -0.0301  0.0035  1.2232
 2169TIP3   OH2 6451   3.838   7.221   5.445  0.7200 -0.4903 -0.1661
 2169TIP3    H1 6452   3.921   7.174   5.459  1.2741  0.9677  1.7617
 2169TIP3    H2 6453   3.833   7.283   5.517 -0.7128  1.4028 -1.7954
 2170TIP3   OH2 6454   8.260   5.711   6.583  0.0316 -0.4682 -0.2017
 2170TIP3    H1 6455   8.309   5.689   6.504  1.4596  0.7162  0.3087
 2170TIP3    H2 6456   8.294   5.651   6.649 -0.7015 -1.0187 -0.3026
 2171TIP3   OH2 6457   6.914   6.807   3.774 -0.1504  0.8351  0.2468
 2171TIP3    H1 6458   6.957   6.727   3.806  2.7175  1.4144 -1.7122
 2171TIP3    H2 6459   6.950   6.877   3.828 -1.7478  0.9679  1.1769
 2172TIP3   OH2 6460   1.440   2.484   6.770 -1.0585  0.8147 -0.5347
 2172TIP3    H1 6461   1.471   2.531   6.693 -1.3215  2.5492  0.3663
 2172TIP3    H2 6462   1.477   2.531   6.844 -0.2527 -1.2164  0.4349
 2173TIP3   OH2 6463   7.816   7.397   5.594 -0.6216  0.1843 -0.0256
 2173TIP3    H1 6464   7.889   7.433   5.544 -0.0045 -0.4468  0.4053
 2173TIP3    H2 6465   7.789   7.469   5.652  1.0520 -0.2055  1.3275
 2174TIP3   OH2 6466   6.815   6.015   2.785 -0.0434 -0.1050 -0.0685
 2174TIP3    H1 6467   6.756   5.941   2.770  1.6120 -1.5654  0.3961
 2174TIP3    H2 6468   6.829   6.016   2.880 -0.3963  1.1087 -0.0109
 2175TIP3   OH2 6469   1.297   2.428   3.322 -0.0230  0.0277 -0.2217
 2175TIP3    H1 6470   1.276   2.419   3.415 -1.1107 -1.2797 -0.5543
 2175TIP3    H2 6471   1.393   2.427   3.319  0.0510  1.0693  0.9473
 2176TIP3   OH2 6472   5.731   5.409   0.094 -0.4399 -0.6582 -0.4361
 2176TIP3    H1 6473   5.699   5.446   0.176  0.3602  1.8979 -1.1645
 2176TIP3    H2 6474   5.820   5.380   0.114 -0.0850  0.3623 -0.4488
 2177TIP3   OH2 6475   4.519   5.786   1.069 -0.2190 -0.9639 -0.4089
 2177TIP3    H1 6476   4.536   5.700   1.107 -0.1574 -1.6209 -1.8857
 2177TIP3    H2 6477   4.580   5.845   1.114 -0.8011 -1.5080  1.1797
 2178TIP3   OH2 6478   0.235   7.066   3.635  0.3149  0.0393 -0.0976
 2178TIP3    H1 6479   0.223   7.156   3.604  0.0230 -0.4513 -1.5173
 2178TIP3    H2 6480   0.151   7.042   3.675  0.4757  0.4728  0.5054
 2179TIP3   OH2 6481   3.649   5.606   4.404 -0.3593  0.1870 -0.1106
 2179TIP3    H1 6482   3.633   5.686   4.354 -1.2382  0.2376  0.2329
 2179TIP3    H2 6483   3.650   5.536   4.338 -0.3428  0.3934 -0.3291
 2180TIP3   OH2 6484   5.109   0.251   6.069 -0.0566  0.0764 -0.3257
 2180TIP3    H1 6485   5.079   0.208   5.989 -0.7832 -0.5058  0.2371
 2180TIP3    H2 6486   5.100   0.183   6.137  2.7617 -0.2371 -0.1210
 2181TIP3   OH2 6487   1.741   5.843   5.000 -0.3490 -0.1341  0.1343
 2181TIP3    H1 6488   1.778   5.865   5.086  0.7974  2.1873 -0.8833
 2181TIP3    H2 6489   1.814   5.807   4.951 -0.9507 -1.2383  0.0061
 2182TIP3   OH2 6490   6.932   2.137   5.407  0.0411  0.0494  0.1686
 2182TIP3    H1 6491   6.916   2.074   5.477 -0.3848 -1.0309 -0.8642
 2182TIP3    H2 6492   6.868   2.114   5.340 -1.0708  2.4851  0.3041
 2183TIP3   OH2 6493   6.243   4.536   2.562  0.2185 -0.7333 -0.1450
 2183TIP3    H1 6494   6.254   4.626   2.531 -0.0866 -0.3027  0.9667
 2183TIP3    H2 6495   6.192   4.494   2.492 -2.4686  0.8460  0.6871
 2184TIP3   OH2 6496   2.491   1.377   1.760  0.1076  0.0311  0.0707
 2184TIP3    H1 6497   2.457   1.466   1.750  1.2624  0.4353 -0.5268
 2184TIP3    H2 6498   2.569   1.375   1.703 -0.1104 -1.4767 -0.2142
 2185TIP3   OH2 6499   5.274   4.312   1.540  0.2779 -0.7277  0.5034
 2185TIP3    H1 6500   5.207   4.248   1.565 -0.7456 -0.0788 -0.4959
 2185TIP3    H2 6501   5.327   4.267   1.474 -0.6981 -0.4449 -0.5093
 2186TIP3   OH2 6502   6.588   5.346   4.354  0.4460  0.2199  0.5115
 2186TIP3    H1 6503   6.661   5.302   4.396  1.1286  0.2191 -0.6386
 2186TIP3    H2 6504   6.517   5.281   4.354  0.9199 -0.3049  0.3114
 2187TIP3   OH2 6505   3.592   1.869   3.031 -0.1700 -0.6067  0.7736
 2187TIP3    H1 6506   3.580   1.775   3.046 -0.6679 -0.5648  0.6502
 2187TIP3    H2 6507   3.570   1.881   2.938  1.0471 -0.5556  0.4698
 2188TIP3   OH2 6508   7.834   7.789   3.323  0.5496  0.6858 -0.4502
 2188TIP3    H1 6509   7.854   7.695   3.321  1.0950  0.8082 -0.9868
 2188TIP3    H2 6510   7.793   7.802   3.409 -0.7914 -0.2837 -0.8917
 2189TIP3   OH2 6511   1.598   1.715   6.783 -0.3940  0.3073 -0.0529
 2189TIP3    H1 6512   1.520   1.726   6.728 -1.2280  0.2547  1.0689
 2189TIP3    H2 6513   1.652   1.791   6.763 -0.5098  0.1067 -1.1901
 2190TIP3   OH2 6514   2.739   5.340   6.418 -0.7492  0.2781 -0.0276
 2190TIP3    H1 6515   2.677   5.280   6.376 -1.9128  1.2683  0.2097
 2190TIP3    H2 6516   2.765   5.400   6.349  1.3027 -1.1167 -0.5567
 2191TIP3   OH2 6517   6.548   0.746   3.785 -0.2611 -0.1221  0.7335
 2191TIP3    H1 6518   6.595   0.747   3.702  0.1138  1.7788  0.9341
 2191TIP3    H2 6519   6.463   0.705   3.764 -0.6259  1.3288 -0.8491
 2192TIP3   OH2 6520   6.222   0.991   3.132 -0.0426 -0.3734 -0.6800
 2192TIP3    H1 6521   6.156   0.926   3.155  0.4342 -0.2484  1.2051
 2192TIP3    H2 6522   6.304   0.942   3.127 -0.1089 -0.3864 -2.2046
 2193TIP3   OH2 6523   1.022   5.268   6.500  0.0432 -0.3492 -0.1989
 2193TIP3    H1 6524   1.082   5.217   6.553 -1.5038  0.1748  2.2069
 2193TIP3    H2 6525   0.949   5.290   6.559 -1.4665  0.8802 -2.3487
 2194TIP3   OH2 6526   7.401   4.958   6.742 -0.2871  0.0676  0.1465
 2194TIP3    H1 6527   7.365   5.005   6.667  0.8832  0.5139 -0.1530
 2194TIP3    H2 6528   7.443   4.880   6.704 -0.2031 -0.0083  0.3924
 2195TIP3   OH2 6529   0.587   6.879   1.634  0.4159 -0.1189  0.2872
 2195TIP3    H1 6530   0.549   6.820   1.699  0.4083 -0.7327 -0.2720
 2195TIP3    H2 6531   0.528   6.873   1.559  1.7888 -1.3653 -0.7419
 2196TIP3   OH2 6532   3.272   3.368   4.443 -0.6159 -0.8569 -0.8072
 2196TIP3    H1 6533   3.237   3.316   4.371 -0.0937 -2.2012 -0.1225
 2196TIP3    H2 6534   3.325   3.435   4.401  2.7628 -3.8122 -1.7068
 2197TIP3   OH2 6535   1.814   3.663   0.883 -0.3814  0.2336  0.2836
 2197TIP3    H1 6536   1.757   3.682   0.958 -1.3782 -0.9585 -0.1597
 2197TIP3    H2 6537   1.882   3.606   0.919  0.5275  1.5589  0.7829
 2198TIP3   OH2 6538   4.593   7.167   6.249  0.3681 -0.3250  0.1307
 2198TIP3    H1 6539   4.579   7.119   6.168 -0.4863  0.8483 -0.4488
 2198TIP3    H2 6540   4.617   7.255   6.220 -0.9647  0.4007  1.1083
 2199TIP3   OH2 6541   5.367   3.855   6.560 -0.9948  0.3381 -0.2412
 2199TIP3    H1 6542   5.328   3.778   6.600 -0.2455  0.6659  1.1908
 2199TIP3    H2 6543   5.400   3.906   6.633  2.4310 -0.0718 -1.3574
 2200TIP3   OH2 6544   7.569   5.899   0.678 -0.3580 -0.4359 -0.7416
 2200TIP3    H1 6545   7.608   5.812   0.680  0.7001  0.0297 -0.5314
 2200TIP3    H2 6546   7.494   5.891   0.619 -0.5168 -1.5835 -0.4046
 2201TIP3   OH2 6547   5.349   3.812   5.045  0.8096 -0.6127  0.1299
 2201TIP3    H1 6548   5.308   3.726   5.039 -0.1589 -0.1890  0.5835
 2201TIP3    H2 6549   5.374   3.833   4.955  0.3252 -1.0182 -0.0997
 2202TIP3   OH2 6550   3.881   4.694   6.423  0.1995 -0.1478 -0.6139
 2202TIP3    H1 6551   3.929   4.767   6.382  1.3453 -0.3297  0.3372
 2202TIP3    H2 6552   3.905   4.617   6.371  0.6382 -0.1700 -0.3870
 2203TIP3   OH2 6553   7.499   5.297   4.069 -0.1068 -0.6192  0.1554
 2203TIP3    H1 6554   7.566   5.363   4.053 -1.3168  0.4195 -0.8531
 2203TIP3    H2 6555   7.417   5.339   4.043 -1.2209 -1.7027  1.7471
 2204TIP3   OH2 6556   1.503   1.758   2.103  0.1463  0.2244  0.0280
 2204TIP3    H1 6557   1.428   1.775   2.160  1.1917 -0.9661  1.8601
 2204TIP3    H2 6558   1.574   1.810   2.141  0.3292  1.2724 -1.6342
 2205TIP3   OH2 6559   4.946   3.236   0.435 -0.2085 -0.0372  0.5903
 2205TIP3    H1 6560   5.027   3.236   0.384  0.7725  1.0860  2.0629
 2205TIP3    H2 6561   4.975   3.229   0.526 -1.6987  1.1867  1.2006
 2206TIP3   OH2 6562   1.534   3.063   2.467  0.4340  0.4224 -0.4013
 2206TIP3    H1 6563   1.616   3.093   2.426  1.1145  1.4581  1.6038
 2206TIP3    H2 6564   1.477   3.140   2.463 -0.4537 -0.2644 -1.6894
 2207TIP3   OH2 6565   5.936   0.565   5.596 -0.1153  0.1996 -0.1019
 2207TIP3    H1 6566   5.844   0.581   5.578 -0.3676 -1.4321 -0.3765
 2207TIP3    H2 6567   5.937   0.510   5.674  0.6933  1.2394  0.6468
 2208TIP3   OH2 6568   5.359   3.122   1.382 -0.4936 -0.2567  0.3497
 2208TIP3    H1 6569   5.446   3.086   1.399 -0.7599 -1.0441  0.0909
 2208TIP3    H2 6570   5.328   3.075   1.304 -1.4332 -0.4965  0.8527
 2209TIP3   OH2 6571   6.611   6.101   1.789 -0.2196  0.2590  0.0798
 2209TIP3    H1 6572   6.637   6.027   1.845 -0.3970  0.4086  0.3635
 2209TIP3    H2 6573   6.692   6.149   1.773 -0.1035  0.0015 -0.1028
 2210TIP3   OH2 6574   2.503   4.389   3.441  0.4451 -0.6055 -0.7532
 2210TIP3    H1 6575   2.492   4.299   3.412 -1.5363 -1.5970  2.5078
 2210TIP3    H2 6576   2.584   4.388   3.493 -0.1344 -0.8453  0.1793
 2211TIP3   OH2 6577   5.719   1.476   1.210  0.1775 -0.3137  0.3848
 2211TIP3    H1 6578   5.710   1.393   1.256 -0.5411 -1.1606 -1.1909
 2211TIP3    H2 6579   5.684   1.541   1.270  0.1166 -1.2445  1.3800
 2212TIP3   OH2 6580   0.114   1.735   0.135  0.3307  0.4809 -0.0572
 2212TIP3    H1 6581   0.139   1.807   0.193 -2.4668 -0.4178  2.5325
 2212TIP3    H2 6582   0.155   1.658   0.172 -0.6400  0.0451  0.1511
 2213TIP3   OH2 6583   3.297   3.070   3.438  0.0015 -0.3041 -0.3261
 2213TIP3    H1 6584   3.357   3.105   3.372  0.5057 -0.0812  0.2525
 2213TIP3    H2 6585   3.262   2.991   3.397 -0.0082  0.0593 -1.0334
 2214TIP3   OH2 6586   7.949   1.133   1.279 -0.4266  0.0202 -0.0203
 2214TIP3    H1 6587   8.006   1.210   1.288 -0.4495  0.2784 -1.6696
 2214TIP3    H2 6588   7.980   1.072   1.345 -0.1970  1.3142  1.1212
 2215TIP3   OH2 6589   8.150   5.440   3.679 -0.1352  0.4704 -0.5359
 2215TIP3    H1 6590   8.141   5.532   3.701  1.4525  1.0958 -2.2644
 2215TIP3    H2 6591   8.060   5.409   3.666 -0.6874  1.7399  0.1231
 2216TIP3   OH2 6592   4.585   5.215   6.629  0.0057  0.4590 -0.1995
 2216TIP3    H1 6593   4.658   5.221   6.568  1.4401 -0.3807  1.3718
 2216TIP3    H2 6594   4.610   5.272   6.702 -1.2748  0.7711  0.0265
 2217TIP3   OH2 6595   4.118   7.566   0.594 -0.7372 -0.6058  0.1626
 2217TIP3    H1 6596   4.180   7.628   0.632  0.8147 -1.7494 -0.3821
 2217TIP3    H2 6597   4.032   7.604   0.611  0.1712  2.3747 -1.3581
 2218TIP3   OH2 6598   3.227   2.399   1.527 -0.4782  0.1066 -0.2734
 2218TIP3    H1 6599   3.172   2.423   1.453  0.2553  0.8102 -0.5966
 2218TIP3    H2 6600   3.270   2.317   1.500 -1.6638 -0.6827  0.1500
 2219TIP3   OH2 6601   3.109   5.743   3.699 -0.7231 -0.2080  0.2632
 2219TIP3    H1 6602   3.048   5.813   3.723  1.0940  1.4159  0.3366
 2219TIP3    H2 6603   3.160   5.727   3.778 -2.2355 -2.9570  0.8229
 2220TIP3   OH2 6604   6.913   5.697   3.468 -0.1349  0.1391  0.2974
 2220TIP3    H1 6605   6.830   5.660   3.438 -0.0639  0.2298 -0.0132
 2220TIP3    H2 6606   6.909   5.789   3.442 -0.3747  0.3902  1.1974
 2221TIP3   OH2 6607   1.335   7.062   0.510 -0.1580  0.1204 -0.2194
 2221TIP3    H1 6608   1.289   7.121   0.450  0.3107  1.3791  0.6206
 2221TIP3    H2 6609   1.266   7.007   0.547 -1.1042  2.1311  1.2040
 2222TIP3   OH2 6610   5.920   2.827   0.422  0.0646 -0.3993  0.1622
 2222TIP3    H1 6611   5.979   2.771   0.472  0.4651  1.3132  1.7117
 2222TIP3    H2 6612   5.836   2.820   0.466  0.0595  0.0218  0.2245
 2223TIP3   OH2 6613   1.791   7.461   0.633  0.0322  0.2121  0.2374
 2223TIP3    H1 6614   1.852   7.410   0.581 -1.1463 -0.7248 -0.2793
 2223TIP3    H2 6615   1.756   7.399   0.698 -1.2581  0.3838 -0.2574
 2224TIP3   OH2 6616   6.217   2.475   1.409 -0.2282 -0.4254 -0.0087
 2224TIP3    H1 6617   6.207   2.380   1.415 -1.1447 -0.3631 -0.3950
 2224TIP3    H2 6618   6.201   2.506   1.498  0.6069 -0.6659  0.2360
 2225TIP3   OH2 6619   3.808   6.601   2.502 -0.0591  0.5714  0.0291
 2225TIP3    H1 6620   3.831   6.564   2.587  0.3677 -2.3198 -1.2201
 2225TIP3    H2 6621   3.803   6.695   2.517 -0.5984  0.1155  3.3564
 2226TIP3   OH2 6622   2.447   0.123   2.936 -0.0738 -0.0804 -0.0884
 2226TIP3    H1 6623   2.397   0.055   2.891 -0.8423 -0.6018  1.4964
 2226TIP3    H2 6624   2.501   0.076   2.999  1.2339  0.6170 -0.6429
 2227TIP3   OH2 6625   2.726   3.635   0.781 -0.0424 -0.4358  0.0486
 2227TIP3    H1 6626   2.729   3.634   0.877  2.7768 -0.9577  0.0482
 2227TIP3    H2 6627   2.703   3.545   0.757 -0.9055 -0.2678  0.1993
 2228TIP3   OH2 6628   7.002   1.318   2.343  0.3544  0.1832 -0.1201
 2228TIP3    H1 6629   6.950   1.398   2.330 -1.4018 -0.9996 -0.7217
 2228TIP3    H2 6630   6.989   1.296   2.435 -0.2204 -0.0977 -0.2636
 2229TIP3   OH2 6631   2.373   1.759   5.921 -0.1897  0.1134 -0.1107
 2229TIP3    H1 6632   2.428   1.785   5.848 -0.1510 -1.2980 -0.6110
 2229TIP3    H2 6633   2.364   1.665   5.912  0.8176 -0.3043  2.4024
 2230TIP3   OH2 6634   5.773   3.506   2.588 -0.0564 -0.0560 -0.7677
 2230TIP3    H1 6635   5.723   3.494   2.508 -0.5565 -1.8650 -0.2342
 2230TIP3    H2 6636   5.712   3.547   2.649 -0.2748 -0.4048 -0.7477
 2231TIP3   OH2 6637   0.748   5.620   5.636  0.2333  0.0211  0.2980
 2231TIP3    H1 6638   0.702   5.614   5.552 -0.4752  0.3057  0.6550
 2231TIP3    H2 6639   0.678   5.632   5.701  0.7934  0.1537  0.8894
 2232TIP3   OH2 6640   0.898   2.909   6.483 -0.0750 -0.2501 -0.1954
 2232TIP3    H1 6641   0.894   2.859   6.564 -0.9966  1.3784  0.8273
 2232TIP3    H2 6642   0.961   2.979   6.500 -1.6429  1.2355 -0.1415
 2233TIP3   OH2 6643   2.445   0.541   6.224  0.0190 -0.3162 -0.4215
 2233TIP3    H1 6644   2.446   0.636   6.218  0.0768 -0.2843 -0.0000
 2233TIP3    H2 6645   2.454   0.510   6.134 -0.4546  0.0740 -0.6027
 2234TIP3   OH2 6646   3.612   3.577   6.322 -0.2115 -0.1922 -0.3022
 2234TIP3    H1 6647   3.562   3.570   6.241 -0.8096 -0.8448  0.1164
 2234TIP3    H2 6648   3.649   3.490   6.336  1.1174  0.2964 -0.6366
 2235TIP3   OH2 6649   7.727   5.120   0.397 -0.2951  0.2161  0.0881
 2235TIP3    H1 6650   7.672   5.197   0.384 -0.8100  0.1521  1.7276
 2235TIP3    H2 6651   7.725   5.075   0.312 -0.3272  1.7669 -0.7664
 2236TIP3   OH2 6652   7.131   7.496   3.106  0.0400 -0.7723  0.2695
 2236TIP3    H1 6653   7.207   7.523   3.157 -0.5258 -0.2263  0.8495
 2236TIP3    H2 6654   7.141   7.541   3.022 -0.4972  0.7016  0.9505
 2237TIP3   OH2 6655   3.322   5.344   2.020 -0.1916  0.0008 -0.2148
 2237TIP3    H1 6656   3.275   5.261   2.006 -1.1698  0.7518 -1.7260
 2237TIP3    H2 6657   3.318   5.387   1.935  0.6943  1.4197  0.4339
 2238TIP3   OH2 6658   7.838   5.614   6.471 -0.8504  0.2941  0.4301
 2238TIP3    H1 6659   7.754   5.579   6.500 -1.4003 -0.5329 -1.9582
 2238TIP3    H2 6660   7.903   5.553   6.505 -1.0064  1.6353  3.4045
 2239TIP3   OH2 6661   6.060   6.576   5.491 -0.6608  0.0823  0.2584
 2239TIP3    H1 6662   6.100   6.655   5.527 -1.1761  1.6551 -2.3423
 2239TIP3    H2 6663   5.974   6.572   5.531 -0.2977  0.2912  1.0832
 2240TIP3   OH2 6664   6.380   2.139   5.813 -0.0961 -0.2706  0.4898
 2240TIP3    H1 6665   6.323   2.214   5.827 -0.2605 -0.2076 -0.4548
 2240TIP3    H2 6666   6.326   2.063   5.835  0.1875 -0.1055  1.7985
 2241TIP3   OH2 6667   4.631   4.713   2.355  0.4794 -0.2894  0.5626
 2241TIP3    H1 6668   4.567   4.784   2.365 -0.5229 -0.9667 -0.7639
 2241TIP3    H2 6669   4.621   4.661   2.435 -0.9646 -0.6135  0.2099
 2242TIP3   OH2 6670   4.729   2.399   2.397  0.2456 -0.1350 -0.0159
 2242TIP3    H1 6671   4.734   2.453   2.476  1.0400 -0.5557  0.2313
 2242TIP3    H2 6672   4.817   2.404   2.359 -0.4453  1.1625 -1.6364
 2243TIP3   OH2 6673   7.765   3.502   5.814 -0.0453  0.3097  0.1218
 2243TIP3    H1 6674   7.772   3.586   5.767  1.1734  0.6156  0.8043
 2243TIP3    H2 6675   7.686   3.461   5.778  0.5449  0.7646 -1.8048
 2244TIP3   OH2 6676   3.214   4.309   1.778  0.0857  0.1354  0.0715
 2244TIP3    H1 6677   3.229   4.400   1.803  0.0251  0.1194  0.1640
 2244TIP3    H2 6678   3.155   4.274   1.845 -0.6472  0.2973 -0.4723
 2245TIP3   OH2 6679   7.801   7.614   5.829  0.0335  0.0973 -0.1498
 2245TIP3    H1 6680   7.888   7.609   5.870  0.1417  0.4911 -0.3295
 2245TIP3    H2 6681   7.791   7.705   5.804 -0.6046  0.1387  0.2328
 2246TIP3   OH2 6682   7.924   5.838   3.343  0.6782 -0.1979  0.4751
 2246TIP3    H1 6683   7.828   5.837   3.350  0.5702 -1.8335 -0.8087
 2246TIP3    H2 6684   7.954   5.804   3.427  0.1881  0.8781  1.1181
 2247TIP3   OH2 6685   0.271   4.609   3.279 -0.1521  0.1869 -0.5306
 2247TIP3    H1 6686   0.346   4.566   3.239  0.4080  0.6298  0.0326
 2247TIP3    H2 6687   0.232   4.542   3.336 -0.8609 -0.3957 -1.6613
 2248TIP3   OH2 6688   4.944   5.251   6.648 -0.0378 -0.0318 -0.5106
 2248TIP3    H1 6689   4.968   5.332   6.693  1.6109 -0.0039 -1.3638
 2248TIP3    H2 6690   5.026   5.201   6.645 -0.5007 -0.7382 -1.9884
 2249TIP3   OH2 6691   1.182   2.990   6.200  0.5175 -0.3436  0.2785
 2249TIP3    H1 6692   1.262   2.955   6.160 -1.2786 -0.8906 -3.2447
 2249TIP3    H2 6693   1.138   2.913   6.236  0.6957 -0.3129  0.5693
 2250TIP3   OH2 6694   3.760   7.007   0.270 -0.9155  0.5996 -0.3679
 2250TIP3    H1 6695   3.758   6.945   0.198 -1.0857  0.5332 -0.3074
 2250TIP3    H2 6696   3.808   6.961   0.340  0.9055  1.3583 -1.0627
 2251TIP3   OH2 6697   3.574   2.644   6.266  0.7203 -0.0475  0.0679
 2251TIP3    H1 6698   3.566   2.562   6.315  0.2794  0.1233  0.2809
 2251TIP3    H2 6699   3.660   2.677   6.289 -0.0501  0.7777  1.8896
 2252TIP3   OH2 6700   7.084   5.013   3.187  0.3024 -0.0247  0.0566
 2252TIP3    H1 6701   7.001   4.992   3.144  0.3650  1.4663 -0.8760
 2252TIP3    H2 6702   7.080   4.968   3.271 -0.7150 -1.3554 -0.6632
 2253TIP3   OH2 6703   3.018   4.577   3.540 -0.2960 -0.4117 -0.1330
 2253TIP3    H1 6704   3.089   4.524   3.575  0.6243  0.5823 -0.4656
 2253TIP3    H2 6705   2.953   4.579   3.610  0.9269  0.4508  1.0139
 2254TIP3   OH2 6706   5.038   5.094   6.284  0.4324 -0.4077 -0.2586
 2254TIP3    H1 6707   5.058   5.041   6.207  0.4719 -0.6429 -0.0870
 2254TIP3    H2 6708   5.005   5.031   6.348  0.1102 -0.1697 -0.1878
 2255TIP3   OH2 6709   2.277   0.245   6.206  0.6837 -0.2096  0.5630
 2255TIP3    H1 6710   2.316   0.317   6.256  0.9782  1.8066 -2.2876
 2255TIP3    H2 6711   2.184   0.249   6.227  1.0795 -1.1038  2.7810
 2256TIP3   OH2 6712   7.377   0.066   6.625  0.1253  0.1239 -0.3757
 2256TIP3    H1 6713   7.286   0.069   6.652  0.2977 -0.5459  0.3160
 2256TIP3    H2 6714   7.419   0.137   6.673  0.6339 -1.6581  2.0208
 2257TIP3   OH2 6715   6.411   0.065   4.433  0.1405 -0.1835 -0.0514
 2257TIP3    H1 6716   6.343   0.008   4.466  1.3156 -1.3767  0.3979
 2257TIP3    H2 6717   6.365   0.144   4.405 -1.4087 -0.9706  0.1842
 2258TIP3   OH2 6718   0.476   3.240   3.235  0.2076  0.1771 -0.5397
 2258TIP3    H1 6719   0.558   3.281   3.206 -0.4606  1.4709 -0.6662
 2258TIP3    H2 6720   0.408   3.303   3.212 -0.6912 -0.2339  0.8529
 2259TIP3   OH2 6721   1.133   1.210   4.331 -0.5303 -0.0791 -0.1624
 2259TIP3    H1 6722   1.218   1.254   4.328 -0.3918 -0.3575 -0.4040
 2259TIP3    H2 6723   1.091   1.232   4.247 -1.4506  1.5206  0.6688
 2260TIP3   OH2 6724   2.084   6.034   2.172  0.0582  0.0937  0.1766
 2260TIP3    H1 6725   2.048   6.105   2.225 -0.7034  0.1410 -0.3858
 2260TIP3    H2 6726   2.161   6.071   2.130 -1.8904  1.5509 -2.3741
 2261TIP3   OH2 6727   3.486   7.151   1.661 -0.1553 -0.5337 -0.1769
 2261TIP3    H1 6728   3.490   7.237   1.620 -0.3867  0.0591  0.9863
 2261TIP3    H2 6729   3.538   7.160   1.741 -0.5438 -1.3497  0.1792
 2262TIP3   OH2 6730   3.537   6.790   1.938 -0.0828  0.0057  0.2912
 2262TIP3    H1 6731   3.568   6.764   2.025 -2.2655  0.0175  1.1295
 2262TIP3    H2 6732   3.501   6.877   1.950 -1.4127 -0.4224 -0.3532
 2263TIP3   OH2 6733   3.511   6.647   4.095  0.0709  0.1185 -0.1462
 2263TIP3    H1 6734   3.558   6.684   4.020 -0.2218  0.0951 -0.3459
 2263TIP3    H2 6735   3.560   6.569   4.118 -0.2768 -0.3117 -0.8199
 2264TIP3   OH2 6736   5.885   6.211   1.336 -0.2527 -0.4170  0.0606
 2264TIP3    H1 6737   5.979   6.225   1.328 -0.4913  0.7348 -1.1915
 2264TIP3    H2 6738   5.875   6.154   1.412  1.5020 -1.2637 -0.3015
 2265TIP3   OH2 6739   2.086   4.616   2.808 -0.4810 -0.1793 -0.1439
 2265TIP3    H1 6740   2.127   4.599   2.723 -0.9289  1.5782 -0.7507
 2265TIP3    H2 6741   2.160   4.623   2.869  0.0227  0.9746 -0.8543
 2266TIP3   OH2 6742   6.954   0.284   0.039 -0.1210  0.6122 -0.1901
 2266TIP3    H1 6743   6.932   0.287   0.132 -1.5745  1.5173 -0.5324
 2266TIP3    H2 6744   7.049   0.274   0.037 -0.2230 -1.0373  1.3774
 2267TIP3   OH2 6745   5.111   1.831   6.445 -0.2226  0.4596 -1.0394
 2267TIP3    H1 6746   5.161   1.887   6.505  0.0204 -0.8638  0.0472
 2267TIP3    H2 6747   5.105   1.881   6.364 -0.6166  2.3487  0.0993
 2268TIP3   OH2 6748   2.979   2.123   4.143 -0.1521 -0.2193  0.1293
 2268TIP3    H1 6749   3.041   2.078   4.199  0.4014 -1.9499 -1.7476
 2268TIP3    H2 6750   2.988   2.216   4.166  1.7560 -0.6259  1.2147
 2269TIP3   OH2 6751   5.417   7.782   6.496 -0.0336  0.1773  0.0605
 2269TIP3    H1 6752   5.403   7.835   6.417  0.3169 -0.4301 -0.4167
 2269TIP3    H2 6753   5.431   7.847   6.565 -1.5469  0.7346 -0.1274
 2270TIP3   OH2 6754   2.786   1.550   4.044  0.9523  0.1869 -0.2485
 2270TIP3    H1 6755   2.723   1.555   3.973  1.5507  1.4622 -0.7160
 2270TIP3    H2 6756   2.851   1.487   4.014  0.6361 -0.0894 -0.3598
 2271TIP3   OH2 6757   7.238   7.624   6.672 -0.9327  0.3379 -0.2089
 2271TIP3    H1 6758   7.158   7.651   6.715 -0.4904 -0.4506  1.1708
 2271TIP3    H2 6759   7.217   7.540   6.632 -0.4726 -0.5370  1.2986
 2272TIP3   OH2 6760   3.347   7.312   2.057  0.1819 -0.5762 -0.2371
 2272TIP3    H1 6761   3.271   7.370   2.051 -0.2095 -1.1261 -0.7092
 2272TIP3    H2 6762   3.330   7.244   1.992  1.0369 -0.7579 -0.2789
 2273TIP3   OH2 6763   8.160   1.514   2.440 -0.0730 -0.0145 -0.2188
 2273TIP3    H1 6764   8.211   1.441   2.404  1.0470  0.2638  0.7241
 2273TIP3    H2 6765   8.070   1.483   2.438  0.3806 -1.4757  0.2314
 2274TIP3   OH2 6766   7.001   0.702   1.969 -0.6684  0.3728 -0.3560
 2274TIP3    H1 6767   6.931   0.757   2.003 -0.0460 -0.1676  1.9474
 2274TIP3    H2 6768   7.066   0.699   2.039  0.1314 -1.8273 -1.1108
 2275TIP3   OH2 6769   6.568   2.804   4.815  0.5217 -0.1980 -0.0744
 2275TIP3    H1 6770   6.574   2.900   4.814  2.1336 -0.2757 -0.8734
 2275TIP3    H2 6771   6.515   2.784   4.892  1.1501  1.3006  0.7939
 2276TIP3   OH2 6772   2.910   3.705   4.115 -0.3767  0.3973 -1.0897
 2276TIP3    H1 6773   3.002   3.704   4.089  0.5772  1.8283  1.8421
 2276TIP3    H2 6774   2.875   3.786   4.076 -0.5158 -0.2733 -2.4130
 2277TIP3   OH2 6775   3.050   7.338   1.175  0.1697 -0.2754  0.1005
 2277TIP3    H1 6776   3.057   7.338   1.271 -1.9228 -0.0355  0.2988
 2277TIP3    H2 6777   3.083   7.253   1.148  0.8870 -0.3016  1.0135
 2278TIP3   OH2 6778   2.400   5.334   4.912 -0.4309  0.2849 -0.3947
 2278TIP3    H1 6779   2.314   5.353   4.875 -0.3699  1.7290  0.1045
 2278TIP3    H2 6780   2.383   5.269   4.981 -1.2709  1.1410  0.2433
 2279TIP3   OH2 6781   2.310   4.469   1.216 -0.0804 -0.0317  0.5513
 2279TIP3    H1 6782   2.240   4.433   1.270 -0.0658 -1.1606 -0.1499
 2279TIP3    H2 6783   2.364   4.518   1.277 -0.6841 -0.3534  1.3644
 2280TIP3   OH2 6784   4.720   0.238   2.972  0.0558 -0.4833 -0.1059
 2280TIP3    H1 6785   4.708   0.163   3.031  1.3162 -1.3178 -0.8683
 2280TIP3    H2 6786   4.677   0.310   3.017 -0.3931 -1.4556  1.0891
 2281TIP3   OH2 6787   5.518   4.651   1.197 -0.6209  0.1117 -0.1568
 2281TIP3    H1 6788   5.429   4.646   1.162 -0.7231  2.0189 -0.2975
 2281TIP3    H2 6789   5.525   4.741   1.229  1.7220  0.4845 -1.4834
 2282TIP3   OH2 6790   2.295   1.749   0.353  0.3841 -0.0863 -0.2276
 2282TIP3    H1 6791   2.305   1.797   0.271 -1.2190  1.5845  0.4882
 2282TIP3    H2 6792   2.290   1.657   0.326  1.4756  0.2681 -1.8243
 2283TIP3   OH2 6793   0.466   5.179   2.154 -0.1614  0.7409 -0.0863
 2283TIP3    H1 6794   0.533   5.171   2.221 -0.5052 -1.1116  0.0709
 2283TIP3    H2 6795   0.401   5.112   2.176 -1.2264  1.3574 -1.1974
 2284TIP3   OH2 6796   6.765   1.791   2.777  0.1110  0.5328  0.0866
 2284TIP3    H1 6797   6.708   1.731   2.825  2.6348 -1.1920  1.1328
 2284TIP3    H2 6798   6.819   1.832   2.845  2.4982 -0.5774 -1.0413
 2285TIP3   OH2 6799   8.111   7.520   5.559  0.5371  0.1117 -0.3352
 2285TIP3    H1 6800   8.191   7.557   5.522  2.1924 -0.5438  2.3606
 2285TIP3    H2 6801   8.132   7.428   5.576 -0.0784  0.3588  2.1485
 2286TIP3   OH2 6802   8.061   7.515   0.298  1.0565  0.5720 -0.4144
 2286TIP3    H1 6803   7.966   7.518   0.309  1.0331  1.2915 -0.6940
 2286TIP3    H2 6804   8.095   7.499   0.386  0.6716  0.1957 -0.3313
 2287TIP3   OH2 6805   7.933   5.503   2.463 -0.0361  0.1378  0.1856
 2287TIP3    H1 6806   7.978   5.587   2.465  1.1952 -0.4919  1.6061
 2287TIP3    H2 6807   7.870   5.510   2.392  2.6681  0.8959 -2.2969
 2288TIP3   OH2 6808   0.599   1.813   2.397  0.0902 -0.3210  0.3715
 2288TIP3    H1 6809   0.562   1.881   2.452 -0.4636  1.1101 -1.6566
 2288TIP3    H2 6810   0.523   1.760   2.369  0.1442 -0.0970 -0.2208
 2289TIP3   OH2 6811   0.351   2.335   0.440  0.2028 -0.2060  0.0789
 2289TIP3    H1 6812   0.425   2.305   0.388 -0.2780 -0.3539 -0.5349
 2289TIP3    H2 6813   0.274   2.299   0.396 -0.2643  0.3380  0.4242
 2290TIP3   OH2 6814   2.445   3.339   6.482  0.2312  0.3744  0.2336
 2290TIP3    H1 6815   2.391   3.268   6.448  0.7057 -0.3373  0.9409
 2290TIP3    H2 6816   2.528   3.331   6.434  0.2596  0.5001  0.2600
 2291TIP3   OH2 6817   4.331   3.009   4.256  0.3044  0.4670  0.4717
 2291TIP3    H1 6818   4.386   3.079   4.291  0.5635  0.8048 -0.5643
 2291TIP3    H2 6819   4.267   2.991   4.325  1.0374  0.8287  1.2570
 2292TIP3   OH2 6820   7.426   7.579   5.195 -0.0287  0.1203  0.1954
 2292TIP3    H1 6821   7.521   7.579   5.207  0.3617  1.4690 -2.2117
 2292TIP3    H2 6822   7.398   7.663   5.232  0.1085  0.8295 -1.2449
 2293TIP3   OH2 6823   2.672   6.513   5.719  0.0100  0.1118  0.0885
 2293TIP3    H1 6824   2.650   6.589   5.665 -1.3803 -1.0168 -1.0204
 2293TIP3    H2 6825   2.588   6.468   5.732  0.3097  0.2873  3.1924
 2294TIP3   OH2 6826   0.840   2.312   2.044 -0.0574 -0.5654 -0.0548
 2294TIP3    H1 6827   0.860   2.263   2.124 -0.4762 -0.5656  0.0554
 2294TIP3    H2 6828   0.745   2.322   2.047  0.0321  0.2938 -0.0554
 2295TIP3   OH2 6829   5.531   6.408   0.533  0.0324 -0.6134 -0.3689
 2295TIP3    H1 6830   5.471   6.358   0.477  0.6942 -0.7514 -0.9644
 2295TIP3    H2 6831   5.503   6.499   0.522  0.5661 -0.5652 -1.4533
 2296TIP3   OH2 6832   3.736   0.992   5.426  0.4273  0.8428 -0.2112
 2296TIP3    H1 6833   3.651   0.967   5.387  0.8391 -3.1339  0.9773
 2296TIP3    H2 6834   3.791   1.012   5.351 -0.1593 -1.8754 -1.5084
 2297TIP3   OH2 6835   7.216   2.024   3.401  0.3473  0.2316 -0.0737
 2297TIP3    H1 6836   7.237   1.942   3.356  0.1665  0.8828 -1.3785
 2297TIP3    H2 6837   7.263   2.018   3.484  1.9870 -0.3413 -0.9907
 2298TIP3   OH2 6838   5.595   4.206   4.064  0.1165 -0.0640  0.6869
 2298TIP3    H1 6839   5.515   4.259   4.067 -0.0144 -0.2163  0.0399
 2298TIP3    H2 6840   5.579   4.134   4.125 -0.7371 -0.7599 -0.3129
 2299TIP3   OH2 6841   1.917   1.311   3.441  0.3172 -0.5045 -0.1079
 2299TIP3    H1 6842   1.874   1.392   3.467  0.3577 -0.4004 -0.3604
 2299TIP3    H2 6843   2.003   1.337   3.411  0.8294 -0.7922  1.0491
 2300TIP3   OH2 6844   0.399   2.243   2.834 -0.3801  0.4100 -0.3542
 2300TIP3    H1 6845   0.402   2.316   2.895  0.7428  0.0984 -0.0077
 2300TIP3    H2 6846   0.429   2.168   2.885 -0.4810 -0.0783 -0.9947
 2301TIP3   OH2 6847   5.036   5.004   3.162  0.6322  0.1347  0.1076
 2301TIP3    H1 6848   5.030   5.099   3.161  1.5268  0.2051  0.5436
 2301TIP3    H2 6849   5.019   4.978   3.071  1.1927  0.7678 -0.1884
 2302TIP3   OH2 6850   0.536   1.349   2.698 -0.1075  0.8818 -0.1160
 2302TIP3    H1 6851   0.467   1.413   2.716  0.0450  0.7676  0.8952
 2302TIP3    H2 6852   0.490   1.273   2.663 -0.4892  0.8316  0.4828
 2303TIP3   OH2 6853   4.327   5.100   0.496  0.1188 -0.2608 -0.3351
 2303TIP3    H1 6854   4.341   5.132   0.585  1.6117 -0.7529 -0.3616
 2303TIP3    H2 6855   4.232   5.102   0.484 -0.1111 -0.2494  1.2851
 2304TIP3   OH2 6856   1.687   0.714   5.254  0.1917 -0.8090 -0.3858
 2304TIP3    H1 6857   1.717   0.773   5.324 -0.1495 -1.4611  0.3167
 2304TIP3    H2 6858   1.665   0.773   5.182 -0.0622 -0.0738  0.2761
 2305TIP3   OH2 6859   3.765   1.133   4.999 -0.8176  0.5163 -0.2205
 2305TIP3    H1 6860   3.830   1.176   4.943 -0.7027 -1.5394 -1.7793
 2305TIP3    H2 6861   3.816   1.102   5.074 -0.5127  1.1565 -0.1500
 2306TIP3   OH2 6862   3.579   4.008   2.154  0.2107  0.2178 -0.3483
 2306TIP3    H1 6863   3.648   4.074   2.146 -0.4116  0.9390  0.0576
 2306TIP3    H2 6864   3.605   3.954   2.228  1.0856 -0.4485 -1.1215
 2307TIP3   OH2 6865   1.649   2.213   2.063  0.2328  0.5432 -0.1932
 2307TIP3    H1 6866   1.740   2.241   2.071  1.0997 -1.5048 -1.8744
 2307TIP3    H2 6867   1.602   2.292   2.036  1.9874  1.1476 -1.7236
 2308TIP3   OH2 6868   1.139   1.157   2.136  0.2156 -0.0325 -0.0520
 2308TIP3    H1 6869   1.087   1.221   2.087  1.5117 -1.3610 -3.4877
 2308TIP3    H2 6870   1.095   1.074   2.122 -0.0700 -0.3171  2.2467
 2309TIP3   OH2 6871   5.951   3.374   5.054  0.0788  0.3079 -0.7633
 2309TIP3    H1 6872   5.907   3.300   5.014 -0.2738  0.6717 -1.0506
 2309TIP3    H2 6873   6.029   3.389   5.000 -0.9227  1.4499 -1.9716
 2310TIP3   OH2 6874   3.861   4.691   4.982  0.2630 -0.4527 -0.1035
 2310TIP3    H1 6875   3.843   4.784   4.992 -0.2511 -0.5213 -0.3919
 2310TIP3    H2 6876   3.783   4.655   4.940 -0.2614 -1.3099  1.4981
 2311TIP3   OH2 6877   0.765   6.703   1.054  0.4443  0.4391  0.1633
 2311TIP3    H1 6878   0.730   6.765   0.990 -0.5688  0.1051  0.3809
 2311TIP3    H2 6879   0.858   6.698   1.033  0.3833  1.3743 -0.4079
 2312TIP3   OH2 6880   4.058   6.161   6.785  0.5064  0.0918 -0.3668
 2312TIP3    H1 6881   4.061   6.234   6.847  2.2768 -0.9688  0.8838
 2312TIP3    H2 6882   4.086   6.199   6.702  3.0290  0.5887  0.6127
 2313TIP3   OH2 6883   0.722   5.177   0.594  0.6014 -0.4642 -0.4435
 2313TIP3    H1 6884   0.634   5.152   0.623 -0.3473  1.8085 -1.1160
 2313TIP3    H2 6885   0.738   5.261   0.637  2.1261 -0.4697 -0.9565
 2314TIP3   OH2 6886   6.375   3.887   3.880 -0.1537 -0.2753  0.3448
 2314TIP3    H1 6887   6.354   3.964   3.827 -1.4507 -1.1532 -0.4693
 2314TIP3    H2 6888   6.440   3.919   3.943 -1.1597  1.6563  0.4800
 2315TIP3   OH2 6889   7.819   6.436   6.687  0.0197 -0.6732 -0.3196
 2315TIP3    H1 6890   7.803   6.369   6.620  0.9088 -0.1460 -1.0721
 2315TIP3    H2 6891   7.772   6.513   6.656 -0.2848 -0.6800  0.1132
 2316TIP3   OH2 6892   5.270   1.924   6.684 -0.5268  0.3883 -0.4523
 2316TIP3    H1 6893   5.266   1.886   6.771 -3.2937 -1.4021 -1.2479
 2316TIP3    H2 6894   5.362   1.947   6.672  0.0962 -0.2386  2.5247
 2317TIP3   OH2 6895   6.922   6.944   1.285 -0.2880 -0.0569 -0.2857
 2317TIP3    H1 6896   6.947   6.908   1.200  0.5431 -0.7071  0.2079
 2317TIP3    H2 6897   6.840   6.900   1.307 -1.6969  1.7003 -1.6894
 2318TIP3   OH2 6898   3.132   2.564   2.863 -0.1371  0.8319 -0.5062
 2318TIP3    H1 6899   3.160   2.622   2.934 -0.3190  1.8162 -1.2153
 2318TIP3    H2 6900   3.037   2.566   2.866 -0.1566  1.4563 -1.2150
 2319TIP3   OH2 6901   1.714   6.741   0.659 -0.0251  0.2166 -0.4504
 2319TIP3    H1 6902   1.665   6.783   0.588 -0.7976  0.9431  0.4942
 2319TIP3    H2 6903   1.689   6.649   0.654 -1.7012  0.6059  0.1512
 2320TIP3   OH2 6904   3.798   4.556   1.719  0.2045  0.0069  0.4013
 2320TIP3    H1 6905   3.793   4.472   1.673  3.2338 -0.3590  0.5583
 2320TIP3    H2 6906   3.743   4.615   1.667 -1.9016 -1.9522  0.2028
 2321TIP3   OH2 6907   0.558   0.034   3.607 -0.1035  0.6811 -0.2890
 2321TIP3    H1 6908   0.494   0.055   3.539 -0.5082  0.8750  0.1454
 2321TIP3    H2 6909   0.527   0.081   3.684 -0.6691 -0.9957  0.5492
 2322TIP3   OH2 6910   4.029   3.473   2.617 -0.1797 -0.0827  0.9053
 2322TIP3    H1 6911   3.949   3.442   2.574 -2.1203  1.5047  3.0780
 2322TIP3    H2 6912   4.084   3.504   2.545 -0.2683 -3.6411 -0.8888
 2323TIP3   OH2 6913   3.855   6.622   5.360 -0.4472 -0.2780 -0.7317
 2323TIP3    H1 6914   3.819   6.557   5.301  1.7430 -2.0473 -0.2813
 2323TIP3    H2 6915   3.814   6.603   5.445 -1.8831  0.7820 -1.1615
 2324TIP3   OH2 6916   0.226   6.483   4.093  0.3360  0.2071  0.3089
 2324TIP3    H1 6917   0.233   6.520   4.182  1.5132  1.5496 -0.2877
 2324TIP3    H2 6918   0.316   6.481   4.062 -0.2336  2.0266 -1.7086
 2325TIP3   OH2 6919   4.649   2.246   3.299  0.0477  0.5000 -0.3459
 2325TIP3    H1 6920   4.553   2.247   3.303  0.0585  0.1605  0.2080
 2325TIP3    H2 6921   4.669   2.187   3.227 -0.1618 -0.9490  0.7333
 2326TIP3   OH2 6922   0.244   4.484   1.113 -0.0474  0.0067 -0.8104
 2326TIP3    H1 6923   0.313   4.537   1.154 -0.7491 -0.6131  1.3022
 2326TIP3    H2 6924   0.172   4.485   1.176 -1.4762 -0.4874 -2.3559
 2327TIP3   OH2 6925   2.965   6.415   4.918  0.5790 -0.0167  0.2588
 2327TIP3    H1 6926   2.953   6.479   4.988 -0.1131  1.2632 -0.9782
 2327TIP3    H2 6927   3.057   6.392   4.922  0.2918 -1.0518  2.4593
 2328TIP3   OH2 6928   0.624   7.290   1.207  0.2526  0.1709 -0.3601
 2328TIP3    H1 6929   0.653   7.293   1.115  1.0788  3.9264 -0.1462
 2328TIP3    H2 6930   0.570   7.368   1.217 -0.9670 -0.9015  2.0692
 2329TIP3   OH2 6931   0.785   5.338   0.806  0.0810  0.5580 -0.0645
 2329TIP3    H1 6932   0.794   5.276   0.880  0.7088  0.4132 -0.2558
 2329TIP3    H2 6933   0.875   5.359   0.782 -0.1160  0.2928 -1.0557
 2330TIP3   OH2 6934   3.931   3.467   1.571 -0.6393 -0.2104  0.3390
 2330TIP3    H1 6935   3.928   3.435   1.481 -1.0912 -0.1789  0.3384
 2330TIP3    H2 6936   3.977   3.550   1.565  0.5446 -0.8533  0.3432
 2331TIP3   OH2 6937   2.377   2.370   6.158 -0.7531  0.1219 -0.1831
 2331TIP3    H1 6938   2.359   2.327   6.241 -0.0482 -1.7916 -0.9478
 2331TIP3    H2 6939   2.423   2.303   6.106 -0.2309  1.5966 -1.7225
 2332TIP3   OH2 6940   5.659   6.447   0.784  0.5753 -0.4081 -0.3920
 2332TIP3    H1 6941   5.748   6.466   0.755  0.5607  0.5081  0.1196
 2332TIP3    H2 6942   5.616   6.410   0.707  0.3045  2.6869 -1.8889
 2333TIP3   OH2 6943   7.239   0.883   0.290 -0.2722 -0.0489  0.4343
 2333TIP3    H1 6944   7.206   0.816   0.348  0.0920  2.7093  4.2019
 2333TIP3    H2 6945   7.333   0.884   0.305  0.0751 -0.3017 -1.4950
 2334TIP3   OH2 6946   4.759   7.613   2.122 -0.2988 -0.0749  0.6964
 2334TIP3    H1 6947   4.675   7.650   2.094 -1.0295 -0.7885  1.8861
 2334TIP3    H2 6948   4.822   7.684   2.108 -1.0821  0.4653 -0.2287
 2335TIP3   OH2 6949   0.073   7.229   0.355 -0.0856 -0.3638  0.1340
 2335TIP3    H1 6950   0.046   7.291   0.422 -1.3625  0.6188 -1.2036
 2335TIP3    H2 6951  -0.007   7.179   0.335  0.0760 -0.1511 -1.1224
 2336TIP3   OH2 6952   1.166   7.733   0.355  0.0650 -0.4231 -0.0739
 2336TIP3    H1 6953   1.142   7.680   0.280 -0.9208 -1.6838  1.0869
 2336TIP3    H2 6954   1.261   7.726   0.360  0.2868  0.6687 -1.8722
 2337TIP3   OH2 6955   2.937   5.332   3.547  0.2449  0.2926  0.4043
 2337TIP3    H1 6956   3.023   5.325   3.507  0.3961  2.2618  0.2892
 2337TIP3    H2 6957   2.947   5.294   3.634  0.7975 -0.9210 -0.1748
 2338TIP3   OH2 6958   7.256   4.908   5.810  0.2404  0.3045  0.0095
 2338TIP3    H1 6959   7.203   4.868   5.878  1.5763 -0.6206  0.5543
 2338TIP3    H2 6960   7.301   4.980   5.853  2.1932 -1.1614  0.5437
 2339TIP3   OH2 6961   3.513   3.729   5.733  0.6653  0.4136  0.0087
 2339TIP3    H1 6962   3.473   3.725   5.646 -0.3346 -0.0710  0.4739
 2339TIP3    H2 6963   3.604   3.702   5.719  0.4029 -0.0748 -0.8209
 2340TIP3   OH2 6964   3.686   2.013   1.360 -0.4430  0.0409  0.3779
 2340TIP3    H1 6965   3.765   2.047   1.403  0.0843 -1.3628  0.5957
 2340TIP3    H2 6966   3.630   2.089   1.347  1.1353  1.1555 -0.1823
 2341TIP3   OH2 6967   3.462   1.059   0.435 -0.6021  0.2370  0.2962
 2341TIP3    H1 6968   3.448   0.967   0.455  1.7077 -0.0192  1.0333
 2341TIP3    H2 6969   3.549   1.078   0.470 -0.4361  2.3322 -1.0803
 2342TIP3   OH2 6970   4.319   3.717   6.712 -0.3350  0.2022  0.6712
 2342TIP3    H1 6971   4.235   3.671   6.713 -1.0441  1.4104 -0.3381
 2342TIP3    H2 6972   4.312   3.781   6.783  0.0036 -0.1278  1.0094
 2343TIP3   OH2 6973   5.344   6.705   6.437  0.2153  0.0637  0.1890
 2343TIP3    H1 6974   5.299   6.628   6.405 -1.9799  1.6219 -0.7205
 2343TIP3    H2 6975   5.388   6.676   6.517 -1.6669 -1.7739  0.6262
 2344TIP3   OH2 6976   4.761   6.060   6.598 -0.0220 -0.0790 -0.5950
 2344TIP3    H1 6977   4.797   5.999   6.534  1.0106  1.2319 -1.3357
 2344TIP3    H2 6978   4.799   6.033   6.682  1.0050 -0.0321 -1.0292
 2345TIP3   OH2 6979   6.499   7.648   2.178  0.0858  0.6607  0.0322
 2345TIP3    H1 6980   6.577   7.701   2.190  1.0797 -0.8212  0.3458
 2345TIP3    H2 6981   6.532   7.560   2.162 -1.5259 -0.1601  0.9909
 2346TIP3   OH2 6982   1.882   3.361   1.633  0.6821  0.2524  0.0166
 2346TIP3    H1 6983   1.837   3.277   1.643  0.4585  0.1682 -1.4349
 2346TIP3    H2 6984   1.946   3.345   1.563  1.9959  0.7667  1.0691
 2347TIP3   OH2 6985   1.211   5.304   2.478  0.6347 -0.1562 -0.2983
 2347TIP3    H1 6986   1.125   5.274   2.508  0.9516 -1.2071 -0.4084
 2347TIP3    H2 6987   1.224   5.260   2.394  1.1206  0.2998 -0.4686
 2348TIP3   OH2 6988   2.700   3.528   2.851  0.9173  0.1604  0.0454
 2348TIP3    H1 6989   2.627   3.487   2.804 -0.1859  0.8656  1.0912
 2348TIP3    H2 6990   2.662   3.606   2.891  2.4624  1.0068 -0.0684
 2349TIP3   OH2 6991   5.033   5.741   6.549 -0.2010 -0.0823 -0.1457
 2349TIP3    H1 6992   4.946   5.706   6.570  0.1055 -0.1971  0.9835
 2349TIP3    H2 6993   5.086   5.663   6.532 -0.0783 -0.0630  0.1436
 2350TIP3   OH2 6994   6.299   1.567   4.724 -0.4251  0.0496 -0.4344
 2350TIP3    H1 6995   6.331   1.496   4.780  2.0792  0.0594 -1.7100
 2350TIP3    H2 6996   6.214   1.591   4.762 -0.4418 -2.2569  1.2228
 2351TIP3   OH2 6997   2.323   7.721   1.003  0.0304 -0.4587 -0.1150
 2351TIP3    H1 6998   2.348   7.629   1.011 -0.4130 -0.4202  2.4670
 2351TIP3    H2 6999   2.238   7.726   1.047 -0.5209  0.9802 -1.2941
 2352TIP3   OH2 7000   1.754   5.915   1.654 -0.6564 -0.4231 -0.1502
 2352TIP3    H1 7001   1.661   5.915   1.679 -0.9771 -1.2897 -1.2789
 2352TIP3    H2 7002   1.756   5.871   1.569  0.7317  0.0770 -0.3963
 2353TIP3   OH2 7003   1.849   4.281   3.032 -0.2398  0.4077  0.5475
 2353TIP3    H1 7004   1.800   4.214   2.985 -0.3499 -0.1280  1.4045
 2353TIP3    H2 7005   1.898   4.327   2.964 -0.2398 -0.4721 -0.0657
 2354TIP3   OH2 7006   0.959   1.093   1.729 -0.0707  0.0117  0.3479
 2354TIP3    H1 7007   0.909   1.139   1.662  1.1342 -0.4044 -0.8804
 2354TIP3    H2 7008   0.915   1.008   1.737 -0.2201  0.0642  0.0905
 2355TIP3   OH2 7009   4.836   7.784   0.834  0.4114  0.0496  0.0065
 2355TIP3    H1 7010   4.880   7.741   0.760  0.6649 -0.3713  0.4031
 2355TIP3    H2 7011   4.823   7.714   0.898  0.4567  0.4772  0.4840
 2356TIP3   OH2 7012   6.269   2.477   4.565  0.0302 -1.0460 -0.0896
 2356TIP3    H1 7013   6.310   2.465   4.650  1.2629  0.3656 -0.4478
 2356TIP3    H2 7014   6.335   2.521   4.512 -2.1344  1.9769 -0.4965
 2357TIP3   OH2 7015   3.104   4.785   0.581 -0.1055 -0.0791 -0.2996
 2357TIP3    H1 7016   3.008   4.794   0.578  0.0290  1.5992 -0.9468
 2357TIP3    H2 7017   3.130   4.837   0.657  0.2768 -0.6761 -0.0244
 2358TIP3   OH2 7018   1.361   6.285   3.256 -0.5331 -0.0859 -0.1970
 2358TIP3    H1 7019   1.351   6.296   3.162 -1.6061 -2.2609 -0.4040
 2358TIP3    H2 7020   1.353   6.190   3.270  1.3684 -0.0349  1.8921
 2359TIP3   OH2 7021   5.377   0.407   6.028 -0.2937 -0.1771  0.1869
 2359TIP3    H1 7022   5.303   0.360   5.989 -0.7255 -0.1516  0.9542
 2359TIP3    H2 7023   5.431   0.339   6.067 -1.0252 -0.0542  1.4773
 2360TIP3   OH2 7024   1.716   3.959   4.927 -0.1798 -0.2139  0.3723
 2360TIP3    H1 7025   1.748   4.016   4.996 -0.0978  1.5856 -1.0614
 2360TIP3    H2 7026   1.786   3.958   4.862 -1.3407  0.4968 -0.9603
 2361TIP3   OH2 7027   7.579   1.584   0.169 -0.1719  0.2128  0.1335
 2361TIP3    H1 7028   7.512   1.618   0.110  0.0852 -0.1510 -0.3742
 2361TIP3    H2 7029   7.530   1.555   0.247 -0.5269  0.5514  0.0364
 2362TIP3   OH2 7030   2.466   7.110   4.980  0.9323  0.2981  0.5094
 2362TIP3    H1 7031   2.556   7.090   5.007  0.6634  1.6835  2.6818
 2362TIP3    H2 7032   2.411   7.061   5.042  0.0993 -1.6866 -1.6783
 2363TIP3   OH2 7033   6.436   4.768   4.479  0.3863 -0.5987  0.4111
 2363TIP3    H1 7034   6.513   4.775   4.421 -0.5293  0.3810 -0.7515
 2363TIP3    H2 7035   6.374   4.715   4.429 -0.7276  0.9288  0.1077
 2364TIP3   OH2 7036   0.312   5.419   3.245 -0.5137  0.2894  0.2728
 2364TIP3    H1 7037   0.332   5.356   3.175 -1.0224  0.3872  0.0355
 2364TIP3    H2 7038   0.238   5.469   3.211 -2.4742 -1.3481  1.9239
 2365TIP3   OH2 7039   3.940   1.283   3.364  0.3686 -0.1929 -0.9725
 2365TIP3    H1 7040   3.892   1.311   3.442  0.0270  1.1913 -1.6397
 2365TIP3    H2 7041   3.945   1.188   3.372 -0.7857 -0.1978  0.0933
 2366TIP3   OH2 7042   5.229   1.188   5.567 -0.0274  0.5103  0.4483
 2366TIP3    H1 7043   5.234   1.276   5.529 -1.1240  0.1914 -0.4997
 2366TIP3    H2 7044   5.162   1.195   5.635  0.8598  0.7192  1.3156
 2367TIP3   OH2 7045   7.158   2.733   4.168  0.1370 -0.0706  0.1992
 2367TIP3    H1 7046   7.110   2.689   4.238  1.9099  0.2112  1.6692
 2367TIP3    H2 7047   7.201   2.662   4.121 -3.6545 -0.6480 -2.9033
 2368TIP3   OH2 7048   4.623   4.734   4.598 -0.1542 -0.1132  0.2300
 2368TIP3    H1 7049   4.640   4.688   4.680 -0.3460  0.3286  0.5220
 2368TIP3    H2 7050   4.566   4.675   4.549  1.6760 -1.3541 -0.5222
 2369TIP3   OH2 7051   6.967   7.454   4.394 -0.1542 -0.3444  0.3748
 2369TIP3    H1 7052   7.039   7.423   4.338  0.0818 -0.1359  0.5613
 2369TIP3    H2 7053   6.921   7.374   4.420 -1.4100 -0.3237 -1.6299
 2370TIP3   OH2 7054   8.022   7.298   5.260 -0.1799  0.0647  0.2192
 2370TIP3    H1 7055   8.104   7.256   5.286 -0.3928 -0.8327 -0.5301
 2370TIP3    H2 7056   8.016   7.285   5.166  0.0623  2.3713 -0.1796
 2371TIP3   OH2 7057   5.952   2.549   1.284  0.5673 -0.5100  0.2446
 2371TIP3    H1 7058   5.948   2.469   1.231 -0.1600 -1.1739  1.2587
 2371TIP3    H2 7059   6.021   2.532   1.348  0.2761 -0.4257  0.5879
 2372TIP3   OH2 7060   7.513   3.780   2.521  0.3877 -0.0742  0.4635
 2372TIP3    H1 7061   7.483   3.703   2.473  1.8023  1.1524 -2.6593
 2372TIP3    H2 7062   7.565   3.745   2.593 -1.0094 -2.0153  0.6041
 2373TIP3   OH2 7063   6.785   0.088   4.255  0.0399  0.0476  0.1350
 2373TIP3    H1 7064   6.761   0.136   4.334 -0.1423 -0.8477  0.6390
 2373TIP3    H2 7065   6.717   0.110   4.191 -1.6956 -1.7602  1.2546
 2374TIP3   OH2 7066   3.484   7.396   2.578 -0.1739  0.0513 -0.3316
 2374TIP3    H1 7067   3.554   7.404   2.643  1.5371  0.4176 -2.1057
 2374TIP3    H2 7068   3.515   7.327   2.519 -1.3650  0.1646 -1.1086
 2375TIP3   OH2 7069   5.738   5.428   4.395  0.6699  0.0159  0.9927
 2375TIP3    H1 7070   5.706   5.516   4.378 -0.3385 -0.4575  0.3324
 2375TIP3    H2 7071   5.821   5.441   4.441  0.8051  1.3044  0.4250
 2376TIP3   OH2 7072   3.800   5.338   3.168 -0.0939  0.2685  0.2479
 2376TIP3    H1 7073   3.893   5.324   3.148  0.3734  0.4530  2.0539
 2376TIP3    H2 7074   3.758   5.255   3.145  0.4760  0.2337 -0.7301
 2377TIP3   OH2 7075   5.812   5.562   6.218  0.0378 -0.1980 -0.1114
 2377TIP3    H1 7076   5.724   5.525   6.215 -0.1506  0.3183 -0.9020
 2377TIP3    H2 7077   5.827   5.599   6.131  1.0427 -0.2949  0.0034
 2378TIP3   OH2 7078   1.408   5.916   5.723  0.4213  0.6794  0.5145
 2378TIP3    H1 7079   1.449   5.891   5.641 -1.0261  1.4430 -0.4855
 2378TIP3    H2 7080   1.315   5.896   5.712 -0.0148  1.9634  1.4583
 2379TIP3   OH2 7081   5.006   2.539   6.068 -0.0591  0.1309  0.1203
 2379TIP3    H1 7082   4.960   2.597   6.007  0.2761  0.9505  0.6193
 2379TIP3    H2 7083   5.053   2.477   6.012 -1.6414 -0.6567 -0.4034
 2380TIP3   OH2 7084   6.154   2.974   3.455  0.0193 -0.5092  0.1108
 2380TIP3    H1 7085   6.176   3.039   3.388  0.8613 -0.2189  0.6595
 2380TIP3    H2 7086   6.238   2.939   3.484 -0.2230  0.3389  1.9770
 2381TIP3   OH2 7087   7.610   5.966   1.906  0.1107 -0.7403  0.2170
 2381TIP3    H1 7088   7.695   5.938   1.941  0.3161 -0.5703 -0.1450
 2381TIP3    H2 7089   7.632   6.020   1.831 -0.3305 -1.0487 -0.1351
 2382TIP3   OH2 7090   2.923   6.656   5.086 -0.1238  1.0098  0.5072
 2382TIP3    H1 7091   2.903   6.739   5.043 -0.1010  1.8112  1.9754
 2382TIP3    H2 7092   3.000   6.675   5.140 -0.0301 -0.0153  0.7578
 2383TIP3   OH2 7093   3.079   0.883   5.320 -0.0615  0.5125  0.1539
 2383TIP3    H1 7094   3.041   0.797   5.305  0.6534  0.3982 -1.0960
 2383TIP3    H2 7095   3.118   0.908   5.236  1.8826  0.9881  1.1435
 2384TIP3   OH2 7096   1.026   1.537   0.408 -0.5017  0.0525  0.3581
 2384TIP3    H1 7097   1.121   1.551   0.414 -0.3158 -0.2939 -1.3394
 2384TIP3    H2 7098   0.993   1.557   0.496  1.1573  0.0219  1.0114
 2385TIP3   OH2 7099   2.703   4.000   4.492  0.1672 -0.3222 -0.0669
 2385TIP3    H1 7100   2.626   3.972   4.541  0.7076 -2.4424 -0.3303
 2385TIP3    H2 7101   2.745   3.918   4.465  1.8920  0.7891 -0.9006
 2386TIP3   OH2 7102   1.296   4.571   1.542  0.4163  0.4250  0.3901
 2386TIP3    H1 7103   1.291   4.667   1.538 -0.7716  0.3589 -0.0844
 2386TIP3    H2 7104   1.261   4.541   1.458  0.1207 -0.4371  0.8020
 2387TIP3   OH2 7105   8.179   5.568   1.032  0.2279  0.2377  0.4104
 2387TIP3    H1 7106   8.208   5.515   1.105  0.5619 -0.9240 -0.5421
 2387TIP3    H2 7107   8.248   5.634   1.021  0.8736 -0.4564  0.2532
 2388TIP3   OH2 7108   5.508   4.134   5.399 -0.0691  0.0873 -0.4347
 2388TIP3    H1 7109   5.485   4.042   5.381  1.2599 -0.4015  0.2156
 2388TIP3    H2 7110   5.425   4.181   5.388 -0.6480 -1.0875 -1.4087
 2389TIP3   OH2 7111   4.287   6.525   1.134 -0.1752 -0.1098 -0.2665
 2389TIP3    H1 7112   4.340   6.604   1.119 -0.2149 -0.1704 -0.7367
 2389TIP3    H2 7113   4.347   6.465   1.179 -0.5287  0.6581  1.2989
 2390TIP3   OH2 7114   1.093   3.301   1.847  0.2655  0.4886  0.0319
 2390TIP3    H1 7115   1.182   3.336   1.836  0.0366  0.6425 -1.4949
 2390TIP3    H2 7116   1.075   3.254   1.766 -0.5896 -0.6432  0.8371
 2391TIP3   OH2 7117   2.698   5.560   6.204  0.3614 -0.1036  0.1270
 2391TIP3    H1 7118   2.753   5.612   6.145  0.1723  1.2780  1.1042
 2391TIP3    H2 7119   2.652   5.625   6.257 -1.1809 -1.2550  0.2762
 2392TIP3   OH2 7120   4.006   4.138   0.158  0.0807  0.5974  0.6031
 2392TIP3    H1 7121   4.056   4.143   0.240  1.2167 -3.6884  0.4216
 2392TIP3    H2 7122   4.072   4.146   0.089 -0.1497 -0.2584  0.2609
 2393TIP3   OH2 7123   2.864   0.117   1.426  0.1437  0.4899  0.5019
 2393TIP3    H1 7124   2.903   0.148   1.343  1.7980  0.9728  1.4064
 2393TIP3    H2 7125   2.797   0.055   1.399 -0.3792  1.7416 -1.2490
 2394TIP3   OH2 7126   5.620   5.308   1.236 -0.3186 -0.7499  0.2071
 2394TIP3    H1 7127   5.533   5.281   1.205  0.3615 -0.4025 -2.2675
 2394TIP3    H2 7128   5.677   5.296   1.159  1.6027  0.0683  1.4356
 2395TIP3   OH2 7129   4.737   3.279   4.794 -0.1371  0.1997 -0.0598
 2395TIP3    H1 7130   4.697   3.331   4.724  0.2641 -0.6353 -0.9436
 2395TIP3    H2 7131   4.807   3.335   4.828 -0.0676  0.4579 -0.6117
 2396TIP3   OH2 7132   4.431   2.686   1.881  0.0023  0.0451 -0.3536
 2396TIP3    H1 7133   4.379   2.613   1.917  1.0591 -0.7299 -0.3545
 2396TIP3    H2 7134   4.496   2.704   1.949 -0.3042  1.0725 -0.3177
 2397TIP3   OH2 7135   0.638   1.809   1.103 -0.1106 -0.4528  0.3478
 2397TIP3    H1 7136   0.635   1.816   1.199  1.2397 -1.8091  0.5317
 2397TIP3    H2 7137   0.684   1.888   1.075  0.8703 -0.7774  0.9735
 2398TIP3   OH2 7138   2.653   7.729   3.280  0.0199  0.3011 -0.2364
 2398TIP3    H1 7139   2.586   7.715   3.348  0.0710  1.8761  0.1763
 2398TIP3    H2 7140   2.606   7.715   3.198 -0.1645 -1.1396  0.0714
 2399TIP3   OH2 7141   4.408   3.652   5.605  0.5111 -0.4176  0.0390
 2399TIP3    H1 7142   4.413   3.557   5.612 -0.6619 -0.3967  1.6979
 2399TIP3    H2 7143   4.342   3.667   5.537 -0.6750 -0.8198  1.0747
 2400TIP3   OH2 7144   4.102   2.489   3.465  0.1568 -0.1467  0.3661
 2400TIP3    H1 7145   4.049   2.517   3.540  0.3867 -0.7108  0.7418
 2400TIP3    H2 7146   4.149   2.568   3.439 -1.1501  0.4769 -0.2220
 2401TIP3   OH2 7147   7.243   0.235   2.099  0.2554 -0.2847  0.8764
 2401TIP3    H1 7148   7.270   0.324   2.119  1.0992 -0.4929  0.7320
 2401TIP3    H2 7149   7.167   0.245   2.041  0.8369  0.3594  0.1974
 2402TIP3   OH2 7150   1.548   0.297   6.488 -0.3665  0.1086  0.1120
 2402TIP3    H1 7151   1.591   0.223   6.531  2.4687  0.5994 -1.6408
 2402TIP3    H2 7152   1.559   0.370   6.549 -0.6293 -0.2497  0.5956
 2403TIP3   OH2 7153   3.795   2.863   1.129  0.3966  0.0127 -0.6052
 2403TIP3    H1 7154   3.752   2.782   1.101  1.7145 -1.0442  0.3248
 2403TIP3    H2 7155   3.876   2.834   1.170 -0.1981  1.6233  1.9128
 2404TIP3   OH2 7156   5.442   7.119   0.347 -0.1377 -0.2959 -0.2171
 2404TIP3    H1 7157   5.391   7.187   0.303 -0.7140  0.0257  0.8923
 2404TIP3    H2 7158   5.477   7.065   0.277  1.9546  2.2330 -1.2691
 2405TIP3   OH2 7159   1.158   0.006   1.996  0.1123 -0.4009  0.2120
 2405TIP3    H1 7160   1.245   0.020   1.959  0.6464  0.5759  1.7704
 2405TIP3    H2 7161   1.099   0.023   1.923  1.1020  2.3332 -0.0594
 2406TIP3   OH2 7162   7.599   2.101   3.339  0.2636 -0.1929 -0.1054
 2406TIP3    H1 7163   7.561   2.020   3.304 -0.3428 -0.3923  0.9654
 2406TIP3    H2 7164   7.530   2.138   3.394  0.0762  1.7407 -1.5615
 2407TIP3   OH2 7165   5.460   4.113   4.504  0.4030  0.4757 -0.0771
 2407TIP3    H1 7166   5.483   4.195   4.546 -1.3979  0.3709  1.2373
 2407TIP3    H2 7167   5.386   4.136   4.446 -0.5823 -0.2990  0.8335
 2408TIP3   OH2 7168   3.939   5.745   6.604 -0.9025 -0.1178 -0.3133
 2408TIP3    H1 7169   3.941   5.783   6.516  1.6371 -1.2496 -0.8510
 2408TIP3    H2 7170   3.937   5.821   6.663 -0.6757  0.7308 -1.3668
 2409TIP3   OH2 7171   5.529   3.041   1.113  0.1806  0.4754 -0.5601
 2409TIP3    H1 7172   5.569   3.031   1.200  1.3661 -0.1193 -1.1537
 2409TIP3    H2 7173   5.599   3.076   1.058 -0.6951  1.2903 -1.1814
 2410TIP3   OH2 7174   6.555   3.389   0.215 -0.5127  0.3346 -0.0475
 2410TIP3    H1 7175   6.472   3.352   0.186 -0.5047 -1.1522  1.6135
 2410TIP3    H2 7176   6.594   3.320   0.270  1.8317  0.9853 -0.7840
 2411TIP3   OH2 7177   1.161   7.694   2.171 -0.2935 -0.1186  0.1239
 2411TIP3    H1 7178   1.147   7.769   2.230  0.1757  0.7865 -0.8670
 2411TIP3    H2 7179   1.253   7.669   2.187  0.3774  1.2133 -1.3657
 2412TIP3   OH2 7180   5.902   2.341   1.524  0.1123 -0.1676 -0.6736
 2412TIP3    H1 7181   5.895   2.436   1.516  0.9695  0.0676  0.9690
 2412TIP3    H2 7182   5.882   2.308   1.436 -0.2231  1.5138 -1.2655
 2413TIP3   OH2 7183   6.428   2.973   3.574 -0.1583  0.1193 -0.3138
 2413TIP3    H1 7184   6.421   3.052   3.520 -0.5271 -0.8642 -1.7755
 2413TIP3    H2 7185   6.523   2.961   3.584 -0.1021  1.1920  0.6431
 2414TIP3   OH2 7186   0.228   1.722   5.815  0.0074 -0.6704  0.1511
 2414TIP3    H1 7187   0.276   1.760   5.888 -0.8158 -1.2255  1.0105
 2414TIP3    H2 7188   0.223   1.628   5.835 -0.6825 -0.7527 -0.3470
 2415TIP3   OH2 7189   2.498   0.815   4.287 -0.5048  0.4130 -1.1487
 2415TIP3    H1 7190   2.431   0.781   4.345  1.5209 -0.3254  0.8753
 2415TIP3    H2 7191   2.575   0.828   4.342  1.4344  0.0671 -3.5634
 2416TIP3   OH2 7192   2.528   5.672   1.872 -0.1122  0.0074 -0.5099
 2416TIP3    H1 7193   2.444   5.696   1.912 -0.5877 -0.9274 -0.9138
 2416TIP3    H2 7194   2.520   5.578   1.854  0.8130  0.0225 -1.0506
 2417TIP3   OH2 7195   2.800   2.681   3.165  0.3917  0.1928 -0.3168
 2417TIP3    H1 7196   2.857   2.758   3.169  0.3078  0.3005 -1.0561
 2417TIP3    H2 7197   2.711   2.717   3.158  0.4838  0.0813 -2.7523
 2418TIP3   OH2 7198   4.259   3.488   2.415  0.4809  0.0922  0.2025
 2418TIP3    H1 7199   4.213   3.456   2.337 -2.0536  1.0660  1.1962
 2418TIP3    H2 7200   4.347   3.511   2.383  0.3319 -1.7745 -1.8123
 2419TIP3   OH2 7201   4.570   3.472   1.141  0.1719  0.5162 -0.1793
 2419TIP3    H1 7202   4.647   3.493   1.088 -0.7696  2.1551 -0.9778
 2419TIP3    H2 7203   4.559   3.548   1.198 -0.7858  0.2595 -0.0031
 2420TIP3   OH2 7204   6.884   3.809   1.708 -0.4220 -0.8985 -0.7416
 2420TIP3    H1 7205   6.810   3.783   1.653 -0.6785  0.7005 -1.1762
 2420TIP3    H2 7206   6.916   3.890   1.670  2.0183 -1.8742 -0.9804
 2421TIP3   OH2 7207   2.819   1.768   0.857 -0.3259 -0.2320  0.2541
 2421TIP3    H1 7208   2.744   1.810   0.900 -0.7776  1.6404 -2.1182
 2421TIP3    H2 7209   2.780   1.697   0.806 -0.4654  0.4690 -0.6388
 2422TIP3   OH2 7210   3.591   4.002   5.559 -0.2705  0.4365 -0.0679
 2422TIP3    H1 7211   3.591   4.048   5.475  0.1564  0.0051 -0.3048
 2422TIP3    H2 7212   3.566   3.912   5.538 -1.0269  0.5297  0.3858
 2423TIP3   OH2 7213   2.084   5.683   0.273 -0.0999  0.0263  0.3296
 2423TIP3    H1 7214   2.023   5.644   0.335 -0.3430 -0.3150 -0.1199
 2423TIP3    H2 7215   2.045   5.767   0.248 -0.7133 -0.4692 -0.4390
 2424TIP3   OH2 7216   1.477   5.858   1.305 -0.2354  0.1742  0.1835
 2424TIP3    H1 7217   1.483   5.950   1.329 -2.1406  0.0959  1.2217
 2424TIP3    H2 7218   1.566   5.833   1.280 -0.1730  2.9986 -3.0574
 2425TIP3   OH2 7219   6.095   4.706   0.259  0.0672  0.5527 -0.5581
 2425TIP3    H1 7220   6.051   4.773   0.312 -0.7543 -0.7729  0.5131
 2425TIP3    H2 7221   6.025   4.644   0.237  0.6925  0.3390 -2.0280
 2426TIP3   OH2 7222   7.716   5.464   3.975 -0.1166  0.2084 -0.6429
 2426TIP3    H1 7223   7.785   5.498   3.917 -1.3083  0.3222 -2.0433
 2426TIP3    H2 7224   7.761   5.398   4.028  1.4335  1.4175 -0.3531
 2427TIP3   OH2 7225   1.481   7.664   4.297 -0.3632 -0.1564  0.5970
 2427TIP3    H1 7226   1.496   7.573   4.270  2.1621  0.8400 -1.9497
 2427TIP3    H2 7227   1.566   7.693   4.328 -0.9949  1.4828  0.8515
 2428TIP3   OH2 7228   4.487   4.488   1.001 -0.1417  0.0935  0.0509
 2428TIP3    H1 7229   4.502   4.426   1.072  0.6111 -1.3040 -1.2777
 2428TIP3    H2 7230   4.394   4.510   1.007  0.0146  0.4256  1.7656
 2429TIP3   OH2 7231   7.721   4.496   1.657  0.0489  0.2782 -0.3604
 2429TIP3    H1 7232   7.713   4.469   1.749  0.3118 -1.4443 -0.8080
 2429TIP3    H2 7233   7.635   4.477   1.619  0.2384  0.0743 -0.6868
 2430TIP3   OH2 7234   5.359   4.485   0.541 -0.3531  0.9280 -0.5872
 2430TIP3    H1 7235   5.345   4.552   0.474  1.8706  2.0589 -0.0312
 2430TIP3    H2 7236   5.433   4.434   0.508 -0.3491  0.4053  0.2087
 2431TIP3   OH2 7237   4.415   2.582   3.461  0.1127  0.8757 -0.3019
 2431TIP3    H1 7238   4.484   2.576   3.394  0.5745  3.1767 -0.1221
 2431TIP3    H2 7239   4.415   2.674   3.486 -1.0669  0.3491  1.8372
 2432TIP3   OH2 7240   3.529   2.434   5.551  0.1619  0.2639 -0.6562
 2432TIP3    H1 7241   3.582   2.461   5.626  0.6865 -0.8675 -0.5950
 2432TIP3    H2 7242   3.592   2.430   5.478  0.0119 -0.3252 -0.7591
 2433TIP3   OH2 7243   1.736   5.260   5.101 -0.2370 -0.6984 -0.1755
 2433TIP3    H1 7244   1.786   5.233   5.024 -0.2872  2.7405 -1.5847
 2433TIP3    H2 7245   1.660   5.201   5.103 -0.0138 -1.1376 -2.5054
 2434TIP3   OH2 7246   6.253   3.450   4.488 -0.4444  0.3190 -0.6659
 2434TIP3    H1 7247   6.265   3.355   4.492 -0.8981  0.3159  1.0636
 2434TIP3    H2 7248   6.310   3.484   4.556  0.5385  1.4074 -1.9728
 2435TIP3   OH2 7249   8.245   2.636   4.183  0.4534  0.0638 -0.3141
 2435TIP3    H1 7250   8.217   2.711   4.130  0.5522  1.6138  1.7093
 2435TIP3    H2 7251   8.333   2.615   4.150  1.1200  1.9469  0.1740
 2436TIP3   OH2 7252   7.220   3.497   4.461 -0.2555  0.3451  0.1855
 2436TIP3    H1 7253   7.263   3.443   4.528 -2.1604 -0.8363  0.5677
 2436TIP3    H2 7254   7.236   3.587   4.489  1.8930 -0.0156  0.2861
 2437TIP3   OH2 7255   2.098   6.751   5.582 -0.0478  0.0759 -0.2328
 2437TIP3    H1 7256   2.107   6.844   5.601  0.0112  0.3861 -1.6210
 2437TIP3    H2 7257   2.157   6.737   5.507 -1.9072 -0.4992 -1.6647
 2438TIP3   OH2 7258   2.487   0.274   2.613 -0.0515 -0.0086  0.2230
 2438TIP3    H1 7259   2.544   0.347   2.637 -0.1705 -0.3607  1.6798
 2438TIP3    H2 7260   2.421   0.271   2.683 -0.5593 -0.9628 -0.2767
 2439TIP3   OH2 7261   5.349   2.816   1.114  0.3891  0.1661  0.1506
 2439TIP3    H1 7262   5.413   2.881   1.086  2.2929 -1.8226 -0.3621
 2439TIP3    H2 7263   5.398   2.734   1.121 -2.3688 -1.8940 -1.9392
 2440TIP3   OH2 7264  -0.004   2.921   0.480 -0.2870 -0.0576  0.3791
 2440TIP3    H1 7265   0.004   3.015   0.497  1.8197  0.1320 -1.2516
 2440TIP3    H2 7266   0.082   2.895   0.448 -1.2167 -2.2704 -0.5162
 2441TIP3   OH2 7267   1.707   0.516   5.624  0.5655 -0.6150  0.1329
 2441TIP3    H1 7268   1.698   0.611   5.614  2.1948 -0.5079 -0.6886
 2441TIP3    H2 7269   1.617   0.483   5.624  0.0066  0.7849 -1.3168
 2442TIP3   OH2 7270   0.245   7.277   3.936 -0.2097  0.1763  0.1362
 2442TIP3    H1 7271   0.287   7.280   4.021  1.4015 -1.9633 -0.4984
 2442TIP3    H2 7272   0.168   7.221   3.949 -0.1117  0.0637  0.2202
 2443TIP3   OH2 7273   4.710   3.509   5.663  0.4002  0.2394 -0.0582
 2443TIP3    H1 7274   4.631   3.457   5.648  0.0914  0.9541 -0.9402
 2443TIP3    H2 7275   4.695   3.551   5.748  0.3338 -0.5195  0.3147
 2444TIP3   OH2 7276   4.507   6.571   5.698 -0.0686 -0.2788 -0.3567
 2444TIP3    H1 7277   4.581   6.514   5.677 -1.0732 -1.7541 -0.0550
 2444TIP3    H2 7278   4.470   6.594   5.613  1.5635  1.7193 -0.6182
 2445TIP3   OH2 7279   2.505   6.158   0.559  0.2801  0.4123  0.1898
 2445TIP3    H1 7280   2.525   6.238   0.510 -1.6996  0.7029 -0.2160
 2445TIP3    H2 7281   2.495   6.091   0.491 -0.9114  0.4675  0.3005
 2446TIP3   OH2 7282   7.459   1.281   5.396 -0.4453  0.4663 -0.0256
 2446TIP3    H1 7283   7.506   1.345   5.343 -0.1260  0.2381 -0.0152
 2446TIP3    H2 7284   7.374   1.322   5.413  0.5693  1.8918  1.9103
 2447TIP3   OH2 7285   4.865   2.544   4.174  0.4697  0.2073  0.2591
 2447TIP3    H1 7286   4.891   2.620   4.122 -0.3325  0.7746  0.6739
 2447TIP3    H2 7287   4.948   2.506   4.203  0.8959  0.5151 -0.5166
 2448TIP3   OH2 7288   6.065   3.105   5.553 -0.2967  0.2118  0.4939
 2448TIP3    H1 7289   6.061   3.009   5.543 -2.2113  0.2816  0.2611
 2448TIP3    H2 7290   5.974   3.132   5.562  0.2579  1.9769  1.1361
 2449TIP3   OH2 7291   1.720   7.523   5.404 -0.1412 -0.2333 -0.0478
 2449TIP3    H1 7292   1.638   7.486   5.370 -0.6357 -0.1645  1.0284
 2449TIP3    H2 7293   1.750   7.460   5.469 -1.1756  1.3297  2.0635
 2450TIP3   OH2 7294   8.203   4.695   6.150  0.0287 -0.5660 -0.1365
 2450TIP3    H1 7295   8.285   4.741   6.166 -0.4260  0.0166  0.5577
 2450TIP3    H2 7296   8.192   4.639   6.227 -1.5540  1.3348  1.0770
 2451TIP3   OH2 7297   4.841   5.710   2.185  0.3825 -0.1589 -0.0516
 2451TIP3    H1 7298   4.773   5.655   2.225 -0.3163  0.5660 -0.2107
 2451TIP3    H2 7299   4.924   5.673   2.216 -0.1065 -0.5843  0.7695
 2452TIP3   OH2 7300   4.289   5.454   6.518  0.2784 -0.1928  0.0404
 2452TIP3    H1 7301   4.317   5.374   6.562  0.1123  0.5949  1.6571
 2452TIP3    H2 7302   4.321   5.445   6.428 -0.3551 -2.3748 -0.0250
 2453TIP3   OH2 7303   3.229   2.114   0.890  0.2835  0.4820 -0.2463
 2453TIP3    H1 7304   3.270   2.060   0.957 -1.1617 -0.8995 -0.4146
 2453TIP3    H2 7305   3.214   2.198   0.932  0.6680  0.0840  0.7143
 2454TIP3   OH2 7306   7.530   2.012   1.953 -0.2221  0.4020 -0.2161
 2454TIP3    H1 7307   7.566   1.957   1.883 -0.9601 -1.4235  0.7741
 2454TIP3    H2 7308   7.590   2.087   1.958  0.6440 -0.1450 -1.8277
 2455TIP3   OH2 7309   3.550   2.541   1.989  0.5330  0.3416 -0.2905
 2455TIP3    H1 7310   3.470   2.489   1.993  0.0294  1.1612  0.9168
 2455TIP3    H2 7311   3.621   2.476   1.992 -0.0576 -0.4122 -1.7444
 2456TIP3   OH2 7312   0.886   1.451   3.906  0.1092  0.2370  0.2219
 2456TIP3    H1 7313   0.859   1.368   3.867  0.7006 -0.9136  2.1562
 2456TIP3    H2 7314   0.809   1.482   3.953 -0.1758  0.9112 -0.6708
 2457TIP3   OH2 7315   8.243   3.965   2.401  0.2076 -0.2574  0.0885
 2457TIP3    H1 7316   8.245   3.906   2.476 -0.5587  0.0892  0.3852
 2457TIP3    H2 7317   8.328   4.009   2.402  0.5032 -0.8239  0.2839
 2458TIP3   OH2 7318   3.797   0.396   3.504  0.0631  0.3887 -0.2156
 2458TIP3    H1 7319   3.863   0.327   3.511  0.7464  0.7709 -2.1532
 2458TIP3    H2 7320   3.715   0.354   3.529  0.4521 -1.2025 -1.4276
 2459TIP3   OH2 7321   3.827   1.807   1.240 -0.4878 -0.3556  0.1222
 2459TIP3    H1 7322   3.778   1.880   1.278  0.4070 -0.2017  1.0054
 2459TIP3    H2 7323   3.759   1.749   1.205 -1.2221  0.6958 -0.2400
 2460TIP3   OH2 7324   0.955   5.066   1.674 -0.1464 -0.4614  0.5958
 2460TIP3    H1 7325   0.961   4.978   1.712  0.5907 -0.8070 -0.2688
 2460TIP3    H2 7326   0.863   5.077   1.651 -0.5794 -0.3045  2.2980
 2461TIP3   OH2 7327   5.729   2.732   6.411  0.0878  0.6805 -0.4000
 2461TIP3    H1 7328   5.757   2.761   6.498  0.5077 -4.1185  1.3457
 2461TIP3    H2 7329   5.633   2.724   6.419 -0.0807  1.9217 -1.0265
 2462TIP3   OH2 7330   5.397   6.604   1.239  0.1440 -0.0371 -0.0928
 2462TIP3    H1 7331   5.411   6.560   1.156 -0.1056 -0.4016  0.0570
 2462TIP3    H2 7332   5.440   6.689   1.229  0.2391 -0.1380 -0.5402
 2463TIP3   OH2 7333   6.927   3.148   3.794  0.0073 -0.2590 -0.0345
 2463TIP3    H1 7334   6.875   3.183   3.723  0.5465  0.5467 -0.0458
 2463TIP3    H2 7335   7.007   3.116   3.752 -0.0895 -0.6807  0.0926
 2464TIP3   OH2 7336   2.500   0.570   0.252 -0.3561 -0.0392  0.0254
 2464TIP3    H1 7337   2.432   0.631   0.279  2.6210  2.8264  1.9075
 2464TIP3    H2 7338   2.568   0.625   0.214  2.9365 -1.8764  2.6397
 2465TIP3   OH2 7339   1.742   4.473   1.585  0.6544  0.5369  0.6549
 2465TIP3    H1 7340   1.804   4.456   1.656  0.1914  1.6698  1.3622
 2465TIP3    H2 7341   1.744   4.568   1.575  0.3021  0.4308 -0.4851
 2466TIP3   OH2 7342   0.344   0.888   1.379  0.4859  0.3101 -0.1416
 2466TIP3    H1 7343   0.439   0.875   1.384  0.4968  0.8261  1.4187
 2466TIP3    H2 7344   0.309   0.801   1.358  1.2920  0.1484 -0.9166
 2467TIP3   OH2 7345   7.818   4.037   3.749 -0.2038 -0.6119 -0.3659
 2467TIP3    H1 7346   7.726   4.024   3.772 -0.2617 -0.2981 -0.4286
 2467TIP3    H2 7347   7.820   4.121   3.703  0.1864 -0.3846  0.0607
 2468TIP3   OH2 7348   5.118   4.579   2.089 -0.2469  0.1493 -0.3806
 2468TIP3    H1 7349   5.043   4.601   2.145 -1.8003  0.3427 -2.3971
 2468TIP3    H2 7350   5.166   4.661   2.080  0.9257 -0.2330  1.8494
 2469TIP3   OH2 7351   8.015   5.203   1.100  0.1276 -0.6563  0.2206
 2469TIP3    H1 7352   7.935   5.256   1.100  1.5906  1.7126 -0.1486
 2469TIP3    H2 7353   8.009   5.148   1.178 -1.8613 -0.5846  0.1516
 2470TIP3   OH2 7354   2.572   6.135   3.614  0.1324 -0.8732 -0.3558
 2470TIP3    H1 7355   2.626   6.206   3.649 -2.0365  1.0799 -0.6357
 2470TIP3    H2 7356   2.628   6.058   3.617  1.8366  0.3094  2.2797
 2471TIP3   OH2 7357   4.471   5.083   5.724 -0.1517 -0.4404  0.1541
 2471TIP3    H1 7358   4.550   5.099   5.777  0.0012  0.4130 -0.3105
 2471TIP3    H2 7359   4.469   4.988   5.712  0.1944 -0.5763  1.1022
 2472TIP3   OH2 7360   1.504   0.711   5.943  0.0642  0.0063 -0.3498
 2472TIP3    H1 7361   1.532   0.656   6.016  1.9750 -0.5038 -1.4165
 2472TIP3    H2 7362   1.409   0.701   5.940  0.2403 -2.3067  0.2178
 2473TIP3   OH2 7363   3.012   7.440   0.129  0.1789 -0.2014  0.0144
 2473TIP3    H1 7364   3.016   7.535   0.122  0.2696 -0.3092 -1.9195
 2473TIP3    H2 7365   2.925   7.423   0.165  0.4764  0.6238  1.1735
 2474TIP3   OH2 7366   4.984   2.732   0.551  0.1979  0.1287  0.2183
 2474TIP3    H1 7367   5.064   2.759   0.507  0.9803 -0.4167  1.2544
 2474TIP3    H2 7368   4.916   2.789   0.515  0.6597 -0.6835 -2.0950
 2475TIP3   OH2 7369   5.047   0.502   6.503  0.3194 -0.3874 -0.6869
 2475TIP3    H1 7370   5.107   0.502   6.577  0.5829 -2.4768 -0.8185
 2475TIP3    H2 7371   5.103   0.484   6.427  0.4610  4.0301 -1.9196
 2476TIP3   OH2 7372   7.249   7.775   0.747 -1.0013 -0.0951  0.2686
 2476TIP3    H1 7373   7.203   7.858   0.738  0.4959  0.7945  0.5854
 2476TIP3    H2 7374   7.337   7.792   0.713 -0.0680 -1.0012  2.0871
 2477TIP3   OH2 7375   3.311   7.434   6.582 -0.3242  0.0321  0.5391
 2477TIP3    H1 7376   3.324   7.529   6.592 -2.8940  0.5231 -0.0472
 2477TIP3    H2 7377   3.216   7.423   6.587 -0.0427 -2.6177  1.1831
 2478TIP3   OH2 7378   1.058   2.176   0.427 -0.3395 -0.0813  0.0097
 2478TIP3    H1 7379   1.025   2.232   0.497  1.0118 -1.2440  1.6361
 2478TIP3    H2 7380   1.051   2.087   0.461  1.8325 -0.5742 -0.6620
 2479TIP3   OH2 7381   0.731   0.579   1.826  0.1582  0.2111  0.1293
 2479TIP3    H1 7382   0.798   0.570   1.893  0.6702  0.7338 -0.3034
 2479TIP3    H2 7383   0.748   0.507   1.765  0.1086  0.1384  0.2004
 2480TIP3   OH2 7384   3.512   4.674   3.043  0.2912  0.0214  0.4740
 2480TIP3    H1 7385   3.498   4.613   2.970  0.1785  0.0966  0.4318
 2480TIP3    H2 7386   3.463   4.635   3.115  2.2875 -1.2764  1.1898
 2481TIP3   OH2 7387   0.034   4.541   2.276 -0.0463 -0.5496 -0.0953
 2481TIP3    H1 7388  -0.054   4.547   2.313 -0.7427  1.4778 -1.8900
 2481TIP3    H2 7389   0.092   4.570   2.347 -0.9800 -0.2053  0.5431
 2482TIP3   OH2 7390   1.458   2.249   3.819  0.7310 -0.0069  0.4463
 2482TIP3    H1 7391   1.448   2.339   3.848 -0.4015  0.9324 -2.4855
 2482TIP3    H2 7392   1.381   2.203   3.853 -0.2178  0.8835 -0.4496
 2483TIP3   OH2 7393   3.751   4.367   4.689  0.0049 -0.2643 -0.0859
 2483TIP3    H1 7394   3.780   4.442   4.637  0.7596  0.7227  1.6538
 2483TIP3    H2 7395   3.700   4.314   4.628 -0.6458  1.7043 -1.3606
 2484TIP3   OH2 7396   6.117   3.004   0.223  0.3679  0.0550  0.0047
 2484TIP3    H1 7397   6.204   3.045   0.218  1.3974 -2.0889 -0.8718
 2484TIP3    H2 7398   6.112   2.971   0.312  0.8661 -0.5954 -0.1954
 2485TIP3   OH2 7399   8.159   7.782   4.493 -0.1234  0.2954  0.1631
 2485TIP3    H1 7400   8.138   7.697   4.454 -2.2069  0.5782  0.5354
 2485TIP3    H2 7401   8.074   7.824   4.506  0.8650  2.5846 -0.2907
 2486TIP3   OH2 7402   3.397   3.336   0.682  0.4947 -0.3926  0.2877
 2486TIP3    H1 7403   3.369   3.259   0.732 -0.1063  0.3627  1.1531
 2486TIP3    H2 7404   3.322   3.395   0.685  1.0274  0.3243 -0.1661
 2487TIP3   OH2 7405   3.249   5.353   5.178  0.0953 -0.0442  0.2221
 2487TIP3    H1 7406   3.274   5.264   5.205 -0.4068 -0.8206 -1.6965
 2487TIP3    H2 7407   3.188   5.382   5.246 -0.0759 -1.3439  0.6586
 2488TIP3   OH2 7408   8.093   4.826   5.457  0.0133 -0.2637 -0.0561
 2488TIP3    H1 7409   8.037   4.881   5.511 -0.3678  0.0341 -0.7368
 2488TIP3    H2 7410   8.167   4.803   5.513  0.6052  1.6203 -0.0128
 2489TIP3   OH2 7411   3.571   6.555   1.228  0.3687  0.1898 -0.4550
 2489TIP3    H1 7412   3.481   6.561   1.196  0.3813  1.2098 -0.3271
 2489TIP3    H2 7413   3.593   6.643   1.256  1.8882  0.2778 -1.7601
 2490TIP3   OH2 7414   5.993   5.091   0.972 -0.4526 -0.1393 -0.9020
 2490TIP3    H1 7415   6.046   5.153   0.921  0.8418 -0.1018  0.4152
 2490TIP3    H2 7416   6.024   5.005   0.944  0.3683 -0.1173 -0.1183
 2491TIP3   OH2 7417   1.383   2.398   4.882  0.5331  0.6741 -0.1925
 2491TIP3    H1 7418   1.392   2.403   4.786  1.8611 -3.3274 -0.4419
 2491TIP3    H2 7419   1.302   2.447   4.900  0.0929  1.3820 -3.3663
 2492TIP3   OH2 7420   8.073   0.190   0.607  0.7639 -0.5930  0.3068
 2492TIP3    H1 7421   8.139   0.157   0.546 -1.6747 -0.4693 -2.6547
 2492TIP3    H2 7422   8.114   0.267   0.648  2.5813 -0.7366 -1.1123
 2493TIP3   OH2 7423   7.891   3.853   5.184  0.2915  0.0092 -0.5151
 2493TIP3    H1 7424   7.818   3.899   5.142 -0.4398  0.8346  1.5234
 2493TIP3    H2 7425   7.850   3.780   5.231  0.7665  0.4154  0.5655
 2494TIP3   OH2 7426   5.951   7.424   4.035 -0.4644 -0.6825 -0.1287
 2494TIP3    H1 7427   6.007   7.350   4.013 -0.6369 -0.5519 -1.0600
 2494TIP3    H2 7428   5.864   7.398   4.002 -0.6658 -0.3333  0.1229
 2495TIP3   OH2 7429   0.204   6.729   0.758 -0.1824  0.1550 -0.3000
 2495TIP3    H1 7430   0.278   6.706   0.814  0.1300  0.5637 -0.5403
 2495TIP3    H2 7431   0.135   6.669   0.784 -0.0256  0.3056  0.4901
 2496TIP3   OH2 7432   2.003   5.914   6.212  0.3490  0.4495  0.5713
 2496TIP3    H1 7433   1.963   5.829   6.231  0.9604 -0.2623 -1.1498
 2496TIP3    H2 7434   2.061   5.897   6.138  0.5684  2.3609  0.2643
 2497TIP3   OH2 7435   6.840   0.923   2.274 -0.1179  0.2207  0.1655
 2497TIP3    H1 7436   6.858   0.830   2.287  2.1413  0.5074 -0.4406
 2497TIP3    H2 7437   6.778   0.925   2.201 -0.2487 -0.8140  0.2341
 2498TIP3   OH2 7438   2.129   2.224   5.564  0.0533  0.4435 -0.0067
 2498TIP3    H1 7439   2.138   2.129   5.562  1.7471  0.5233  1.3411
 2498TIP3    H2 7440   2.053   2.240   5.619 -0.6919 -0.1203 -0.8421
 2499TIP3   OH2 7441   7.787   4.734   0.691  0.5845  0.3325 -0.0599
 2499TIP3    H1 7442   7.734   4.731   0.771  1.0539 -0.6569  0.2361
 2499TIP3    H2 7443   7.723   4.750   0.621 -0.3368 -2.0133  0.1500
 2500TIP3   OH2 7444   5.585   1.020   6.548 -0.4488  0.1198 -0.2678
 2500TIP3    H1 7445   5.590   1.111   6.521 -2.0543  0.5354  0.7283
 2500TIP3    H2 7446   5.557   0.973   6.469 -1.8786  0.8413 -0.2212
 2501TIP3   OH2 7447   3.332   4.241   6.349 -0.0279 -0.0316  0.0023
 2501TIP3    H1 7448   3.261   4.290   6.307 -0.2226 -1.1157 -0.9538
 2501TIP3    H2 7449   3.372   4.305   6.409 -2.0547  0.4853  0.8717
 2502TIP3   OH2 7450   7.673   7.585   1.227 -0.3637 -0.2524  0.3328
 2502TIP3    H1 7451   7.645   7.675   1.246  0.2439  0.0618 -0.2069
 2502TIP3    H2 7452   7.760   7.595   1.188 -0.7728 -0.9957 -0.8185
 2503TIP3   OH2 7453   6.474   6.795   5.129 -0.1775 -0.2552 -0.0977
 2503TIP3    H1 7454   6.476   6.713   5.080 -0.5767  0.4586 -1.3494
 2503TIP3    H2 7455   6.418   6.853   5.077 -0.0874  0.7422  0.8781
 2504TIP3   OH2 7456   5.037   0.462   4.871 -0.0383  0.1217  0.5545
 2504TIP3    H1 7457   4.970   0.496   4.931  1.0323  1.0706  1.2526
 2504TIP3    H2 7458   4.987   0.420   4.801 -1.5818  3.9923 -0.9464
 2505TIP3   OH2 7459   2.189   1.269   3.404 -0.0295  0.5065 -0.8128
 2505TIP3    H1 7460   2.191   1.212   3.327 -0.7240  0.7205 -0.9869
 2505TIP3    H2 7461   2.264   1.239   3.456  0.1768  0.0577 -1.3481
 2506TIP3   OH2 7462   6.499   4.868   1.117  0.2451  0.4143  0.3966
 2506TIP3    H1 7463   6.409   4.884   1.091 -0.1363  1.4365  2.1599
 2506TIP3    H2 7464   6.493   4.806   1.190  1.1302 -0.9187 -0.6048
 2507TIP3   OH2 7465   4.187   2.385   2.824 -0.0940  0.3420 -0.0150
 2507TIP3    H1 7466   4.092   2.391   2.835  0.0573  0.3620  1.6052
 2507TIP3    H2 7467   4.218   2.342   2.904  1.0662 -1.7500 -1.4736
 2508TIP3   OH2 7468   6.776   2.940   0.233  0.5337  0.1781  0.0502
 2508TIP3    H1 7469   6.795   2.961   0.325 -0.2037  0.0695  0.2315
 2508TIP3    H2 7470   6.766   2.845   0.231 -1.8820  0.3612  0.3546
 2509TIP3   OH2 7471   3.326   2.773   4.560 -0.1062 -0.2634 -0.0584
 2509TIP3    H1 7472   3.310   2.867   4.572  1.3924  0.1604 -1.1081
 2509TIP3    H2 7473   3.238   2.734   4.559 -0.7415  1.0806  0.6312
 2510TIP3   OH2 7474   3.858   3.167   5.930 -0.2816 -0.3601  0.1117
 2510TIP3    H1 7475   3.800   3.115   5.985 -0.4502  0.4451  0.7251
 2510TIP3    H2 7476   3.926   3.199   5.990 -0.3598  0.3737 -0.1745
 2511TIP3   OH2 7477   7.207   0.189   3.086 -0.3715 -0.5756 -0.2963
 2511TIP3    H1 7478   7.165   0.106   3.109 -0.7048 -1.0475 -2.4290
 2511TIP3    H2 7479   7.138   0.254   3.097 -0.1790 -0.5866  1.1486
 2512TIP3   OH2 7480   2.028   2.766   2.720 -0.3135  0.5352  0.2133
 2512TIP3    H1 7481   2.027   2.757   2.815  2.8963  0.3187  0.3171
 2512TIP3    H2 7482   1.954   2.713   2.690 -1.6378  0.9301  2.5607
 2513TIP3   OH2 7483   4.014   2.100   4.616  0.1538  0.2259 -0.2862
 2513TIP3    H1 7484   3.984   2.011   4.597  0.8307  0.2992 -1.8334
 2513TIP3    H2 7485   4.088   2.113   4.558  0.4737  1.5824  0.3951
 2514TIP3   OH2 7486   6.024   3.560   5.964  0.1444 -0.0792 -0.0226
 2514TIP3    H1 7487   6.112   3.524   5.967  0.1193 -0.1200  0.2217
 2514TIP3    H2 7488   5.970   3.496   6.011 -0.3034 -0.8650 -1.5285
 2515TIP3   OH2 7489   0.640   3.724   0.110  0.4962  0.1429 -0.3239
 2515TIP3    H1 7490   0.647   3.796   0.047  1.3450  1.8999  1.6740
 2515TIP3    H2 7491   0.589   3.761   0.182 -1.2485 -2.1006 -0.2857
 2516TIP3   OH2 7492   2.343   4.124   4.123  0.8578  0.1909 -0.2261
 2516TIP3    H1 7493   2.427   4.092   4.155  0.8001  1.6490  1.5610
 2516TIP3    H2 7494   2.279   4.090   4.185  0.2949  0.1878 -0.8043
 2517TIP3   OH2 7495   2.066   4.660   3.161  0.2451  0.0153  0.2243
 2517TIP3    H1 7496   2.049   4.598   3.232 -0.9455  0.3005  0.2180
 2517TIP3    H2 7497   1.992   4.721   3.165 -0.5794 -0.7195 -2.0987
 2518TIP3   OH2 7498   2.321   7.723   0.659  0.0730  0.1152 -0.3531
 2518TIP3    H1 7499   2.236   7.725   0.702  0.4017  2.9287  0.3334
 2518TIP3    H2 7500   2.310   7.660   0.587 -2.7013  0.6873 -0.5302
 2519TIP3   OH2 7501   6.343   6.523   1.252  0.0246  0.3572 -0.1039
 2519TIP3    H1 7502   6.259   6.570   1.253 -0.1307  0.0998 -0.6307
 2519TIP3    H2 7503   6.343   6.472   1.333  0.2284  1.3075  0.5153
 2520TIP3   OH2 7504   0.515   4.508   0.889  0.5075 -0.0982  0.0851
 2520TIP3    H1 7505   0.424   4.520   0.860  0.8901  0.0142 -1.1131
 2520TIP3    H2 7506   0.513   4.530   0.982 -1.2896 -2.8584  0.8411
 2521TIP3   OH2 7507   4.891   4.400   1.210  0.1068 -0.2214 -0.0993
 2521TIP3    H1 7508   4.796   4.394   1.222 -0.5738  1.3805 -3.2575
 2521TIP3    H2 7509   4.913   4.487   1.243 -0.4959  1.2851 -3.2665
 2522TIP3   OH2 7510   3.646   4.163   6.311 -0.3022 -0.0653 -0.3110
 2522TIP3    H1 7511   3.574   4.214   6.274 -2.0173 -0.9310  1.6302
 2522TIP3    H2 7512   3.648   4.083   6.259 -1.4320 -0.4540  0.2089
 2523TIP3   OH2 7513   4.874   0.665   3.448  0.2462 -0.0016  0.0805
 2523TIP3    H1 7514   4.849   0.644   3.537 -1.9340 -0.7623 -0.6299
 2523TIP3    H2 7515   4.810   0.732   3.421  0.3719 -0.3505 -1.1485
 2524TIP3   OH2 7516   7.005   4.823   3.839 -0.5857 -0.2372 -0.4043
 2524TIP3    H1 7517   7.034   4.866   3.920 -0.5484  0.6826 -0.9012
 2524TIP3    H2 7518   6.925   4.869   3.814 -1.3077 -1.3445 -0.2303
 2525TIP3   OH2 7519   1.132   4.822   5.432 -0.1131  0.8698  0.0024
 2525TIP3    H1 7520   1.121   4.917   5.428 -0.0355  0.8913  0.3627
 2525TIP3    H2 7521   1.224   4.809   5.454  0.2445  0.6935 -1.4799
 2526TIP3   OH2 7522   0.559   3.724   4.272  0.0134 -0.2580  0.4781
 2526TIP3    H1 7523   0.503   3.801   4.283  2.1545  1.5231 -0.4591
 2526TIP3    H2 7524   0.591   3.704   4.360  0.1631  0.4861  0.5955
 2527TIP3   OH2 7525   4.991   7.691   0.600 -0.1831  0.0287 -0.0173
 2527TIP3    H1 7526   4.927   7.737   0.546  1.6369  0.5150 -1.8883
 2527TIP3    H2 7527   4.978   7.598   0.578 -1.1081 -0.0114  0.6407
 2528TIP3   OH2 7528   6.262   1.527   6.370 -0.4319 -0.5928  0.8190
 2528TIP3    H1 7529   6.181   1.502   6.324  0.6412  0.7140 -1.9907
 2528TIP3    H2 7530   6.331   1.517   6.304  1.4720 -0.0117  2.6275
 2529TIP3   OH2 7531   0.446   1.500   2.019 -0.1438  0.0162 -0.2618
 2529TIP3    H1 7532   0.379   1.461   2.075  1.1642 -0.9483  0.6663
 2529TIP3    H2 7533   0.512   1.534   2.079  2.1830 -2.5831 -1.1065
 2530TIP3   OH2 7534   3.630   3.076   6.077  0.0935  0.7849 -0.4319
 2530TIP3    H1 7535   3.556   3.071   6.138  0.3803 -0.3066 -0.1400
 2530TIP3    H2 7536   3.635   2.988   6.039  2.3831  0.2160  0.9602
 2531TIP3   OH2 7537   2.870   5.795   5.582 -0.1439  0.7010 -0.4693
 2531TIP3    H1 7538   2.905   5.818   5.496 -0.3046  1.3790 -0.3618
 2531TIP3    H2 7539   2.776   5.781   5.566  0.1110 -0.9996 -0.7359
 2532TIP3   OH2 7540   1.733   5.071   3.117 -0.1041  0.0613  0.0698
 2532TIP3    H1 7541   1.742   5.145   3.056  1.0423 -0.7005 -0.7328
 2532TIP3    H2 7542   1.744   5.110   3.204  0.3505  0.8503 -0.3267
 2533TIP3   OH2 7543   7.748   7.165   2.512  0.3806 -0.3715 -0.0594
 2533TIP3    H1 7544   7.804   7.188   2.438  1.5964  1.2255  1.2888
 2533TIP3    H2 7545   7.672   7.122   2.472  1.8513 -1.2573 -2.0586
 2534TIP3   OH2 7546   6.493   5.814   0.299  0.1178 -0.2531 -0.7368
 2534TIP3    H1 7547   6.423   5.877   0.284  0.2295  0.1759  0.4261
 2534TIP3    H2 7548   6.545   5.816   0.220 -0.3250  0.5447 -1.0111
 2535TIP3   OH2 7549   3.254   1.539   4.994  0.3537 -0.2556  0.1604
 2535TIP3    H1 7550   3.273   1.458   4.945  3.0413  1.7557 -2.5012
 2535TIP3    H2 7551   3.236   1.509   5.083  1.9720 -3.7411 -0.5018
 2536TIP3   OH2 7552   1.994   5.472   0.989  0.0438  0.2260  0.6465
 2536TIP3    H1 7553   2.064   5.474   0.924  2.6066 -1.6737  3.0748
 2536TIP3    H2 7554   1.949   5.389   0.973 -0.0982  0.3109  0.5996
 2537TIP3   OH2 7555   5.003   7.755   5.970 -0.3632 -0.8529  0.3601
 2537TIP3    H1 7556   4.908   7.761   5.983  0.0395  1.9013  3.6979
 2537TIP3    H2 7557   5.035   7.716   6.052  1.4878  0.3017  0.2339
 2538TIP3   OH2 7558   5.338   1.107   0.657  0.9009  0.2473 -0.1705
 2538TIP3    H1 7559   5.345   1.072   0.746 -2.0455 -1.0054 -0.3136
 2538TIP3    H2 7560   5.416   1.075   0.612  1.1815 -1.2387  1.3005
 2539TIP3   OH2 7561   3.153   0.925   2.518 -0.1290 -0.2689 -0.3417
 2539TIP3    H1 7562   3.108   1.008   2.528 -0.3112 -0.4619  0.6260
 2539TIP3    H2 7563   3.152   0.907   2.424 -0.2223  0.7363 -0.5412
 2540TIP3   OH2 7564   5.759   3.499   0.680 -0.4510  0.1566  0.2140
 2540TIP3    H1 7565   5.728   3.459   0.599 -0.8178 -0.5774  0.7131
 2540TIP3    H2 7566   5.841   3.453   0.700  1.0011  2.0349 -1.0591
 2541TIP3   OH2 7567   2.595   1.867   0.971 -0.1815  0.1950  0.0795
 2541TIP3    H1 7568   2.505   1.897   0.960 -0.1954 -0.3629 -1.6507
 2541TIP3    H2 7569   2.626   1.912   1.050 -2.0202  0.2375  0.8265
 2542TIP3   OH2 7570   4.143   1.611   3.799  0.1291 -0.2791 -0.0819
 2542TIP3    H1 7571   4.062   1.586   3.754 -0.7734  1.2508  0.6078
 2542TIP3    H2 7572   4.134   1.705   3.813  1.5398 -0.2771  0.9912
 2543TIP3   OH2 7573   7.678   3.544   2.977 -0.2091 -0.5390  0.0112
 2543TIP3    H1 7574   7.643   3.504   3.056 -0.0745  0.4475  0.5806
 2543TIP3    H2 7575   7.773   3.533   2.985 -0.2259 -0.9502 -0.3019
 2544TIP3   OH2 7576   4.429   4.863   1.178 -0.2762  0.1322 -0.1047
 2544TIP3    H1 7577   4.496   4.912   1.225 -0.1660 -0.5148  0.4208
 2544TIP3    H2 7578   4.402   4.794   1.239 -0.8169 -0.1298 -0.6285
 2545TIP3   OH2 7579   0.227   6.962   1.808 -0.3319 -0.3809 -0.4454
 2545TIP3    H1 7580   0.222   6.966   1.903  0.0609  1.3553 -0.4676
 2545TIP3    H2 7581   0.310   6.917   1.790  0.5945  1.0624  0.0713
 2546TIP3   OH2 7582   7.250   1.393   1.563  0.5024 -0.9658 -0.0741
 2546TIP3    H1 7583   7.162   1.415   1.533  1.4660  1.9959 -1.1291
 2546TIP3    H2 7584   7.237   1.337   1.640 -2.1999 -2.1764 -1.2961
 2547TIP3   OH2 7585   1.264   3.842   6.274  0.2166  0.4501  0.4753
 2547TIP3    H1 7586   1.180   3.868   6.313  0.3300  0.5853  0.6303
 2547TIP3    H2 7587   1.291   3.917   6.221 -0.3834 -0.0794 -0.6107
 2548TIP3   OH2 7588   0.053   5.969   4.551 -0.5409  0.3449 -0.5555
 2548TIP3    H1 7589   0.126   6.028   4.571 -0.5452  0.7476 -1.6768
 2548TIP3    H2 7590   0.049   5.910   4.627  0.0229  1.2262  0.1831
 2549TIP3   OH2 7591   5.576   3.612   2.724 -0.1145  0.0297 -0.0012
 2549TIP3    H1 7592   5.520   3.668   2.777 -0.5496  0.1744 -0.6131
 2549TIP3    H2 7593   5.551   3.631   2.634  1.6344  0.8787 -0.3518
 2550TIP3   OH2 7594   3.829   6.294   2.476  0.3992 -0.6493  0.3027
 2550TIP3    H1 7595   3.817   6.389   2.471 -0.5503 -0.8082 -1.0568
 2550TIP3    H2 7596   3.920   6.283   2.503  0.5590  0.6424  0.3766
 2551TIP3   OH2 7597   1.076   1.908   4.288  0.4230  0.6298  0.1340
 2551TIP3    H1 7598   0.991   1.893   4.329 -0.1657  0.8774 -0.9542
 2551TIP3    H2 7599   1.136   1.924   4.361 -0.6437  1.3522  0.8756
 2552TIP3   OH2 7600   1.364   3.440   2.122  0.0345  0.2068 -0.5632
 2552TIP3    H1 7601   1.419   3.445   2.044  3.6165  1.7973  1.8324
 2552TIP3    H2 7602   1.352   3.531   2.149 -0.3153 -0.3358  1.2290
 2553TIP3   OH2 7603   0.903   2.888   0.342 -0.3307 -0.3707  0.4793
 2553TIP3    H1 7604   0.940   2.808   0.380  0.2355 -0.5554 -0.4234
 2553TIP3    H2 7605   0.942   2.893   0.255  1.5073  2.1162  1.3234
 2554TIP3   OH2 7606   4.053   1.007   3.678  0.7467 -0.0688  0.2464
 2554TIP3    H1 7607   4.014   0.956   3.749  1.0014 -0.2105  0.2851
 2554TIP3    H2 7608   4.064   1.095   3.715  1.7958 -0.3846  0.7218
 2555TIP3   OH2 7609   5.011   7.703   5.022 -0.0478  0.0141 -0.6518
 2555TIP3    H1 7610   5.078   7.752   5.070  0.6181 -0.2601 -1.2977
 2555TIP3    H2 7611   5.045   7.614   5.016 -1.5323 -0.7587  1.0862
 2556TIP3   OH2 7612   2.207   4.275   4.443 -0.3880 -0.0880 -0.5370
 2556TIP3    H1 7613   2.245   4.361   4.464 -0.1708 -0.3186  0.0113
 2556TIP3    H2 7614   2.144   4.294   4.373 -0.4666  0.5457 -0.3006
 2557TIP3   OH2 7615   3.664   0.501   2.249 -0.0388 -0.5976 -0.2464
 2557TIP3    H1 7616   3.686   0.465   2.335  1.3765  0.5106 -0.0995
 2557TIP3    H2 7617   3.697   0.591   2.252  1.1374 -0.8935 -2.3302
 2558TIP3   OH2 7618   8.268   6.747   4.615 -0.0599 -0.6689  0.3369
 2558TIP3    H1 7619   8.357   6.725   4.588 -0.4064 -0.4202 -1.0473
 2558TIP3    H2 7620   8.213   6.679   4.577 -0.7273  0.5239 -0.8986
 2559TIP3   OH2 7621   3.581   7.083   5.464 -0.3996 -0.1624  0.4065
 2559TIP3    H1 7622   3.602   7.046   5.549  0.0696  0.1043  0.4110
 2559TIP3    H2 7623   3.658   7.135   5.441 -0.1641 -0.9281 -0.5732
 2560TIP3   OH2 7624   5.673   0.978   4.637 -0.7199 -0.6976  0.1379
 2560TIP3    H1 7625   5.621   0.928   4.575 -0.5898 -0.8964  0.1891
 2560TIP3    H2 7626   5.629   1.063   4.642 -0.1490 -0.3150 -1.0134
 2561TIP3   OH2 7627   1.958   0.246   6.587 -0.4502  0.1524 -0.6118
 2561TIP3    H1 7628   1.954   0.167   6.532  1.5654 -0.3084 -0.1705
 2561TIP3    H2 7629   1.928   0.216   6.673 -1.0345  0.2258 -0.7847
 2562TIP3   OH2 7630   4.517   4.148   0.861  0.3323 -0.1975  0.1485
 2562TIP3    H1 7631   4.467   4.090   0.804  0.4163 -1.2595  1.1239
 2562TIP3    H2 7632   4.452   4.181   0.924  0.5589 -0.3900  0.4880
 2563TIP3   OH2 7633   2.271   7.760   6.590 -0.1503 -0.0610  0.1893
 2563TIP3    H1 7634   2.204   7.805   6.641  0.4689 -1.0829  1.9830
 2563TIP3    H2 7635   2.334   7.729   6.655  2.6856  1.7926 -1.4538
 2564TIP3   OH2 7636   2.825   2.172   3.220 -0.0917 -0.3595 -0.2238
 2564TIP3    H1 7637   2.739   2.198   3.187 -1.0971 -1.1596  1.6064
 2564TIP3    H2 7638   2.853   2.245   3.275  0.5510  0.0085 -1.0117
 2565TIP3   OH2 7639   0.994   1.737   5.751 -0.2388 -0.6413  0.7792
 2565TIP3    H1 7640   0.982   1.830   5.735  1.7981 -0.4356  0.1604
 2565TIP3    H2 7641   1.076   1.731   5.801  1.1627 -2.2255 -1.5335
 2566TIP3   OH2 7642   6.439   4.025   5.110 -0.0483 -0.8598 -0.4708
 2566TIP3    H1 7643   6.417   4.032   5.017 -0.5916 -0.6273 -0.3336
 2566TIP3    H2 7644   6.378   4.085   5.153  0.5784 -0.5373 -0.0159
 2567TIP3   OH2 7645   7.145   3.978   0.682  0.2137 -0.1218  0.3104
 2567TIP3    H1 7646   7.135   4.056   0.628 -0.0564  0.1120  0.6937
 2567TIP3    H2 7647   7.226   3.937   0.651  0.8280  0.7864  0.6962
 2568TIP3   OH2 7648   1.918   0.322   0.054  0.1756 -0.0220 -0.9227
 2568TIP3    H1 7649   1.996   0.358   0.097 -1.4596  0.8239  1.4895
 2568TIP3    H2 7650   1.901   0.382  -0.019  0.5130  1.0754 -0.1189
 2569TIP3   OH2 7651   0.320   0.457   0.165 -0.2224 -0.3527  0.2303
 2569TIP3    H1 7652   0.241   0.505   0.190 -1.1482  1.1341 -4.4719
 2569TIP3    H2 7653   0.290   0.392   0.102  2.1514 -0.0425 -1.3748
 2570TIP3   OH2 7654   5.242   7.693   1.851  0.5580  0.5896 -0.1399
 2570TIP3    H1 7655   5.201   7.627   1.907  0.9334 -0.5664 -1.1611
 2570TIP3    H2 7656   5.178   7.763   1.846 -0.5183 -0.3610 -0.2040
 2571TIP3   OH2 7657   5.191   6.514   1.862 -0.2316 -0.0666  0.0619
 2571TIP3    H1 7658   5.111   6.554   1.896  0.3095  1.1637 -0.0516
 2571TIP3    H2 7659   5.177   6.508   1.767 -1.3409 -2.5884  0.2950
 2572TIP3   OH2 7660   2.113   5.730   6.485  0.4171 -0.2144  0.4451
 2572TIP3    H1 7661   2.073   5.696   6.405 -0.2194  0.9472  0.2585
 2572TIP3    H2 7662   2.120   5.653   6.542  0.1929 -0.9085 -0.4347
 2573TIP3   OH2 7663   4.750   2.030   5.974  0.4153 -0.1786  0.2702
 2573TIP3    H1 7664   4.776   1.947   5.935  0.5722 -0.0178  0.0266
 2573TIP3    H2 7665   4.656   2.021   5.990 -0.2709  0.6778 -2.5991
 2574TIP3   OH2 7666   7.793   0.994   1.074  0.1493 -0.2479  0.0504
 2574TIP3    H1 7667   7.854   1.041   1.130  0.8332  1.0665 -1.6940
 2574TIP3    H2 7668   7.706   1.018   1.108  0.5411 -0.5806  1.3488
 2575TIP3   OH2 7669   6.132   7.551   2.380  0.0713 -0.1141  0.1907
 2575TIP3    H1 7670   6.097   7.636   2.355 -1.3766 -0.1156  2.0600
 2575TIP3    H2 7671   6.119   7.496   2.303 -1.3873  0.6677 -0.1477
 2576TIP3   OH2 7672   4.399   1.520   0.742 -0.1947 -0.1981 -0.1928
 2576TIP3    H1 7673   4.375   1.434   0.707 -0.7761 -1.0792  2.1821
 2576TIP3    H2 7674   4.391   1.510   0.837 -2.0497  3.0079  0.1115
 2577TIP3   OH2 7675   4.405   7.064   4.000  0.0790 -0.4260  0.8846
 2577TIP3    H1 7676   4.383   6.972   3.991  1.4587 -0.9958  2.7451
 2577TIP3    H2 7677   4.366   7.106   3.923 -0.4904 -2.5502 -0.0466
 2578TIP3   OH2 7678   7.203   1.352   5.521 -0.1765 -0.0054 -0.0110
 2578TIP3    H1 7679   7.144   1.368   5.595  1.5882 -1.4656  1.8520
 2578TIP3    H2 7680   7.249   1.271   5.545 -0.0527 -0.9703 -3.1126
 2579TIP3   OH2 7681   6.798   5.190   2.182  0.5782  0.1231  0.0450
 2579TIP3    H1 7682   6.799   5.231   2.269  0.2272  1.4479 -0.5454
 2579TIP3    H2 7683   6.723   5.230   2.138 -0.1589 -1.6501 -0.3757
 2580TIP3   OH2 7684   8.266   2.099   4.626  0.3494 -0.2605  0.0097
 2580TIP3    H1 7685   8.350   2.065   4.594  0.2218 -0.2686 -0.3181
 2580TIP3    H2 7686   8.200   2.050   4.578  0.1619  0.1452 -0.1562
 2581TIP3   OH2 7687   1.027   2.882   0.062  0.2562 -0.2101  0.2013
 2581TIP3    H1 7688   1.058   2.848  -0.022 -0.2314  2.0401 -0.9589
 2581TIP3    H2 7689   1.106   2.884   0.117  1.4489  1.6719 -1.4270
 2582TIP3   OH2 7690   6.786   0.280   4.666  0.2576 -0.2089  0.7089
 2582TIP3    H1 7691   6.768   0.201   4.616  1.7875 -0.5033  0.5782
 2582TIP3    H2 7692   6.699   0.314   4.690 -0.4309 -1.4887  0.1112
 2583TIP3   OH2 7693   2.522   3.231   6.110 -0.6381 -0.3857  0.1154
 2583TIP3    H1 7694   2.463   3.268   6.043 -2.1848 -2.5725  0.1731
 2583TIP3    H2 7695   2.593   3.192   6.060 -0.3209  0.4133 -0.0743
 2584TIP3   OH2 7696   7.355   6.907   3.846  0.2702 -0.2802 -0.6214
 2584TIP3    H1 7697   7.406   6.846   3.792 -0.3913 -0.7806 -0.6903
 2584TIP3    H2 7698   7.289   6.943   3.787 -1.4784 -2.0171  0.1716
 2585TIP3   OH2 7699   7.906   7.657   1.104  0.0191 -0.0088 -0.1071
 2585TIP3    H1 7700   7.906   7.660   1.008  2.4882  0.2388 -0.1638
 2585TIP3    H2 7701   7.925   7.747   1.130  1.7357 -0.5008  0.4887
 2586TIP3   OH2 7702   2.850   7.520   3.336 -0.2579  0.2929 -0.4539
 2586TIP3    H1 7703   2.869   7.493   3.246  0.3202 -0.0957 -0.2244
 2586TIP3    H2 7704   2.770   7.571   3.329 -0.0604  0.5137 -1.2292
 2587TIP3   OH2 7705   7.650   1.023   3.380 -0.1696 -0.1974 -0.0585
 2587TIP3    H1 7706   7.745   1.016   3.364 -0.5520  0.1113 -3.1142
 2587TIP3    H2 7707   7.637   1.114   3.407  0.3740 -0.1816  0.1664
 2588TIP3   OH2 7708   2.642   1.575   6.426 -0.2072  0.2552  0.0108
 2588TIP3    H1 7709   2.586   1.539   6.357 -0.5809  2.0752 -0.7086
 2588TIP3    H2 7710   2.623   1.522   6.503 -0.8017 -0.9611 -0.9330
 2589TIP3   OH2 7711   1.569   6.267   5.595  0.0075  0.3511 -0.4117
 2589TIP3    H1 7712   1.494   6.301   5.643 -0.3800  1.6332 -1.8326
 2589TIP3    H2 7713   1.533   6.244   5.509  1.0705  0.1443 -0.8138
 2590TIP3   OH2 7714   4.803   1.957   2.109  0.3749  0.4824  0.4974
 2590TIP3    H1 7715   4.843   1.898   2.045  1.9693 -0.0494  1.9365
 2590TIP3    H2 7716   4.751   2.017   2.055  1.4023 -0.1287 -1.2829
 2591TIP3   OH2 7717   5.888   2.279   2.365 -0.2271 -0.0626  0.3953
 2591TIP3    H1 7718   5.794   2.260   2.361  0.0836 -1.3873 -2.3292
 2591TIP3    H2 7719   5.916   2.242   2.449 -1.9703 -0.5340  0.8059
 2592TIP3   OH2 7720   4.694   6.382   6.305  0.2419  0.3197 -0.0624
 2592TIP3    H1 7721   4.688   6.287   6.301  0.8157  0.3109 -1.5176
 2592TIP3    H2 7722   4.610   6.413   6.271  0.7599  0.2979 -1.4285
 2593TIP3   OH2 7723   5.066   1.102   0.740 -0.3929 -0.2043 -0.4956
 2593TIP3    H1 7724   5.112   1.066   0.816 -0.8628 -0.7894 -0.4785
 2593TIP3    H2 7725   5.135   1.115   0.675 -0.1578 -0.8014 -0.3730
 2594TIP3   OH2 7726   6.452   0.918   0.152 -0.3144 -0.1576 -0.1873
 2594TIP3    H1 7727   6.544   0.898   0.138 -0.4616  0.0500 -1.6338
 2594TIP3    H2 7728   6.451   1.003   0.196  0.1827  0.4958 -1.3966
 2595TIP3   OH2 7729   0.326   2.795   3.026 -0.5766  0.0199  0.8921
 2595TIP3    H1 7730   0.269   2.811   2.951 -1.1015 -0.5584  1.1590
 2595TIP3    H2 7731   0.275   2.822   3.102 -0.1546  0.3325  1.0712
 2596TIP3   OH2 7732   6.701   4.388   1.655  0.0017  0.2218 -0.2197
 2596TIP3    H1 7733   6.634   4.454   1.673  0.5355  0.1518  2.4859
 2596TIP3    H2 7734   6.655   4.320   1.606 -1.3425  1.2091 -0.3735
 2597TIP3   OH2 7735   5.550   4.601   2.696 -0.1254 -0.1302  0.0066
 2597TIP3    H1 7736   5.595   4.525   2.660  1.8480  0.1543  1.7083
 2597TIP3    H2 7737   5.527   4.576   2.786  0.6705  1.2675  0.6405
 2598TIP3   OH2 7738   0.658   2.708   6.060 -0.1583 -0.1687  0.0528
 2598TIP3    H1 7739   0.709   2.782   6.026  0.4255 -0.6871 -0.2394
 2598TIP3    H2 7740   0.682   2.635   6.003 -0.9890 -0.5057  0.1231
 2599TIP3   OH2 7741   7.203   4.164   2.796 -0.2750  0.7448 -0.0147
 2599TIP3    H1 7742   7.115   4.129   2.808 -0.7376  2.0950  0.7270
 2599TIP3    H2 7743   7.238   4.116   2.721 -1.2886 -0.4554  0.2432
 2600TIP3   OH2 7744   2.782   3.174   0.679 -0.6060  0.3592 -0.2011
 2600TIP3    H1 7745   2.873   3.155   0.657 -0.3839  0.5295  0.5377
 2600TIP3    H2 7746   2.735   3.092   0.663 -0.6529  0.7420 -2.2504
 2601TIP3   OH2 7747   5.212   3.693   3.335  0.0103 -0.2969 -0.2736
 2601TIP3    H1 7748   5.181   3.686   3.426  0.3864 -3.3637 -0.2777
 2601TIP3    H2 7749   5.145   3.744   3.290 -1.2665 -0.5608  1.2656
 2602TIP3   OH2 7750   6.611   1.371   1.232  0.0983 -0.7891  0.0873
 2602TIP3    H1 7751   6.702   1.358   1.259  0.4022 -0.1872 -0.6320
 2602TIP3    H2 7752   6.615   1.439   1.165 -0.8247 -1.1764 -0.3696
 2603TIP3   OH2 7753   7.511   3.620   4.458 -0.2456 -0.2581 -0.3306
 2603TIP3    H1 7754   7.484   3.627   4.550 -0.0290  0.1322 -0.2935
 2603TIP3    H2 7755   7.524   3.710   4.430 -1.8330 -0.2705 -1.2140
 2604TIP3   OH2 7756   3.215   3.521   0.710 -0.2095  0.0930  0.3177
 2604TIP3    H1 7757   3.136   3.575   0.712 -0.3023  0.1470 -1.9308
 2604TIP3    H2 7758   3.286   3.582   0.688  0.3828 -0.0505  1.7422
 2605TIP3   OH2 7759   7.207   3.780   1.238 -0.3361  0.3308 -0.4031
 2605TIP3    H1 7760   7.270   3.716   1.273 -1.2292  0.4168  1.4461
 2605TIP3    H2 7761   7.236   3.795   1.148  0.2560 -2.2207 -0.7045
 2606TIP3   OH2 7762   1.520   7.157   3.376  0.2643 -0.1121 -0.2575
 2606TIP3    H1 7763   1.536   7.242   3.333  0.5405 -0.3063 -0.5445
 2606TIP3    H2 7764   1.542   7.172   3.468  2.0403 -0.3435 -0.6088
 2607TIP3   OH2 7765   3.745   6.048   0.958  0.3948 -0.6865  0.5047
 2607TIP3    H1 7766   3.793   6.087   1.031 -0.2999 -1.6754  1.5122
 2607TIP3    H2 7767   3.699   6.121   0.918  1.0942 -0.0662  0.7960
 2608TIP3   OH2 7768   7.775   2.089   6.146  0.1892 -0.2856  0.4046
 2608TIP3    H1 7769   7.778   2.059   6.237  1.1395 -2.2671 -0.2366
 2608TIP3    H2 7770   7.720   2.024   6.101 -0.8783  1.0698 -0.3364
 2609TIP3   OH2 7771   0.766   1.538   6.423 -0.2557 -0.0170  0.5208
 2609TIP3    H1 7772   0.730   1.608   6.368 -3.8719  0.4518  3.0757
 2609TIP3    H2 7773   0.810   1.584   6.495  1.1926 -0.5466  0.0152
 2610TIP3   OH2 7774   4.529   3.767   3.114 -0.0538 -0.1091 -0.7112
 2610TIP3    H1 7775   4.468   3.806   3.051  0.2316 -2.0037 -2.2805
 2610TIP3    H2 7776   4.475   3.743   3.189 -0.5906  1.3176 -0.6108
 2611TIP3   OH2 7777   0.871   1.521   5.622 -0.0264 -0.6899  0.4347
 2611TIP3    H1 7778   0.926   1.594   5.651 -1.3687  0.7675 -0.5558
 2611TIP3    H2 7779   0.934   1.452   5.602  1.4300  0.7261 -0.1385
 2612TIP3   OH2 7780   2.218   7.777   5.342 -0.0983  0.6043  0.7009
 2612TIP3    H1 7781   2.159   7.705   5.363  0.2511  0.0556 -0.1581
 2612TIP3    H2 7782   2.295   7.763   5.397  0.6987 -0.6707 -0.6879
 2613TIP3   OH2 7783   6.757   0.071   5.738 -0.1664 -0.8907  0.0322
 2613TIP3    H1 7784   6.690   0.049   5.803  0.3264 -0.6851  0.6177
 2613TIP3    H2 7785   6.814   0.134   5.782 -0.8992  0.7263 -1.2162
 2614TIP3   OH2 7786   3.453   1.810   5.201 -0.7418  0.6135  0.2693
 2614TIP3    H1 7787   3.416   1.897   5.211 -0.0169  0.7709  1.9979
 2614TIP3    H2 7788   3.380   1.751   5.216 -0.9872  0.9156  0.2625
 2615TIP3   OH2 7789   3.390   4.021   1.253 -0.2033 -0.3779 -0.0654
 2615TIP3    H1 7790   3.449   4.054   1.185 -1.6914  1.1671 -0.7043
 2615TIP3    H2 7791   3.410   3.928   1.260  2.4989  0.1504  0.0041
 2616TIP3   OH2 7792   4.592   5.150   2.235 -0.1949 -0.2424 -0.0328
 2616TIP3    H1 7793   4.656   5.093   2.192 -1.6283 -1.5418 -0.4943
 2616TIP3    H2 7794   4.554   5.201   2.163 -1.4578 -1.2860 -0.1386
 2617TIP3   OH2 7795   2.714   6.193   0.741 -0.5547  0.7377  0.0467
 2617TIP3    H1 7796   2.692   6.279   0.776 -2.4568  0.3514 -0.1364
 2617TIP3    H2 7797   2.637   6.165   0.693 -0.4935 -1.6348  1.1633
 2618TIP3   OH2 7798   0.419   4.074   3.750 -0.0691 -0.2035 -0.3608
 2618TIP3    H1 7799   0.459   4.050   3.833  1.4148 -0.8156 -1.2045
 2618TIP3    H2 7800   0.448   4.164   3.734 -1.1623  0.2725  0.2215
 2619TIP3   OH2 7801   1.652   0.372   0.949 -0.1083  0.1765  0.0327
 2619TIP3    H1 7802   1.745   0.370   0.972 -0.1216 -3.6436  0.2655
 2619TIP3    H2 7803   1.610   0.412   1.025  1.2717  2.4535 -0.2774
 2620TIP3   OH2 7804   4.572   4.375   6.015  0.1053  0.1230 -0.2534
 2620TIP3    H1 7805   4.641   4.440   6.031 -1.1867  1.3422  0.5993
 2620TIP3    H2 7806   4.573   4.361   5.921  0.1596  1.6967 -0.5035
 2621TIP3   OH2 7807   4.198   3.852   3.477 -0.1892 -0.1750 -0.5202
 2621TIP3    H1 7808   4.239   3.926   3.432  0.1153 -0.3625 -0.5461
 2621TIP3    H2 7809   4.172   3.888   3.562 -1.8766  0.5285 -1.2819
 2622TIP3   OH2 7810   7.913   7.216   2.304 -0.2649 -0.1560  0.0217
 2622TIP3    H1 7811   7.940   7.308   2.302  0.9638 -0.5017  0.0768
 2622TIP3    H2 7812   7.954   7.177   2.227 -2.2275 -0.2938 -1.0138
 2623TIP3   OH2 7813   1.035   3.404   2.572 -0.3491 -0.1805 -0.3026
 2623TIP3    H1 7814   1.121   3.442   2.556 -0.0244 -0.7427  0.0969
 2623TIP3    H2 7815   1.006   3.373   2.486  0.3254 -0.9775 -0.2509
 2624TIP3   OH2 7816   6.346   7.097   0.184  0.1733 -0.4030 -0.2921
 2624TIP3    H1 7817   6.356   7.132   0.095 -0.7873 -0.4025 -0.4106
 2624TIP3    H2 7818   6.283   7.025   0.174 -1.4308  0.7954  0.6695
 2625TIP3   OH2 7819   5.632   7.423   1.848  0.2102 -0.1788 -0.2158
 2625TIP3    H1 7820   5.562   7.472   1.806  0.7316  1.0663  0.3173
 2625TIP3    H2 7821   5.591   7.340   1.875 -0.8468  0.2105 -0.5935
 2626TIP3   OH2 7822   4.165   6.115   0.687  0.0358 -0.7289  0.1451
 2626TIP3    H1 7823   4.239   6.093   0.744  0.6491 -0.8960 -0.6883
 2626TIP3    H2 7824   4.088   6.102   0.741  0.5348 -2.0476  0.5774
 2627TIP3   OH2 7825   1.440   2.715   1.061 -0.3822 -0.6476 -0.2727
 2627TIP3    H1 7826   1.359   2.697   1.109 -1.5571  0.6063 -1.6856
 2627TIP3    H2 7827   1.440   2.652   0.989 -0.0690 -0.6731 -0.2514
 2628TIP3   OH2 7828   3.843   1.689   5.561  0.2664  0.4438  0.0214
 2628TIP3    H1 7829   3.781   1.717   5.493 -0.1194  1.6235  0.8231
 2628TIP3    H2 7830   3.803   1.611   5.599  0.2861  0.0116 -0.8364
 2629TIP3   OH2 7831   3.833   5.268   1.678 -0.0471  0.4543 -0.3407
 2629TIP3    H1 7832   3.782   5.239   1.602 -0.6750 -0.3256  0.3514
 2629TIP3    H2 7833   3.858   5.358   1.657 -2.7659  1.3303 -0.2305
 2630TIP3   OH2 7834   5.411   6.579   3.094  0.2430 -0.7552  0.5464
 2630TIP3    H1 7835   5.352   6.636   3.043  0.7233 -1.1915 -0.5326
 2630TIP3    H2 7836   5.356   6.541   3.161 -0.6564 -0.9551 -0.2888
 2631TIP3   OH2 7837   6.003   4.545  -0.006  0.4006 -0.5785  0.0426
 2631TIP3    H1 7838   6.000   4.484   0.068  2.2480 -0.7341  0.0500
 2631TIP3    H2 7839   6.064   4.613   0.021  0.2840 -0.0633 -0.9283
 2632TIP3   OH2 7840   0.233   0.496   6.267  0.1636  0.4919  0.0685
 2632TIP3    H1 7841   0.210   0.425   6.207 -0.4030  0.8443 -0.1351
 2632TIP3    H2 7842   0.213   0.576   6.218 -0.0257  0.7851  0.6183
 2633TIP3   OH2 7843   2.615   2.962   0.744 -0.1007  0.1161  0.3194
 2633TIP3    H1 7844   2.550   3.014   0.791  0.4421  0.0707  1.1268
 2633TIP3    H2 7845   2.632   2.887   0.801 -0.9197 -1.0166 -0.8506
 2634TIP3   OH2 7846   4.103   4.131   2.840  0.3821  0.5512  0.0032
 2634TIP3    H1 7847   4.044   4.205   2.830  0.2523  0.3497 -0.7305
 2634TIP3    H2 7848   4.054   4.056   2.806  0.8845  0.3024 -0.1893
 2635TIP3   OH2 7849   5.541   1.443   0.960  0.4209 -0.1328  0.3127
 2635TIP3    H1 7850   5.477   1.410   1.023 -1.5430 -0.8767 -1.8884
 2635TIP3    H2 7851   5.535   1.538   0.967 -0.1237 -0.2036  0.9083
 2636TIP3   OH2 7852   2.950   2.031   2.004  0.2196  0.7079  0.7274
 2636TIP3    H1 7853   2.882   2.040   2.071 -2.7455  1.7647 -2.1700
 2636TIP3    H2 7854   2.974   1.938   2.007 -2.0008  0.0922  1.3122
 2637TIP3   OH2 7855   2.097   5.048   6.297 -0.1712 -0.3856 -0.1305
 2637TIP3    H1 7856   2.071   5.135   6.266 -1.4399 -0.5178  0.5125
 2637TIP3    H2 7857   2.014   5.001   6.307  0.4751 -1.5188 -0.0134
 2638TIP3   OH2 7858   6.194   7.207   6.249  0.4250  0.4680  0.3834
 2638TIP3    H1 7859   6.232   7.121   6.231 -0.8174 -0.0500  0.1082
 2638TIP3    H2 7860   6.102   7.188   6.269 -0.4692  1.9368 -1.9427
 2639TIP3   OH2 7861   7.647   5.538   3.471 -0.5815  0.2241 -0.1451
 2639TIP3    H1 7862   7.618   5.546   3.381  0.3099  0.6420 -0.4045
 2639TIP3    H2 7863   7.678   5.625   3.495 -0.8463  0.1275  0.5749
 2640TIP3   OH2 7864   7.122   6.256   4.978 -0.7601 -0.1755 -0.4807
 2640TIP3    H1 7865   7.186   6.197   5.020 -0.7905  0.9765  1.3109
 2640TIP3    H2 7866   7.058   6.274   5.047 -0.8950  1.7155 -1.0448
 2641TIP3   OH2 7867   2.110   7.567   3.334 -0.3780  0.3867 -0.3320
 2641TIP3    H1 7868   2.083   7.542   3.423  0.1602  1.0658  0.0301
 2641TIP3    H2 7869   2.031   7.554   3.281 -0.9603  0.7932  0.4101
 2642TIP3   OH2 7870   4.487   7.194   2.779  0.2713  0.6009  0.6387
 2642TIP3    H1 7871   4.560   7.180   2.718  0.1263 -1.1334  0.7974
 2642TIP3    H2 7872   4.506   7.277   2.821  0.9857  1.2768 -0.9303
 2643TIP3   OH2 7873   5.623   5.794   3.822  0.2990  0.0118  0.4239
 2643TIP3    H1 7874   5.580   5.772   3.740 -1.5336  0.0142  1.3281
 2643TIP3    H2 7875   5.666   5.878   3.806 -1.9506  1.1700  0.0702
 2644TIP3   OH2 7876   4.893   5.656   4.252  0.2338  0.2613 -0.0253
 2644TIP3    H1 7877   4.911   5.741   4.212 -0.5520  0.5730  0.2777
 2644TIP3    H2 7878   4.817   5.671   4.308 -0.0957 -0.7152 -0.1984
 2645TIP3   OH2 7879   2.701   3.359   5.282 -0.1363  0.5907 -0.1781
 2645TIP3    H1 7880   2.677   3.343   5.191  2.3898  0.3066 -0.8673
 2645TIP3    H2 7881   2.748   3.279   5.309 -0.8972  0.6377  1.4169
 2646TIP3   OH2 7882   0.960   6.912   2.955  0.2323 -0.6933  0.6326
 2646TIP3    H1 7883   1.017   6.932   3.029  0.0102 -2.1856  1.2411
 2646TIP3    H2 7884   0.917   6.830   2.979  1.0806 -1.9122 -1.6803
 2647TIP3   OH2 7885   3.474   2.321   0.951 -0.2658 -0.1066  0.6582
 2647TIP3    H1 7886   3.499   2.286   0.866  1.3099  1.0172  0.6290
 2647TIP3    H2 7887   3.378   2.319   0.951 -0.3210  0.7571 -1.5147
 2648TIP3   OH2 7888   0.812   0.374   2.793 -0.2908  0.1297 -0.5648
 2648TIP3    H1 7889   0.792   0.457   2.749 -3.8149  0.6693  1.6533
 2648TIP3    H2 7890   0.821   0.311   2.721  0.8118  2.0620 -2.2320
 2649TIP3   OH2 7891   7.973   2.289   0.744  0.3640 -0.3183 -0.6917
 2649TIP3    H1 7892   7.937   2.334   0.820  2.0139  1.9101 -1.1556
 2649TIP3    H2 7893   7.929   2.204   0.744 -2.0879  0.8485  0.8510
 2650TIP3   OH2 7894   7.610   7.694   6.031  0.2369 -0.3701 -0.3480
 2650TIP3    H1 7895   7.685   7.715   6.086  1.6487 -1.1398 -1.8961
 2650TIP3    H2 7896   7.592   7.774   5.982  0.1926 -0.2591 -0.1514
 2651TIP3   OH2 7897   6.265   1.392   0.333 -0.4147  0.3011 -0.4915
 2651TIP3    H1 7898   6.183   1.397   0.382 -0.8417  0.8067 -1.2333
 2651TIP3    H2 7899   6.328   1.441   0.387 -0.7487  0.4281 -0.2148
 2652TIP3   OH2 7900   3.098   3.868   1.179 -0.1836  0.0599 -0.5199
 2652TIP3    H1 7901   3.149   3.946   1.200  0.1529 -0.1668 -0.4896
 2652TIP3    H2 7902   3.047   3.851   1.258  0.6990 -0.4935 -0.0610
 2653TIP3   OH2 7903   5.603   2.574   4.098 -0.1884  0.5566 -0.0424
 2653TIP3    H1 7904   5.679   2.519   4.083 -1.6270 -0.9555 -2.7274
 2653TIP3    H2 7905   5.638   2.663   4.105  1.8614 -0.1626 -0.4767
 2654TIP3   OH2 7906   1.263   2.482   2.627  0.4660  0.2984  0.7748
 2654TIP3    H1 7907   1.204   2.458   2.555 -0.5774  0.0781  1.6685
 2654TIP3    H2 7908   1.225   2.563   2.662  0.5086 -0.0277  1.5773
 2655TIP3   OH2 7909   0.185   1.689   1.656  0.3898 -0.1096 -0.2381
 2655TIP3    H1 7910   0.254   1.633   1.692  0.5601 -0.0475 -0.4692
 2655TIP3    H2 7911   0.131   1.712   1.732  1.0670  0.4736  0.0716
 2656TIP3   OH2 7912   8.236   3.958   3.792 -0.1692  0.7689  0.2628
 2656TIP3    H1 7913   8.264   3.868   3.779 -0.9930  0.6068 -0.5238
 2656TIP3    H2 7914   8.142   3.952   3.807 -0.5268  1.5870 -1.3607
 2657TIP3   OH2 7915   0.504   0.746   3.530 -0.5000 -0.2723 -0.1191
 2657TIP3    H1 7916   0.496   0.814   3.464 -0.3725  0.4896  0.6344
 2657TIP3    H2 7917   0.487   0.790   3.613 -0.0399 -1.0702  0.4235
 2658TIP3   OH2 7918   2.624   5.964   5.212  0.2605  0.2402 -0.3934
 2658TIP3    H1 7919   2.653   5.974   5.121  0.8806 -1.5943 -0.4534
 2658TIP3    H2 7920   2.569   5.886   5.210 -0.2714  0.5786  0.7007
 2659TIP3   OH2 7921   6.901   0.916   6.287 -0.1431  0.3945 -0.4308
 2659TIP3    H1 7922   6.931   0.864   6.213 -1.3034 -1.6661  0.4320
 2659TIP3    H2 7923   6.860   0.993   6.248 -1.2347 -0.9072 -1.9859
 2660TIP3   OH2 7924   0.683   2.101   0.582  0.1525  0.4642 -0.4124
 2660TIP3    H1 7925   0.762   2.119   0.634 -1.2739  0.7774  1.7375
 2660TIP3    H2 7926   0.675   2.006   0.582  0.6341  0.4124 -0.8767
 2661TIP3   OH2 7927   4.400   3.601   2.707 -0.4386  0.4785  0.2163
 2661TIP3    H1 7928   4.358   3.515   2.711 -0.2889  0.3943 -0.0258
 2661TIP3    H2 7929   4.343   3.653   2.650  0.0047  0.2405 -0.4491
 2662TIP3   OH2 7930   4.920   5.474   6.320  0.5488  0.6772  0.2001
 2662TIP3    H1 7931   4.853   5.405   6.320  1.0283  0.1961 -0.6613
 2662TIP3    H2 7932   4.879   5.547   6.274  0.7229  0.2607 -0.6365
 2663TIP3   OH2 7933   4.184   0.255   1.582  0.6143 -0.2962  0.2054
 2663TIP3    H1 7934   4.145   0.274   1.496  0.1364  0.1333  0.5100
 2663TIP3    H2 7935   4.267   0.304   1.581  0.7956 -0.6040 -0.1559
 2664TIP3   OH2 7936   6.498   3.452   2.259 -0.9213  1.0146 -0.2156
 2664TIP3    H1 7937   6.465   3.521   2.317 -0.4792  1.2238 -0.2087
 2664TIP3    H2 7938   6.459   3.372   2.294  0.3512  0.9551  1.1832
 2665TIP3   OH2 7939   7.507   1.599   1.784  0.9228 -0.6020  0.0787
 2665TIP3    H1 7940   7.457   1.519   1.798  1.4737 -0.9063  0.3811
 2665TIP3    H2 7941   7.480   1.657   1.854  0.7805 -0.6573  0.0692
 2666TIP3   OH2 7942   5.368   5.603   5.134 -0.3272 -0.2944 -0.5365
 2666TIP3    H1 7943   5.312   5.530   5.161  0.4462 -1.5786 -2.2615
 2666TIP3    H2 7944   5.316   5.650   5.069  0.0420 -0.6657 -1.1066
 2667TIP3   OH2 7945   4.381   4.993   1.999  0.3199 -0.4957 -0.1809
 2667TIP3    H1 7946   4.301   4.969   2.046 -1.5379  0.4516 -2.6681
 2667TIP3    H2 7947   4.433   4.913   1.998  0.0057 -0.8190  2.5037
 2668TIP3   OH2 7948   3.260   3.339   5.996 -0.1008 -0.5782 -0.4568
 2668TIP3    H1 7949   3.333   3.311   5.940 -0.4368  0.5157 -1.4881
 2668TIP3    H2 7950   3.212   3.258   6.014  1.3817 -1.3307  0.3088
 2669TIP3   OH2 7951   6.161   1.212   1.113 -0.3236  0.0610  0.1132
 2669TIP3    H1 7952   6.129   1.122   1.113 -0.1432 -0.0347 -1.8165
 2669TIP3    H2 7953   6.256   1.203   1.122  0.0954 -0.2072 -3.3247
 2670TIP3   OH2 7954   0.944   5.425   4.168 -0.1457  0.0983 -0.0676
 2670TIP3    H1 7955   1.020   5.413   4.225  0.5748 -1.6637 -1.3450
 2670TIP3    H2 7956   0.930   5.520   4.167  3.1158  0.6879 -1.1427
 2671TIP3   OH2 7957   7.262   1.032   5.861 -0.1395  0.1540 -0.1700
 2671TIP3    H1 7958   7.178   0.991   5.880 -0.1700  0.1425 -0.3307
 2671TIP3    H2 7959   7.281   1.085   5.939 -0.3107  0.1814 -0.1468
 2672TIP3   OH2 7960   8.171   0.914   2.189 -0.2958  0.5017  0.1226
 2672TIP3    H1 7961   8.222   0.898   2.269 -0.8899  1.3091  0.6818
 2672TIP3    H2 7962   8.207   0.853   2.125  0.7483  0.4177  0.7668
 2673TIP3   OH2 7963   5.748   6.737   1.583 -0.4471  0.0162 -0.2411
 2673TIP3    H1 7964   5.843   6.740   1.570 -0.4584  1.2434 -0.1170
 2673TIP3    H2 7965   5.727   6.819   1.628 -1.8013  0.5938 -1.8329
 2674TIP3   OH2 7966   8.021   2.252   6.252 -0.2686  0.5372  0.2217
 2674TIP3    H1 7967   7.950   2.219   6.198 -1.1072  0.1422  1.5078
 2674TIP3    H2 7968   8.101   2.226   6.206 -0.9436  0.1293 -0.7541
 2675TIP3   OH2 7969   2.861   2.426   5.186 -0.0567 -0.0979  0.3379
 2675TIP3    H1 7970   2.822   2.356   5.134  0.2880  1.0518 -1.5739
 2675TIP3    H2 7971   2.786   2.467   5.231 -1.0405  1.4067 -2.4514
 2676TIP3   OH2 7972   0.052   2.984   5.534  0.3359  0.5555  0.8627
 2676TIP3    H1 7973  -0.016   2.944   5.479  0.7118  0.7716  0.2312
 2676TIP3    H2 7974   0.117   2.915   5.546  0.3296  0.5571  0.9064
 2677TIP3   OH2 7975   8.085   7.570   6.574  0.4818 -0.0225  0.3570
 2677TIP3    H1 7976   8.058   7.482   6.548 -0.6179  0.2295  0.6009
 2677TIP3    H2 7977   8.112   7.562   6.666  1.0120 -0.2273  0.1852
 2678TIP3   OH2 7978   3.665   7.683   6.139 -0.3553 -0.3134  0.0238
 2678TIP3    H1 7979   3.618   7.609   6.100 -0.2832 -0.6004  0.4735
 2678TIP3    H2 7980   3.663   7.665   6.233 -2.0635  1.2466  0.3389
 2679TIP3   OH2 7981   6.510   3.593   5.904 -1.1583 -0.1817  0.3559
 2679TIP3    H1 7982   6.566   3.567   5.831 -1.0729 -1.2353  0.7652
 2679TIP3    H2 7983   6.566   3.581   5.981 -1.6180 -0.2429  0.6806
 2680TIP3   OH2 7984   2.525   5.777   6.597 -0.2721  0.1546 -0.0727
 2680TIP3    H1 7985   2.490   5.751   6.511  0.0411  2.5873 -0.9965
 2680TIP3    H2 7986   2.586   5.707   6.620 -1.1298 -1.0666 -1.3365
 2681TIP3   OH2 7987   8.153   6.112   3.936 -0.3361  0.0470  0.2358
 2681TIP3    H1 7988   8.072   6.098   3.887  0.4743 -1.2532 -0.8171
 2681TIP3    H2 7989   8.184   6.023   3.956  0.9302  0.5062  0.4108
 2682TIP3   OH2 7990   2.228   1.382   4.107  0.2241  0.6153 -0.2275
 2682TIP3    H1 7991   2.270   1.296   4.101 -0.7428  0.0947  0.2515
 2682TIP3    H2 7992   2.176   1.390   4.027 -1.5302 -0.2772  0.7662
 2683TIP3   OH2 7993   3.930   5.329   2.765 -0.1990  0.5207 -0.1859
 2683TIP3    H1 7994   4.003   5.287   2.811 -0.6961 -0.6151 -0.4025
 2683TIP3    H2 7995   3.938   5.422   2.788  1.6770  0.5369 -0.6954
 2684TIP3   OH2 7996   5.366   4.149   0.158 -0.4261 -0.3520 -0.3723
 2684TIP3    H1 7997   5.386   4.241   0.175 -3.3861  0.3381 -0.1290
 2684TIP3    H2 7998   5.382   4.137   0.065  2.6064 -0.4403  0.0316
 2685TIP3   OH2 7999   5.758   5.001   1.113 -0.0522  0.1876 -0.3299
 2685TIP3    H1 8000   5.837   5.032   1.068  1.0492 -1.1064  0.6038
 2685TIP3    H2 8001   5.696   5.073   1.106  1.2370  1.2746 -1.0340
 2686TIP3   OH2 8002   2.979   1.764   4.467  0.3194  0.2483  0.3798
 2686TIP3    H1 8003   3.013   1.682   4.430 -0.1947 -0.0178  0.4866
 2686TIP3    H2 8004   2.897   1.779   4.419  0.8313  1.1606 -0.2480
 2687TIP3   OH2 8005   4.681   4.353   4.950  0.3177 -0.1176  0.4114
 2687TIP3    H1 8006   4.676   4.300   5.029 -0.1752 -0.8458 -0.0916
 2687TIP3    H2 8007   4.684   4.289   4.879 -1.4383  0.5125 -0.2920
 2688TIP3   OH2 8008   7.147   5.534   4.764 -0.1576 -0.3084 -0.5773
 2688TIP3    H1 8009   7.226   5.524   4.711  1.7544 -0.0325  2.0662
 2688TIP3    H2 8010   7.161   5.613   4.815 -2.1645 -0.2355 -0.0280
 2689TIP3   OH2 8011   8.041   3.929   4.150 -0.0388  0.5467  0.0217
 2689TIP3    H1 8012   8.083   3.843   4.157  1.1442  0.9951 -1.2060
 2689TIP3    H2 8013   7.998   3.928   4.065 -1.8152  0.4430  0.8685
 2690TIP3   OH2 8014   6.622   6.077   5.382 -0.2807  0.0837 -0.4289
 2690TIP3    H1 8015   6.691   6.070   5.447 -0.0393  0.7071 -0.6069
 2690TIP3    H2 8016   6.569   6.151   5.411 -0.7290 -0.2310 -0.4298
 2691TIP3   OH2 8017   2.357   7.392   5.082 -0.3189  0.1274  0.1031
 2691TIP3    H1 8018   2.414   7.466   5.105 -2.0784  1.2450  1.0858
 2691TIP3    H2 8019   2.417   7.325   5.049  1.7328  0.6778  2.4154
 2692TIP3   OH2 8020   1.242   4.394   0.656  0.3803 -0.4360  0.3383
 2692TIP3    H1 8021   1.223   4.482   0.688 -1.3755 -0.4500 -0.5909
 2692TIP3    H2 8022   1.325   4.403   0.609 -0.0766  0.8727 -0.2617
 2693TIP3   OH2 8023   4.124   2.063   4.192 -0.6195  0.2883  0.1451
 2693TIP3    H1 8024   4.133   1.970   4.172 -0.1934  0.0943  1.1738
 2693TIP3    H2 8025   4.085   2.101   4.113 -2.0045 -0.9755  0.1768
 2694TIP3   OH2 8026   5.977   0.853   3.221  0.1763 -0.2246  0.0814
 2694TIP3    H1 8027   5.932   0.937   3.215 -1.2412 -0.8633  1.1387
 2694TIP3    H2 8028   5.956   0.822   3.309 -2.4128 -3.3214 -1.4242
 2695TIP3   OH2 8029   7.826   2.126   2.394  0.0069  0.6802  0.8613
 2695TIP3    H1 8030   7.807   2.209   2.352 -0.1652  0.2551  0.0810
 2695TIP3    H2 8031   7.880   2.078   2.331 -0.8097 -0.2289  0.8208
 2696TIP3   OH2 8032   1.731   0.242   4.051 -0.2703 -0.2201 -0.5377
 2696TIP3    H1 8033   1.747   0.320   4.104 -1.3055 -0.3591  0.0004
 2696TIP3    H2 8034   1.688   0.180   4.110  2.4853 -2.0963 -0.2957
 2697TIP3   OH2 8035   0.567   2.734   2.105 -0.6620 -0.2515 -0.2280
 2697TIP3    H1 8036   0.571   2.824   2.074  1.2708  0.3146  1.4555
 2697TIP3    H2 8037   0.635   2.688   2.056  0.8899  0.1341  1.4515
 2698TIP3   OH2 8038   7.598   6.868   1.417 -0.9952 -0.2008 -0.3081
 2698TIP3    H1 8039   7.588   6.963   1.415 -1.1885 -0.2317 -0.7071
 2698TIP3    H2 8040   7.627   6.844   1.329 -0.2807 -0.4374 -0.0200
 2699TIP3   OH2 8041   3.606   3.627   1.925  0.1965  0.6135 -0.0577
 2699TIP3    H1 8042   3.678   3.617   1.986  0.1461  0.5514 -0.0090
 2699TIP3    H2 8043   3.645   3.670   1.849  0.3300  0.3881 -0.1169
 2700TIP3   OH2 8044   6.232   7.655   1.388  0.0851  0.7657  0.2766
 2700TIP3    H1 8045   6.154   7.635   1.440 -0.5709  1.1224 -0.5416
 2700TIP3    H2 8046   6.199   7.663   1.298  1.1184  0.6088 -0.1322
 2701TIP3   OH2 8047   3.584   7.561   5.205  0.5922 -0.3439  0.0621
 2701TIP3    H1 8048   3.643   7.487   5.213  0.7032 -0.0885  2.8900
 2701TIP3    H2 8049   3.502   7.531   5.244  0.3122  0.6602  0.2896
 2702TIP3   OH2 8050   3.534   0.174   1.558  0.2589 -1.3599  0.7425
 2702TIP3    H1 8051   3.502   0.260   1.587  2.7787 -0.0624 -0.0543
 2702TIP3    H2 8052   3.586   0.141   1.631  0.0564 -1.7931  0.6955
 2703TIP3   OH2 8053   0.468   5.777   0.562 -0.2713  0.1638 -0.4620
 2703TIP3    H1 8054   0.527   5.718   0.608  0.9087  1.4423 -0.2876
 2703TIP3    H2 8055   0.409   5.809   0.630 -2.1836 -2.1847 -0.8675
 2704TIP3   OH2 8056   0.463   3.813   3.042  0.0923  0.2969  0.5285
 2704TIP3    H1 8057   0.402   3.871   2.996 -2.2887 -0.0802  2.9546
 2704TIP3    H2 8058   0.508   3.870   3.104 -0.4579  0.0045  1.2146
 2705TIP3   OH2 8059   2.930   1.965   5.014 -0.4538  0.0548 -0.5433
 2705TIP3    H1 8060   2.998   1.909   4.975  0.4887  1.2848 -0.7333
 2705TIP3    H2 8061   2.957   1.974   5.105  0.2548  1.3787 -0.8524
 2706TIP3   OH2 8062   0.851   0.045   0.717  0.1941 -0.6736 -0.3278
 2706TIP3    H1 8063   0.777  -0.005   0.681  1.3766 -2.0267 -0.9951
 2706TIP3    H2 8064   0.928  -0.002   0.686  1.3321  0.2565  0.9895
 2707TIP3   OH2 8065   0.861   6.357   1.759 -0.4975  0.1917 -0.0138
 2707TIP3    H1 8066   0.803   6.295   1.802 -0.2612 -0.3442 -0.4531
 2707TIP3    H2 8067   0.842   6.348   1.665  3.1238 -3.1196 -0.7009
 2708TIP3   OH2 8068   6.894   3.274   2.192 -0.6430 -0.6184 -0.6158
 2708TIP3    H1 8069   6.942   3.227   2.260 -0.8010 -0.7504 -0.5956
 2708TIP3    H2 8070   6.827   3.212   2.163 -1.5693 -0.0017  0.1886
 2709TIP3   OH2 8071   7.196   3.418   2.591  0.1107  0.7943 -0.2513
 2709TIP3    H1 8072   7.198   3.513   2.600 -0.4452  0.6507  1.9195
 2709TIP3    H2 8073   7.279   3.388   2.627 -0.1930  0.4122  0.1567
 2710TIP3   OH2 8074   3.040   3.867   5.726 -0.2710  0.2085  0.6417
 2710TIP3    H1 8075   3.037   3.962   5.730  1.9949  0.3586  0.1193
 2710TIP3    H2 8076   3.057   3.840   5.817  0.6830  0.4207  0.5342
 2711TIP3   OH2 8077   4.604   7.531   4.419  1.1634  0.4211 -0.4597
 2711TIP3    H1 8078   4.593   7.604   4.358  0.5193 -0.6587 -1.6780
 2711TIP3    H2 8079   4.517   7.490   4.424  0.3386  2.1526  3.4844
 2712TIP3   OH2 8080   3.458   1.516   1.315 -0.2762 -0.4620  0.0093
 2712TIP3    H1 8081   3.491   1.564   1.239  1.0985  0.0109  0.8583
 2712TIP3    H2 8082   3.379   1.472   1.284  1.0312 -1.4656 -2.0922
 2713TIP3   OH2 8083   4.856   6.215   1.018  0.4244 -0.0793  1.1150
 2713TIP3    H1 8084   4.946   6.218   1.050  0.2152  0.4197  1.6792
 2713TIP3    H2 8085   4.811   6.285   1.065 -0.4770 -0.8944  1.5215
 2714TIP3   OH2 8086   6.096   3.941   4.160 -0.3308  0.7393  0.3273
 2714TIP3    H1 8087   6.019   3.922   4.214 -0.7086 -1.1795 -0.7964
 2714TIP3    H2 8088   6.170   3.912   4.213 -0.7709 -2.2635 -0.5181
 2715TIP3   OH2 8089   0.477   2.594   1.229 -0.1106  0.0446 -0.7211
 2715TIP3    H1 8090   0.511   2.631   1.148  0.6849 -0.6013 -0.6897
 2715TIP3    H2 8091   0.390   2.635   1.239 -0.5926 -0.5069 -2.3345
 2716TIP3   OH2 8092   2.989   5.190   3.797  0.1176  0.3978 -0.1247
 2716TIP3    H1 8093   2.895   5.201   3.810  0.0291  1.2630 -1.3754
 2716TIP3    H2 8094   3.016   5.134   3.870 -1.0830  1.4086  1.1618
 2717TIP3   OH2 8095   7.222   1.592   2.313  0.4370 -0.4438 -0.9844
 2717TIP3    H1 8096   7.232   1.566   2.405 -0.8162  1.4765 -0.2416
 2717TIP3    H2 8097   7.198   1.685   2.317 -1.3579 -0.7394 -3.1724
 2718TIP3   OH2 8098   1.680   2.483   1.877  0.2389  0.4091 -0.1770
 2718TIP3    H1 8099   1.619   2.469   1.804 -0.3717 -0.0366  0.4065
 2718TIP3    H2 8100   1.624   2.498   1.953  0.8533 -0.2352  0.4179
 2719TIP3   OH2 8101   0.886   4.288   2.670  0.1828  0.0684 -0.3577
 2719TIP3    H1 8102   0.929   4.242   2.742 -0.1122 -2.9243 -1.9265
 2719TIP3    H2 8103   0.955   4.301   2.605  0.0220  0.9457 -0.3599
 2720TIP3   OH2 8104   0.128   6.880   4.820 -0.3686 -0.5205  0.1758
 2720TIP3    H1 8105   0.122   6.790   4.787  0.4935  0.1784 -2.0857
 2720TIP3    H2 8106   0.042   6.897   4.859 -1.4838 -1.4755 -1.7138
 2721TIP3   OH2 8107   7.954   0.510   4.861 -0.0495  0.2919 -0.7676
 2721TIP3    H1 8108   8.011   0.517   4.937 -1.4635 -1.4875  0.5390
 2721TIP3    H2 8109   7.890   0.580   4.872 -1.4553 -1.1617  0.8393
 2722TIP3   OH2 8110   6.315   5.913   0.646 -0.0822 -0.2572  0.2328
 2722TIP3    H1 8111   6.311   5.998   0.601 -0.0787 -0.4883 -0.2026
 2722TIP3    H2 8112   6.378   5.862   0.595 -0.5250 -0.7262  0.1562
 2723TIP3   OH2 8113   5.374   0.692   0.723  0.1263 -0.0730  0.0778
 2723TIP3    H1 8114   5.300   0.634   0.737  0.3048 -0.2268  0.3882
 2723TIP3    H2 8115   5.387   0.736   0.807 -0.0095  0.4205 -0.1562
 2724TIP3   OH2 8116   6.680   7.206   4.797 -0.0818 -0.0287  0.1451
 2724TIP3    H1 8117   6.592   7.176   4.815  0.4407 -1.9396 -0.2044
 2724TIP3    H2 8118   6.727   7.199   4.880  0.0107 -0.0263  0.0945
 2725TIP3   OH2 8119   5.752   3.726   6.363  0.3586  0.4826  0.0927
 2725TIP3    H1 8120   5.793   3.739   6.278  0.7592  0.6275  0.3058
 2725TIP3    H2 8121   5.714   3.811   6.385 -2.7826 -0.3493 -1.4885
 2726TIP3   OH2 8122   2.955   3.942   1.811  0.3168  0.0583  0.0594
 2726TIP3    H1 8123   3.002   3.869   1.770  0.2183  0.7063 -1.2799
 2726TIP3    H2 8124   2.864   3.911   1.816  0.3796 -0.1354  0.0341
 2727TIP3   OH2 8125   0.919   7.775   2.038 -0.2925 -0.0678 -0.0044
 2727TIP3    H1 8126   0.982   7.714   2.077 -2.3719 -0.7273  2.6517
 2727TIP3    H2 8127   0.835   7.730   2.045 -1.3935  1.6001 -1.5239
 2728TIP3   OH2 8128   4.401   4.156   6.050  0.0796  0.0199 -0.2884
 2728TIP3    H1 8129   4.462   4.229   6.040  1.3211 -0.6056  2.1381
 2728TIP3    H2 8130   4.322   4.196   6.088  0.4261  0.2353  0.2118
 2729TIP3   OH2 8131   7.199   0.440   0.499  0.0918  0.0692 -0.2315
 2729TIP3    H1 8132   7.217   0.378   0.428 -0.6842  1.7713 -2.0162
 2729TIP3    H2 8133   7.275   0.433   0.557  2.2292  0.6789 -2.7755
 2730TIP3   OH2 8134   2.315   4.215   1.383  0.1379 -0.1695 -0.3237
 2730TIP3    H1 8135   2.333   4.205   1.289  0.7679  0.0108 -0.2276
 2730TIP3    H2 8136   2.263   4.138   1.406 -1.0999  0.4032 -1.0849
 2731TIP3   OH2 8137   3.204   4.391   2.931 -0.4005 -0.7636 -0.5747
 2731TIP3    H1 8138   3.117   4.351   2.929 -0.9518  0.4140 -1.0698
 2731TIP3    H2 8139   3.211   4.438   2.847  0.4997 -0.4061 -0.3142
 2732TIP3   OH2 8140   3.873   2.023   0.035 -0.0861  0.4248  0.1851
 2732TIP3    H1 8141   3.783   2.021   0.002 -0.2303  2.2050  0.3381
 2732TIP3    H2 8142   3.867   1.982   0.122 -0.2757 -1.5332 -0.7035
 2733TIP3   OH2 8143   1.020   1.528   3.359  0.0931  0.0741  0.0503
 2733TIP3    H1 8144   1.068   1.541   3.277  0.3488  0.0627  0.1997
 2733TIP3    H2 8145   1.086   1.538   3.428 -0.4827  2.1656  0.3590
 2734TIP3   OH2 8146   0.453   7.751   6.728 -0.8529  0.6295 -0.0800
 2734TIP3    H1 8147   0.387   7.692   6.763 -0.9370  0.6701 -0.1688
 2734TIP3    H2 8148   0.460   7.727   6.635  0.7704 -0.8034  0.3535
 2735TIP3   OH2 8149   2.273   7.711   3.862  0.0891 -0.4835  0.0448
 2735TIP3    H1 8150   2.291   7.792   3.815 -2.2567  0.8440  1.2574
 2735TIP3    H2 8151   2.194   7.676   3.821  0.4929 -1.6556  0.2036
 2736TIP3   OH2 8152   4.324   5.469   1.348  0.7158  0.3989  0.0076
 2736TIP3    H1 8153   4.394   5.403   1.351  0.4961  0.1602 -0.1073
 2736TIP3    H2 8154   4.285   5.466   1.435  1.7357  1.5060  0.5330
 2737TIP3   OH2 8155   6.051   5.003   5.989  0.9028 -0.1731 -0.2487
 2737TIP3    H1 8156   5.996   5.082   5.995 -0.5902 -1.2313  0.7359
 2737TIP3    H2 8157   6.011   4.941   6.050  2.6799 -1.3385 -0.1900
 2738TIP3   OH2 8158   1.431   7.503   5.973 -0.2442  0.8304 -0.1642
 2738TIP3    H1 8159   1.462   7.449   6.045  0.3014  1.1856 -0.1229
 2738TIP3    H2 8160   1.397   7.583   6.015  1.1339  1.5399 -0.3484
 2739TIP3   OH2 8161   2.542   0.108   6.451  0.3722  0.4512  0.0922
 2739TIP3    H1 8162   2.473   0.042   6.455 -0.5696  1.4280  0.3303
 2739TIP3    H2 8163   2.582   0.096   6.364  1.6833 -1.8247  0.9308
 2740TIP3   OH2 8164   2.913   3.526   5.631  0.2169 -0.1920  0.0506
 2740TIP3    H1 8165   2.889   3.529   5.539 -1.2801  1.1693  0.4225
 2740TIP3    H2 8166   3.008   3.540   5.632 -0.0077  1.8765 -1.2332
 2741TIP3   OH2 8167   5.653   5.758   6.729 -0.4776  0.3099 -0.0048
 2741TIP3    H1 8168   5.661   5.804   6.646  0.8531  1.2638  0.6108
 2741TIP3    H2 8169   5.571   5.791   6.767 -0.0628  1.4257 -0.0412
 2742TIP3   OH2 8170   3.476   1.935   0.710  0.1463  0.0604 -0.4568
 2742TIP3    H1 8171   3.399   1.885   0.736  2.1231 -3.3541 -0.4862
 2742TIP3    H2 8172   3.495   1.991   0.785 -0.0980 -2.0746  1.3075
 2743TIP3   OH2 8173   5.809   4.711   3.035  0.1455 -0.5467  0.2450
 2743TIP3    H1 8174   5.900   4.693   3.061  0.4184 -0.5443 -0.6793
 2743TIP3    H2 8175   5.815   4.734   2.942 -0.9077 -1.3965 -0.0460
 2744TIP3   OH2 8176   2.884   4.944   3.596 -0.0129 -0.2385  1.0163
 2744TIP3    H1 8177   2.887   4.892   3.676 -3.5590 -2.4650 -0.0358
 2744TIP3    H2 8178   2.791   4.966   3.585  0.7323  2.4132 -1.0874
 2745TIP3   OH2 8179   3.074   3.834   6.563 -0.2204 -0.1473  0.0110
 2745TIP3    H1 8180   3.119   3.917   6.548  2.8565 -1.6191  0.3181
 2745TIP3    H2 8181   2.982   3.854   6.549  0.6286  2.7107 -2.5753
 2746TIP3   OH2 8182   3.137   3.079   6.416 -0.1043  0.0209 -0.1831
 2746TIP3    H1 8183   3.062   3.077   6.358 -0.1269 -2.2388 -0.1670
 2746TIP3    H2 8184   3.154   2.987   6.437  2.9546  0.3771 -0.5593
 2747TIP3   OH2 8185   5.676   5.008   6.738  0.4032 -0.1530  0.1618
 2747TIP3    H1 8186   5.607   5.053   6.691 -0.0088 -2.5202 -1.6719
 2747TIP3    H2 8187   5.756   5.055   6.714 -0.1278  0.3483 -0.6718
 2748TIP3   OH2 8188   3.340   3.482   4.759  0.3940  0.2700 -0.5073
 2748TIP3    H1 8189   3.298   3.423   4.697 -0.8481  0.1380  0.4116
 2748TIP3    H2 8190   3.396   3.425   4.812 -0.4905 -0.0409  0.1140
 2749TIP3   OH2 8191   1.689   0.427   3.693 -0.1167 -0.3579 -0.7041
 2749TIP3    H1 8192   1.755   0.422   3.762  0.2754 -1.2414 -1.1284
 2749TIP3    H2 8193   1.728   0.485   3.626 -1.8088  3.2435  1.1600
 2750TIP3   OH2 8194   2.539  -0.027   3.757 -0.4696  0.5786 -0.0188
 2750TIP3    H1 8195   2.497   0.058   3.753  0.6459  1.1629  0.2921
 2750TIP3    H2 8196   2.594  -0.031   3.679  1.1096  1.0534  1.0168
 2751TIP3   OH2 8197   7.666   0.568   0.326 -0.4120 -0.3980 -0.5032
 2751TIP3    H1 8198   7.680   0.658   0.296 -0.5610  0.7775  2.6269
 2751TIP3    H2 8199   7.685   0.570   0.419  0.1099 -3.7870 -0.4109
 2752TIP3   OH2 8200   2.942   1.357   3.960  0.2701  0.8865 -0.3295
 2752TIP3    H1 8201   2.885   1.281   3.976  1.1068 -0.1362 -1.9509
 2752TIP3    H2 8202   3.013   1.322   3.906  0.3042  2.9902 -1.7439
 2753TIP3   OH2 8203   3.158   4.736   1.004 -0.2550 -0.0459  0.2362
 2753TIP3    H1 8204   3.154   4.786   0.923  0.7760  1.5003  1.0886
 2753TIP3    H2 8205   3.120   4.793   1.071 -0.7423 -1.1352  0.9347
 2754TIP3   OH2 8206   6.507   1.369   5.764 -0.3722  0.4184 -0.0974
 2754TIP3    H1 8207   6.492   1.444   5.821 -2.8363 -0.2251  0.1848
 2754TIP3    H2 8208   6.420   1.338   5.740  0.5572 -0.3199 -2.9457
 2755TIP3   OH2 8209   1.415   1.834   0.100 -0.0372 -0.2399  0.2187
 2755TIP3    H1 8210   1.472   1.897   0.144  0.9575  1.3359 -3.0535
 2755TIP3    H2 8211   1.332   1.880   0.090 -0.1175 -0.4294  0.0081
 2756TIP3   OH2 8212   1.837   4.942   6.297 -0.0550  0.3969 -0.6885
 2756TIP3    H1 8213   1.766   4.995   6.262 -0.0369 -0.8545 -2.7895
 2756TIP3    H2 8214   1.794   4.861   6.325  0.4443 -0.1252 -1.4093
 2757TIP3   OH2 8215   4.661   4.004   3.077  0.0766  0.0372 -0.1436
 2757TIP3    H1 8216   4.632   4.032   2.989 -0.8287 -0.0330  0.1207
 2757TIP3    H2 8217   4.662   3.909   3.072 -1.3606 -0.0245  0.3273
 2758TIP3   OH2 8218   6.742   2.342   4.017 -0.0496  0.1901  0.6545
 2758TIP3    H1 8219   6.671   2.397   3.983 -1.0504 -1.1463  0.5224
 2758TIP3    H2 8220   6.821   2.378   3.976 -0.8408  0.7095 -0.4666
 2759TIP3   OH2 8221   1.402   3.006   3.817 -0.2460 -0.1026 -0.0928
 2759TIP3    H1 8222   1.451   3.056   3.752  0.2285  0.3886  0.6217
 2759TIP3    H2 8223   1.311   3.014   3.790 -0.4257  2.7017  0.9463
 2760TIP3   OH2 8224   7.654   5.163   0.663 -0.2045 -0.2466  0.3497
 2760TIP3    H1 8225   7.634   5.147   0.571 -1.3440  1.9795  0.1318
 2760TIP3    H2 8226   7.578   5.131   0.711  0.7687 -2.2269  0.6553
 2761TIP3   OH2 8227   6.433   3.127   6.744 -0.0295 -0.0355  0.7212
 2761TIP3    H1 8228   6.360   3.134   6.806 -1.1025 -0.2400 -0.4606
 2761TIP3    H2 8229   6.404   3.178   6.668  0.4293 -1.2829 -0.3393
 2762TIP3   OH2 8230   0.419   5.005   5.547 -0.2882  0.2507 -0.3309
 2762TIP3    H1 8231   0.359   5.047   5.609 -0.1064 -1.7456  1.3057
 2762TIP3    H2 8232   0.505   5.013   5.587 -0.1064 -0.7066 -0.4927
 2763TIP3   OH2 8233   6.075   7.514   6.815 -0.2386  0.0696  0.0172
 2763TIP3    H1 8234   6.132   7.517   6.738 -0.5251 -0.8457 -0.2406
 2763TIP3    H2 8235   5.991   7.546   6.784 -0.2593  0.0410  0.0442
 2764TIP3   OH2 8236   0.908   4.429   1.031  0.4349  0.1758 -0.1407
 2764TIP3    H1 8237   0.887   4.370   1.104  0.9761 -0.5437 -0.5567
 2764TIP3    H2 8238   0.843   4.408   0.964  1.1458 -0.5559 -0.6127
 2765TIP3   OH2 8239   3.483   2.958   0.783 -0.5384  0.1178  0.9219
 2765TIP3    H1 8240   3.443   2.871   0.780 -0.7963  0.2556 -0.2231
 2765TIP3    H2 8241   3.496   2.976   0.876 -0.8995 -0.9535  1.1889
 2766TIP3   OH2 8242   4.326   6.431   4.134 -0.5312  0.5753  0.2628
 2766TIP3    H1 8243   4.355   6.389   4.053 -0.4119 -1.1718  1.1685
 2766TIP3    H2 8244   4.406   6.456   4.179 -0.5944  1.3132 -0.0120
 2767TIP3   OH2 8245   4.241   7.109   0.913 -0.3766  0.2856  0.0427
 2767TIP3    H1 8246   4.201   7.038   0.964 -2.3087  1.2905  0.0515
 2767TIP3    H2 8247   4.171   7.139   0.855  0.9813  0.9302 -1.3238
 2768TIP3   OH2 8248   6.033   4.400   1.051 -0.9200  0.5195  0.0201
 2768TIP3    H1 8249   6.089   4.477   1.045 -0.4886  0.2821  0.8432
 2768TIP3    H2 8250   6.047   4.354   0.968  0.0826  0.4858  0.1944
 2769TIP3   OH2 8251   3.796   3.415   6.132 -0.0294  0.3806 -0.4308
 2769TIP3    H1 8252   3.833   3.503   6.136 -0.3778  0.5039  0.2578
 2769TIP3    H2 8253   3.873   3.358   6.123  0.1638  0.7753 -1.4866
 2770TIP3   OH2 8254   7.847   6.984   4.058 -0.0108 -0.2702  0.2067
 2770TIP3    H1 8255   7.890   7.068   4.044  0.2575 -0.1258  1.6679
 2770TIP3    H2 8256   7.762   6.993   4.014  0.4001  0.4010 -0.4723
 2771TIP3   OH2 8257   3.927   4.276   3.549  0.0366 -0.3553  0.1226
 2771TIP3    H1 8258   3.947   4.227   3.469  1.8348  0.6573 -0.1123
 2771TIP3    H2 8259   3.832   4.273   3.557 -0.0829 -1.4987 -1.3873
 2772TIP3   OH2 8260   5.959   2.386   6.449 -0.4351 -1.2117  0.7963
 2772TIP3    H1 8261   6.047   2.408   6.480 -1.2465 -0.9362  3.0194
 2772TIP3    H2 8262   5.948   2.439   6.370  1.0977 -0.6659  0.9177
 2773TIP3   OH2 8263   2.999   0.783   5.927 -0.2181 -0.1994  0.2002
 2773TIP3    H1 8264   3.042   0.704   5.958 -0.2627 -0.0571  0.6275
 2773TIP3    H2 8265   2.959   0.757   5.844 -0.7629 -0.8036  0.6369
 2774TIP3   OH2 8266   2.783   5.467   2.430 -0.4339 -0.7431 -0.1486
 2774TIP3    H1 8267   2.849   5.402   2.452  0.6199  0.5656  0.7083
 2774TIP3    H2 8268   2.751   5.499   2.515 -1.2319 -0.4198 -0.5546
 2775TIP3   OH2 8269   5.373   4.797   1.743 -0.4844  0.0102 -0.0017
 2775TIP3    H1 8270   5.369   4.704   1.721  0.9410 -0.1507  0.3706
 2775TIP3    H2 8271   5.449   4.830   1.696  0.0888  0.5868  1.2804
 2776TIP3   OH2 8272   1.115   0.629   5.610  0.2961 -0.1910  0.2006
 2776TIP3    H1 8273   1.046   0.570   5.578  0.2690 -0.7645  1.2738
 2776TIP3    H2 8274   1.072   0.713   5.620  0.1439 -0.1609 -0.6310
 2777TIP3   OH2 8275   5.164   6.879   3.203  0.2146  0.1369 -0.0139
 2777TIP3    H1 8276   5.090   6.839   3.247  0.7804 -0.8745  0.0635
 2777TIP3    H2 8277   5.223   6.806   3.185  0.7252  0.7686 -0.9963
 2778TIP3   OH2 8278   4.566   5.504   0.206 -0.3473 -0.1856  0.1821
 2778TIP3    H1 8279   4.521   5.537   0.128  0.3614 -0.8836 -0.5367
 2778TIP3    H2 8280   4.594   5.583   0.253 -0.3135  0.2444 -0.5425
 2779TIP3   OH2 8281   8.317   3.973   4.536  0.0368  0.2528 -0.1063
 2779TIP3    H1 8282   8.243   4.034   4.536 -0.5722 -0.4380  1.4067
 2779TIP3    H2 8283   8.352   3.978   4.447 -1.1038  1.4665 -0.5190
 2780TIP3   OH2 8284   2.818   3.154   2.461 -0.0729  0.3810  0.0702
 2780TIP3    H1 8285   2.874   3.167   2.385  0.8978 -0.0911  0.6908
 2780TIP3    H2 8286   2.736   3.122   2.425  0.0671  0.9988 -0.8465
 2781TIP3   OH2 8287   6.616   4.472   0.417 -0.1198  0.6356  0.2731
 2781TIP3    H1 8288   6.531   4.514   0.403  1.1273  3.1995 -0.2629
 2781TIP3    H2 8289   6.668   4.498   0.341  1.0019 -1.4208  0.2687
 2782TIP3   OH2 8290   4.872   0.970   0.613  0.4424  0.6256  0.0062
 2782TIP3    H1 8291   4.953   0.994   0.657 -0.1844  0.9504  1.0139
 2782TIP3    H2 8292   4.843   0.891   0.658 -0.5072  1.2860  0.5858
 2783TIP3   OH2 8293   7.425   0.201   4.754  0.0147  0.1652 -0.0817
 2783TIP3    H1 8294   7.497   0.254   4.720  1.1701 -1.2031  0.0908
 2783TIP3    H2 8295   7.469   0.127   4.796 -1.4734  0.0560  1.3633
 2784TIP3   OH2 8296   1.759   6.014   0.113 -0.2688  0.0575 -0.2899
 2784TIP3    H1 8297   1.725   6.003   0.025 -1.8540  0.5124  0.2406
 2784TIP3    H2 8298   1.740   6.105   0.135 -2.1226 -0.6679  1.3955
 2785TIP3   OH2 8299   5.850   1.966   3.310  0.5537 -0.3486 -0.0328
 2785TIP3    H1 8300   5.910   1.975   3.385  0.7773 -0.9958 -0.1243
 2785TIP3    H2 8301   5.899   1.914   3.247 -0.1566 -1.0132 -0.0529
 2786TIP3   OH2 8302   6.353   3.647   2.404  0.2757 -0.1670  0.0372
 2786TIP3    H1 8303   6.375   3.690   2.488 -1.6418  0.4792  0.2468
 2786TIP3    H2 8304   6.263   3.672   2.387  0.1273 -1.5794 -1.4749
 2787TIP3   OH2 8305   2.066   3.581   4.560 -0.1929  0.2457 -0.2913
 2787TIP3    H1 8306   2.082   3.569   4.467 -0.4789 -0.7335 -0.2262
 2787TIP3    H2 8307   2.136   3.641   4.588  2.1111 -2.1427 -0.4722
 2788TIP3   OH2 8308   8.049   6.535   2.866 -0.7700  0.3746  0.5170
 2788TIP3    H1 8309   8.024   6.511   2.955 -0.5707 -0.0360  0.4654
 2788TIP3    H2 8310   8.027   6.628   2.858 -1.4183  0.2440  0.7693
 2789TIP3   OH2 8311   0.238   7.534   2.937 -0.4338 -0.2943 -0.3810
 2789TIP3    H1 8312   0.187   7.475   2.993  0.9192 -1.8234 -0.7089
 2789TIP3    H2 8313   0.212   7.511   2.848 -0.9876  0.6517 -0.4775
 2790TIP3   OH2 8314   3.417   6.787   0.089  0.0294 -0.9159 -0.1870
 2790TIP3    H1 8315   3.409   6.877   0.123  0.9691 -0.3383 -1.4014
 2790TIP3    H2 8316   3.327   6.759   0.074 -0.2472  0.2109 -0.7464
 2791TIP3   OH2 8317   1.975   4.553   0.357  1.0820  0.6908  0.0220
 2791TIP3    H1 8318   2.024   4.622   0.312  1.8199  0.4618  0.4485
 2791TIP3    H2 8319   2.042   4.505   0.406  0.5578 -0.2589 -0.1817
 2792TIP3   OH2 8320   6.056   6.859   6.809  0.0684 -0.2854 -0.6341
 2792TIP3    H1 8321   6.085   6.801   6.738 -0.6107 -1.5032  0.0452
 2792TIP3    H2 8322   5.995   6.920   6.767  1.4757  0.5721 -1.5398
 2793TIP3   OH2 8323   6.934   3.546   3.800  0.2497 -0.5645  0.2623
 2793TIP3    H1 8324   6.843   3.520   3.815  0.4979 -1.0891  0.9265
 2793TIP3    H2 8325   6.964   3.579   3.885  0.0168  1.7755 -0.4851
 2794TIP3   OH2 8326   1.659   2.890   0.959  0.0571  0.1238  0.1193
 2794TIP3    H1 8327   1.589   2.824   0.954 -0.3079  0.5790 -1.3354
 2794TIP3    H2 8328   1.619   2.970   0.927  1.2093  0.4293 -0.6135
 2795TIP3   OH2 8329   1.122   7.839   1.347 -0.1581  0.1189 -0.1178
 2795TIP3    H1 8330   1.168   7.806   1.424 -0.8180 -1.6334 -0.4208
 2795TIP3    H2 8331   1.041   7.788   1.344 -0.6781  0.9755 -1.3193
 2796TIP3   OH2 8332   5.840   7.719   4.123  0.4426  0.6714 -0.1101
 2796TIP3    H1 8333   5.806   7.807   4.142 -1.3575  0.2682 -1.3135
 2796TIP3    H2 8334   5.777   7.681   4.063  0.4365 -2.0101  1.4745
 2797TIP3   OH2 8335   2.799   6.511   1.446 -0.0416 -0.0778  0.2581
 2797TIP3    H1 8336   2.850   6.439   1.483  0.5829 -0.3254 -1.0508
 2797TIP3    H2 8337   2.837   6.590   1.486  0.2394 -0.3796  0.5882
 2798TIP3   OH2 8338   7.009   3.921   5.461 -0.0794  0.2547  0.6206
 2798TIP3    H1 8339   7.064   3.902   5.385 -1.8018  0.9813 -0.9222
 2798TIP3    H2 8340   7.048   3.872   5.533  1.6073 -0.5210 -0.7482
 2799TIP3   OH2 8341   1.190   4.366   5.991 -1.4062 -0.3659  0.3342
 2799TIP3    H1 8342   1.144   4.346   6.072  0.1295  0.4862  1.4621
 2799TIP3    H2 8343   1.122   4.400   5.933 -2.7180 -1.9743  0.8575
 2800TIP3   OH2 8344   7.201   2.177   0.686  0.5697  0.2270 -0.1016
 2800TIP3    H1 8345   7.239   2.111   0.628  1.7462  1.4913 -0.8361
 2800TIP3    H2 8346   7.246   2.164   0.770  0.6358 -0.0455 -0.1777
 2801TIP3   OH2 8347   8.231   6.164   4.761 -0.3815 -0.0831  0.7454
 2801TIP3    H1 8348   8.302   6.165   4.697 -1.5995  0.4758 -0.6627
 2801TIP3    H2 8349   8.268   6.205   4.839  1.1938 -0.9296  0.4781
 2802TIP3   OH2 8350   3.134   6.593   1.786  0.0796  0.3582  0.4247
 2802TIP3    H1 8351   3.169   6.596   1.875  1.5979  0.0886 -0.1321
 2802TIP3    H2 8352   3.149   6.681   1.751 -0.1170  0.3393  0.2891
 2803TIP3   OH2 8353   5.571   1.688   1.322 -0.1270  0.1526 -0.0194
 2803TIP3    H1 8354   5.602   1.737   1.398 -0.5545 -0.7364  0.7448
 2803TIP3    H2 8355   5.476   1.692   1.327 -0.1631 -0.2970 -0.2447
 2804TIP3   OH2 8356   3.550   0.098   0.665 -0.0581  0.2695  0.8583
 2804TIP3    H1 8357   3.592   0.039   0.603  0.5301  1.8823 -0.3393
 2804TIP3    H2 8358   3.616   0.114   0.732 -0.9199 -2.0082  2.3578
 2805TIP3   OH2 8359   7.953   5.226   3.260  0.2650  0.0986 -0.7940
 2805TIP3    H1 8360   7.867   5.253   3.228 -0.2458 -1.0999 -0.4746
 2805TIP3    H2 8361   8.015   5.261   3.196 -0.4779  0.7363 -1.1704
 2806TIP3   OH2 8362   2.618   6.008   5.665 -0.1678 -0.0716 -0.2442
 2806TIP3    H1 8363   2.595   6.070   5.596 -2.8483  0.1485  0.6945
 2806TIP3    H2 8364   2.618   5.923   5.622 -1.8156  0.0579 -0.5601
 2807TIP3   OH2 8365   5.348   3.602   0.934 -0.0835 -0.7294 -0.3262
 2807TIP3    H1 8366   5.362   3.617   1.028 -0.8752 -0.9668 -0.1661
 2807TIP3    H2 8367   5.419   3.652   0.892 -0.8563  1.0123  0.3094
 2808TIP3   OH2 8368   6.764   1.517   3.155 -0.1521  0.1528  0.3801
 2808TIP3    H1 8369   6.813   1.597   3.141 -0.0418  0.2900  1.4099
 2808TIP3    H2 8370   6.830   1.453   3.183 -0.7279  0.9669  4.1695
 2809TIP3   OH2 8371   5.872   5.874   0.145  0.2932 -0.5162  0.0935
 2809TIP3    H1 8372   5.917   5.874   0.229  0.6821 -0.8961 -0.1070
 2809TIP3    H2 8373   5.805   5.942   0.153  1.0897  0.2576  0.2968
 2810TIP3   OH2 8374   7.988   1.027   3.605 -0.1844  0.8324  0.2971
 2810TIP3    H1 8375   7.908   1.053   3.650 -0.3081  1.1053 -0.0711
 2810TIP3    H2 8376   7.959   1.002   3.517 -0.1281 -0.9914  0.7604
 2811TIP3   OH2 8377   4.253   6.298   2.005 -0.0189  0.2474 -0.1045
 2811TIP3    H1 8378   4.285   6.271   2.091  0.9185 -0.7196 -0.7357
 2811TIP3    H2 8379   4.324   6.276   1.944 -1.3312 -0.6973 -1.3728
 2812TIP3   OH2 8380   2.164   1.100   6.144  0.3237 -0.1888  0.3560
 2812TIP3    H1 8381   2.088   1.149   6.175  0.9187  2.5314 -2.0068
 2812TIP3    H2 8382   2.130   1.042   6.076  0.1553 -0.0235  0.2983
 2813TIP3   OH2 8383   4.135   5.400   4.233 -0.4535 -0.7630 -0.2542
 2813TIP3    H1 8384   4.218   5.352   4.226 -0.3521 -0.9420  1.7115
 2813TIP3    H2 8385   4.161   5.492   4.233 -0.4486 -0.7393 -1.5440
 2814TIP3   OH2 8386   7.248   0.049   5.664 -0.4631  0.2912 -0.5712
 2814TIP3    H1 8387   7.334   0.086   5.644  0.1400 -1.0753 -0.6535
 2814TIP3    H2 8388   7.231  -0.012   5.592 -1.8266  1.0288 -0.9148
 2815TIP3   OH2 8389   1.696   4.776   2.569 -0.1494 -0.3985  0.2564
 2815TIP3    H1 8390   1.706   4.724   2.648 -0.6980 -1.3028 -0.2429
 2815TIP3    H2 8391   1.726   4.864   2.593  2.9047 -1.4127  0.5168
 2816TIP3   OH2 8392   7.820   5.927   3.754 -0.6833  0.1849 -0.2100
 2816TIP3    H1 8393   7.830   6.021   3.742 -1.7820  0.2663 -0.6404
 2816TIP3    H2 8394   7.798   5.916   3.846 -1.6569  0.4639 -0.3996
 2817TIP3   OH2 8395   5.969   3.203   5.275  0.2546 -0.4872 -0.4096
 2817TIP3    H1 8396   5.968   3.272   5.341  0.8622  0.6102 -1.5279
 2817TIP3    H2 8397   5.978   3.248   5.192 -0.7569 -1.8395 -1.2956
 2818TIP3   OH2 8398   4.363   5.127   0.053  0.2586  0.1711 -0.3746
 2818TIP3    H1 8399   4.437   5.149   0.109 -0.5757  0.7318  0.5551
 2818TIP3    H2 8400   4.337   5.039   0.080 -1.0152  0.9618  1.1812
 2819TIP3   OH2 8401   6.596   6.304   0.231 -0.1547 -0.2155 -0.1755
 2819TIP3    H1 8402   6.556   6.340   0.310  0.9949 -0.7811  0.6885
 2819TIP3    H2 8403   6.585   6.373   0.165  2.0825  1.8841  1.4591
 2820TIP3   OH2 8404   1.844   3.851   2.738  0.1156 -0.4645 -0.7427
 2820TIP3    H1 8405   1.889   3.936   2.733  0.9934 -0.8894 -0.1578
 2820TIP3    H2 8406   1.819   3.843   2.830  0.1588 -0.9004 -0.7698
 2821TIP3   OH2 8407   3.081   0.191   4.557 -0.2837  0.1151 -0.2141
 2821TIP3    H1 8408   3.143   0.236   4.614 -0.2504 -0.5962  0.3295
 2821TIP3    H2 8409   2.998   0.195   4.605 -0.3060 -0.2929 -0.2169
 2822TIP3   OH2 8410   5.415   7.499   0.730 -0.3731 -0.7122  0.1141
 2822TIP3    H1 8411   5.475   7.429   0.703 -0.4040 -1.3945  1.6600
 2822TIP3    H2 8412   5.342   7.452   0.770 -1.2947  0.1639 -0.4993
 2823TIP3   OH2 8413   2.627   7.103   5.831  0.1751  0.2099 -0.0183
 2823TIP3    H1 8414   2.548   7.062   5.866 -0.2455  1.8925  1.1659
 2823TIP3    H2 8415   2.596   7.161   5.762  0.0456  2.2513  1.6366
 2824TIP3   OH2 8416   5.370   5.475   0.524  0.3903  0.3157 -0.2088
 2824TIP3    H1 8417   5.417   5.465   0.607  1.1525  1.6254 -0.4598
 2824TIP3    H2 8418   5.332   5.562   0.529  0.0148  0.2028 -1.0329
 2825TIP3   OH2 8419   2.490   0.591   5.575  0.0792 -0.5667  0.5504
 2825TIP3    H1 8420   2.422   0.633   5.628  2.0283  3.1990  0.3526
 2825TIP3    H2 8421   2.545   0.545   5.640 -1.0291 -1.2875  1.0088
 2826TIP3   OH2 8422   6.527   1.159   4.688 -0.7112  0.6604  0.3286
 2826TIP3    H1 8423   6.598   1.204   4.733  1.9258 -1.7879 -1.0537
 2826TIP3    H2 8424   6.482   1.109   4.757  0.9389 -0.1717  0.8658
 2827TIP3   OH2 8425   7.812   1.692   6.172  0.4559  0.4645 -0.2876
 2827TIP3    H1 8426   7.894   1.730   6.204  0.8457 -1.2592  0.9077
 2827TIP3    H2 8427   7.761   1.676   6.252 -1.1995  1.7378 -1.0205
 2828TIP3   OH2 8428   3.763   0.134   0.815  0.2038 -0.5868 -0.0788
 2828TIP3    H1 8429   3.704   0.164   0.884  0.1819 -1.1077  0.1347
 2828TIP3    H2 8430   3.838   0.099   0.861  0.9956  0.6794 -0.3629
 2829TIP3   OH2 8431   5.293   3.170   2.660 -0.4165  0.9485 -0.2331
 2829TIP3    H1 8432   5.333   3.254   2.635 -0.2805  1.0581  0.3354
 2829TIP3    H2 8433   5.295   3.171   2.755 -0.6489  0.4039 -0.2235
 2830TIP3   OH2 8434   4.519   0.982   2.370 -0.2438 -0.1773  0.2329
 2830TIP3    H1 8435   4.568   1.041   2.313 -0.0907 -1.7608 -1.3781
 2830TIP3    H2 8436   4.587   0.928   2.412 -0.3843  0.6716  1.6246
 2831TIP3   OH2 8437   3.200   4.835   1.281  0.3106 -0.2522  0.8567
 2831TIP3    H1 8438   3.175   4.754   1.325  0.5715 -0.7336  0.1343
 2831TIP3    H2 8439   3.123   4.892   1.291 -0.0488 -0.7495  0.9838
 2832TIP3   OH2 8440   4.713   5.622   2.572 -0.7543  0.7145  0.2496
 2832TIP3    H1 8441   4.636   5.632   2.628 -2.7510  1.2243 -2.3466
 2832TIP3    H2 8442   4.733   5.711   2.543  0.4087  0.5002  0.3586
 2833TIP3   OH2 8443   4.060   1.629   4.475 -0.2011 -0.2061  0.4439
 2833TIP3    H1 8444   4.151   1.599   4.487 -0.4206 -0.8732  0.4831
 2833TIP3    H2 8445   4.044   1.619   4.382  0.4983  2.0805  0.0163
 2834TIP3   OH2 8446   3.893   1.341   2.410  0.1674 -0.5037  0.3620
 2834TIP3    H1 8447   3.912   1.388   2.328  0.6113 -1.4524 -0.1011
 2834TIP3    H2 8448   3.807   1.373   2.437  0.8624  1.2510  0.5707
 2835TIP3   OH2 8449   2.692   3.270   2.006 -0.5730 -0.0998  0.1044
 2835TIP3    H1 8450   2.740   3.346   1.975 -0.4779  0.0546  0.6149
 2835TIP3    H2 8451   2.631   3.305   2.071  1.3564 -0.7676  2.4255
 2836TIP3   OH2 8452   0.221   5.911   2.543  0.2373  0.2051 -1.0550
 2836TIP3    H1 8453   0.229   5.851   2.617 -0.0659  0.0861 -1.1164
 2836TIP3    H2 8454   0.185   5.858   2.473 -1.7948  0.8673 -0.5741
 2837TIP3   OH2 8455   6.564   5.967   6.439  0.0155 -0.1285 -0.0933
 2837TIP3    H1 8456   6.563   5.881   6.396 -0.8610 -0.4680  0.5833
 2837TIP3    H2 8457   6.620   6.020   6.383  3.5804 -2.0648  1.3338
 2838TIP3   OH2 8458   3.019   0.596   5.291  0.4062  0.1584  0.4884
 2838TIP3    H1 8459   2.994   0.531   5.357  0.5513 -0.1136  0.2792
 2838TIP3    H2 8460   2.988   0.559   5.208 -1.8109  1.5367  0.6315
 2839TIP3   OH2 8461   3.419   4.735   0.939 -0.0086 -0.2674  0.0684
 2839TIP3    H1 8462   3.325   4.720   0.947  0.2005 -1.0133  1.3088
 2839TIP3    H2 8463   3.435   4.814   0.990  0.2104 -0.8228  0.8710
 2840TIP3   OH2 8464   0.200   3.624   1.216  0.7015 -0.3086  0.4980
 2840TIP3    H1 8465   0.230   3.588   1.133  0.0707 -0.8270  0.4789
 2840TIP3    H2 8466   0.104   3.625   1.208  0.7004  1.6962  0.3802
 2841TIP3   OH2 8467   6.671   3.596   4.002 -0.4663  0.1211 -1.1028
 2841TIP3    H1 8468   6.640   3.680   3.968  0.2215  0.1017 -1.8099
 2841TIP3    H2 8469   6.597   3.537   3.992 -1.6285  1.0696  1.1700
 2842TIP3   OH2 8470   5.071   4.173   4.533  0.0863 -0.2518  0.0336
 2842TIP3    H1 8471   5.044   4.253   4.578 -1.3137 -1.0112  0.6068
 2842TIP3    H2 8472   5.123   4.203   4.459  1.2124  1.0916  1.3251
 2843TIP3   OH2 8473   3.614   3.095   6.599 -0.5891  0.1438  0.1811
 2843TIP3    H1 8474   3.532   3.090   6.648 -0.7169 -0.4116 -0.0820
 2843TIP3    H2 8475   3.646   3.184   6.616 -0.3378 -0.2141  1.7215
 2844TIP3   OH2 8476   0.940   6.930   2.379 -0.3149 -0.1537 -0.6195
 2844TIP3    H1 8477   0.949   6.895   2.467  1.2787  0.2289 -0.6081
 2844TIP3    H2 8478   0.997   6.874   2.325 -0.4258  0.2968 -1.2179
 2845TIP3   OH2 8479   1.005   6.756   3.595 -0.2495  0.0742  0.6087
 2845TIP3    H1 8480   1.080   6.788   3.644  0.4581 -2.2772  1.1408
 2845TIP3    H2 8481   1.038   6.745   3.505  0.0892 -1.0406  0.8608
 2846TIP3   OH2 8482   8.120   3.622   0.987  0.0183  0.4315 -0.2070
 2846TIP3    H1 8483   8.185   3.634   1.056  0.9206  1.3724 -1.1915
 2846TIP3    H2 8484   8.037   3.614   1.035  0.7882 -0.4473  1.0474
 2847TIP3   OH2 8485   6.539   5.669   1.345  0.6182  0.4790  0.2767
 2847TIP3    H1 8486   6.527   5.618   1.265  1.2955  0.7452  0.0021
 2847TIP3    H2 8487   6.450   5.696   1.370 -0.1208 -2.8077  1.7818
 2848TIP3   OH2 8488   3.228   3.708   6.339 -0.3480  0.1379 -0.2843
 2848TIP3    H1 8489   3.267   3.784   6.382 -0.9467  0.0916  0.3477
 2848TIP3    H2 8490   3.220   3.735   6.247 -0.7409  0.9210 -0.0332
 2849TIP3   OH2 8491   4.575   5.630   6.698 -0.3172 -0.2068 -0.3470
 2849TIP3    H1 8492   4.488   5.593   6.682 -0.2899 -0.6621  0.5009
 2849TIP3    H2 8493   4.559   5.718   6.732 -0.4497 -0.2862 -0.2037
 2850TIP3   OH2 8494   7.099   0.211   6.411  0.4074 -0.5783 -0.6424
 2850TIP3    H1 8495   7.063   0.213   6.500  0.2586  3.8779 -0.5815
 2850TIP3    H2 8496   7.022   0.220   6.354  0.7400  0.1052 -0.9929
 2851TIP3   OH2 8497   4.053   6.672   5.984 -0.0191  0.0052  0.1760
 2851TIP3    H1 8498   4.042   6.578   5.971  1.5082  0.0775 -2.2869
 2851TIP3    H2 8499   4.147   6.687   5.971 -0.2403  1.8697  0.4538
 2852TIP3   OH2 8500   2.001   3.778   6.203 -0.2652 -0.3537 -0.3486
 2852TIP3    H1 8501   2.014   3.734   6.120  0.9350 -0.4184 -0.1351
 2852TIP3    H2 8502   1.923   3.737   6.240  0.8617 -2.3975 -0.1158
 2853TIP3   OH2 8503   5.582   1.021   0.510  0.3485  0.2596  0.0302
 2853TIP3    H1 8504   5.668   1.063   0.517 -0.7168  3.0456 -1.7522
 2853TIP3    H2 8505   5.558   1.032   0.418 -0.8108 -2.9075 -0.1654
 2854TIP3   OH2 8506   7.778   6.448   0.831 -0.4898 -0.3531  0.3483
 2854TIP3    H1 8507   7.846   6.418   0.771  0.2299  0.1181  0.9208
 2854TIP3    H2 8508   7.820   6.514   0.885 -1.5307  0.2952  0.4009
 2855TIP3   OH2 8509   2.017   1.594   2.319 -0.1093  0.6962  0.1073
 2855TIP3    H1 8510   2.033   1.635   2.404  0.4722 -0.2969  0.4924
 2855TIP3    H2 8511   2.070   1.514   2.320  1.1109  1.4024 -1.7818
 2856TIP3   OH2 8512   5.268   4.675   3.714 -0.5819 -0.2584 -0.1262
 2856TIP3    H1 8513   5.325   4.690   3.790 -0.1784 -0.3749 -0.4065
 2856TIP3    H2 8514   5.180   4.689   3.748 -0.4565 -1.0372  0.5523
 2857TIP3   OH2 8515   0.928   2.437   3.290  0.1689  0.1369 -0.8323
 2857TIP3    H1 8516   0.858   2.482   3.244 -0.0404  0.2469 -0.4139
 2857TIP3    H2 8517   0.964   2.503   3.349 -0.2413 -0.2751 -0.1068
 2858TIP3   OH2 8518   6.583   2.637   6.421  0.6560  0.2913 -0.6469
 2858TIP3    H1 8519   6.601   2.719   6.466 -0.1321 -1.4794  3.2825
 2858TIP3    H2 8520   6.666   2.612   6.381  1.9839  1.1202  1.4718
 2859TIP3   OH2 8521   4.039   2.792   0.531 -0.1456  0.2684 -0.4405
 2859TIP3    H1 8522   4.016   2.784   0.624 -0.1123 -0.7107 -0.5093
 2859TIP3    H2 8523   4.036   2.702   0.498  1.3978  0.3987 -1.0164
 2860TIP3   OH2 8524   3.270   2.705   0.281  0.3121 -0.2384 -0.1708
 2860TIP3    H1 8525   3.188   2.754   0.289 -0.0968 -1.0319  0.7109
 2860TIP3    H2 8526   3.334   2.769   0.251 -0.5063  0.5198 -0.3427
 2861TIP3   OH2 8527   4.536   1.977   4.824  0.7902  0.1098 -0.5370
 2861TIP3    H1 8528   4.442   1.985   4.812  0.4710  2.6249  2.3064
 2861TIP3    H2 8529   4.570   2.064   4.803  2.0064  0.1428  1.3415
 2862TIP3   OH2 8530   0.951   7.246   4.021 -0.4458  0.0440 -0.2669
 2862TIP3    H1 8531   1.008   7.320   4.000  1.7993 -0.8365  2.1340
 2862TIP3    H2 8532   0.880   7.284   4.072  0.6499  0.6362  0.8832
 2863TIP3   OH2 8533   0.779   2.074   3.223  0.1164 -0.4794  0.3676
 2863TIP3    H1 8534   0.847   2.091   3.288 -0.5135  1.9264  0.5125
 2863TIP3    H2 8535   0.815   2.107   3.141 -0.7831  0.8340  0.4470
 2864TIP3   OH2 8536   7.763   4.755   2.029  0.0171 -0.1981 -0.4255
 2864TIP3    H1 8537   7.776   4.849   2.021 -1.5864 -0.0573 -2.2554
 2864TIP3    H2 8538   7.838   4.716   1.985  0.2482  0.2562 -0.4331
 2865TIP3   OH2 8539   1.581   3.505   6.013  0.0043  0.0934  0.1544
 2865TIP3    H1 8540   1.654   3.444   6.002 -0.4992 -0.5200  0.1714
 2865TIP3    H2 8541   1.564   3.504   6.108  1.0324  1.4993  0.3970
 2866TIP3   OH2 8542   4.867   0.309   5.459 -0.0236 -0.2747  0.2251
 2866TIP3    H1 8543   4.803   0.342   5.522  0.4826 -0.5665  0.9064
 2866TIP3    H2 8544   4.822   0.313   5.375 -1.3641 -1.5848  0.8327
 2867TIP3   OH2 8545   3.846   4.746   3.614  0.0897 -0.3919  0.0892
 2867TIP3    H1 8546   3.785   4.793   3.558 -1.1786 -0.2174  1.5631
 2867TIP3    H2 8547   3.932   4.780   3.588 -0.5175  0.3081 -1.1287
 2868TIP3   OH2 8548   6.640   2.691   3.869 -0.1292 -0.0662 -0.4142
 2868TIP3    H1 8549   6.572   2.730   3.924 -1.6300 -1.1153 -1.4509
 2868TIP3    H2 8550   6.718   2.744   3.886 -0.1363 -1.0563  3.5909
 2869TIP3   OH2 8551   7.616   2.836   5.501 -0.4482  0.9880  0.1704
 2869TIP3    H1 8552   7.560   2.910   5.527 -0.8696  1.1994 -1.2528
 2869TIP3    H2 8553   7.588   2.815   5.412 -2.7997 -3.1632  1.6001
 2870TIP3   OH2 8554   0.547   6.139   2.668  0.2278 -0.1610 -0.3315
 2870TIP3    H1 8555   0.589   6.182   2.593 -0.4005  1.9836  0.4611
 2870TIP3    H2 8556   0.613   6.080   2.703  0.8293 -0.5348 -2.0339
 2871TIP3   OH2 8557   5.589   1.274   4.076  0.8021  0.3797  0.5047
 2871TIP3    H1 8558   5.632   1.346   4.031  0.9250 -0.4920 -0.8650
 2871TIP3    H2 8559   5.496   1.285   4.054  0.5398  1.2252  1.9456
 2872TIP3   OH2 8560   5.852   4.412   4.990  0.2396 -0.2282 -0.6221
 2872TIP3    H1 8561   5.777   4.375   4.944  0.5931 -1.6342 -0.0946
 2872TIP3    H2 8562   5.822   4.499   5.018 -1.4064 -0.9967  0.1260
 2873TIP3   OH2 8563   1.148   7.426   6.500  0.3004  0.6264  0.6686
 2873TIP3    H1 8564   1.123   7.518   6.498 -1.9422  0.1347 -2.9548
 2873TIP3    H2 8565   1.097   7.389   6.572 -2.1675  1.5402 -0.4916
 2874TIP3   OH2 8566   2.490   0.896   6.442 -0.5388 -0.2354  0.6517
 2874TIP3    H1 8567   2.522   0.964   6.383  0.0575 -2.4828 -1.7909
 2874TIP3    H2 8568   2.394   0.904   6.438 -0.4960 -0.0707 -0.3154
 2875TIP3   OH2 8569   2.969   3.053   1.058 -0.1672 -0.0028  0.0281
 2875TIP3    H1 8570   3.038   3.101   1.012 -0.2917 -0.2733 -0.4502
 2875TIP3    H2 8571   2.983   2.962   1.034 -1.8658  0.1332 -1.6725
 2876TIP3   OH2 8572   3.329   3.682   3.372  0.0997 -0.6548 -0.0871
 2876TIP3    H1 8573   3.294   3.698   3.284  1.6341  1.8592 -0.3389
 2876TIP3    H2 8574   3.402   3.623   3.358 -0.1490 -0.8997 -0.3886
 2877TIP3   OH2 8575   0.825   6.010   6.453 -0.3211 -0.2172  0.1999
 2877TIP3    H1 8576   0.818   6.088   6.509 -2.1318  0.6572 -1.1504
 2877TIP3    H2 8577   0.918   6.006   6.430 -0.2230  1.7618  0.0564
 2878TIP3   OH2 8578   4.781   2.639   1.596 -0.5985 -0.9199 -0.4330
 2878TIP3    H1 8579   4.785   2.609   1.505 -1.6003 -1.1894 -0.4043
 2878TIP3    H2 8580   4.710   2.703   1.597 -0.7689 -1.1094  0.2077
 2879TIP3   OH2 8581   4.738   4.792   0.640  0.6575  0.5226  0.2749
 2879TIP3    H1 8582   4.775   4.716   0.596  0.5180  0.3984  0.3731
 2879TIP3    H2 8583   4.716   4.762   0.728  0.3223  0.5932  0.2185
 2880TIP3   OH2 8584   0.554   4.627   4.160 -0.2535  0.2165 -0.5024
 2880TIP3    H1 8585   0.467   4.626   4.121 -0.1164 -1.1407 -0.8145
 2880TIP3    H2 8586   0.554   4.555   4.223  0.6351  0.1973 -0.5094
 2881TIP3   OH2 8587   2.796   5.885   1.337 -0.2593 -0.0095 -0.1950
 2881TIP3    H1 8588   2.842   5.842   1.409  0.5330  0.2498 -0.5314
 2881TIP3    H2 8589   2.813   5.830   1.261  0.1975  0.5132 -0.4863
 2882TIP3   OH2 8590   3.449   6.040   4.336  0.0305 -0.1571  0.6885
 2882TIP3    H1 8591   3.372   6.064   4.387  0.1044  3.2342 -0.5725
 2882TIP3    H2 8592   3.441   6.091   4.255  2.7909 -0.9388 -0.1851
 2883TIP3   OH2 8593   3.637   3.580   1.225  0.0266 -0.2670 -0.4589
 2883TIP3    H1 8594   3.662   3.488   1.231 -2.7387 -1.0212  1.3447
 2883TIP3    H2 8595   3.699   3.626   1.281 -0.2743 -1.4821  0.9274
 2884TIP3   OH2 8596   5.551   2.858   2.177  0.3415 -0.8713  0.0553
 2884TIP3    H1 8597   5.482   2.923   2.169  1.1850  0.2268  1.2406
 2884TIP3    H2 8598   5.576   2.838   2.087  1.0490  1.5652 -0.3680
 2885TIP3   OH2 8599   4.881   6.411   0.622  0.1149 -0.0159  0.2891
 2885TIP3    H1 8600   4.924   6.492   0.596 -0.3766  0.4305  0.8364
 2885TIP3    H2 8601   4.837   6.381   0.542 -0.3190  0.6563  0.2695
 2886TIP3   OH2 8602   3.185   4.094   3.471 -0.0888  0.2316  0.0618
 2886TIP3    H1 8603   3.122   4.133   3.412  0.2671  0.9844  0.1657
 2886TIP3    H2 8604   3.270   4.109   3.430  0.0827 -0.1135  0.2803
 2887TIP3   OH2 8605   6.022   2.637   6.707  0.2858  0.8062  0.5909
 2887TIP3    H1 8606   6.017   2.721   6.752 -0.3060  2.0635 -1.6570
 2887TIP3    H2 8607   6.047   2.659   6.617 -3.3310 -0.9768 -1.0734
 2888TIP3   OH2 8608   1.481   0.139   4.544  0.3057  0.0805  0.4224
 2888TIP3    H1 8609   1.516   0.116   4.630 -0.9887 -1.2985  0.6268
 2888TIP3    H2 8610   1.387   0.121   4.551 -0.1451  1.7858 -0.6985
 2889TIP3   OH2 8611   6.773   2.315   6.333 -0.0091 -0.3415  0.1773
 2889TIP3    H1 8612   6.818   2.256   6.272  1.4271  1.7210 -0.8467
 2889TIP3    H2 8613   6.806   2.402   6.312 -3.9861  1.3172 -0.2284
 2890TIP3   OH2 8614   5.207   2.888   2.795 -0.4849  0.4758  0.3484
 2890TIP3    H1 8615   5.247   2.924   2.875 -0.2606  0.1265  0.3947
 2890TIP3    H2 8616   5.281   2.859   2.742 -0.6474  0.4287  0.1469
 2891TIP3   OH2 8617   3.677   5.575   3.098 -0.4462 -0.4762 -0.0297
 2891TIP3    H1 8618   3.684   5.483   3.124  0.3882 -0.3602  0.1648
 2891TIP3    H2 8619   3.597   5.578   3.045 -0.9749 -1.1317  0.7037
 2892TIP3   OH2 8620   0.599   1.096   1.557 -0.3854  0.0005 -0.6642
 2892TIP3    H1 8621   0.645   1.161   1.610  0.5277 -0.9559 -0.2374
 2892TIP3    H2 8622   0.592   1.135   1.470 -0.7643  1.0720 -0.1645
 2893TIP3   OH2 8623   3.398   7.749   1.070 -0.0564  0.1960 -0.2069
 2893TIP3    H1 8624   3.325   7.779   1.016 -1.9936 -0.7637  1.7102
 2893TIP3    H2 8625   3.417   7.823   1.128  1.4638  0.9258 -1.5605
 2894TIP3   OH2 8626   7.513   6.372   6.583  0.6998 -0.2010  0.0118
 2894TIP3    H1 8627   7.423   6.370   6.550  1.0252  1.1417 -1.0423
 2894TIP3    H2 8628   7.519   6.455   6.631  1.0051 -0.9180  1.2644
 2895TIP3   OH2 8629   3.797   0.861   3.791 -0.1896 -0.2357 -0.6100
 2895TIP3    H1 8630   3.828   0.858   3.882  1.4455  0.0500 -1.1216
 2895TIP3    H2 8631   3.838   0.785   3.749  1.6802  1.3342 -1.8258
 2896TIP3   OH2 8632   0.561   2.331   3.118  0.1059 -0.6346  0.5052
 2896TIP3    H1 8633   0.637   2.383   3.144  0.5386 -1.2563  0.5209
 2896TIP3    H2 8634   0.488   2.371   3.164 -0.2039  2.0629 -2.0609
 2897TIP3   OH2 8635   3.261   1.717   5.949  0.8993 -0.4004  0.0382
 2897TIP3    H1 8636   3.195   1.774   5.910  0.5949  0.4790  1.7462
 2897TIP3    H2 8637   3.219   1.631   5.953  0.1814 -0.0452  0.3146
 2898TIP3   OH2 8638   1.570   6.115   4.697  0.5913 -0.1782 -0.1183
 2898TIP3    H1 8639   1.556   6.125   4.603  0.4051  0.4564 -0.0273
 2898TIP3    H2 8640   1.557   6.021   4.713  1.2803 -0.4081 -0.8252
 2899TIP3   OH2 8641   0.566   6.377   5.384  1.0806 -0.5952  0.7742
 2899TIP3    H1 8642   0.515   6.299   5.402  0.9811 -0.2683  2.0097
 2899TIP3    H2 8643   0.622   6.387   5.461 -0.0984  1.4636  1.4482
 2900TIP3   OH2 8644   4.633   4.790   1.694 -0.0465  0.6803  0.2310
 2900TIP3    H1 8645   4.726   4.770   1.706  0.3364  0.9736 -1.8096
 2900TIP3    H2 8646   4.596   4.709   1.659  0.2052  1.5114 -2.1546
 2901TIP3   OH2 8647   6.947   3.233   3.263  0.2036 -0.0016  0.1683
 2901TIP3    H1 8648   7.028   3.268   3.300 -0.4481  0.8713  0.8153
 2901TIP3    H2 8649   6.947   3.141   3.288  0.5054  0.2318  1.0570
 2902TIP3   OH2 8650   2.732   0.305   2.955  0.0992 -0.6047  0.3405
 2902TIP3    H1 8651   2.716   0.211   2.950  1.8216 -0.9883  1.0546
 2902TIP3    H2 8652   2.698   0.330   3.041  1.1542 -0.9485  0.8801
 2903TIP3   OH2 8653   0.351   2.718   2.260  0.3365 -0.2617  0.0689
 2903TIP3    H1 8654   0.366   2.798   2.310  0.8813 -0.8953  0.9678
 2903TIP3    H2 8655   0.414   2.723   2.188  1.1750 -0.3829  0.7642
 2904TIP3   OH2 8656   4.119   0.939   4.201 -0.0007  0.3680  0.2241
 2904TIP3    H1 8657   4.042   0.905   4.153  1.0784 -0.2273 -1.1625
 2904TIP3    H2 8658   4.083   0.969   4.284 -1.9136  1.0452 -0.7633
 2905TIP3   OH2 8659   7.460   7.265   3.460 -0.2614 -0.0902 -0.1166
 2905TIP3    H1 8660   7.468   7.237   3.551  1.1941 -2.3051 -0.8342
 2905TIP3    H2 8661   7.386   7.214   3.426 -1.7361  1.7917  0.1320
 2906TIP3   OH2 8662   8.271   7.593   0.879 -0.1390 -0.2320 -0.3534
 2906TIP3    H1 8663   8.184   7.555   0.887 -0.6843  0.2856 -2.8803
 2906TIP3    H2 8664   8.257   7.678   0.837  1.4851  0.3981  0.2887
 2907TIP3   OH2 8665   5.803   1.478   5.667  0.2491 -0.2065  0.1276
 2907TIP3    H1 8666   5.868   1.502   5.733 -0.3290 -1.4846  1.2248
 2907TIP3    H2 8667   5.766   1.395   5.699 -0.1035 -0.8466 -1.7835
 2908TIP3   OH2 8668   5.307   6.281   3.265  0.1555  0.3142 -0.9261
 2908TIP3    H1 8669   5.250   6.206   3.283 -0.0600  0.5843 -0.4361
 2908TIP3    H2 8670   5.246   6.351   3.240  0.1819  0.8475  0.4163
 2909TIP3   OH2 8671   5.608   5.802   4.275  0.2612 -0.2706 -0.4982
 2909TIP3    H1 8672   5.663   5.863   4.226 -0.4627 -0.7040 -1.9037
 2909TIP3    H2 8673   5.571   5.744   4.209 -1.5320 -0.2690  0.4318
 2910TIP3   OH2 8674   3.811   6.217   0.650  0.0659 -0.1624 -0.0225
 2910TIP3    H1 8675   3.729   6.182   0.686 -0.5119  1.4633  0.3065
 2910TIP3    H2 8676   3.865   6.237   0.726 -0.3918  1.4584 -0.0940
 2911TIP3   OH2 8677   0.683   2.242   0.095  0.5961  0.1407 -0.1516
 2911TIP3    H1 8678   0.640   2.249   0.180 -1.5776 -0.5472 -1.1043
 2911TIP3    H2 8679   0.776   2.258   0.113  0.1118  0.6874  2.2104
 2912TIP3   OH2 8680   3.523   3.510   3.285 -0.3499 -0.1543 -0.5805
 2912TIP3    H1 8681   3.507   3.508   3.191  0.2462 -0.9947 -0.6692
 2912TIP3    H2 8682   3.573   3.431   3.303  0.8007  0.7175  0.2079
 2913TIP3   OH2 8683   1.847   3.759   1.861 -0.0563  0.3284  0.4064
 2913TIP3    H1 8684   1.857   3.753   1.956 -0.6422  1.2934  0.5366
 2913TIP3    H2 8685   1.778   3.824   1.848 -0.5913 -0.4176 -0.6603
 2914TIP3   OH2 8686   0.689   1.620   5.828  0.3679 -0.3307 -0.3212
 2914TIP3    H1 8687   0.720   1.605   5.739 -0.7581 -0.0444 -0.7852
 2914TIP3    H2 8688   0.724   1.706   5.852  0.9569 -0.5598 -0.3546
 2915TIP3   OH2 8689   0.140   5.450   4.258 -0.5939 -0.0327 -0.4382
 2915TIP3    H1 8690   0.223   5.402   4.254 -0.9239 -0.5568 -1.1940
 2915TIP3    H2 8691   0.137   5.499   4.176 -1.9384 -1.5759 -1.3626
 2916TIP3   OH2 8692   2.162   3.489   4.314  0.4044  0.0421  0.1733
 2916TIP3    H1 8693   2.078   3.525   4.286  0.9725  0.7449 -0.7188
 2916TIP3    H2 8694   2.223   3.517   4.246  1.5196  0.2431  1.2218
 2917TIP3   OH2 8695   4.293   6.995   2.789 -0.1726 -0.0814 -0.3265
 2917TIP3    H1 8696   4.229   7.067   2.790 -1.5459 -1.2071 -1.6731
 2917TIP3    H2 8697   4.376   7.037   2.766 -0.4452  1.3847  1.1686
 2918TIP3   OH2 8698   5.632   0.151   3.256  0.3194  0.2533  0.2199
 2918TIP3    H1 8699   5.627   0.149   3.160 -0.7985 -4.2385  0.1459
 2918TIP3    H2 8700   5.545   0.123   3.285  1.3119 -0.8484  2.3847
 2919TIP3   OH2 8701   0.292   6.311   5.780 -0.1585 -0.0129  0.1918
 2919TIP3    H1 8702   0.200   6.338   5.772 -0.7102 -1.9816 -0.7710
 2919TIP3    H2 8703   0.332   6.338   5.697  0.3956  1.5955  0.9373
 2920TIP3   OH2 8704   3.140   4.571   4.984  0.7215 -0.0484  0.1914
 2920TIP3    H1 8705   3.074   4.600   5.048 -1.4683 -1.3173 -1.3572
 2920TIP3    H2 8706   3.196   4.647   4.971 -1.8749  1.9248 -0.1519
 2921TIP3   OH2 8707   1.384   2.077   3.559 -0.0041  0.3164 -0.0321
 2921TIP3    H1 8708   1.391   2.172   3.558 -0.4608  0.3589  0.4299
 2921TIP3    H2 8709   1.291   2.059   3.551 -0.0440 -0.0528  1.0522
 2922TIP3   OH2 8710   4.231   1.264   2.235  0.2130  0.2919  0.1988
 2922TIP3    H1 8711   4.191   1.351   2.237 -0.4071  0.0119  0.1547
 2922TIP3    H2 8712   4.209   1.226   2.320 -0.2009 -0.1235 -0.0900
 2923TIP3   OH2 8713   6.070   6.550   4.855  0.4398 -0.3679  0.6694
 2923TIP3    H1 8714   6.129   6.521   4.785 -0.1289 -1.5175  0.6489
 2923TIP3    H2 8715   5.986   6.565   4.811  0.4526  0.3066  0.8646
 2924TIP3   OH2 8716   2.172   7.715   3.604  0.8052  0.1167 -0.2045
 2924TIP3    H1 8717   2.256   7.759   3.620  0.7222 -0.0809  0.8286
 2924TIP3    H2 8718   2.129   7.770   3.539  0.5844  1.7435  1.2408
 2925TIP3   OH2 8719   5.425   1.913   3.559  0.4491 -0.2603  0.6240
 2925TIP3    H1 8720   5.436   1.877   3.647 -0.0621  0.8317  1.1653
 2925TIP3    H2 8721   5.489   1.984   3.554  0.1280  0.0122  0.3109
 2926TIP3   OH2 8722   2.065   2.756   3.354 -0.1319 -0.2244 -0.0314
 2926TIP3    H1 8723   2.124   2.684   3.331  0.3821 -0.0375  0.6692
 2926TIP3    H2 8724   2.041   2.739   3.445  0.2007  0.6180  0.2275
 2927TIP3   OH2 8725   0.366   2.609   5.734 -0.0839  0.2186 -0.0160
 2927TIP3    H1 8726   0.460   2.612   5.754 -0.1978 -0.4367  0.6790
 2927TIP3    H2 8727   0.327   2.671   5.795 -0.2340 -0.4349  0.5614
 2928TIP3   OH2 8728   5.086   3.756   3.075 -0.0798  0.1472  0.1579
 2928TIP3    H1 8729   5.135   3.697   3.017  1.3807  0.3761  1.0876
 2928TIP3    H2 8730   5.071   3.834   3.022 -1.3724 -0.7397 -0.8424
 2929TIP3   OH2 8731   7.139   3.772   1.909 -0.1766  0.1841 -0.1263
 2929TIP3    H1 8732   7.078   3.729   1.850  0.8848  0.5653 -1.5739
 2929TIP3    H2 8733   7.116   3.865   1.905 -0.8416  0.0855  1.0033
 2930TIP3   OH2 8734   7.072   6.237   1.687 -0.4703  0.6348 -0.0607
 2930TIP3    H1 8735   7.000   6.174   1.683  1.1803 -1.3634  0.3175
 2930TIP3    H2 8736   7.068   6.283   1.603 -1.4440 -0.2757 -0.5433
 2931TIP3   OH2 8737   3.561   3.932   4.107 -1.0261 -0.3572  0.3375
 2931TIP3    H1 8738   3.620   3.858   4.090 -1.4446 -0.4326 -0.9560
 2931TIP3    H2 8739   3.500   3.930   4.033 -1.4082  0.9249  0.6010
 2932TIP3   OH2 8740   7.844   0.762   4.945  0.5967  0.6186 -0.1302
 2932TIP3    H1 8741   7.799   0.809   4.875 -0.7811 -1.8133 -1.0186
 2932TIP3    H2 8742   7.823   0.810   5.025 -2.4475  0.4348 -0.7169
 2933TIP3   OH2 8743   3.360   7.568   0.746 -0.1760  0.1434  0.0127
 2933TIP3    H1 8744   3.442   7.617   0.747  0.3897 -0.6487 -2.0320
 2933TIP3    H2 8745   3.293   7.635   0.730  0.2736  0.5873 -0.0512
 2934TIP3   OH2 8746   4.122   6.670   3.806 -0.1996  0.0082  0.1015
 2934TIP3    H1 8747   4.054   6.642   3.745 -1.0172  0.6862  0.6805
 2934TIP3    H2 8748   4.176   6.593   3.819  0.6689  0.1425 -2.3332
 2935TIP3   OH2 8749   6.518   5.033   4.475  0.2587 -0.4566  0.6635
 2935TIP3    H1 8750   6.509   4.938   4.485 -0.4564 -0.2680  2.0801
 2935TIP3    H2 8751   6.474   5.053   4.392  2.5828 -1.6300 -0.9437
 2936TIP3   OH2 8752   4.353   5.271   4.164  0.3190  0.2972  0.1863
 2936TIP3    H1 8753   4.403   5.272   4.082  1.5889  0.3151  0.9209
 2936TIP3    H2 8754   4.373   5.186   4.203 -0.4348  0.2094  0.3784
 2937TIP3   OH2 8755   1.887   6.932   6.511 -0.1756  0.0188 -0.0609
 2937TIP3    H1 8756   1.858   6.917   6.421 -0.2704 -1.7436  0.2469
 2937TIP3    H2 8757   1.817   6.898   6.565  1.1898 -1.7598  0.6823
 2938TIP3   OH2 8758   6.631   6.911   1.244 -0.2422  0.0477 -0.3483
 2938TIP3    H1 8759   6.539   6.915   1.217  0.1958 -2.0073 -2.5731
 2938TIP3    H2 8760   6.649   6.817   1.250  1.6214  0.4255  0.4514
 2939TIP3   OH2 8761   6.312   0.887   6.406 -0.5281  0.1128  0.6204
 2939TIP3    H1 8762   6.369   0.874   6.331  0.7720  0.3115  1.5372
 2939TIP3    H2 8763   6.318   0.980   6.426  0.7701 -0.2479  2.1674
 2940TIP3   OH2 8764   2.542   1.199   1.988  0.3381 -0.4025 -0.0232
 2940TIP3    H1 8765   2.491   1.210   2.068  0.0207 -0.3802 -0.2288
 2940TIP3    H2 8766   2.524   1.277   1.936  1.0512 -0.1054  0.1580
 2941TIP3   OH2 8767   0.840   3.149   1.756 -0.1019 -0.1668  0.1284
 2941TIP3    H1 8768   0.782   3.112   1.690 -0.7190 -1.4487  1.3388
 2941TIP3    H2 8769   0.928   3.122   1.729 -0.2000  0.5082 -0.9011
 2942TIP3   OH2 8770   5.208   3.631   6.657  0.0087  0.2386 -0.3102
 2942TIP3    H1 8771   5.128   3.656   6.703 -0.4292  0.0259 -0.9257
 2942TIP3    H2 8772   5.181   3.556   6.604  0.8697 -0.4617  0.2260
 2943TIP3   OH2 8773   6.362   5.097   0.782  0.1430  0.1320  0.4180
 2943TIP3    H1 8774   6.301   5.079   0.710  0.2958  0.2052  0.2685
 2943TIP3    H2 8775   6.326   5.173   0.826 -0.0442 -0.0172  0.5243
 2944TIP3   OH2 8776   8.147   0.477   6.560 -0.3145  0.4122  0.1536
 2944TIP3    H1 8777   8.132   0.398   6.611 -0.0821 -0.5134 -1.1677
 2944TIP3    H2 8778   8.061   0.499   6.523 -0.1986  0.2443 -0.2200
 2945TIP3   OH2 8779   4.773   7.139   2.044 -0.6008  0.3246  0.3189
 2945TIP3    H1 8780   4.771   7.078   2.117 -1.4585  0.3072  0.2954
 2945TIP3    H2 8781   4.866   7.151   2.024 -0.4212 -0.8795  0.3947
 2946TIP3   OH2 8782   6.237   4.906   0.934  0.0112 -0.2958  0.2452
 2946TIP3    H1 8783   6.290   4.978   0.900  3.6360 -2.4469  0.8038
 2946TIP3    H2 8784   6.232   4.843   0.862 -3.7283  0.5949 -0.4917
 2947TIP3   OH2 8785   3.293   4.329   0.370 -0.3793  0.1548  0.5948
 2947TIP3    H1 8786   3.302   4.239   0.399 -0.4121  0.4691  1.6334
 2947TIP3    H2 8787   3.356   4.338   0.299 -0.0284 -0.5519  0.8090
 2948TIP3   OH2 8788   7.420   3.041   5.512  0.0747 -0.5398  0.0852
 2948TIP3    H1 8789   7.371   3.073   5.436  0.9787  0.0587 -0.2668
 2948TIP3    H2 8790   7.370   2.965   5.543  0.4207 -1.7068 -1.9944
 2949TIP3   OH2 8791   6.859   2.509   2.913  0.2429 -0.0737  0.2947
 2949TIP3    H1 8792   6.921   2.458   2.861 -0.1383 -0.6502  0.4078
 2949TIP3    H2 8793   6.894   2.599   2.910 -0.6559  0.2672 -2.3505
 2950TIP3   OH2 8794   3.160   3.982   4.534  0.2579 -0.0525 -0.1409
 2950TIP3    H1 8795   3.134   3.900   4.575  1.4865 -0.4270 -0.0768
 2950TIP3    H2 8796   3.255   3.983   4.539  0.3410  0.7591 -1.3270
 2951TIP3   OH2 8797   6.235   1.702   1.770  0.0386 -0.4185 -0.0041
 2951TIP3    H1 8798   6.233   1.775   1.708  0.2986  1.0258  1.6251
 2951TIP3    H2 8799   6.151   1.657   1.756 -1.5798  2.0611  1.0872
 2952TIP3   OH2 8800   2.985   2.377   4.886  0.2751 -0.5738  0.0100
 2952TIP3    H1 8801   3.044   2.447   4.858  1.3459 -1.3188  0.3439
 2952TIP3    H2 8802   3.043   2.308   4.916 -0.7866 -1.2398  0.5756
 2953TIP3   OH2 8803   0.094   2.441   6.463  0.0393 -0.0418 -0.6090
 2953TIP3    H1 8804   0.139   2.505   6.407  1.6399 -1.5287 -1.1090
 2953TIP3    H2 8805   0.005   2.475   6.471  1.1159  2.9051  0.1704
 2954TIP3   OH2 8806   7.258   5.295   5.294  0.1405  0.5750  0.3002
 2954TIP3    H1 8807   7.272   5.273   5.202 -2.2706  0.4460 -0.0963
 2954TIP3    H2 8808   7.190   5.234   5.323 -1.7820  2.9439  1.1046
 2955TIP3   OH2 8809   5.507   7.490   4.445  0.1676 -0.3384 -0.1647
 2955TIP3    H1 8810   5.435   7.429   4.461 -0.2585  0.5904  1.7068
 2955TIP3    H2 8811   5.465   7.567   4.405 -0.1961  0.7395  2.1009
 2956TIP3   OH2 8812   5.092   5.179   3.575  0.8937  0.0604 -0.1014
 2956TIP3    H1 8813   5.174   5.160   3.622  1.1058 -2.3343 -1.3263
 2956TIP3    H2 8814   5.118   5.242   3.507  1.7781 -0.7966 -0.5809
 2957TIP3   OH2 8815   1.817   2.905   0.243 -0.1856 -0.1665  0.0843
 2957TIP3    H1 8816   1.882   2.837   0.223 -0.6295  0.0033 -2.2187
 2957TIP3    H2 8817   1.844   2.940   0.327  1.7174 -1.2772 -0.0136
 2958TIP3   OH2 8818   0.166   0.597   3.463 -0.0109 -0.0646  0.2018
 2958TIP3    H1 8819   0.248   0.579   3.416  0.1385  1.2243 -0.0634
 2958TIP3    H2 8820   0.154   0.691   3.454 -1.3371 -0.1862  0.5600
 2959TIP3   OH2 8821   6.712   0.182   1.572 -0.0800 -0.0003 -0.2596
 2959TIP3    H1 8822   6.757   0.265   1.584  0.2735 -0.0632 -1.0604
 2959TIP3    H2 8823   6.624   0.207   1.544 -0.2465  0.1101  0.3538
 2960TIP3   OH2 8824   8.018   6.049   6.019  0.3144  0.0495  0.1251
 2960TIP3    H1 8825   7.951   6.069   5.954 -2.7165 -1.1660  2.6849
 2960TIP3    H2 8826   8.046   5.960   5.998  0.4605  0.2022 -0.3599
 2961TIP3   OH2 8827   2.326   5.629   4.002 -0.3576 -0.1213  0.3668
 2961TIP3    H1 8828   2.283   5.643   4.086 -0.3363  0.9007  0.2285
 2961TIP3    H2 8829   2.303   5.707   3.951  2.0794  0.7218  0.4556
 2962TIP3   OH2 8830   4.712   4.328   0.306 -0.4677  0.4668 -0.1870
 2962TIP3    H1 8831   4.781   4.263   0.291 -0.2706  0.4459  0.7340
 2962TIP3    H2 8832   4.680   4.309   0.394  0.2803  2.2301  0.5114
 2963TIP3   OH2 8833   2.993   7.148   4.782  0.2969 -0.1332 -0.1102
 2963TIP3    H1 8834   3.003   7.130   4.876 -0.6084 -1.2185 -0.2001
 2963TIP3    H2 8835   2.984   7.062   4.742  0.7168  0.3185 -1.2073
 2964TIP3   OH2 8836   0.454   4.737   4.825  0.2874 -0.1796 -0.7078
 2964TIP3    H1 8837   0.367   4.698   4.819 -0.5534  1.6298 -1.1033
 2964TIP3    H2 8838   0.476   4.733   4.919 -0.2706 -0.5704 -0.5924
 2965TIP3   OH2 8839   3.132   2.273   2.594  0.4385 -0.1213 -0.0172
 2965TIP3    H1 8840   3.060   2.218   2.625 -0.2516  1.6012  1.6353
 2965TIP3    H2 8841   3.211   2.232   2.632  0.2995 -1.5542 -1.1809
 2966TIP3   OH2 8842   4.900   4.264   1.893  0.0239  0.0106 -0.0419
 2966TIP3    H1 8843   4.972   4.327   1.899 -1.4186  1.6492  0.8874
 2966TIP3    H2 8844   4.937   4.181   1.924  1.6725  0.6401 -0.2656
 2967TIP3   OH2 8845   0.568   5.533   5.417 -0.2198 -0.1775  0.4047
 2967TIP3    H1 8846   0.600   5.452   5.457  1.2665  0.0272 -0.2916
 2967TIP3    H2 8847   0.620   5.543   5.337 -0.1917  1.5862  0.5943
 2968TIP3   OH2 8848   2.604   1.482   2.076 -0.0905 -0.3438  0.2215
 2968TIP3    H1 8849   2.520   1.522   2.100 -0.2233  0.5429 -1.5760
 2968TIP3    H2 8850   2.655   1.553   2.038  1.3500 -0.9726  0.8865
 2969TIP3   OH2 8851   7.329   5.630   2.731  0.1061  0.1726 -0.3330
 2969TIP3    H1 8852   7.365   5.615   2.644 -2.0660 -0.5395 -1.1618
 2969TIP3    H2 8853   7.329   5.544   2.773 -1.9143 -0.1535 -0.9062
 2970TIP3   OH2 8854   2.020   0.321   5.997  0.0196  0.0605 -0.1998
 2970TIP3    H1 8855   2.008   0.413   5.974  0.9908  0.1580 -0.3402
 2970TIP3    H2 8856   2.035   0.321   6.091  1.4312  0.2064 -0.3996
 2971TIP3   OH2 8857   7.022   4.950   6.148 -0.4849 -0.8562  0.5534
 2971TIP3    H1 8858   7.058   4.914   6.229  2.6121 -0.4073 -0.5273
 2971TIP3    H2 8859   7.041   4.885   6.081 -1.6453 -0.5461 -0.1177
 2972TIP3   OH2 8860   3.048   2.876   4.063 -0.1037  0.5356 -0.4222
 2972TIP3    H1 8861   3.111   2.861   3.993  1.1967  0.5364  0.6952
 2972TIP3    H2 8862   2.966   2.838   4.031  0.0404  1.8587 -2.5446
 2973TIP3   OH2 8863   3.673   1.956   6.050  0.5691  0.4319  0.2566
 2973TIP3    H1 8864   3.646   1.960   5.958 -0.6943 -0.9232  0.5286
 2973TIP3    H2 8865   3.595   1.925   6.096  1.7534 -0.7747  1.5255
 2974TIP3   OH2 8866   4.769   4.376   6.447  0.1952  0.3697  0.0499
 2974TIP3    H1 8867   4.704   4.400   6.513  1.1402 -1.0964  1.5924
 2974TIP3    H2 8868   4.725   4.392   6.364 -1.2444  1.7467  1.0119
 2975TIP3   OH2 8869   3.210   7.043   1.572 -0.0991  0.1807  0.0932
 2975TIP3    H1 8870   3.175   7.124   1.534 -1.8293  0.2681  1.7144
 2975TIP3    H2 8871   3.297   7.068   1.605 -0.6626  1.4512  0.6978
 2976TIP3   OH2 8872   6.350   6.671   1.524 -0.9940  0.1382  0.0932
 2976TIP3    H1 8873   6.323   6.591   1.480 -0.6088  1.2188 -2.2535
 2976TIP3    H2 8874   6.272   6.699   1.572 -1.7701 -0.5668 -0.7177
 2977TIP3   OH2 8875   7.541   5.558   4.871 -0.5379  0.4435 -0.3869
 2977TIP3    H1 8876   7.532   5.615   4.947  0.5013 -1.0054  0.9066
 2977TIP3    H2 8877   7.522   5.614   4.796 -0.6509  2.1780  0.8706
 2978TIP3   OH2 8878   0.870   3.548   1.639  1.1378 -0.5789 -0.2441
 2978TIP3    H1 8879   0.899   3.582   1.555  1.1487 -1.1329 -0.4683
 2978TIP3    H2 8880   0.943   3.564   1.699  0.7809  0.6340 -0.1193
 2979TIP3   OH2 8881   2.661   1.039   0.699 -0.2414  0.2838 -0.0372
 2979TIP3    H1 8882   2.749   1.016   0.669  0.9958 -1.1296  3.9430
 2979TIP3    H2 8883   2.663   1.133   0.712 -0.6336  0.8459 -3.3177
 2980TIP3   OH2 8884   4.736   3.008   2.977  0.2258  0.2361 -0.1802
 2980TIP3    H1 8885   4.748   3.103   2.975  1.0627  0.1554  0.4309
 2980TIP3    H2 8886   4.820   2.972   2.947 -0.3993 -0.3118 -1.3290
 2981TIP3   OH2 8887   2.576   2.719   5.821 -0.4503 -0.4339 -0.3656
 2981TIP3    H1 8888   2.631   2.692   5.748 -0.2241 -2.1552  0.3729
 2981TIP3    H2 8889   2.531   2.639   5.848 -1.7776  0.5071  0.3422
 2982TIP3   OH2 8890   7.502   5.595   6.250 -0.2095 -0.6429  0.1670
 2982TIP3    H1 8891   7.459   5.581   6.165  0.2498 -0.2819 -0.1320
 2982TIP3    H2 8892   7.584   5.546   6.244  0.4199  0.4078 -0.0887
 2983TIP3   OH2 8893   7.483   5.611   5.643 -0.0480  0.3762  0.0833
 2983TIP3    H1 8894   7.438   5.547   5.588  0.1691 -0.2242  0.5904
 2983TIP3    H2 8895   7.432   5.692   5.632 -0.4975  0.0449 -0.3379
 2984TIP3   OH2 8896   0.069   1.254   5.503 -0.0355 -0.4557  0.2034
 2984TIP3    H1 8897   0.106   1.291   5.583 -1.8847  0.9634  0.4679
 2984TIP3    H2 8898   0.136   1.271   5.436  0.6277  0.2935  1.0261
 2985TIP3   OH2 8899   5.979   1.569   3.882  0.2741  0.3879 -0.0980
 2985TIP3    H1 8900   5.939   1.500   3.829  0.9336  1.0886 -1.5610
 2985TIP3    H2 8901   5.917   1.584   3.953 -0.0641 -1.4233  0.0354
 2986TIP3   OH2 8902   7.939   2.939   4.537 -0.1999  0.2416 -0.2672
 2986TIP3    H1 8903   7.854   2.962   4.573 -0.4719  0.1816 -0.8720
 2986TIP3    H2 8904   7.920   2.896   4.454  0.4653  1.1832 -0.9286
 2987TIP3   OH2 8905   0.918   2.745   3.955  0.0597 -0.0709 -0.1212
 2987TIP3    H1 8906   0.958   2.765   4.040 -0.2951 -1.8685  0.5159
 2987TIP3    H2 8907   0.842   2.692   3.976  1.0241 -2.2009 -1.5999
 2988TIP3   OH2 8908   3.278   7.151   0.520 -0.6165  0.1293 -0.8694
 2988TIP3    H1 8909   3.334   7.153   0.443 -0.5556  1.3443 -0.8158
 2988TIP3    H2 8910   3.271   7.058   0.543  1.6263 -0.0348 -0.6978
 2989TIP3   OH2 8911   2.108   4.282   1.710 -0.3201  0.4470 -0.0281
 2989TIP3    H1 8912   2.197   4.301   1.680 -0.6295  1.7042 -0.1945
 2989TIP3    H2 8913   2.095   4.190   1.688  1.3339 -0.0839  1.0158
 2990TIP3   OH2 8914   5.982   4.774   6.502 -0.3771 -0.2510 -0.0563
 2990TIP3    H1 8915   6.073   4.745   6.508 -0.2662 -0.5535 -2.2064
 2990TIP3    H2 8916   5.984   4.864   6.536  1.2392  0.5964 -2.1230
 2991TIP3   OH2 8917   4.089   2.914   2.011  0.1027  0.4293 -0.5204
 2991TIP3    H1 8918   4.060   2.863   1.935  0.3561 -0.2657 -0.1586
 2991TIP3    H2 8919   4.061   3.003   1.992  0.7480  0.3971 -1.7454
 2992TIP3   OH2 8920   2.756   4.997   4.099  0.1279 -0.2210  0.5417
 2992TIP3    H1 8921   2.817   4.938   4.143  0.5750  0.3277  0.6661
 2992TIP3    H2 8922   2.807   5.076   4.081  0.2637 -0.8124 -1.9270
 2993TIP3   OH2 8923   2.631   7.678   0.105 -0.0542  0.2851 -0.2992
 2993TIP3    H1 8924   2.538   7.698   0.118 -0.4067 -1.6530  0.5281
 2993TIP3    H2 8925   2.639   7.665   0.010 -0.1161  2.5227 -0.6742
 2994TIP3   OH2 8926   2.969   4.109   5.631 -0.1460 -0.0082 -0.0447
 2994TIP3    H1 8927   2.971   4.167   5.707  2.3052  0.2671 -0.2500
 2994TIP3    H2 8928   2.899   4.144   5.576  0.5517  2.0999  0.3393
 2995TIP3   OH2 8929   3.633   5.606   0.401 -0.1823 -0.8405 -0.7133
 2995TIP3    H1 8930   3.631   5.699   0.420  1.8283 -1.1734  1.7055
 2995TIP3    H2 8931   3.555   5.570   0.444 -0.1296 -0.4730 -0.3115
 2996TIP3   OH2 8932   3.962   0.068   1.694 -0.3820  0.5081 -0.2936
 2996TIP3    H1 8933   4.030   0.130   1.667 -1.7146  2.2592  0.2242
 2996TIP3    H2 8934   3.987  -0.015   1.651  0.9593  1.6001 -1.7508
 2997TIP3   OH2 8935   5.235   2.913   4.202 -0.3349 -0.1452 -0.0388
 2997TIP3    H1 8936   5.328   2.932   4.218  0.1272 -1.7233 -0.6646
 2997TIP3    H2 8937   5.216   2.956   4.119 -0.4113  0.8855  0.4951
 2998TIP3   OH2 8938   2.090   2.447   6.183  0.4234 -0.1041 -0.2500
 2998TIP3    H1 8939   2.066   2.355   6.178  0.1510  0.0394 -2.4602
 2998TIP3    H2 8940   2.177   2.451   6.144  0.3873  0.5915 -0.2680
 2999TIP3   OH2 8941   2.068   7.321   2.490 -0.8832 -0.0056 -0.3400
 2999TIP3    H1 8942   1.981   7.360   2.484 -0.7315  0.1651 -1.9964
 2999TIP3    H2 8943   2.053   7.233   2.524 -1.8028 -0.2356 -1.2971
 3000TIP3   OH2 8944   3.152   6.998   6.319 -0.5106 -0.4131  0.5113
 3000TIP3    H1 8945   3.114   7.013   6.232 -1.1751  0.0726  0.8705
 3000TIP3    H2 8946   3.126   6.909   6.341 -0.3577 -0.5304  0.2226
 3001TIP3   OH2 8947   1.552   6.706   5.518  0.1531 -0.0759 -0.3622
 3001TIP3    H1 8948   1.538   6.704   5.613  2.6660 -1.7157  0.0982
 3001TIP3    H2 8949   1.635   6.753   5.508  0.6375 -1.1490 -1.5931
 3002TIP3   OH2 8950   6.772   0.418   3.311  0.0343 -0.5001  0.0529
 3002TIP3    H1 8951   6.835   0.458   3.371  1.0763  0.3254 -1.5323
 3002TIP3    H2 8952   6.736   0.491   3.261  1.1817 -1.3503 -2.1609
 3003TIP3   OH2 8953   0.515   5.279   1.283  0.0778  0.7171  0.2639
 3003TIP3    H1 8954   0.563   5.346   1.234 -1.2246  0.4127 -1.5482
 3003TIP3    H2 8955   0.582   5.215   1.307  1.1654  2.1211  1.1178
 3004TIP3   OH2 8956   6.088   7.392   5.829  0.1701 -0.4651  0.8878
 3004TIP3    H1 8957   6.061   7.442   5.906  0.4314 -1.1858  1.4517
 3004TIP3    H2 8958   6.058   7.303   5.846 -0.6332 -0.4426 -0.2857
 3005TIP3   OH2 8959   0.774   6.761   0.259  0.0715 -0.0881  0.3737
 3005TIP3    H1 8960   0.702   6.802   0.308 -0.8501 -0.4631 -0.6221
 3005TIP3    H2 8961   0.737   6.746   0.172  1.1385 -0.9491  0.0583
 3006TIP3   OH2 8962   1.244   3.303   5.635  0.1982  0.4560  0.7499
 3006TIP3    H1 8963   1.336   3.319   5.656  0.4266  0.8120 -0.4613
 3006TIP3    H2 8964   1.200   3.386   5.655  0.0047  0.0783  1.9721
 3007TIP3   OH2 8965   4.509   5.481   4.312  0.1932  0.2041 -0.4914
 3007TIP3    H1 8966   4.453   5.420   4.362  1.1922  0.2720  0.7441
 3007TIP3    H2 8967   4.535   5.430   4.235  1.1028 -1.0195  0.5719
 3008TIP3   OH2 8968   2.073   0.764   2.682 -0.1240  0.6533 -0.2041
 3008TIP3    H1 8969   2.139   0.833   2.673  0.1895  0.2426 -1.1554
 3008TIP3    H2 8970   2.123   0.683   2.685 -0.6070  0.1703 -2.8603
 3009TIP3   OH2 8971   7.169   3.975   3.127 -0.4212 -0.2452  0.1253
 3009TIP3    H1 8972   7.236   4.032   3.088  0.1645 -1.1211 -0.1734
 3009TIP3    H2 8973   7.155   3.906   3.062 -1.4489 -0.2081  0.2875
 3010TIP3   OH2 8974   0.266   4.193   3.339 -0.0547  0.4587 -0.3549
 3010TIP3    H1 8975   0.320   4.151   3.272 -0.1422  1.2264 -0.9286
 3010TIP3    H2 8976   0.230   4.120   3.390  0.9515 -0.0859 -0.4026
 3011TIP3   OH2 8977   4.810   3.998   4.706  0.6767  0.7743 -0.4986
 3011TIP3    H1 8978   4.797   3.943   4.783 -0.5202  0.9210 -0.5771
 3011TIP3    H2 8979   4.800   4.088   4.739  1.6466  0.9163 -0.5560
 3012TIP3   OH2 8980   6.968   7.769   3.401  0.0889  0.1296 -0.3866
 3012TIP3    H1 8981   6.985   7.679   3.429 -0.0190  0.0645 -0.5259
 3012TIP3    H2 8982   6.918   7.808   3.473  1.7576  0.6600  0.5225
 3013TIP3   OH2 8983   0.964   6.352   0.102  0.1819  0.0058  0.2506
 3013TIP3    H1 8984   0.956   6.394   0.016 -1.2916  0.2948  0.5054
 3013TIP3    H2 8985   0.989   6.261   0.082  0.3122  0.1909 -0.4555
 3014TIP3   OH2 8986   2.060   0.684   0.281 -0.7517 -0.4811  1.0222
 3014TIP3    H1 8987   2.080   0.739   0.205 -0.3211 -2.0371 -0.0404
 3014TIP3    H2 8988   2.063   0.744   0.355  0.1809  0.8392 -0.0263
 3015TIP3   OH2 8989   3.800   4.920   5.551  0.1875 -0.1948 -0.2395
 3015TIP3    H1 8990   3.815   4.826   5.561  0.2587 -0.2617 -0.9332
 3015TIP3    H2 8991   3.872   4.962   5.598  0.6178 -0.4921 -0.6303
 3016TIP3   OH2 8992   2.572   6.532   4.692 -0.5033  0.1104 -0.0809
 3016TIP3    H1 8993   2.648   6.587   4.678  0.7203 -1.5922 -0.4701
 3016TIP3    H2 8994   2.603   6.443   4.673 -1.6588 -1.0791  2.9540
 3017TIP3   OH2 8995   1.088   3.677   2.953  0.2256  0.1321 -0.1487
 3017TIP3    H1 8996   1.045   3.591   2.955 -0.5430  0.5084 -0.2456
 3017TIP3    H2 8997   1.149   3.675   3.027  0.3423 -0.5626 -0.2593
 3018TIP3   OH2 8998   1.397   6.204   0.818  0.5561  0.3338  0.1054
 3018TIP3    H1 8999   1.365   6.279   0.868 -0.6704 -1.7595  2.7214
 3018TIP3    H2 9000   1.473   6.173   0.866  0.8124 -0.3576 -0.7121
 3019TIP3   OH2 9001   2.135   3.630   5.212 -0.0067  0.2425  0.1036
 3019TIP3    H1 9002   2.230   3.621   5.205  0.2402  2.8587 -0.9219
 3019TIP3    H2 9003   2.101   3.553   5.165  1.6312  0.1696 -1.0809
 3020TIP3   OH2 9004   2.999   0.384   3.822  0.1509 -0.3375  0.4781
 3020TIP3    H1 9005   2.972   0.357   3.910  0.4222 -0.9559  0.3766
 3020TIP3    H2 9006   2.934   0.345   3.764 -0.5266  0.7785  0.4483
 3021TIP3   OH2 9007   8.183   3.005   3.241 -0.2381 -0.2108 -0.0742
 3021TIP3    H1 9008   8.259   3.064   3.243 -0.3345 -0.0835  2.3632
 3021TIP3    H2 9009   8.219   2.920   3.217  0.9105 -0.3657  1.9621
 3022TIP3   OH2 9010   2.644   7.138   0.097 -0.1840 -0.4096 -0.6820
 3022TIP3    H1 9011   2.730   7.141   0.055 -1.1157 -0.6146 -2.7250
 3022TIP3    H2 9012   2.611   7.227   0.090 -0.4377 -0.4962 -0.5693
 3023TIP3   OH2 9013   8.169   5.331   2.782 -0.5058  0.7891 -0.1923
 3023TIP3    H1 9014   8.234   5.370   2.840 -0.9148 -0.3984  1.1110
 3023TIP3    H2 9015   8.193   5.362   2.695  2.8315 -0.8733 -0.0130
 3024TIP3   OH2 9016   1.684   5.801   2.281  0.4311 -0.1093  0.1639
 3024TIP3    H1 9017   1.715   5.742   2.350  2.3802  0.9198  0.2336
 3024TIP3    H2 9018   1.689   5.749   2.201 -0.0335 -0.7131  0.5114
 3025TIP3   OH2 9019   3.390   6.351   1.712  0.2328  0.1623 -0.3673
 3025TIP3    H1 9020   3.336   6.428   1.694 -0.8568 -0.4127  0.3115
 3025TIP3    H2 9021   3.382   6.296   1.634 -0.5426 -0.1194 -0.0990
 3026TIP3   OH2 9022   0.707   2.488   1.361 -0.5621  0.1862 -0.3272
 3026TIP3    H1 9023   0.628   2.481   1.307  0.2221 -0.6072 -1.4081
 3026TIP3    H2 9024   0.699   2.416   1.423 -0.9684  0.4718 -0.0394
 3027TIP3   OH2 9025   1.852   4.177   5.101  0.0846  0.3074 -0.5565
 3027TIP3    H1 9026   1.786   4.220   5.046  1.4920  2.0481 -0.9757
 3027TIP3    H2 9027   1.931   4.230   5.089  1.5031 -1.5558  0.1275
 3028TIP3   OH2 9028   6.527   1.443   6.213  0.3851  0.3623 -0.3196
 3028TIP3    H1 9029   6.615   1.478   6.200  0.4025  0.7891  0.8148
 3028TIP3    H2 9030   6.539   1.375   6.279 -0.2124  0.8615  0.3197
 3029TIP3   OH2 9031   0.443   4.137   3.131 -1.0471 -0.5357 -0.1043
 3029TIP3    H1 9032   0.406   4.140   3.043 -0.7357 -0.6853 -0.2435
 3029TIP3    H2 9033   0.538   4.132   3.116 -0.9425  0.2410  0.2390
 3030TIP3   OH2 9034   1.747   7.799   1.966  0.8615  0.4911 -0.2616
 3030TIP3    H1 9035   1.843   7.794   1.962  0.7837 -0.7422 -0.9624
 3030TIP3    H2 9036   1.725   7.878   1.917  1.4444 -0.0492 -1.4285
 3031TIP3   OH2 9037   2.660   7.203   3.256  0.6377  0.0040  0.3290
 3031TIP3    H1 9038   2.668   7.240   3.343  0.8568  0.5907  0.0672
 3031TIP3    H2 9039   2.587   7.251   3.216  1.8892  1.2739 -0.5478
 3032TIP3   OH2 9040   2.103   0.181   2.339 -0.0460 -0.1502  0.0058
 3032TIP3    H1 9041   2.070   0.250   2.397 -1.2009 -0.2965 -0.4426
 3032TIP3    H2 9042   2.050   0.105   2.360 -0.8081 -0.0862 -1.5264
 3033TIP3   OH2 9043   1.704   3.729   1.142 -0.0943  0.6632 -0.2902
 3033TIP3    H1 9044   1.790   3.763   1.116  1.1355 -1.6552  0.4733
 3033TIP3    H2 9045   1.704   3.734   1.238  0.0331 -1.1591 -0.1665
 3034TIP3   OH2 9046   2.136   5.423   3.811  0.0058 -0.0614  0.0793
 3034TIP3    H1 9047   2.101   5.418   3.900 -2.2780 -1.4673 -0.8298
 3034TIP3    H2 9048   2.229   5.400   3.821 -0.5160 -1.5867  1.9398
 3035TIP3   OH2 9049   0.627   3.566   4.058  0.2478 -0.0106 -0.2552
 3035TIP3    H1 9050   0.606   3.620   4.135 -1.4776 -0.7678 -0.1374
 3035TIP3    H2 9051   0.597   3.618   3.983 -1.5611 -0.7913 -0.1321
 3036TIP3   OH2 9052   1.137   0.381   1.789  0.2135  0.1346  0.3486
 3036TIP3    H1 9053   1.182   0.451   1.741 -1.3253  0.1890 -1.1039
 3036TIP3    H2 9054   1.158   0.301   1.740 -0.3972  0.0203  0.2613
 3037TIP3   OH2 9055   5.687   6.459   0.017 -0.2822  0.1630 -0.2917
 3037TIP3    H1 9056   5.663   6.532   0.073 -0.2297  0.3178 -0.4707
 3037TIP3    H2 9057   5.656   6.484  -0.070  0.6779  0.4457 -0.5640
 3038TIP3   OH2 9058   3.374   7.103   6.735 -0.5083  0.4215 -0.1905
 3038TIP3    H1 9059   3.410   7.015   6.749 -0.6468  0.1891 -1.2634
 3038TIP3    H2 9060   3.381   7.145   6.821 -1.5123 -1.0259  0.6584
 3039TIP3   OH2 9061   4.448   1.777   4.151 -0.8001 -0.1003 -0.1647
 3039TIP3    H1 9062   4.378   1.817   4.202 -0.9861  0.3866 -0.7847
 3039TIP3    H2 9063   4.405   1.711   4.097 -0.9147  0.7226 -1.1049
 3040TIP3   OH2 9064   1.500   2.029   5.539 -0.2600  0.3835 -0.2458
 3040TIP3    H1 9065   1.415   2.058   5.505  0.5817  0.6761 -2.2466
 3040TIP3    H2 9066   1.555   2.021   5.461  1.4842 -0.0558  0.9818
 3041TIP3   OH2 9067   5.533   7.300   0.573  0.2453  0.2751  0.2104
 3041TIP3    H1 9068   5.535   7.244   0.496 -0.4616  1.4664 -0.7133
 3041TIP3    H2 9069   5.606   7.269   0.627 -1.1588 -2.6303  0.5990
 3042TIP3   OH2 9070   8.050   2.700   5.699 -0.0991 -1.0517 -0.2945
 3042TIP3    H1 9071   8.021   2.695   5.608  1.0894 -0.3452 -0.7363
 3042TIP3    H2 9072   7.970   2.711   5.750 -0.9086 -2.8061 -1.1183
 3043TIP3   OH2 9073   0.114   5.075   0.424 -0.2666 -0.2841  0.1800
 3043TIP3    H1 9074   0.202   5.071   0.386 -0.3183  2.6953 -0.5358
 3043TIP3    H2 9075   0.059   5.108   0.354 -1.5003  0.0499  1.2603
 3044TIP3   OH2 9076   3.512   0.616   0.740 -0.0836  0.4024  0.2318
 3044TIP3    H1 9077   3.592   0.565   0.746 -0.0053  0.2288 -1.5850
 3044TIP3    H2 9078   3.524   0.688   0.802  2.0690  1.1117 -0.9016
 3045TIP3   OH2 9079   6.930   2.158   0.260 -0.4398  0.6702  0.1621
 3045TIP3    H1 9080   6.964   2.166   0.349  0.4847  1.0432 -0.2185
 3045TIP3    H2 9081   6.875   2.235   0.248 -1.2725  0.1832  0.6942
 3046TIP3   OH2 9082   5.408   0.053   3.988  0.2491 -0.7220  0.0438
 3046TIP3    H1 9083   5.470   0.065   3.916  0.2884 -1.0485  0.0227
 3046TIP3    H2 9084   5.359  -0.026   3.965 -0.1141 -0.5191  0.1078
 3047TIP3   OH2 9085   2.665   1.343   4.209 -0.5431 -0.1316  0.1989
 3047TIP3    H1 9086   2.716   1.397   4.148 -0.0987 -0.9647 -0.1844
 3047TIP3    H2 9087   2.727   1.317   4.277 -0.7849 -0.0620  0.4506
 3048TIP3   OH2 9088   4.671   0.406   5.659  0.4906  0.2875 -0.4871
 3048TIP3    H1 9089   4.604   0.363   5.712  1.3158  1.3503  1.5187
 3048TIP3    H2 9090   4.648   0.499   5.663  1.3341  0.5206 -0.9321
 3049TIP3   OH2 9091   4.710   3.860   2.543  0.1362  0.9684 -0.3893
 3049TIP3    H1 9092   4.637   3.915   2.570  0.7835  1.8273 -0.3735
 3049TIP3    H2 9093   4.788   3.915   2.553  0.6748  0.4440 -1.4756
 3050TIP3   OH2 9094   3.874   7.072   0.828  0.6482  0.0510  0.4475
 3050TIP3    H1 9095   3.931   7.136   0.785  1.6118 -1.0589  0.0140
 3050TIP3    H2 9096   3.912   6.987   0.806 -1.5798 -0.7875 -0.4329
 3051TIP3   OH2 9097   2.937   4.324   3.741  0.6671 -0.1239 -0.4042
 3051TIP3    H1 9098   2.913   4.301   3.831  2.2324 -0.8149 -0.1400
 3051TIP3    H2 9099   3.029   4.349   3.746  0.3680  1.3805 -1.5740
 3052TIP3   OH2 9100   0.709   1.927   4.179 -0.0637  0.0604 -0.3091
 3052TIP3    H1 9101   0.791   1.939   4.132  0.5550  0.5002  0.8320
 3052TIP3    H2 9102   0.667   1.854   4.135  0.6503  0.2305 -1.3072
 3053TIP3   OH2 9103   7.589   7.183   3.225 -0.0751  0.2005 -0.1143
 3053TIP3    H1 9104   7.552   7.216   3.307  0.8578 -1.7161  1.1636
 3053TIP3    H2 9105   7.671   7.232   3.215  1.3078 -1.5753  1.7655
 3054TIP3   OH2 9106   7.428   4.650   4.465 -0.0551  0.1285 -0.0123
 3054TIP3    H1 9107   7.477   4.684   4.390  0.1185 -1.4480 -0.6525
 3054TIP3    H2 9108   7.447   4.556   4.466 -2.1391 -0.3432  0.4117
 3055TIP3   OH2 9109   7.484   4.673   6.682 -0.3226  0.1298 -0.0690
 3055TIP3    H1 9110   7.570   4.647   6.648 -0.8098 -0.3182 -0.9952
 3055TIP3    H2 9111   7.472   4.620   6.761  0.5140  0.6556  0.4368
 3056TIP3   OH2 9112   6.749   7.007   5.922  0.3158 -0.3905  0.0461
 3056TIP3    H1 9113   6.777   6.932   5.868  0.1235 -1.1802  1.0053
 3056TIP3    H2 9114   6.756   7.082   5.864  0.0626 -1.2166 -1.0995
 3057TIP3   OH2 9115   3.882   2.186   1.445  0.3830  0.3883  0.5024
 3057TIP3    H1 9116   3.856   2.234   1.366 -1.0148 -0.7320  0.2494
 3057TIP3    H2 9117   3.975   2.203   1.453  0.2403  1.8619 -0.4604
 3058TIP3   OH2 9118   3.811   4.572   3.852  0.5061 -0.0660 -0.0762
 3058TIP3    H1 9119   3.830   4.632   3.780  0.4977  1.7393  1.3309
 3058TIP3    H2 9120   3.742   4.616   3.902  0.2439 -1.4345  0.8259
 3059TIP3   OH2 9121   3.188   3.278   1.700  0.3239 -0.1651 -0.7882
 3059TIP3    H1 9122   3.114   3.251   1.754  1.8071 -1.6005  0.6613
 3059TIP3    H2 9123   3.205   3.368   1.727  0.4879 -0.5689  0.5518
 3060TIP3   OH2 9124   5.553   6.124   3.207  0.2282 -0.4886 -0.5360
 3060TIP3    H1 9125   5.614   6.169   3.150  0.5435 -1.0959 -0.6917
 3060TIP3    H2 9126   5.490   6.191   3.233 -0.9913 -0.5629 -3.0265
 3061TIP3   OH2 9127   3.711   0.251   1.292 -0.5380 -0.3048  0.1716
 3061TIP3    H1 9128   3.803   0.226   1.300 -0.1971  1.0516  0.8873
 3061TIP3    H2 9129   3.663   0.184   1.340  0.1734 -0.5269  0.5870
 3062TIP3   OH2 9130   0.432   5.984   4.344 -0.4090 -0.3135  0.0379
 3062TIP3    H1 9131   0.486   6.010   4.269  1.1945 -0.4285  1.0945
 3062TIP3    H2 9132   0.353   5.947   4.305 -0.1115  0.6439 -1.5698
 3063TIP3   OH2 9133   1.597   6.723   2.473  0.4398  0.2728  0.5248
 3063TIP3    H1 9134   1.628   6.702   2.385  1.6227  0.1137  0.9633
 3063TIP3    H2 9135   1.669   6.772   2.514 -0.9589  2.3082  0.6751
 3064TIP3   OH2 9136   2.577  -0.002   4.214  0.0388 -0.4324  0.2573
 3064TIP3    H1 9137   2.524   0.078   4.219 -1.5375 -1.4727  0.9625
 3064TIP3    H2 9138   2.624  -0.005   4.298  0.7053  0.1291 -0.0840
 3065TIP3   OH2 9139   6.907   0.731   0.855 -0.2047 -0.0801 -0.2581
 3065TIP3    H1 9140   6.870   0.749   0.769 -1.0459 -0.5727 -0.0112
 3065TIP3    H2 9141   6.885   0.639   0.872  0.8267 -0.2793  0.0545
 3066TIP3   OH2 9142   7.356   0.648   5.568  0.3610 -0.3908 -0.6764
 3066TIP3    H1 9143   7.305   0.680   5.493 -0.9419 -0.4633  0.1560
 3066TIP3    H2 9144   7.395   0.567   5.537 -1.7264 -1.4389 -0.7184
 3067TIP3   OH2 9145   6.618   6.094   2.160  0.5122  0.8385 -0.5473
 3067TIP3    H1 9146   6.634   6.188   2.152  0.1603  0.9817  0.3097
 3067TIP3    H2 9147   6.675   6.066   2.232  0.9492  0.3029 -1.0921
 3068TIP3   OH2 9148   5.569   2.106   4.017 -0.0858 -0.1813 -0.7782
 3068TIP3    H1 9149   5.571   2.177   3.953  1.6394  1.1103  0.6104
 3068TIP3    H2 9150   5.653   2.111   4.062 -1.6163 -0.1939  2.4297
 3069TIP3   OH2 9151   0.408   0.643   6.451 -0.3185  0.1931  0.0873
 3069TIP3    H1 9152   0.382   0.574   6.390 -0.2042 -0.7755  1.0983
 3069TIP3    H2 9153   0.401   0.602   6.538  1.6043  0.8250  0.5979
 3070TIP3   OH2 9154   2.977   4.849   4.236 -0.6982 -0.0161 -0.1376
 3070TIP3    H1 9155   3.038   4.841   4.163 -0.7689  1.3386 -0.3835
 3070TIP3    H2 9156   2.977   4.763   4.278  0.3799 -0.4120 -0.9129
 3071TIP3   OH2 9157   5.539   2.590   6.736  0.0226 -0.4879 -0.4065
 3071TIP3    H1 9158   5.635   2.591   6.730  0.1670 -0.8559  1.2564
 3071TIP3    H2 9159   5.509   2.623   6.651  1.6278  0.4131 -0.6672
 3072TIP3   OH2 9160   7.184   4.497   3.241  0.5994  0.5354  0.1268
 3072TIP3    H1 9161   7.237   4.454   3.307  1.1796  0.8930 -0.0945
 3072TIP3    H2 9162   7.097   4.506   3.281  0.0813 -1.9897 -0.3073
 3073TIP3   OH2 9163   2.459   4.395   5.226 -0.3684 -0.1242 -0.0756
 3073TIP3    H1 9164   2.545   4.422   5.258 -0.8747 -0.1556  1.4005
 3073TIP3    H2 9165   2.449   4.304   5.255 -1.2407  0.1511  0.5397
 3074TIP3   OH2 9166   3.701   4.456   3.136 -0.0713 -0.1753 -0.6232
 3074TIP3    H1 9167   3.730   4.530   3.082  2.3852 -0.5043  0.1424
 3074TIP3    H2 9168   3.629   4.492   3.188  0.6476  1.5007 -0.7056
 3075TIP3   OH2 9169   3.536   6.675   4.834  0.1120 -0.6097  0.4316
 3075TIP3    H1 9170   3.470   6.671   4.765 -0.2641 -1.5044  0.8205
 3075TIP3    H2 9171   3.511   6.605   4.895  0.5864 -0.0177  1.3359
 3076TIP3   OH2 9172   2.863   1.690   1.687 -0.2001 -0.3438  0.3373
 3076TIP3    H1 9173   2.827   1.678   1.775  0.4956 -1.7797  0.4616
 3076TIP3    H2 9174   2.958   1.678   1.699  0.1490  1.4225 -0.2954
 3077TIP3   OH2 9175   1.020   4.244   5.173 -0.0291 -0.1877  0.0546
 3077TIP3    H1 9176   0.967   4.217   5.098 -0.5179 -0.6196  0.5490
 3077TIP3    H2 9177   1.064   4.164   5.201  0.8689  0.1651 -0.3367
 3078TIP3   OH2 9178   0.267   1.085   0.963 -0.2975  0.4730  0.8569
 3078TIP3    H1 9179   0.185   1.040   0.944  0.5467 -0.4056 -0.9678
 3078TIP3    H2 9180   0.265   1.100   1.057 -2.5488  0.4964  0.8481
 3079TIP3   OH2 9181   0.583   5.225   5.252  0.1857 -0.0674  0.5166
 3079TIP3    H1 9182   0.629   5.300   5.216  3.1090 -1.5846  0.8076
 3079TIP3    H2 9183   0.591   5.235   5.347  0.6794 -0.7323  0.5588
 3080TIP3   OH2 9184   1.232   1.457   6.008 -0.0310  0.4789  0.2355
 3080TIP3    H1 9185   1.161   1.516   6.030 -0.1355  0.7147 -0.6675
 3080TIP3    H2 9186   1.272   1.496   5.930 -0.2700 -0.7795 -0.5402
 3081TIP3   OH2 9187   7.941   4.200   0.731  0.1598 -0.3197 -0.1333
 3081TIP3    H1 9188   7.994   4.145   0.673 -0.9594 -2.4231  0.7214
 3081TIP3    H2 9189   7.874   4.237   0.674  2.0963  1.8937 -1.1121
 3082TIP3   OH2 9190   6.495   4.694   2.565  0.8768 -0.0618 -0.1961
 3082TIP3    H1 9191   6.466   4.616   2.612  1.0147  0.4450  0.7509
 3082TIP3    H2 9192   6.467   4.680   2.475 -0.4049 -0.5476  0.2587
 3083TIP3   OH2 9193   0.573   3.614   6.463  0.0579  0.1159  0.2723
 3083TIP3    H1 9194   0.511   3.666   6.514 -1.8368 -1.4591 -0.3030
 3083TIP3    H2 9195   0.528   3.531   6.449  1.5392 -0.4016 -1.8152
 3084TIP3   OH2 9196   5.064   4.805   1.527  0.5186 -0.1071 -0.0488
 3084TIP3    H1 9197   5.049   4.895   1.498  0.8157 -0.5346 -1.6278
 3084TIP3    H2 9198   5.023   4.800   1.613 -1.1241  1.0236 -0.7215
 3085TIP3   OH2 9199   7.808   6.904   2.244  0.5214  0.0903 -0.3989
 3085TIP3    H1 9200   7.815   6.809   2.250  1.7602  0.0711 -1.5374
 3085TIP3    H2 9201   7.881   6.937   2.296 -0.0005  0.4448  0.1294
 3086TIP3   OH2 9202   6.897   6.201   3.947 -0.2053  0.3047 -0.0117
 3086TIP3    H1 9203   6.865   6.280   3.991 -0.9588  0.3874 -0.7041
 3086TIP3    H2 9204   6.842   6.130   3.981  0.7093 -0.0015  0.8898
 3087TIP3   OH2 9205   7.251   3.805   3.763 -0.3789  1.1098 -0.0149
 3087TIP3    H1 9206   7.230   3.783   3.853 -1.3744  0.8298 -0.3029
 3087TIP3    H2 9207   7.165   3.817   3.721  0.0307 -0.0496 -1.2336
 3088TIP3   OH2 9208   1.843   1.831   0.884  0.1592  0.0183 -0.5911
 3088TIP3    H1 9209   1.871   1.740   0.870 -1.0214 -0.2710 -1.2134
 3088TIP3    H2 9210   1.924   1.881   0.883  0.7675 -0.9399 -0.9836
 3089TIP3   OH2 9211   2.084   7.539   5.413 -0.2355  0.1460 -0.7860
 3089TIP3    H1 9212   2.001   7.555   5.367 -0.8571 -0.8702 -0.0655
 3089TIP3    H2 9213   2.058   7.518   5.503  0.9372  1.7528 -0.0339
 3090TIP3   OH2 9214   3.528   5.071   4.968 -0.4017  0.8111 -0.1085
 3090TIP3    H1 9215   3.455   5.036   5.020 -0.2978  0.2463 -0.3390
 3090TIP3    H2 9216   3.496   5.157   4.938 -0.8432  0.7146  0.0711
 3091TIP3   OH2 9217   5.364   6.427   4.849 -0.3611 -0.0903  0.2261
 3091TIP3    H1 9218   5.407   6.410   4.933 -0.3622  1.5004  0.5805
 3091TIP3    H2 9219   5.434   6.456   4.791 -0.4017 -0.9503 -0.2754
 3092TIP3   OH2 9220   0.497   6.752   4.131 -0.0456  0.4636  0.1245
 3092TIP3    H1 9221   0.463   6.682   4.187 -0.7508 -0.0497 -0.9031
 3092TIP3    H2 9222   0.591   6.751   4.146  0.0766 -1.3769 -0.5834
 3093TIP3   OH2 9223   6.430   3.730   2.635 -0.7616 -0.3010  0.2283
 3093TIP3    H1 9224   6.516   3.768   2.654 -0.4583 -0.9640  0.1905
 3093TIP3    H2 9225   6.387   3.725   2.721 -1.4582  1.6371  0.0556
 3094TIP3   OH2 9226   5.362   1.721   6.197 -0.4815 -0.3654 -0.2625
 3094TIP3    H1 9227   5.314   1.801   6.216  0.1968 -0.2125  0.8434
 3094TIP3    H2 9228   5.396   1.691   6.281 -0.5915 -1.7438 -0.6686
 3095TIP3   OH2 9229   3.715   4.564   1.246 -0.2836 -0.3199 -0.3066
 3095TIP3    H1 9230   3.626   4.590   1.225 -0.8320 -1.0194  1.0751
 3095TIP3    H2 9231   3.711   4.532   1.336  1.1531 -1.3205 -0.5607
 3096TIP3   OH2 9232   0.157   6.751   5.814  0.1386  0.7725  0.2716
 3096TIP3    H1 9233   0.063   6.753   5.829  0.1657  0.0446  0.5596
 3096TIP3    H2 9234   0.170   6.679   5.752  0.5904  0.3282  0.8760
 3097TIP3   OH2 9235   1.571   7.480   0.465  0.2286  0.2068  0.3146
 3097TIP3    H1 9236   1.629   7.454   0.394 -1.1265 -1.1800 -0.3421
 3097TIP3    H2 9237   1.629   7.497   0.539  1.5660  0.4802 -0.7648
 3098TIP3   OH2 9238   1.470   2.733   5.896  0.2487 -0.6247  0.9162
 3098TIP3    H1 9239   1.554   2.780   5.893  0.1815 -0.5452  0.0557
 3098TIP3    H2 9240   1.466   2.698   5.985  1.7226 -1.5892  0.6388
 3099TIP3   OH2 9241   0.453   0.878   2.574 -0.6027  0.3161  0.2287
 3099TIP3    H1 9242   0.473   0.786   2.557 -0.6923  0.4148 -0.4146
 3099TIP3    H2 9243   0.359   0.884   2.563 -0.4158  0.8128 -1.3641
 3100TIP3   OH2 9244   3.041   3.623   2.044  0.2141 -0.2607  0.4156
 3100TIP3    H1 9245   3.005   3.649   2.129  0.2430 -1.1893  0.7226
 3100TIP3    H2 9246   3.106   3.690   2.024  0.6080 -0.3333  1.3996
 3101TIP3   OH2 9247   4.849   7.135   1.757 -0.0305  0.0121 -0.3585
 3101TIP3    H1 9248   4.809   7.187   1.826 -0.2746 -0.3495 -0.2261
 3101TIP3    H2 9249   4.931   7.181   1.737 -0.3062  0.5152 -0.3381
 3102TIP3   OH2 9250   7.561   3.298   6.172 -0.5295  0.1207  0.5142
 3102TIP3    H1 9251   7.638   3.355   6.173 -0.5399  0.3814 -2.5595
 3102TIP3    H2 9252   7.592   3.217   6.131 -2.2046  1.0620 -3.0523
 3103TIP3   OH2 9253   3.597   1.041   6.385 -0.0001 -0.0750 -0.2340
 3103TIP3    H1 9254   3.636   1.127   6.404  2.4619 -0.7707 -1.7303
 3103TIP3    H2 9255   3.519   1.061   6.333  2.0175  1.2957 -2.9950
 3104TIP3   OH2 9256   6.737   6.350   0.566 -0.2465  0.2985 -0.1237
 3104TIP3    H1 9257   6.730   6.254   0.564  0.3596  0.2237 -2.8556
 3104TIP3    H2 9258   6.782   6.369   0.648  0.8870 -1.8830 -0.1511
 3105TIP3   OH2 9259   2.115   7.439   1.922  0.4620 -0.3374 -0.0315
 3105TIP3    H1 9260   2.128   7.352   1.958  1.1128 -0.3855 -0.3647
 3105TIP3    H2 9261   2.099   7.425   1.829 -1.0540 -0.2026  0.1848
 3106TIP3   OH2 9262   0.247   2.070   1.933  0.5064 -0.1402 -0.5214
 3106TIP3    H1 9263   0.294   1.987   1.930 -1.8799 -1.5383 -1.8138
 3106TIP3    H2 9264   0.256   2.106   1.845 -0.9837 -0.5411 -0.8564
 3107TIP3   OH2 9265   0.629   7.123   2.630 -0.5338 -0.1499  0.5417
 3107TIP3    H1 9266   0.571   7.192   2.661  0.7496  1.0468  0.4069
 3107TIP3    H2 9267   0.693   7.112   2.700  0.8983  0.7931 -0.5519
 3108TIP3   OH2 9268   2.822   0.186   3.744 -0.3277 -0.2116 -0.3731
 3108TIP3    H1 9269   2.797   0.140   3.824 -2.6390  0.6906 -0.4941
 3108TIP3    H2 9270   2.806   0.124   3.674  0.3654 -0.5220 -0.2715
 3109TIP3   OH2 9271   4.987   7.240   2.592 -0.0232  0.3185 -0.1318
 3109TIP3    H1 9272   5.042   7.173   2.633 -0.9787  0.0392  0.7366
 3109TIP3    H2 9273   5.029   7.257   2.508  2.2244  1.1789  1.0740
 3110TIP3   OH2 9274   2.712   1.182   2.202 -0.1602  0.0380 -0.5238
 3110TIP3    H1 9275   2.690   1.245   2.133  1.8312  1.4125 -0.0045
 3110TIP3    H2 9276   2.699   1.230   2.284 -2.0836 -1.4438  0.0863
 3111TIP3   OH2 9277   6.070   2.980   2.016 -0.0581 -0.4255 -0.2149
 3111TIP3    H1 9278   6.022   3.014   2.092 -0.4290 -0.4914 -0.4221
 3111TIP3    H2 9279   6.083   3.057   1.960 -0.9836 -0.6371 -0.7307
 3112TIP3   OH2 9280   4.649   2.428   1.768  0.3895  0.1141 -0.4843
 3112TIP3    H1 9281   4.719   2.398   1.826 -0.3588  0.6704  0.7455
 3112TIP3    H2 9282   4.692   2.490   1.709  1.7764 -2.5960 -2.5192
 3113TIP3   OH2 9283   0.743   7.645   0.213  0.2090  0.4301 -0.1146
 3113TIP3    H1 9284   0.701   7.712   0.159  1.7400 -0.7283 -2.9203
 3113TIP3    H2 9285   0.670   7.594   0.249 -0.8771  1.5810 -0.6208
 3114TIP3   OH2 9286   0.767   5.615   3.392 -0.2559  0.0954 -0.0578
 3114TIP3    H1 9287   0.857   5.625   3.359 -0.6135  3.2080 -0.3634
 3114TIP3    H2 9288   0.725   5.556   3.329  1.5824 -1.7011  0.2628
 3115TIP3   OH2 9289   1.804   1.008   0.492  0.6119 -1.1916 -0.3825
 3115TIP3    H1 9290   1.724   1.058   0.509  1.4008 -0.7236  2.5089
 3115TIP3    H2 9291   1.867   1.073   0.461  0.6446 -1.0381  0.0007
 3116TIP3   OH2 9292   7.476   4.378   1.596  0.1799  0.2781  0.1624
 3116TIP3    H1 9293   7.433   4.398   1.512  0.4056 -1.5580 -0.4250
 3116TIP3    H2 9294   7.480   4.283   1.599  0.0911  0.2926  2.3322
 3117TIP3   OH2 9295   5.700   6.219   2.344 -0.5467  0.2649 -0.3000
 3117TIP3    H1 9296   5.625   6.268   2.309 -0.8142  1.3229  1.6287
 3117TIP3    H2 9297   5.753   6.285   2.390  0.2354 -0.8904  0.5279
 3118TIP3   OH2 9298   7.529   7.340   2.920  0.1677  0.3748  0.1902
 3118TIP3    H1 9299   7.619   7.363   2.897  0.3206 -1.6266 -1.5557
 3118TIP3    H2 9300   7.536   7.253   2.960 -0.9494  0.3908  0.4358
 3119TIP3   OH2 9301   3.646   2.408   1.345  0.4214  0.8160 -0.3024
 3119TIP3    H1 9302   3.617   2.500   1.343 -0.0547  0.6744 -0.0727
 3119TIP3    H2 9303   3.718   2.405   1.282  0.4346  1.3466 -0.3210
 3120TIP3   OH2 9304   1.570   5.684   5.183  0.2588 -0.3602 -0.1711
 3120TIP3    H1 9305   1.571   5.773   5.147 -0.0064  0.0161  0.7168
 3120TIP3    H2 9306   1.653   5.646   5.156  0.0052 -0.1471 -1.2945
 3121TIP3   OH2 9307   8.005   1.667   0.403 -0.6386  0.2614  0.2276
 3121TIP3    H1 9308   7.946   1.669   0.327  3.5783 -1.7103 -3.5930
 3121TIP3    H2 9309   8.000   1.755   0.439 -2.1082  1.7695 -3.1672
 3122TIP3   OH2 9310   4.972   6.359   6.403 -0.7222  0.3475  0.0550
 3122TIP3    H1 9311   4.942   6.345   6.314  1.4487 -2.7830 -0.3452
 3122TIP3    H2 9312   5.063   6.387   6.393  0.4619 -2.6801  1.1631
 3123TIP3   OH2 9313   4.336   7.686   1.175  0.0029 -0.0657 -0.6803
 3123TIP3    H1 9314   4.392   7.689   1.098 -0.0244 -1.8848 -0.8106
 3123TIP3    H2 9315   4.386   7.730   1.243  1.7236 -1.8356 -0.7315
 3124TIP3   OH2 9316   4.199   7.204   1.216  0.2639 -0.0965 -0.3457
 3124TIP3    H1 9317   4.183   7.298   1.228 -0.6881 -0.5702  2.7515
 3124TIP3    H2 9318   4.285   7.201   1.174 -0.0830  2.1450 -1.4073
 3125TIP3   OH2 9319   5.963   1.958   0.296  0.0922 -0.0371  0.8137
 3125TIP3    H1 9320   5.933   1.913   0.217  0.8828 -1.0084  1.0386
 3125TIP3    H2 9321   5.950   2.051   0.278 -1.2489 -0.3315  0.1833
 3126TIP3   OH2 9322   1.796   4.585   4.019  0.0220 -0.1851  0.1946
 3126TIP3    H1 9323   1.786   4.506   4.072 -1.8005  0.9054  1.5870
 3126TIP3    H2 9324   1.878   4.624   4.051  0.0701 -0.6450  0.6669
 3127TIP3   OH2 9325   7.208   4.809   2.557 -0.3711  0.0948 -0.3557
 3127TIP3    H1 9326   7.297   4.832   2.584 -0.3961 -0.9514  0.7686
 3127TIP3    H2 9327   7.170   4.769   2.635 -2.3703  1.8792 -0.3297
 3128TIP3   OH2 9328   6.781   0.952   3.731 -0.7551 -0.3424  0.0520
 3128TIP3    H1 9329   6.779   0.945   3.635 -2.8481  2.1590 -0.1928
 3128TIP3    H2 9330   6.689   0.959   3.756 -0.1735  0.5281  2.1185
 3129TIP3   OH2 9331   0.116   1.890   4.787 -0.4023  0.0606  0.2871
 3129TIP3    H1 9332   0.188   1.910   4.727 -0.4050 -0.7449 -0.0055
 3129TIP3    H2 9333   0.042   1.868   4.730 -0.4755 -0.4724  0.5747
 3130TIP3   OH2 9334   7.685   0.641   0.589 -0.2137  0.6788 -0.1674
 3130TIP3    H1 9335   7.635   0.581   0.644  2.1148 -1.2206  0.0442
 3130TIP3    H2 9336   7.764   0.660   0.640  1.1887  0.2678 -2.0845
 3131TIP3   OH2 9337   2.145   7.084   4.823  0.0360 -0.7837 -0.9974
 3131TIP3    H1 9338   2.158   7.096   4.917 -0.6692  0.3077 -1.0300
 3131TIP3    H2 9339   2.153   7.172   4.785 -2.4163 -0.7528 -1.6126
 3132TIP3   OH2 9340   1.740   1.610   2.241 -0.0378 -0.1871  0.0833
 3132TIP3    H1 9341   1.830   1.594   2.272  0.7933 -0.1136 -2.0992
 3132TIP3    H2 9342   1.751   1.667   2.165 -1.9857  0.1335 -0.0028
 3133TIP3   OH2 9343   2.235   1.013   4.375 -0.3505 -0.2460  0.5377
 3133TIP3    H1 9344   2.265   1.035   4.464 -2.6127  1.4794  0.9737
 3133TIP3    H2 9345   2.144   0.987   4.387 -2.0759  3.9070 -1.5365
 3134TIP3   OH2 9346   5.620   3.077   5.203  0.0872  0.3722 -0.4316
 3134TIP3    H1 9347   5.645   3.112   5.118 -0.7006 -0.4897 -1.0362
 3134TIP3    H2 9348   5.689   3.013   5.224  0.9093  1.4120  0.1438
 3135TIP3   OH2 9349   1.304   0.758   1.385 -0.2320 -0.5218  0.0764
 3135TIP3    H1 9350   1.210   0.740   1.398 -0.6435  2.3895  2.3996
 3135TIP3    H2 9351   1.349   0.688   1.432 -1.3277 -1.0095  0.4301
 3136TIP3   OH2 9352   4.589   1.087   0.314 -0.0592  0.1835  0.0897
 3136TIP3    H1 9353   4.619   1.070   0.404  0.3480 -1.2309 -0.2792
 3136TIP3    H2 9354   4.494   1.085   0.319 -0.0374 -0.7727  0.3619
 3137TIP3   OH2 9355   3.510   1.002   5.249 -0.3436 -0.0711  0.2592
 3137TIP3    H1 9356   3.518   0.938   5.178  1.8197  0.3542  0.0445
 3137TIP3    H2 9357   3.459   0.957   5.316 -1.6560 -0.8118 -1.1621
 3138TIP3   OH2 9358   4.589   4.535   1.576 -0.0798 -0.1063  0.1673
 3138TIP3    H1 9359   4.670   4.486   1.590  0.4168  0.5694 -0.2876
 3138TIP3    H2 9360   4.526   4.495   1.636  0.7717 -0.1874  1.0223
 3139TIP3   OH2 9361   2.758   6.684   3.623  0.0664  0.1309 -0.6855
 3139TIP3    H1 9362   2.705   6.626   3.678 -0.5510  1.2448 -0.0642
 3139TIP3    H2 9363   2.840   6.637   3.611  0.1302 -0.2613  0.9820
 3140TIP3   OH2 9364   2.831   1.396   1.929  0.3993  0.2020  0.2646
 3140TIP3    H1 9365   2.906   1.435   1.975  1.4344  0.8212 -1.8295
 3140TIP3    H2 9366   2.755   1.425   1.979  1.3640  2.0955  0.7287
 3141TIP3   OH2 9367   1.982   1.634   4.011 -0.2639 -0.1466 -0.5014
 3141TIP3    H1 9368   2.067   1.652   3.970  1.2885  0.6786  2.7645
 3141TIP3    H2 9369   1.980   1.538   4.018 -0.2507 -0.2606 -1.7556
 3142TIP3   OH2 9370   8.107   6.444   6.038 -0.0927  0.3316  0.4587
 3142TIP3    H1 9371   8.028   6.497   6.031 -0.4342 -0.3579 -1.4392
 3142TIP3    H2 9372   8.093   6.390   6.117 -1.6420  0.0400  0.0199
 3143TIP3   OH2 9373   5.786   0.713   3.800  0.1464  0.4543 -0.5227
 3143TIP3    H1 9374   5.844   0.640   3.778 -0.1266  0.4888 -1.3685
 3143TIP3    H2 9375   5.700   0.687   3.768 -0.5911 -0.0775  1.7027
 3144TIP3   OH2 9376   7.512   6.995   2.404  0.1137 -0.3142  0.3871
 3144TIP3    H1 9377   7.568   6.943   2.461 -0.6447 -0.0741  1.3766
 3144TIP3    H2 9378   7.486   6.936   2.334 -1.3653 -1.5495  1.8953
 3145TIP3   OH2 9379   3.306   7.528   4.332  0.1386  0.0758  0.8016
 3145TIP3    H1 9380   3.211   7.531   4.339 -0.0150  1.5385 -1.0103
 3145TIP3    H2 9381   3.323   7.485   4.248  1.0928 -0.6409  1.3528
 3146TIP3   OH2 9382   7.891   0.539   2.757 -0.0989 -0.2588  0.0155
 3146TIP3    H1 9383   7.979   0.574   2.772 -0.3051  0.1808  0.2012
 3146TIP3    H2 9384   7.843   0.559   2.837 -0.1382 -1.2392  0.2593
 3147TIP3   OH2 9385   4.873   4.618   1.891  0.5398 -0.1103 -0.1611
 3147TIP3    H1 9386   4.941   4.596   1.954  1.6575  0.2981 -1.1736
 3147TIP3    H2 9387   4.791   4.602   1.937  1.3131  0.3781  1.4533
 3148TIP3   OH2 9388   5.948   4.285   0.490 -0.2520 -0.6106 -0.4499
 3148TIP3    H1 9389   5.981   4.224   0.424  0.2048 -0.1497 -0.6635
 3148TIP3    H2 9390   5.875   4.240   0.531 -1.8087 -0.1898 -2.5771
 3149TIP3   OH2 9391   7.750   6.004   1.295  0.5704  0.2515  0.7037
 3149TIP3    H1 9392   7.776   6.004   1.203 -0.0211 -1.3146  0.5005
 3149TIP3    H2 9393   7.829   6.031   1.342  0.6127  2.0162 -0.2885
 3150TIP3   OH2 9394   1.068   1.622   1.236 -0.2922  0.2633 -0.2420
 3150TIP3    H1 9395   1.090   1.622   1.329  1.4255  0.2586 -0.6154
 3150TIP3    H2 9396   0.973   1.611   1.234 -0.1574 -2.0822  1.4803
 3151TIP3   OH2 9397   8.148   7.630   1.943 -0.1539 -0.2783  0.3078
 3151TIP3    H1 9398   8.130   7.716   1.905  0.4983  0.3280  1.3191
 3151TIP3    H2 9399   8.062   7.589   1.952 -0.4689  0.2424 -0.2145
 3152TIP3   OH2 9400   2.993   3.417   4.864  0.0524  0.4465 -0.1949
 3152TIP3    H1 9401   3.036   3.428   4.779  1.6847  0.7441  0.6217
 3152TIP3    H2 9402   3.038   3.342   4.903 -1.5180 -0.4697 -0.0615
 3153TIP3   OH2 9403   6.158   4.001   4.711  0.0970 -0.5301  0.2239
 3153TIP3    H1 9404   6.113   3.993   4.795  0.3187  1.0394  0.5183
 3153TIP3    H2 9405   6.245   4.035   4.733  0.1885 -0.1767 -0.6344
 3154TIP3   OH2 9406   2.395   3.816   0.413 -0.1762 -0.0456 -0.4732
 3154TIP3    H1 9407   2.401   3.724   0.386 -0.9708 -0.3716  0.3876
 3154TIP3    H2 9408   2.473   3.830   0.466  0.7524  0.2465 -1.8626
 3155TIP3   OH2 9409   3.361   3.487   2.811 -0.0942 -0.6250  0.1978
 3155TIP3    H1 9410   3.339   3.397   2.837  0.5831 -0.5669  1.0083
 3155TIP3    H2 9411   3.393   3.479   2.721  1.8477 -1.5011  0.9136
 3156TIP3   OH2 9412   6.282   6.081   6.053 -0.0216 -0.7828  0.0896
 3156TIP3    H1 9413   6.202   6.070   6.003 -0.5943  0.1689  0.7472
 3156TIP3    H2 9414   6.319   5.993   6.061 -1.8142 -1.4784  1.0955
 3157TIP3   OH2 9415   8.270   4.871   1.245  0.1506 -0.1021 -0.0227
 3157TIP3    H1 9416   8.333   4.895   1.313  1.4161 -1.5080 -0.6277
 3157TIP3    H2 9417   8.218   4.801   1.283 -2.3518  2.1856  1.1105
 3158TIP3   OH2 9418   5.042   3.733   0.464  0.0839  0.0453  0.0940
 3158TIP3    H1 9419   4.978   3.774   0.405  0.0919  1.2743  0.8996
 3158TIP3    H2 9420   5.042   3.790   0.541  1.8272 -0.1908  0.2890
 3159TIP3   OH2 9421   3.552   0.119   4.172 -0.0517  0.8786 -0.0926
 3159TIP3    H1 9422   3.519   0.099   4.259 -1.5756 -3.1990 -1.4042
 3159TIP3    H2 9423   3.492   0.186   4.138 -1.7792 -0.2063  0.6929
 3160TIP3   OH2 9424   0.289   1.339   6.651 -0.0006  0.3512  0.2538
 3160TIP3    H1 9425   0.321   1.250   6.668 -0.8054  0.2513  1.3368
 3160TIP3    H2 9426   0.356   1.378   6.595  0.1602 -1.0695 -0.5905
 3161TIP3   OH2 9427   1.938   5.619   4.319 -0.2974  0.0297 -0.6691
 3161TIP3    H1 9428   1.903   5.684   4.258 -2.3115  0.9727  1.3643
 3161TIP3    H2 9429   1.870   5.551   4.324  0.0718 -0.3007  0.1137
 3162TIP3   OH2 9430   6.127   3.654   5.656  0.4838  0.1801 -0.2250
 3162TIP3    H1 9431   6.107   3.746   5.671  1.7261  0.3505  0.5436
 3162TIP3    H2 9432   6.043   3.615   5.629 -0.6538  1.0324  1.8421
 3163TIP3   OH2 9433   6.027   5.104   2.799  0.1616  0.5407  0.0829
 3163TIP3    H1 9434   5.955   5.160   2.827 -1.4262 -0.3616 -1.9346
 3163TIP3    H2 9435   6.042   5.045   2.873 -0.6897  1.1942  0.7978
 3164TIP3   OH2 9436   6.715   7.124   3.776  0.3049  0.3897 -0.1577
 3164TIP3    H1 9437   6.658   7.114   3.853 -0.6671 -3.2755 -1.1667
 3164TIP3    H2 9438   6.681   7.201   3.731 -0.4762  1.3461  1.9282
 3165TIP3   OH2 9439   2.549   7.393   0.085 -0.4433 -0.2749  0.2999
 3165TIP3    H1 9440   2.542   7.393   0.180 -1.2958 -0.5004  0.2429
 3165TIP3    H2 9441   2.562   7.485   0.062 -0.5294 -0.1831  0.6120
 3166TIP3   OH2 9442   0.802   7.367   5.834  0.1501 -0.1356  0.1874
 3166TIP3    H1 9443   0.760   7.453   5.829 -1.0464 -0.6594  0.8372
 3166TIP3    H2 9444   0.791   7.330   5.746 -1.3676 -0.5307  0.5235
 3167TIP3   OH2 9445   3.318   2.650   5.450 -0.2835  0.3544  0.1277
 3167TIP3    H1 9446   3.237   2.599   5.438  1.1438 -2.0715  0.2671
 3167TIP3    H2 9447   3.373   2.595   5.505  0.7204  2.8921  1.8707
 3168TIP3   OH2 9448   3.968   7.777   3.009  0.9060  0.4833 -0.0007
 3168TIP3    H1 9449   3.873   7.780   3.015  0.9585 -0.2825  2.4654
 3168TIP3    H2 9450   3.997   7.866   3.030  0.7420  1.0687 -2.1046
 3169TIP3   OH2 9451   6.049   5.640   2.420 -0.4846 -0.1624  0.3573
 3169TIP3    H1 9452   6.127   5.668   2.466 -0.5837  0.5280  0.1129
 3169TIP3    H2 9453   6.062   5.670   2.330 -1.0119 -0.0696  0.3083
 3170TIP3   OH2 9454   2.618   0.091   5.765  0.6499 -0.1179 -0.3131
 3170TIP3    H1 9455   2.547   0.027   5.776 -1.0762  1.8888  0.8416
 3170TIP3    H2 9456   2.575   0.168   5.728  2.2351  1.1793  0.4396
 3171TIP3   OH2 9457   3.350   6.237   1.474 -0.3898 -0.2769  0.6059
 3171TIP3    H1 9458   3.357   6.143   1.493 -0.2395 -0.3081  0.3999
 3171TIP3    H2 9459   3.272   6.244   1.418 -1.7421  0.0034  2.4543
 3172TIP3   OH2 9460   2.169   0.401   6.576 -0.2866 -0.1091  0.4563
 3172TIP3    H1 9461   2.107   0.328   6.564 -1.4336  0.9581 -0.4353
 3172TIP3    H2 9462   2.113   0.477   6.590  0.8961  0.6209  1.3255
 3173TIP3   OH2 9463   4.324   4.023   0.727 -0.4506 -0.1536 -0.1576
 3173TIP3    H1 9464   4.333   3.981   0.642  1.6275 -0.9938  0.4228
 3173TIP3    H2 9465   4.269   4.099   0.711 -2.8480 -2.0241 -1.6250
 3174TIP3   OH2 9466   7.119   3.212   2.830  0.2063 -0.0091 -0.3487
 3174TIP3    H1 9467   7.160   3.296   2.809  0.3392 -0.6295 -2.9286
 3174TIP3    H2 9468   7.181   3.146   2.797 -0.7394 -1.0888 -0.0356
 3175TIP3   OH2 9469   0.865   6.173   2.274 -0.2865 -0.0009  0.0546
 3175TIP3    H1 9470   0.928   6.114   2.234 -0.4338 -0.4981  0.5497
 3175TIP3    H2 9471   0.833   6.227   2.202  1.7425  1.2433 -0.0121
 3176TIP3   OH2 9472   0.879   2.439   6.443  0.6342 -0.0938 -0.4445
 3176TIP3    H1 9473   0.859   2.435   6.537 -1.1278  0.2741 -0.7798
 3176TIP3    H2 9474   0.800   2.410   6.400  1.2634  0.2020 -1.8493
 3177TIP3   OH2 9475   1.881   3.385   4.827  0.4640  0.3323  0.4886
 3177TIP3    H1 9476   1.845   3.448   4.890 -1.4755 -0.5515  0.3304
 3177TIP3    H2 9477   1.870   3.428   4.742 -0.5066 -0.0453  0.4159
 3178TIP3   OH2 9478   1.586   4.974   1.929  0.2925  0.2765  0.4147
 3178TIP3    H1 9479   1.629   5.038   1.985 -0.6340  0.6023  0.7782
 3178TIP3    H2 9480   1.494   4.978   1.955  0.1154 -0.7253 -0.0239
 3179TIP3   OH2 9481   6.309   4.138   3.752  0.1221  0.1612 -0.0659
 3179TIP3    H1 9482   6.226   4.116   3.795  0.0055 -0.9517 -0.8252
 3179TIP3    H2 9483   6.287   4.150   3.660  0.8189 -0.2399 -0.2911
 3180TIP3   OH2 9484   6.260   5.716   4.056  0.3378 -0.0758 -0.0702
 3180TIP3    H1 9485   6.273   5.629   4.020 -0.0067 -0.6322  1.1148
 3180TIP3    H2 9486   6.343   5.739   4.097  0.4484  0.1777 -0.4361
 3181TIP3   OH2 9487   4.809   2.596   3.669 -0.2774  0.0481  0.1006
 3181TIP3    H1 9488   4.891   2.633   3.700  0.4018 -2.3886  1.5103
 3181TIP3    H2 9489   4.749   2.670   3.664  1.0902  1.3934  2.2877
 3182TIP3   OH2 9490   0.679   5.812   0.376  0.0314 -0.3170  0.2875
 3182TIP3    H1 9491   0.651   5.889   0.326 -0.1268 -1.3520 -1.2813
 3182TIP3    H2 9492   0.599   5.778   0.415 -0.0187 -0.1407  0.3404
 3183TIP3   OH2 9493   5.521   5.863   5.348  0.4723 -0.0036 -0.0023
 3183TIP3    H1 9494   5.495   5.887   5.259  0.6255 -1.3225 -0.4286
 3183TIP3    H2 9495   5.575   5.935   5.378  0.0365  0.6746 -0.8097
 3184TIP3   OH2 9496   7.892   2.073   3.599  0.4058 -0.0228  0.6938
 3184TIP3    H1 9497   7.916   2.159   3.566 -1.6135  0.4547  0.3169
 3184TIP3    H2 9498   7.807   2.087   3.642 -0.2445 -1.9071  0.1308
 3185TIP3   OH2 9499   0.805   4.242   6.010  0.1411 -0.2364  0.3336
 3185TIP3    H1 9500   0.809   4.203   6.097 -2.3256 -0.8101  0.2663
 3185TIP3    H2 9501   0.839   4.174   5.952  1.8703  0.1787  0.8216
 3186TIP3   OH2 9502   5.023   1.518   4.063  0.0355  0.5891 -0.0314
 3186TIP3    H1 9503   4.931   1.538   4.047  0.2111  0.2230 -1.7112
 3186TIP3    H2 9504   5.021   1.444   4.123 -0.8037 -0.0395 -0.8084
 3187TIP3   OH2 9505   7.042   0.383   3.123  0.5768 -0.0446  0.2286
 3187TIP3    H1 9506   6.959   0.335   3.126 -0.1402  1.1972  1.8729
 3187TIP3    H2 9507   7.020   0.465   3.080  1.2616 -0.1936 -0.4326
 3188TIP3   OH2 9508   6.541   3.487   1.224  0.0463  1.0803 -0.4134
 3188TIP3    H1 9509   6.492   3.488   1.306  1.6732 -1.9866  0.7731
 3188TIP3    H2 9510   6.627   3.521   1.247  0.5950 -0.0257 -0.7258
 3189TIP3   OH2 9511   6.151   5.002   1.590  0.2071  0.4909  0.1176
 3189TIP3    H1 9512   6.187   5.053   1.517 -2.5604  1.8624 -0.4163
 3189TIP3    H2 9513   6.057   5.005   1.576 -0.2751 -1.0704  2.5955
 3190TIP3   OH2 9514   5.369   2.760   2.391 -0.1111  0.3543 -0.8454
 3190TIP3    H1 9515   5.367   2.856   2.393  2.2708  0.4479 -0.0425
 3190TIP3    H2 9516   5.418   2.739   2.311  0.6104 -0.1186 -0.2920
 3191TIP3   OH2 9517   6.181   2.399   0.121 -0.4393  0.0249  0.0566
 3191TIP3    H1 9518   6.192   2.304   0.111 -1.2937  0.0122 -1.0347
 3191TIP3    H2 9519   6.231   2.437   0.048  0.2745  0.4441  0.7555
 3192TIP3   OH2 9520   5.817   2.897   4.650  0.1180  0.6175  0.2656
 3192TIP3    H1 9521   5.881   2.904   4.721  0.7180  0.9749 -0.2963
 3192TIP3    H2 9522   5.793   2.988   4.631 -0.2767  0.5048  0.2133
 3193TIP3   OH2 9523   3.165   6.914   2.868 -0.0512  0.3518 -0.1578
 3193TIP3    H1 9524   3.240   6.963   2.834 -0.5786  0.3438 -1.3949
 3193TIP3    H2 9525   3.119   6.884   2.789 -0.5269 -0.9217  0.5852
 3194TIP3   OH2 9526   3.006   4.110   1.572 -0.0365 -0.0166 -0.6234
 3194TIP3    H1 9527   3.101   4.112   1.574 -0.0255  0.6792 -1.2322
 3194TIP3    H2 9528   2.980   4.087   1.661  0.6741  1.8790  0.1151
 3195TIP3   OH2 9529   3.727   1.653   0.401  0.5755  0.5951 -0.0738
 3195TIP3    H1 9530   3.646   1.621   0.361 -0.3316  1.1049  1.2709
 3195TIP3    H2 9531   3.761   1.579   0.450  0.0681  0.8131  0.6254
 3196TIP3   OH2 9532   0.941   3.870   6.122  0.2037 -0.8616  0.1492
 3196TIP3    H1 9533   0.948   3.931   6.196  0.7022 -1.0788  0.2796
 3196TIP3    H2 9534   0.856   3.827   6.135  0.0053 -0.4440  0.2470
 3197TIP3   OH2 9535   2.127   2.054   0.043 -0.0421 -0.1809  0.3649
 3197TIP3    H1 9536   2.128   1.960   0.063  2.4314 -0.7818 -1.9774
 3197TIP3    H2 9537   2.216   2.083   0.063 -0.3816  1.3502 -0.2803
 3198TIP3   OH2 9538   1.673   1.681   2.816 -0.3155 -0.2215  0.0024
 3198TIP3    H1 9539   1.607   1.723   2.870 -1.3391 -1.9030  0.1379
 3198TIP3    H2 9540   1.624   1.637   2.747  0.7667 -0.3932 -0.6922
 3199TIP3   OH2 9541   5.361   6.434   5.893  0.3208 -0.3350 -0.0934
 3199TIP3    H1 9542   5.447   6.424   5.852  0.8108  0.4496  0.7088
 3199TIP3    H2 9543   5.301   6.386   5.836  1.2728 -0.7877 -0.7251
 3200TIP3   OH2 9544   3.895   7.636   4.555 -0.4708 -0.1228 -0.1633
 3200TIP3    H1 9545   3.870   7.607   4.643 -0.1337 -1.5772 -0.5099
 3200TIP3    H2 9546   3.972   7.582   4.534  1.1534  2.1184 -0.2962
 3201TIP3   OH2 9547   5.286   0.852   4.045 -0.1952  0.2800  0.3642
 3201TIP3    H1 9548   5.238   0.786   3.996 -0.7061  0.5208  0.5338
 3201TIP3    H2 9549   5.378   0.832   4.029 -0.3355 -0.7218  0.7420
 3202TIP3   OH2 9550   5.445   2.149   5.631 -0.0951 -0.6134 -0.6112
 3202TIP3    H1 9551   5.525   2.158   5.580  0.0324  1.9852 -0.0957
 3202TIP3    H2 9552   5.445   2.058   5.660  2.0283 -1.0027 -1.6246
 3203TIP3   OH2 9553   6.805   6.821   5.056 -0.2278 -0.2246 -0.0884
 3203TIP3    H1 9554   6.758   6.820   4.973  2.5235  1.2375 -1.7817
 3203TIP3    H2 9555   6.783   6.906   5.095  0.1281 -0.0219 -0.3310
 3204TIP3   OH2 9556   7.639   3.068   0.070 -0.0543 -0.0973 -0.2901
 3204TIP3    H1 9557   7.648   2.995   0.131 -1.3569 -0.0517 -0.0150
 3204TIP3    H2 9558   7.675   3.035  -0.012  2.0733 -0.0281  0.5641
 3205TIP3   OH2 9559   5.262   6.236   5.685 -0.4772  0.0438  0.2919
 3205TIP3    H1 9560   5.255   6.254   5.591  1.6251  1.1323  0.3043
 3205TIP3    H2 9561   5.321   6.162   5.691 -2.4439 -1.5839  0.7072
 3206TIP3   OH2 9562   4.984   1.603   2.291 -0.0673  0.0464 -0.3040
 3206TIP3    H1 9563   4.994   1.690   2.330 -0.8958 -0.4619  1.1073
 3206TIP3    H2 9564   5.040   1.605   2.214  0.3354  1.6571 -0.0055
 3207TIP3   OH2 9565   7.154   2.561   1.306  0.1003  0.2754  0.2156
 3207TIP3    H1 9566   7.166   2.645   1.262 -0.0605 -0.1956 -0.7461
 3207TIP3    H2 9567   7.214   2.564   1.381 -0.7128  1.6886  0.8603
 3208TIP3   OH2 9568   7.661   5.812   5.063  0.0841 -0.1322 -0.3523
 3208TIP3    H1 9569   7.636   5.756   5.136 -1.9463 -0.1602 -1.0034
 3208TIP3    H2 9570   7.754   5.830   5.077 -0.0817 -0.6991  1.8314
 3209TIP3   OH2 9571   2.958   0.465   1.244 -0.5443  0.5097  0.0159
 3209TIP3    H1 9572   2.977   0.445   1.153  0.2847 -1.0933  0.5199
 3209TIP3    H2 9573   3.038   0.506   1.278 -0.5568  0.3490  0.2422
 3210TIP3   OH2 9574   7.953   3.605   3.738  0.7030  0.4979  0.2189
 3210TIP3    H1 9575   7.915   3.572   3.820  1.7353  0.2465  0.6196
 3210TIP3    H2 9576   7.918   3.548   3.670  0.5516  0.1205  0.6118
 3211TIP3   OH2 9577   3.213   4.427   3.699  0.2309  0.0217  0.4042
 3211TIP3    H1 9578   3.286   4.489   3.697  0.2071  0.0296 -0.8465
 3211TIP3    H2 9579   3.253   4.344   3.724  0.3968  0.3593  1.2912
 3212TIP3   OH2 9580   1.740   6.720   0.326  0.2969  0.3846 -0.2496
 3212TIP3    H1 9581   1.644   6.723   0.331  0.0943  0.4475 -2.8817
 3212TIP3    H2 9582   1.764   6.640   0.374 -0.9328  1.0206  1.4984
 3213TIP3   OH2 9583   3.670   4.774   0.567  0.0597 -0.0301 -0.0344
 3213TIP3    H1 9584   3.664   4.859   0.524 -1.1498 -0.5147 -0.8653
 3213TIP3    H2 9585   3.729   4.723   0.512 -1.2783 -0.5622 -1.0344
 3214TIP3   OH2 9586   2.725   4.765   4.489  0.0451 -0.6056  0.1152
 3214TIP3    H1 9587   2.774   4.692   4.526  0.1710 -0.1739  0.8305
 3214TIP3    H2 9588   2.742   4.838   4.549 -0.4523 -0.1130 -0.3267
 3215TIP3   OH2 9589   7.532   1.966   0.659  0.2460 -0.1792  0.6203
 3215TIP3    H1 9590   7.548   1.949   0.752  1.6241 -1.4838  0.1813
 3215TIP3    H2 9591   7.599   2.029   0.634  0.8046 -0.9271  0.1987
 3216TIP3   OH2 9592   4.932   6.453   2.407 -0.2593 -0.0091  0.3840
 3216TIP3    H1 9593   4.852   6.467   2.458  0.2831 -0.3218  1.3448
 3216TIP3    H2 9594   4.969   6.372   2.441  0.4009  0.0637 -0.1363
 3217TIP3   OH2 9595   4.451   4.538   2.492  0.2767  0.3477  0.0584
 3217TIP3    H1 9596   4.446   4.574   2.403  0.9879 -0.1519 -0.1884
 3217TIP3    H2 9597   4.361   4.541   2.524 -0.1385 -0.2461 -0.9964
 3218TIP3   OH2 9598   4.157   5.569   0.470  0.2058 -0.1750  0.0829
 3218TIP3    H1 9599   4.101   5.645   0.456  1.2291  0.5186 -0.2910
 3218TIP3    H2 9600   4.104   5.495   0.439 -1.0888  0.2607  1.1413
 3219TIP3   OH2 9601   4.707   1.252   0.133  0.3588 -0.3746  0.4904
 3219TIP3    H1 9602   4.704   1.181   0.069  1.2558 -0.1157  0.1335
 3219TIP3    H2 9603   4.665   1.216   0.211 -3.0859  0.1268 -0.9637
 3220TIP3   OH2 9604   5.180   1.461   1.330  0.6459  0.1922 -0.1255
 3220TIP3    H1 9605   5.090   1.493   1.330  0.1071 -1.2528 -0.0400
 3220TIP3    H2 9606   5.185   1.401   1.405  1.4201 -0.3945 -0.6211
 3221TIP3   OH2 9607   2.674   7.585   0.496 -0.1727 -0.0098  0.7596
 3221TIP3    H1 9608   2.667   7.491   0.480 -0.7486  0.4124 -1.9912
 3221TIP3    H2 9609   2.621   7.625   0.427  1.0621  2.3718  1.0915
 3222TIP3   OH2 9610   7.329   2.908   3.433 -0.0894  0.4527  0.1067
 3222TIP3    H1 9611   7.358   2.999   3.428  0.1449  0.3919  0.3293
 3222TIP3    H2 9612   7.387   2.861   3.372  0.3476  0.3169  0.6168
 3223TIP3   OH2 9613   6.862   5.895   4.322  0.2538 -0.1703 -0.6813
 3223TIP3    H1 9614   6.800   5.960   4.354 -0.0301 -1.5775  1.8646
 3223TIP3    H2 9615   6.808   5.836   4.268 -0.3051 -0.4354  0.1457
 3224TIP3   OH2 9616   2.132   0.373   4.310 -0.0888 -0.2551 -0.1023
 3224TIP3    H1 9617   2.120   0.401   4.219 -0.5328  2.2212  0.6445
 3224TIP3    H2 9618   2.114   0.279   4.308  1.6664 -0.6642 -2.8531
 3225TIP3   OH2 9619   3.722   7.591   5.755  0.0223  0.3350 -0.3695
 3225TIP3    H1 9620   3.730   7.569   5.662  2.1912 -0.5161 -0.0405
 3225TIP3    H2 9621   3.701   7.684   5.756 -1.0531  0.1430 -1.7012
 3226TIP3   OH2 9622   2.176   3.372   3.314 -0.1006 -0.2112 -0.2416
 3226TIP3    H1 9623   2.085   3.348   3.296 -0.0237  0.0284 -0.9705
 3226TIP3    H2 9624   2.217   3.291   3.345 -0.9060  0.0034  1.4807
 3227TIP3   OH2 9625   2.203   3.322   6.317 -0.2941  0.0193  0.2520
 3227TIP3    H1 9626   2.120   3.363   6.293 -0.0410 -0.2172 -1.1095
 3227TIP3    H2 9627   2.269   3.387   6.297 -0.1039  0.0142  0.8445
 3228TIP3   OH2 9628   2.406   2.547   0.957  0.1037 -0.3474  0.7788
 3228TIP3    H1 9629   2.403   2.463   1.002 -0.3887 -0.8481 -0.1488
 3228TIP3    H2 9630   2.383   2.526   0.866  2.4553  0.3746 -0.0694
 3229TIP3   OH2 9631   4.011   6.718   1.323 -0.2371  0.9058 -0.2134
 3229TIP3    H1 9632   3.956   6.664   1.266 -0.9709  0.8036  0.5637
 3229TIP3    H2 9633   3.968   6.804   1.322 -0.1727  0.9425  0.0606
 3230TIP3   OH2 9634   2.953   7.043   0.586  1.1466 -0.0052  0.1596
 3230TIP3    H1 9635   2.986   6.998   0.663 -0.4220 -0.0314  0.8595
 3230TIP3    H2 9636   2.899   7.114   0.621  0.7629  0.2515 -0.9032
 3231TIP3   OH2 9637   1.108   5.677   0.102 -0.6448 -0.3604  0.7432
 3231TIP3    H1 9638   1.164   5.644   0.172  0.2959 -1.2089 -0.3700
 3231TIP3    H2 9639   1.022   5.640   0.121 -0.4080 -0.5662  1.4538
 3232TIP3   OH2 9640   0.607   1.799   3.739 -0.7268 -0.8158  0.1250
 3232TIP3    H1 9641   0.658   1.722   3.713  1.1106  1.5261 -4.0380
 3232TIP3    H2 9642   0.544   1.812   3.668 -1.1818  1.3600  0.8435
 3233TIP3   OH2 9643   7.466   7.565   1.567 -0.1750 -0.0633 -0.4115
 3233TIP3    H1 9644   7.400   7.552   1.499 -1.5734 -0.5692  0.9885
 3233TIP3    H2 9645   7.444   7.649   1.607  0.1126 -0.1710 -0.0197
 3234TIP3   OH2 9646   0.287   5.112   5.272 -0.7010  0.2572 -0.1377
 3234TIP3    H1 9647   0.368   5.132   5.321 -0.5150  1.6837 -0.9819
 3234TIP3    H2 9648   0.241   5.049   5.328  0.8716 -0.4097  0.4814
 3235TIP3   OH2 9649   5.849   0.422   2.936  0.3650 -0.1299 -0.0711
 3235TIP3    H1 9650   5.819   0.380   2.855 -0.0334 -2.1195  1.0246
 3235TIP3    H2 9651   5.838   0.516   2.920 -1.7688 -0.5523 -1.5380
 3236TIP3   OH2 9652   1.178   2.852   2.241 -0.0350 -0.0796  0.1638
 3236TIP3    H1 9653   1.094   2.848   2.287 -0.0126 -1.4456  0.1267
 3236TIP3    H2 9654   1.244   2.858   2.311 -0.1621  2.2886  0.1814
 3237TIP3   OH2 9655   2.444   3.678   3.730 -0.1992  0.1565  0.2190
 3237TIP3    H1 9656   2.376   3.641   3.674  0.2624 -0.2351 -0.0889
 3237TIP3    H2 9657   2.473   3.604   3.784  0.7915  0.0298 -0.4653
 3238TIP3   OH2 9658   4.737   2.055   0.102  0.5000 -0.1398  0.0012
 3238TIP3    H1 9659   4.758   2.028   0.012 -1.7758 -0.9677 -0.3538
 3238TIP3    H2 9660   4.765   2.146   0.107  2.1869 -0.5721 -0.9906
 3239TIP3   OH2 9661   5.717   3.611   4.518  0.0377  0.5921  0.3573
 3239TIP3    H1 9662   5.749   3.588   4.431 -1.3440 -0.0483 -0.0134
 3239TIP3    H2 9663   5.668   3.692   4.505 -0.7721  0.1158  0.3904
 3240TIP3   OH2 9664   3.510   1.250   1.125 -0.1013 -0.1738 -0.3230
 3240TIP3    H1 9665   3.545   1.229   1.212  0.7112 -1.8560 -1.0233
 3240TIP3    H2 9666   3.417   1.230   1.131 -0.0061 -0.5170  0.0936
 3241TIP3   OH2 9667   7.751   0.861   6.119  0.0915  0.2283 -0.8114
 3241TIP3    H1 9668   7.748   0.802   6.194  2.1165  0.9717 -0.1007
 3241TIP3    H2 9669   7.832   0.838   6.073 -0.1672  1.0578 -1.7119
 3242TIP3   OH2 9670   1.125   6.971   2.722  0.2541  0.5079 -0.1311
 3242TIP3    H1 9671   1.189   6.905   2.695  2.7720  2.6765  0.1402
 3242TIP3    H2 9672   1.108   6.951   2.814 -0.0021 -0.4681 -0.3728
 3243TIP3   OH2 9673   2.757   1.132   3.647  0.4762 -0.5495  0.1345
 3243TIP3    H1 9674   2.809   1.071   3.699 -0.4412 -1.3609  0.1407
 3243TIP3    H2 9675   2.698   1.173   3.711  0.6627 -0.1065  0.0287
 3244TIP3   OH2 9676   4.504   6.494   3.149 -0.1700 -0.2606 -0.1027
 3244TIP3    H1 9677   4.510   6.399   3.158 -1.5347 -0.3780 -0.2295
 3244TIP3    H2 9678   4.559   6.514   3.073  0.0930 -0.9615 -0.1050
 3245TIP3   OH2 9679   5.636   0.646   1.033  0.0364  0.2894 -0.5020
 3245TIP3    H1 9680   5.560   0.590   1.015  1.4472 -2.1968  0.8087
 3245TIP3    H2 9681   5.654   0.689   0.949 -0.3004 -2.3282 -2.0044
 3246TIP3   OH2 9682   5.568   3.381   0.838 -0.3391  0.4863 -0.2857
 3246TIP3    H1 9683   5.511   3.340   0.774 -1.1127 -0.3340  0.8937
 3246TIP3    H2 9684   5.645   3.407   0.788 -1.0535  0.1522 -1.5956
 3247TIP3   OH2 9685   7.126   1.012   2.432 -0.5568 -0.1318  0.1662
 3247TIP3    H1 9686   7.093   1.090   2.387  0.1151  0.6334  0.9712
 3247TIP3    H2 9687   7.139   1.040   2.522 -0.7527 -1.3169  0.5793
 3248TIP3   OH2 9688   5.841   3.250   1.306 -0.4742  0.3704 -0.7810
 3248TIP3    H1 9689   5.795   3.289   1.232  1.3091  0.8967 -1.6532
 3248TIP3    H2 9690   5.869   3.164   1.274  0.7222  0.7936 -0.9103
 3249TIP3   OH2 9691   4.479   0.198   1.810 -0.1398 -0.4635 -0.4361
 3249TIP3    H1 9692   4.412   0.136   1.782  0.2510 -1.2957  0.4284
 3249TIP3    H2 9693   4.441   0.240   1.887 -0.8114  1.1189 -1.5690
 3250TIP3   OH2 9694   3.180   0.999   6.468 -0.7127 -0.0086 -0.3956
 3250TIP3    H1 9695   3.099   0.952   6.448 -0.4014 -1.1069  0.7953
 3250TIP3    H2 9696   3.215   0.955   6.546  1.4491 -0.0796 -1.3383
 3251TIP3   OH2 9697   8.240   4.797   2.432  0.1800 -0.3481  0.0269
 3251TIP3    H1 9698   8.324   4.785   2.477  0.4819  0.0203 -0.4354
 3251TIP3    H2 9699   8.219   4.710   2.397  0.4276 -0.4127  0.0394
 3252TIP3   OH2 9700   4.051   2.097   6.034  0.0117 -0.4807 -0.7370
 3252TIP3    H1 9701   4.132   2.096   5.983 -1.1435  0.0080 -2.7008
 3252TIP3    H2 9702   4.017   2.186   6.023 -2.3791 -1.5075 -2.7499
 3253TIP3   OH2 9703   0.991   6.938   3.899  1.2498  0.6821 -0.1369
 3253TIP3    H1 9704   1.068   6.900   3.856  0.6181  0.2863 -0.9581
 3253TIP3    H2 9705   0.924   6.871   3.890  0.1352  1.9046 -1.4991
 3254TIP3   OH2 9706   0.861   2.723   6.299 -0.4659  0.0381 -0.3052
 3254TIP3    H1 9707   0.781   2.690   6.340  1.0421 -1.9323  1.2026
 3254TIP3    H2 9708   0.901   2.779   6.366  0.4443 -0.6620 -0.2541
 3255TIP3   OH2 9709   2.087   7.448   3.607 -0.0755  0.5209 -0.6337
 3255TIP3    H1 9710   2.087   7.502   3.686  0.8167 -1.6000  0.9222
 3255TIP3    H2 9711   2.178   7.447   3.578 -0.0758 -0.1201 -0.6330
 3256TIP3   OH2 9712   5.715   5.572   1.297 -0.4968 -0.3782 -0.0369
 3256TIP3    H1 9713   5.638   5.540   1.344 -0.9824 -0.9986 -1.2388
 3256TIP3    H2 9714   5.684   5.650   1.252 -0.1552 -0.0629  0.2690
 3257TIP3   OH2 9715   3.900   7.183   6.569  0.0013 -0.0757 -0.1993
 3257TIP3    H1 9716   3.910   7.278   6.579  0.4104  0.0064 -1.2002
 3257TIP3    H2 9717   3.808   7.166   6.590  0.4125  0.2257  2.0460
 3258TIP3   OH2 9718   7.905   3.039   4.065  0.0211  0.3685 -0.0485
 3258TIP3    H1 9719   7.971   3.060   4.131 -1.0606  1.0441  0.8560
 3258TIP3    H2 9720   7.924   3.099   3.992 -1.3081  2.6863  1.3714
 3259TIP3   OH2 9721   7.654   1.362   0.033 -0.4137 -0.0057 -0.1706
 3259TIP3    H1 9722   7.585   1.296   0.040  1.1648 -1.8503 -0.8826
 3259TIP3    H2 9723   7.626   1.432   0.091 -1.9501 -1.5407  1.0608
 3260TIP3   OH2 9724   7.471   2.596   0.391  0.8391 -0.4619  0.7262
 3260TIP3    H1 9725   7.394   2.546   0.367  0.4151  0.1892  0.6997
 3260TIP3    H2 9726   7.542   2.557   0.339  0.3707 -0.5405  0.1338
 3261TIP3   OH2 9727   5.680   0.558   5.521 -0.2722 -0.8392  0.0670
 3261TIP3    H1 9728   5.646   0.617   5.455  0.9708 -0.2149 -0.0568
 3261TIP3    H2 9729   5.614   0.558   5.591 -0.7044 -0.0090 -0.3304
 3262TIP3   OH2 9730   5.700   3.151   0.322 -0.0923 -0.3704 -0.4096
 3262TIP3    H1 9731   5.667   3.167   0.233 -1.0611 -1.1408 -0.2198
 3262TIP3    H2 9732   5.736   3.062   0.318 -0.3501 -0.4981  0.0096
 3263TIP3   OH2 9733   2.447   3.117   1.154 -0.4874 -0.0580  0.3724
 3263TIP3    H1 9734   2.421   3.025   1.152 -1.7693  0.2795  0.3194
 3263TIP3    H2 9735   2.492   3.127   1.238 -0.6911 -0.6420  0.5604
 3264TIP3   OH2 9736   6.960   4.557   5.552 -0.5174  0.0572  0.3704
 3264TIP3    H1 9737   6.947   4.640   5.599  3.1704  0.4729  0.9236
 3264TIP3    H2 9738   6.986   4.496   5.621 -3.0538 -1.6640 -0.0579
 3265TIP3   OH2 9739   0.244   4.254   0.908  0.2484  0.1184  0.1977
 3265TIP3    H1 9740   0.255   4.315   0.981 -0.1721  1.7234 -1.0311
 3265TIP3    H2 9741   0.262   4.168   0.946  1.2537  1.0269  1.8879
 3266TIP3   OH2 9742   3.889   2.946   4.525  0.5711 -0.8992 -0.1434
 3266TIP3    H1 9743   3.861   2.884   4.593  1.6689 -0.1751  1.0093
 3266TIP3    H2 9744   3.842   2.918   4.447  1.3988 -3.5329  0.1859
 3267TIP3   OH2 9745   2.216   3.212   4.733 -0.4567  0.0519 -0.0775
 3267TIP3    H1 9746   2.213   3.246   4.644 -0.8374 -0.4257 -0.2486
 3267TIP3    H2 9747   2.239   3.288   4.787  0.2542  0.2340 -0.6314
 3268TIP3   OH2 9748   4.445   7.203   5.657  0.1834  0.0643 -0.1577
 3268TIP3    H1 9749   4.527   7.154   5.655  0.7941  1.0072  0.8821
 3268TIP3    H2 9750   4.440   7.245   5.571  1.9628  1.8191  0.5237
 3269TIP3   OH2 9751   0.139   0.199   5.108  0.0330  0.4388 -0.0750
 3269TIP3    H1 9752   0.109   0.115   5.074  0.5551  0.5212 -0.7671
 3269TIP3    H2 9753   0.097   0.264   5.051  0.0730  0.6289  0.1096
 3270TIP3   OH2 9754   1.167   6.663   0.386 -0.0141  0.9245 -0.3433
 3270TIP3    H1 9755   1.183   6.733   0.449 -0.4704  1.2142 -0.5498
 3270TIP3    H2 9756   1.072   6.661   0.376  0.1326  1.9088 -2.2002
 3271TIP3   OH2 9757   3.699   7.348   2.266  0.4045  0.3532 -0.0502
 3271TIP3    H1 9758   3.635   7.394   2.212 -0.1835 -1.0187 -0.5645
 3271TIP3    H2 9759   3.733   7.415   2.325 -1.2285  1.2001 -0.0105
 3272TIP3   OH2 9760   4.804   5.366   5.495  0.4622 -0.5235  0.3523
 3272TIP3    H1 9761   4.737   5.396   5.555  1.5868  0.8382  1.0013
 3272TIP3    H2 9762   4.833   5.282   5.530 -0.3016 -0.7050  0.5509
 3273TIP3   OH2 9763   1.827   7.367   2.022  0.6856  0.4915 -0.2973
 3273TIP3    H1 9764   1.793   7.366   1.932 -0.4834  1.2471  0.1105
 3273TIP3    H2 9765   1.891   7.438   2.021 -1.8085  2.9365  0.2500
 3274TIP3   OH2 9766   2.757   7.286   1.830 -0.1995  0.3043  0.8512
 3274TIP3    H1 9767   2.670   7.299   1.868 -1.0484  2.6610 -1.6130
 3274TIP3    H2 9768   2.799   7.371   1.837  0.8471 -0.0850 -0.4645
 3275TIP3   OH2 9769   3.502   2.197   2.882 -0.2307  0.3678  0.6150
 3275TIP3    H1 9770   3.467   2.286   2.892  0.6059  0.7531  0.1792
 3275TIP3    H2 9771   3.481   2.154   2.965 -1.4974  0.6648  0.4670
 3276TIP3   OH2 9772   0.235   4.910   2.978 -1.0208  0.2917  0.5724
 3276TIP3    H1 9773   0.173   4.848   3.017 -0.2153 -0.9110  0.0158
 3276TIP3    H2 9774   0.293   4.855   2.924  0.2962  1.4106  0.7879
 3277TIP3   OH2 9775   2.605   6.509   5.408 -0.4198  0.0413  0.3856
 3277TIP3    H1 9776   2.644   6.446   5.348  1.7639  0.1035  1.6234
 3277TIP3    H2 9777   2.609   6.593   5.362  0.4131 -0.0607  0.2651
 3278TIP3   OH2 9778   7.969   0.424   3.521 -0.4092 -0.0362 -0.1645
 3278TIP3    H1 9779   8.050   0.475   3.518 -0.3163 -0.0040  1.7578
 3278TIP3    H2 9780   7.992   0.338   3.486  0.4148  0.0211  0.2332
 3279TIP3   OH2 9781   5.149   6.885   4.569 -0.3453 -0.1840  0.3269
 3279TIP3    H1 9782   5.241   6.872   4.590 -0.7409 -1.4073  1.4290
 3279TIP3    H2 9783   5.118   6.799   4.543 -0.6616  0.6508 -2.3841
 3280TIP3   OH2 9784   7.820   3.864   3.488  0.5072 -0.0550 -0.4559
 3280TIP3    H1 9785   7.838   3.894   3.578 -1.7946  1.2467 -0.3453
 3280TIP3    H2 9786   7.869   3.925   3.433  0.8195  0.0096 -0.1146
 3281TIP3   OH2 9787   3.142   0.116   5.002  0.0554  0.1210 -0.4517
 3281TIP3    H1 9788   3.073   0.074   4.950 -0.8533 -0.3268  1.0684
 3281TIP3    H2 9789   3.214   0.053   5.000  0.0646  0.1394 -1.2094
 3282TIP3   OH2 9790   6.698   5.551   1.916  0.1639  0.2209 -0.0407
 3282TIP3    H1 9791   6.736   5.554   1.828  0.9312  1.2310  0.3022
 3282TIP3    H2 9792   6.642   5.474   1.915  0.6725 -0.1647 -1.2061
 3283TIP3   OH2 9793   4.490   2.978   2.862 -0.1663 -0.0969 -0.4413
 3283TIP3    H1 9794   4.567   2.965   2.918 -1.3874 -0.5094  1.2187
 3283TIP3    H2 9795   4.524   2.972   2.773  1.4518 -2.0129  0.2372
 3284TIP3   OH2 9796   8.173   0.010   5.860 -0.6745 -0.3269 -0.2165
 3284TIP3    H1 9797   8.250   0.042   5.813 -0.0108 -0.0986  0.9903
 3284TIP3    H2 9798   8.099   0.038   5.806  0.0828 -0.8982 -1.6047
 3285TIP3   OH2 9799   0.933   5.801   6.109 -0.1572 -0.0030 -0.3920
 3285TIP3    H1 9800   0.873   5.874   6.094  0.4808  0.2646 -1.7411
 3285TIP3    H2 9801   0.887   5.725   6.074  0.1505  0.1448 -1.1165
 3286TIP3   OH2 9802   2.838   1.261   4.408  0.0557 -0.2691 -0.3805
 3286TIP3    H1 9803   2.898   1.195   4.372 -0.5751 -0.7502 -0.5559
 3286TIP3    H2 9804   2.786   1.213   4.472  0.4436  0.3436  0.4095
 3287TIP3   OH2 9805   7.087   5.578   5.714 -0.6904  0.8820 -0.1337
 3287TIP3    H1 9806   6.999   5.585   5.677 -0.7295  0.8561 -0.0446
 3287TIP3    H2 9807   7.144   5.614   5.646 -0.7674  0.8805 -0.2002
 3288TIP3   OH2 9808   5.277   3.490   0.038  0.0342 -0.2537 -0.0465
 3288TIP3    H1 9809   5.236   3.543   0.107 -0.0392 -0.9970  0.4938
 3288TIP3    H2 9810   5.207   3.477  -0.027 -0.8041 -1.9097  1.0909
 3289TIP3   OH2 9811   2.037   2.407   5.061 -0.0529 -0.0952  0.0306
 3289TIP3    H1 9812   1.992   2.459   4.995  0.6569  0.5855  0.0614
 3289TIP3    H2 9813   2.094   2.348   5.011  2.3596  2.0866 -0.0415
 3290TIP3   OH2 9814   4.427   5.380   1.636  1.4828 -0.2609  0.2749
 3290TIP3    H1 9815   4.448   5.293   1.671 -0.8803 -0.8166  0.5188
 3290TIP3    H2 9816   4.470   5.441   1.695  1.0928 -1.2420  1.6181
 3291TIP3   OH2 9817   3.010   1.970   6.171 -0.0814  0.1799  0.1198
 3291TIP3    H1 9818   2.914   1.975   6.175 -0.1176 -0.7050  0.7144
 3291TIP3    H2 9819   3.039   2.048   6.218 -0.4659  1.8832 -2.3198
 3292TIP3   OH2 9820   3.291   7.443   4.053 -0.3460 -0.5969 -0.6371
 3292TIP3    H1 9821   3.330   7.520   4.011  0.7792 -1.2323 -0.8123
 3292TIP3    H2 9822   3.197   7.455   4.044 -0.2584  1.5314  0.7362
 3293TIP3   OH2 9823   2.939   5.692   0.491  0.1747  0.2207 -0.0543
 3293TIP3    H1 9824   2.882   5.753   0.445 -1.5872 -0.3192  1.3415
 3293TIP3    H2 9825   3.006   5.747   0.531  0.4681  0.8924 -1.4060
 3294TIP3   OH2 9826   2.750   7.745   4.656  0.4300  0.1188 -0.2828
 3294TIP3    H1 9827   2.773   7.838   4.645  1.2799 -0.0625 -0.1449
 3294TIP3    H2 9828   2.735   7.736   4.750 -0.0524  0.1946 -0.3475
 3295TIP3   OH2 9829   0.350   2.427   6.554 -0.0687  0.2583 -0.2650
 3295TIP3    H1 9830   0.272   2.400   6.603  0.3445  1.1570  0.9108
 3295TIP3    H2 9831   0.317   2.445   6.466 -0.6656 -2.2751 -0.6313
 3296TIP3   OH2 9832   7.352   4.230   0.604  0.1469 -0.2356  0.1567
 3296TIP3    H1 9833   7.410   4.303   0.626 -1.3794  0.5567  1.8467
 3296TIP3    H2 9834   7.411   4.157   0.586  1.6934  1.0582 -0.2690
 3297TIP3   OH2 9835   4.749   1.115   3.491  0.1657 -0.1966 -0.1719
 3297TIP3    H1 9836   4.832   1.067   3.488  0.9321  1.1112 -1.9716
 3297TIP3    H2 9837   4.766   1.188   3.551 -0.3452 -0.9615  0.9515
 3298TIP3   OH2 9838   0.449   1.110   3.085 -0.0175 -0.6245 -0.0234
 3298TIP3    H1 9839   0.476   1.056   3.159  1.0578 -1.0096 -0.6699
 3298TIP3    H2 9840   0.459   1.054   3.009 -1.2740 -0.2824 -0.4556
 3299TIP3   OH2 9841   7.792   3.564   6.083 -0.3569  0.2763 -0.2020
 3299TIP3    H1 9842   7.875   3.537   6.046 -0.5858 -0.6788 -0.0446
 3299TIP3    H2 9843   7.728   3.547   6.013 -0.5364  0.1669 -0.0128
 3300TIP3   OH2 9844   4.687   5.535   1.705 -0.0589  0.0544  0.3035
 3300TIP3    H1 9845   4.755   5.470   1.720  0.1391  0.2113  0.1011
 3300TIP3    H2 9846   4.680   5.582   1.789  1.2838  1.1513 -0.1586
 3301TIP3   OH2 9847   1.100   2.081   4.533 -0.3188 -0.5127  0.4410
 3301TIP3    H1 9848   1.148   2.089   4.615  0.5799  0.9865 -0.1806
 3301TIP3    H2 9849   1.012   2.056   4.558 -0.0089 -0.2431  1.8511
 3302TIP3   OH2 9850   8.182   2.973   2.370 -0.6707  0.0736  0.3298
 3302TIP3    H1 9851   8.193   2.962   2.465  0.4141 -0.9793  0.1172
 3302TIP3    H2 9852   8.264   3.012   2.341 -0.7886 -0.0919 -0.2416
 3303TIP3   OH2 9853   7.520   4.615   2.557 -0.2814 -0.4316  0.6436
 3303TIP3    H1 9854   7.489   4.662   2.635 -1.7849 -0.2922 -0.0082
 3303TIP3    H2 9855   7.576   4.678   2.512 -0.6711  0.0459  0.8097
 3304TIP3   OH2 9856   2.793   2.370   6.339  0.1852 -0.3925 -0.5864
 3304TIP3    H1 9857   2.724   2.305   6.354  0.6744 -0.7163  0.3098
 3304TIP3    H2 9858   2.770   2.410   6.255 -0.7348 -0.9463 -0.6110
 3305TIP3   OH2 9859   4.181   1.307   6.220  0.3150 -0.1098 -0.0950
 3305TIP3    H1 9860   4.224   1.372   6.165  0.2474 -1.2595 -1.5603
 3305TIP3    H2 9861   4.090   1.337   6.225  0.5105  0.4625  0.1192
 3306TIP3   OH2 9862   1.359   4.970   4.844  0.3564 -0.5765 -0.1210
 3306TIP3    H1 9863   1.394   4.883   4.823  1.2514 -0.0327 -0.9906
 3306TIP3    H2 9864   1.297   4.988   4.773  0.7658 -0.1861 -0.3827
 3307TIP3   OH2 9865   5.480   3.983   4.804  0.1157 -0.2244 -0.4349
 3307TIP3    H1 9866   5.570   3.951   4.814  1.6370  3.3114 -1.2308
 3307TIP3    H2 9867   5.467   3.989   4.709 -0.0637  1.3236 -0.3470
 3308TIP3   OH2 9868   6.958   6.205   5.938 -0.2705  0.0523 -0.0467
 3308TIP3    H1 9869   6.960   6.241   5.849  0.8117  0.2972  0.0613
 3308TIP3    H2 9870   6.928   6.115   5.926 -1.0108  0.3557 -0.5544
 3309TIP3   OH2 9871   4.847   0.063   2.214 -0.3799 -0.1543 -0.1128
 3309TIP3    H1 9872   4.913   0.020   2.268 -1.7648 -0.5177  1.3858
 3309TIP3    H2 9873   4.890   0.080   2.131  1.2305 -1.4037  0.4270
 3310TIP3   OH2 9874   4.979   1.299   2.659 -0.0524  0.2985  0.6692
 3310TIP3    H1 9875   5.066   1.263   2.679  0.1998 -0.0058 -0.8968
 3310TIP3    H2 9876   4.920   1.225   2.671  0.1501  0.0048 -0.1309
 3311TIP3   OH2 9877   3.163   4.521   6.717  0.5814  0.5386 -0.3648
 3311TIP3    H1 9878   3.222   4.592   6.744  0.9855 -0.1499  0.6271
 3311TIP3    H2 9879   3.148   4.471   6.797 -1.4405  0.7408 -0.5722
 3312TIP3   OH2 9880   6.886   4.561   2.085  0.8381 -0.1342 -0.3380
 3312TIP3    H1 9881   6.972   4.535   2.051  0.4055 -1.0120 -0.7912
 3312TIP3    H2 9882   6.862   4.637   2.033  2.1419  1.2740  1.0317
 3313TIP3   OH2 9883   3.433   7.423   5.388 -0.4071 -0.1160 -0.1915
 3313TIP3    H1 9884   3.399   7.341   5.353  0.4476 -0.8644  0.6551
 3313TIP3    H2 9885   3.364   7.455   5.446 -0.3027 -0.8548  0.3666
 3314TIP3   OH2 9886   4.055   5.126   0.463  0.5258 -0.2036  0.0899
 3314TIP3    H1 9887   4.011   5.041   0.464  0.0281  0.0422  1.9310
 3314TIP3    H2 9888   4.036   5.162   0.376 -0.5004 -1.3120 -0.1702
 3315TIP3   OH2 9889   6.853   3.812   5.035  0.4259  0.8468  0.0845
 3315TIP3    H1 9890   6.948   3.822   5.048  0.5296 -0.5883  0.6096
 3315TIP3    H2 9891   6.844   3.797   4.941  0.4445  3.4029 -0.3930
 3316TIP3   OH2 9892   8.203   6.474   0.441  0.3384 -0.0693 -0.4255
 3316TIP3    H1 9893   8.195   6.456   0.347  0.7926 -1.8121 -0.1696
 3316TIP3    H2 9894   8.152   6.405   0.483  0.8331  0.1838  0.6335
 3317TIP3   OH2 9895   3.777   2.972   0.417  0.1903  0.0123 -0.6158
 3317TIP3    H1 9896   3.847   2.936   0.470 -2.2329 -1.5277  1.8063
 3317TIP3    H2 9897   3.756   3.056   0.458  1.1210  0.9117 -1.8912
 3318TIP3   OH2 9898   7.915   6.419   5.229  0.3050 -0.1865 -0.0907
 3318TIP3    H1 9899   7.835   6.462   5.259  0.6742 -0.2495  1.0436
 3318TIP3    H2 9900   7.928   6.348   5.291  0.0711 -1.5471 -1.5336
 3319TIP3   OH2 9901   4.348   6.062   3.459 -0.6561  0.3289  0.0397
 3319TIP3    H1 9902   4.442   6.063   3.441 -0.1577 -1.8510  2.0039
 3319TIP3    H2 9903   4.307   6.046   3.374  0.9180 -1.0037 -0.5193
 3320TIP3   OH2 9904   2.093   5.983   2.557  0.3122 -0.3183  0.5884
 3320TIP3    H1 9905   2.072   5.910   2.615  0.4648 -2.4087 -1.8414
 3320TIP3    H2 9906   2.024   5.983   2.491  2.2262 -0.7119 -1.5581
 3321TIP3   OH2 9907   2.091   3.345   5.801 -0.1774  0.1069  0.8206
 3321TIP3    H1 9908   2.154   3.298   5.746  0.7784  1.9595  0.2356
 3321TIP3    H2 9909   2.006   3.326   5.762  0.3465  0.1491 -0.3705
 3322TIP3   OH2 9910   8.058   1.177   2.657  0.4319 -0.1885  0.0013
 3322TIP3    H1 9911   8.055   1.140   2.569  1.6497 -0.3569  0.0081
 3322TIP3    H2 9912   8.099   1.108   2.710  0.3916  0.2000  0.5484
 3323TIP3   OH2 9913   3.551   1.313   3.119  0.0855 -0.6668  0.0192
 3323TIP3    H1 9914   3.579   1.249   3.053 -1.2897 -0.8322 -0.4503
 3323TIP3    H2 9915   3.566   1.270   3.203 -0.6413 -1.5546 -0.2884
 3324TIP3   OH2 9916   7.014   0.998   5.962 -0.2879  0.9896  0.4585
 3324TIP3    H1 9917   6.972   1.082   5.944  0.1961  1.0466 -0.4607
 3324TIP3    H2 9918   6.944   0.943   5.998 -0.6521  1.7228  0.8752
 3325TIP3   OH2 9919   5.266   6.859   4.149 -0.1403 -0.3410  0.2920
 3325TIP3    H1 9920   5.344   6.895   4.192  0.1303  1.4266 -1.5068
 3325TIP3    H2 9921   5.277   6.765   4.153  0.9817 -0.1887  2.0018
 3326TIP3   OH2 9922   6.479   0.823   3.037 -0.5194  0.1372 -0.6603
 3326TIP3    H1 9923   6.445   0.745   2.993 -3.0996  1.0578 -0.4612
 3326TIP3    H2 9924   6.566   0.836   2.998 -0.0421 -2.7257 -0.7644
 3327TIP3   OH2 9925   4.217   5.645   1.662 -0.1998 -0.0953  0.2852
 3327TIP3    H1 9926   4.287   5.616   1.720  0.0905  0.2177  0.0925
 3327TIP3    H2 9927   4.214   5.577   1.594 -0.4545 -0.3939  0.5885
 3328TIP3   OH2 9928   6.001   0.278   3.315  0.0160  0.6837 -0.6469
 3328TIP3    H1 9929   6.011   0.228   3.233  0.5975  1.1269 -0.8489
 3328TIP3    H2 9930   5.926   0.335   3.299 -0.2945  0.2860 -0.6238
 3329TIP3   OH2 9931   2.624   1.800   6.682  0.4084  0.3779 -0.2805
 3329TIP3    H1 9932   2.604   1.861   6.753 -0.9371 -2.1546  1.6874
 3329TIP3    H2 9933   2.696   1.746   6.716 -2.0826 -2.7369  0.5681
 3330TIP3   OH2 9934   5.889   1.814   5.968 -0.6357 -0.4210  0.0816
 3330TIP3    H1 9935   5.800   1.850   5.961  0.5579  2.6375 -0.9834
 3330TIP3    H2 9936   5.922   1.847   6.051 -0.0504 -0.4340 -0.1427
 3331TIP3   OH2 9937   5.801   3.745   3.386  0.1217 -0.8160  0.2420
 3331TIP3    H1 9938   5.832   3.661   3.420  0.0525 -0.5384  1.0219
 3331TIP3    H2 9939   5.838   3.810   3.446  0.8853 -0.2129 -0.8474
 3332TIP3   OH2 9940   5.654   4.718   1.639  0.1405 -0.1304 -0.2575
 3332TIP3    H1 9941   5.667   4.645   1.699  3.6387  0.8865  0.4849
 3332TIP3    H2 9942   5.728   4.713   1.579 -0.6802  1.6080 -1.5000
 3333TIP3   OH2 9943   3.671   2.837   2.531 -0.1534  0.1362 -0.0345
 3333TIP3    H1 9944   3.762   2.836   2.558  0.3708  1.6862 -1.5702
 3333TIP3    H2 9945   3.645   2.745   2.529  0.3475 -0.2132  3.5145
 3334TIP3   OH2 9946   1.839   0.304   2.784  0.0614  0.1591  0.4858
 3334TIP3    H1 9947   1.836   0.250   2.863  1.1266 -2.4311 -1.1411
 3334TIP3    H2 9948   1.925   0.287   2.746 -0.8480  0.4165 -1.8485
 3335TIP3   OH2 9949   6.810   0.406   5.920 -0.0625 -0.0638 -0.6459
 3335TIP3    H1 9950   6.859   0.479   5.957  0.5127 -0.6730 -0.1977
 3335TIP3    H2 9951   6.877   0.347   5.885 -0.5602  0.2703 -2.2703
 3336TIP3   OH2 9952   0.373   4.861   0.747 -0.1568  0.2334  0.5720
 3336TIP3    H1 9953   0.354   4.769   0.766 -0.3855 -0.1685 -1.3664
 3336TIP3    H2 9954   0.287   4.902   0.740 -0.1192  0.1458 -0.5021
 3337TIP3   OH2 9955   5.725   6.427   3.872  0.0984 -0.0710 -0.0884
 3337TIP3    H1 9956   5.756   6.517   3.875  1.4917 -0.4614  4.2845
 3337TIP3    H2 9957   5.632   6.434   3.853  0.2843  2.2369 -0.4288
 3338TIP3   OH2 9958   4.333   0.867   6.799  0.4410 -0.0256  0.0143
 3338TIP3    H1 9959   4.328   0.961   6.786  0.1412 -0.0995 -0.4414
 3338TIP3    H2 9960   4.414   0.841   6.755 -1.2534 -0.4745 -3.1514
 3339TIP3   OH2 9961   0.520   3.624   0.387  0.5949 -0.3229  0.0288
 3339TIP3    H1 9962   0.453   3.643   0.321  0.3865  1.0276  0.5934
 3339TIP3    H2 9963   0.548   3.535   0.368 -2.5235 -1.6206  0.7635
 3340TIP3   OH2 9964   7.880   7.068   2.734  0.1985  0.2024 -0.1449
 3340TIP3    H1 9965   7.839   7.089   2.650  3.0446 -0.2438 -1.7452
 3340TIP3    H2 9966   7.942   7.139   2.749  1.3833 -0.8934  0.3745
 3341TIP3   OH2 9967   2.166   5.598   0.038 -0.0373  0.3925  0.2293
 3341TIP3    H1 9968   2.152   5.593   0.132 -0.2730  1.5878  0.2653
 3341TIP3    H2 9969   2.078   5.588   0.000 -0.1334  1.3537  0.1953
 3342TIP3   OH2 9970   0.911   5.945   3.860 -0.5057 -0.2580  0.0228
 3342TIP3    H1 9971   0.875   5.870   3.907 -2.1130  0.4516 -0.0161
 3342TIP3    H2 9972   0.846   5.966   3.793  0.7091  0.1350 -1.0840
 3343TIP3   OH2 9973   2.430   5.336   2.141 -0.0328 -0.1579 -0.2336
 3343TIP3    H1 9974   2.350   5.380   2.167  0.0907 -0.4032  0.6020
 3343TIP3    H2 9975   2.404   5.276   2.071 -0.4665  0.1714 -0.3531
 3344TIP3   OH2 9976   2.552   5.792   0.942  0.5688 -0.3582 -0.3713
 3344TIP3    H1 9977   2.555   5.866   0.881 -2.5295  0.4768  0.3415
 3344TIP3    H2 9978   2.508   5.723   0.892 -1.2507  0.0682  0.5510
 3345TIP3   OH2 9979   5.840   6.259   5.009 -0.1196 -0.0276  0.5170
 3345TIP3    H1 9980   5.836   6.188   4.945  0.4318 -1.2965  1.8602
 3345TIP3    H2 9981   5.912   6.315   4.978 -0.0442 -0.4682 -0.1172
 3346TIP3   OH2 9982   0.044   6.080   6.603 -0.1892 -0.1461  0.2144
 3346TIP3    H1 9983   0.075   6.092   6.513 -1.1000  1.0925  0.0271
 3346TIP3    H2 9984   0.024   6.169   6.633  2.1493 -0.2638  2.4386
 3347TIP3   OH2 9985   2.766   4.928   4.759 -0.2587 -0.5100  0.5657
 3347TIP3    H1 9986   2.675   4.900   4.749 -0.3256  0.1136 -0.8664
 3347TIP3    H2 9987   2.760   5.022   4.778  0.0611  0.1984 -2.2655
 3348TIP3   OH2 9988   2.113   1.913   3.387  0.1686  0.2301  0.5448
 3348TIP3    H1 9989   2.065   1.995   3.388 -0.8842 -0.2516 -1.9940
 3348TIP3    H2 9990   2.047   1.846   3.366  1.4602 -0.8158 -0.4253
 3349TIP3   OH2 9991   0.290   7.251   1.921  0.9819  0.3303  0.0568
 3349TIP3    H1 9992   0.338   7.173   1.893  1.2815  0.4071  0.3444
 3349TIP3    H2 9993   0.259   7.230   2.009  1.3388  0.6510  0.2656
 3350TIP3   OH2 9994   0.683   7.626   5.843  0.7979 -0.5501 -0.0600
 3350TIP3    H1 9995   0.644   7.631   5.930 -0.3907  2.2279 -0.6329
 3350TIP3    H2 9996   0.771   7.664   5.854  1.2765 -1.6825  0.1830
 3351TIP3   OH2 9997   7.521   4.879   5.008  0.3272  0.0170  0.0712
 3351TIP3    H1 9998   7.495   4.850   4.921 -0.1712  0.1241  0.1842
 3351TIP3    H2 9999   7.602   4.928   4.993  0.5403 -0.4277 -0.2621
 3352TIP3   OH210000   2.947   1.238   6.687 -0.1161 -0.0112  0.6499
 3352TIP3    H110001   2.988   1.306   6.741 -1.8075  1.2808  0.3825
 3352TIP3    H210002   2.958   1.269   6.597  0.2570 -0.7623  0.4338
 3353TIP3   OH210003   6.431   0.828   2.590  0.2463  0.3569  0.2227
 3353TIP3    H110004   6.389   0.748   2.620 -1.3957  1.3746  0.7909
 3353TIP3    H210005   6.430   0.821   2.494  1.5440 -0.9597  0.2756
 3354TIP3   OH210006   6.828   2.803   2.934  0.3903  0.0686  0.2771
 3354TIP3    H110007   6.781   2.835   2.857  0.6174 -2.7515 -1.2006
 3354TIP3    H210008   6.762   2.797   3.002 -0.1304  1.3405 -0.0964
 3355TIP3   OH210009   3.550   3.290   0.172  0.1416  0.0907  0.1377
 3355TIP3    H110010   3.615   3.242   0.120 -0.9792  1.3252 -2.5904
 3355TIP3    H210011   3.471   3.291   0.117 -0.2555  3.9866  0.4755
 3356TIP3   OH210012   1.979   0.168   4.162 -0.1252  0.5935 -0.0955
 3356TIP3    H110013   1.974   0.073   4.152  0.6924  0.7182 -2.5892
 3356TIP3    H210014   1.912   0.202   4.102  2.0190  1.5438 -2.1353
 3357TIP3   OH210015   0.837   6.737   3.840  0.4257  0.3620  0.1012
 3357TIP3    H110016   0.894   6.712   3.768  0.5790 -1.0413  0.6828
 3357TIP3    H210017   0.769   6.790   3.800  1.5694  1.2467 -0.7621
 3358TIP3   OH210018   7.947   5.520   3.031  0.0551  0.1408 -0.0910
 3358TIP3    H110019   7.963   5.426   3.043 -0.1880  0.2495  1.2455
 3358TIP3    H210020   7.945   5.532   2.936  1.7096 -0.9174 -0.2991
 3359TIP3   OH210021   2.162   0.571   5.493  0.3865  0.2237  0.0756
 3359TIP3    H110022   2.149   0.493   5.546  2.0826  1.0981  1.9121
 3359TIP3    H210023   2.117   0.640   5.540 -0.4198  0.5411 -1.1114
 3360TIP3   OH210024   8.256   3.531   4.833  0.2125 -0.3496 -0.1136
 3360TIP3    H110025   8.240   3.540   4.927  0.1340  0.2897 -0.1873
 3360TIP3    H210026   8.350   3.517   4.827  0.1649 -0.7872  0.0852
 3361TIP3   OH210027   3.002   0.626   0.593  0.2848  0.1320 -0.2568
 3361TIP3    H110028   3.027   0.558   0.530  1.5572 -0.2976  0.6665
 3361TIP3    H210029   2.935   0.584   0.648 -0.3360  0.2858 -0.8765
 3362TIP3   OH210030   0.300   7.467   5.070 -0.6971  0.3022  0.2162
 3362TIP3    H110031   0.379   7.484   5.018 -0.2297  0.1861  0.8856
 3362TIP3    H210032   0.265   7.554   5.089  0.5469  0.4815  1.8681
 3363TIP3   OH210033   0.628   4.827   0.448  0.1612  0.6293 -0.3062
 3363TIP3    H110034   0.692   4.896   0.464 -0.6258  1.8036 -1.9807
 3363TIP3    H210035   0.625   4.778   0.531  1.9964  1.5240  0.3397
 3364TIP3   OH210036   7.105   7.332   1.238  0.3053  0.3284  0.0256
 3364TIP3    H110037   7.144   7.411   1.277  0.8301  0.1968 -0.2137
 3364TIP3    H210038   7.180   7.273   1.225  0.1833  0.4341 -1.3149
 3365TIP3   OH210039   0.434   1.925   6.762 -0.0322  0.0847 -0.0394
 3365TIP3    H110040   0.421   1.999   6.822  0.8581  2.1407 -2.2095
 3365TIP3    H210041   0.351   1.918   6.714  0.0114 -0.0890 -0.0924
 3366TIP3   OH210042   4.266   7.548   3.342 -0.3810 -0.3998  0.0149
 3366TIP3    H110043   4.304   7.631   3.369 -1.0527 -0.0395 -0.1106
 3366TIP3    H210044   4.263   7.552   3.247  1.0860 -1.2624 -0.0852
 3367TIP3   OH210045   1.890   7.243   3.133  0.3572 -0.3751 -0.2339
 3367TIP3    H110046   1.870   7.162   3.180  1.5857 -0.8638 -0.4925
 3367TIP3    H210047   1.985   7.254   3.146 -0.1253  2.3043  1.7595
 3368TIP3   OH210048   7.661   3.930   6.510 -0.6661 -0.1154 -0.3116
 3368TIP3    H110049   7.625   3.849   6.546  0.4726  0.0190  1.2558
 3368TIP3    H210050   7.642   3.996   6.577  0.5500  0.3932 -0.4380
 3369TIP3   OH210051   4.033   6.217   0.116 -0.4928  0.0107  0.4448
 3369TIP3    H110052   4.083   6.198   0.195  0.7302 -0.8259 -0.4857
 3369TIP3    H210053   4.090   6.274   0.065  0.2369 -2.1153 -1.2772
 3370TIP3   OH210054   1.887   7.000   4.858 -0.0706 -0.0272 -0.0878
 3370TIP3    H110055   1.982   7.001   4.864 -0.0467  0.8898 -0.3850
 3370TIP3    H210056   1.863   6.908   4.857  0.9178 -0.3008 -1.5940
 3371TIP3   OH210057   4.084   4.623   4.783  0.1928 -0.2232  0.1734
 3371TIP3    H110058   3.989   4.611   4.781 -0.0131  0.3518  2.9176
 3371TIP3    H210059   4.099   4.690   4.850  2.6193 -1.1836  0.7044
 3372TIP3   OH210060   0.352   2.121   5.582  0.2662  0.3217  0.1269
 3372TIP3    H110061   0.291   2.062   5.627 -0.2849 -0.8376 -1.9963
 3372TIP3    H210062   0.336   2.206   5.622 -0.7488 -0.4875  1.5472
 3373TIP3   OH210063   5.760   5.024   4.182  0.2354 -0.4121  0.1047
 3373TIP3    H110064   5.727   4.935   4.201 -0.9521  0.1578  0.8574
 3373TIP3    H210065   5.724   5.045   4.096 -0.0494 -0.4115  0.2212
 3374TIP3   OH210066   0.976   0.821   3.799  0.0543 -0.2236 -1.0028
 3374TIP3    H110067   0.911   0.795   3.865  1.4597 -0.3592  0.3877
 3374TIP3    H210068   0.924   0.852   3.725 -1.6020 -1.1809 -0.3013
 3375TIP3   OH210069   1.702   5.146   6.210 -0.5972  0.1276  0.6440
 3375TIP3    H110070   1.645   5.207   6.257 -0.8304 -0.3689  1.0203
 3375TIP3    H210071   1.755   5.202   6.153 -1.4014  0.6054  0.3482
 3376TIP3   OH210072   5.480   3.814   0.011 -0.3273 -0.3356  0.1021
 3376TIP3    H110073   5.418   3.822   0.083 -1.2303 -1.2326 -0.5422
 3376TIP3    H210074   5.563   3.791   0.052 -0.9526 -1.3535  0.8232
 3377TIP3   OH210075   1.260   7.543   5.625 -0.2116  0.2403  0.7894
 3377TIP3    H110076   1.299   7.628   5.647 -0.0289  0.3978 -0.1265
 3377TIP3    H210077   1.220   7.514   5.707  0.9819  0.5283  1.5045
 3378TIP3   OH210078   4.904   0.487   6.128  0.2479  0.6116 -0.5140
 3378TIP3    H110079   4.895   0.450   6.216  0.0640 -1.1185 -1.2366
 3378TIP3    H210080   4.972   0.435   6.087  0.5285  1.5916 -1.3172
 3379TIP3   OH210081   7.702   0.697   6.329 -0.1894  0.0786  0.0104
 3379TIP3    H110082   7.612   0.665   6.335 -1.0201  2.0066 -1.0633
 3379TIP3    H210083   7.714   0.750   6.408 -0.0081 -0.1564  0.1409
 3380TIP3   OH210084   4.202   5.943   0.481 -0.0148  0.1618  0.2949
 3380TIP3    H110085   4.126   5.885   0.478 -1.1900  1.6248  0.4961
 3380TIP3    H210086   4.181   6.005   0.551  0.8779  1.2437 -0.3755
 3381TIP3   OH210087   4.081   7.306   5.949 -0.4949  0.0853 -0.5469
 3381TIP3    H110088   4.162   7.311   6.000 -0.0308  1.0497 -1.3520
 3381TIP3    H210089   4.054   7.214   5.955  0.9985 -0.3889 -0.7824
 3382TIP3   OH210090   0.856   1.800   2.301  0.4234  0.2584 -0.1686
 3382TIP3    H110091   0.768   1.786   2.335  0.5313 -0.6675 -0.2348
 3382TIP3    H210092   0.847   1.866   2.233 -0.5305 -1.1689 -1.4859
 3383TIP3   OH210093   2.912   6.393   3.145  0.5760 -0.0496 -0.1260
 3383TIP3    H110094   2.848   6.336   3.188 -0.8352  1.1024 -0.6103
 3383TIP3    H210095   2.881   6.399   3.055  0.4273  1.7828  0.0039
 3384TIP3   OH210096   5.226   4.611   6.415 -0.4552 -0.2236  0.2658
 3384TIP3    H110097   5.288   4.582   6.348  0.6639  0.1687  1.0972
 3384TIP3    H210098   5.152   4.550   6.408  0.6739 -1.6411  0.2388
 3385TIP3   OH210099   7.650   4.053   2.750 -0.1037  0.3017 -0.0760
 3385TIP3    H110100   7.675   4.065   2.658 -0.0042  0.8253  0.0168
 3385TIP3    H210101   7.620   3.962   2.755 -1.9494  0.8079 -1.0536
 3386TIP3   OH210102   4.650   5.147   5.900  0.1134  0.5914 -0.3295
 3386TIP3    H110103   4.684   5.236   5.909  0.1453  0.4689  1.0081
 3386TIP3    H210104   4.591   5.136   5.975  0.9900 -0.8810  0.1913
 3387TIP3   OH210105   5.704   1.773   0.254 -0.3498  0.1745 -0.5541
 3387TIP3    H110106   5.783   1.790   0.202 -1.0082  0.9803 -1.3237
 3387TIP3    H210107   5.709   1.834   0.327 -0.0849 -0.0195 -0.4102
 3388TIP3   OH210108   7.859   0.776   1.397  0.1149 -0.0687  0.6468
 3388TIP3    H110109   7.861   0.695   1.449 -0.2765  0.2749  1.2098
 3388TIP3    H210110   7.781   0.767   1.343  0.1362 -0.1203  0.6245
 3389TIP3   OH210111   2.725   7.303   3.521  0.4629 -0.2427  0.3383
 3389TIP3    H110112   2.762   7.383   3.485 -0.8333  0.3351  0.2470
 3389TIP3    H210113   2.762   7.297   3.610 -0.1920  0.9872  0.7074
 3390TIP3   OH210114   2.103   5.504   6.026 -0.3575 -0.3770 -0.2277
 3390TIP3    H110115   2.019   5.547   6.012 -0.4358 -1.3114 -3.4575
 3390TIP3    H210116   2.162   5.574   6.054 -1.7451  0.6948  0.0878
 3391TIP3   OH210117   4.185   2.420   6.100  0.0487 -0.2108 -0.2705
 3391TIP3    H110118   4.238   2.486   6.056 -0.5773 -0.0772 -0.8376
 3391TIP3    H210119   4.237   2.394   6.176  0.3614  0.8351 -0.1129
 3392TIP3   OH210120   6.617   7.052   3.502  0.7754  0.2929 -0.4718
 3392TIP3    H110121   6.606   7.072   3.595 -0.9920 -2.6416  0.0748
 3392TIP3    H210122   6.571   7.122   3.457  0.5946  1.1003  0.9088
 3393TIP3   OH210123   1.880   3.065   4.667  0.3400 -0.1083 -0.1115
 3393TIP3    H110124   1.810   3.071   4.732 -0.4550 -0.3309 -0.9134
 3393TIP3    H210125   1.951   3.118   4.702 -0.1702 -0.0190  0.8098
 3394TIP3   OH210126   6.608   3.109   1.158 -0.1586 -0.7433  0.1569
 3394TIP3    H110127   6.654   3.082   1.078  1.2137  0.3276  0.5350
 3394TIP3    H210128   6.672   3.161   1.206 -1.7870  0.8745  0.7079
 3395TIP3   OH210129   0.635   0.527   5.813  0.4396 -0.2018 -0.1600
 3395TIP3    H110130   0.693   0.584   5.763  0.0521  0.8874  0.5968
 3395TIP3    H210131   0.650   0.552   5.905 -0.1095 -0.9654  0.1471
 3396TIP3   OH210132   0.811   5.811   5.265  0.1633 -0.1450  0.2791
 3396TIP3    H110133   0.851   5.772   5.187  0.2439  1.2990 -0.4359
 3396TIP3    H210134   0.880   5.863   5.304  0.2921 -1.3038  1.6846
 3397TIP3   OH210135   1.258   3.177   6.390 -0.1314 -0.2705 -0.5377
 3397TIP3    H110136   1.230   3.104   6.335 -1.6850 -0.3349  0.2923
 3397TIP3    H210137   1.308   3.234   6.331  2.4687 -2.7064 -0.8737
 3398TIP3   OH210138   5.052   3.850   0.746  0.1102  0.0657  0.1015
 3398TIP3    H110139   4.974   3.866   0.798  0.0332 -1.6074  0.5640
 3398TIP3    H210140   5.074   3.935   0.708 -1.8962  0.5614 -0.0152
 3399TIP3   OH210141   3.663   3.632   5.085 -0.9692  0.1961  0.2603
 3399TIP3    H110142   3.754   3.662   5.088 -0.8743 -0.0845  0.1735
 3399TIP3    H210143   3.620   3.695   5.027 -0.5882 -0.2998 -0.5962
 3400TIP3   OH210144   4.672   0.588   2.799  0.0043 -0.5039 -0.1941
 3400TIP3    H110145   4.757   0.618   2.766  0.1031  0.2494  0.6904
 3400TIP3    H210146   4.612   0.660   2.779  0.1136  0.0749  1.3976
 3401TIP3   OH210147   2.376   0.598   3.895 -0.2876  0.3179 -0.0743
 3401TIP3    H110148   2.363   0.666   3.829  0.5858 -0.0029 -0.5953
 3401TIP3    H210149   2.467   0.569   3.882  0.2148  0.8866  1.8816
 3402TIP3   OH210150   8.153   2.308   3.857 -0.2315  0.3639  0.5097
 3402TIP3    H110151   8.224   2.307   3.921 -1.6101  0.6673  2.1140
 3402TIP3    H210152   8.188   2.261   3.781  1.8469  0.9530  1.0362
 3403TIP3   OH210153   1.544   5.671   3.192  0.8606 -0.5983 -0.2113
 3403TIP3    H110154   1.449   5.661   3.193  1.0261 -2.7054 -0.2302
 3403TIP3    H210155   1.565   5.721   3.271 -0.2047 -0.7648  0.1874
 3404TIP3   OH210156   4.610   2.626   4.982 -0.4552 -0.0775  0.1346
 3404TIP3    H110157   4.612   2.722   4.985  0.7806 -0.1004  1.0488
 3404TIP3    H210158   4.698   2.600   5.010 -0.4810 -1.4759 -1.0213
 3405TIP3   OH210159   5.688   2.848   4.034 -0.1529 -0.1373  0.0095
 3405TIP3    H110160   5.718   2.872   4.122 -0.1826 -2.0775  0.6103
 3405TIP3    H210161   5.752   2.889   3.976 -0.3216  1.4605  0.8915
 3406TIP3   OH210162   7.269   3.015   3.917  0.4818  0.0028  0.2838
 3406TIP3    H110163   7.203   2.998   3.985  1.6156  0.5227  1.5669
 3406TIP3    H210164   7.221   3.006   3.835 -1.8073  2.6072  1.1661
 3407TIP3   OH210165   6.676   7.571   1.894 -0.2076  0.0462  0.3187
 3407TIP3    H110166   6.686   7.653   1.944  0.5955 -0.3984  0.9096
 3407TIP3    H210167   6.616   7.518   1.946 -0.0116 -0.0992  0.3966
 3408TIP3   OH210168   6.256   0.678   5.882 -0.0334  0.2390 -0.1203
 3408TIP3    H110169   6.300   0.613   5.936 -0.0530  0.5427  0.2631
 3408TIP3    H210170   6.275   0.651   5.792 -1.2577 -1.1596 -0.0042
 3409TIP3   OH210171   0.251   7.597   5.518 -0.1527 -0.5242 -0.2442
 3409TIP3    H110172   0.311   7.668   5.542 -2.4759  1.2134  0.8053
 3409TIP3    H210173   0.284   7.521   5.565  0.8300  0.5422  0.8713
 3410TIP3   OH210174   0.484   3.091   5.864 -0.1608  0.1110  0.3738
 3410TIP3    H110175   0.413   3.129   5.917 -0.2645 -1.3269  1.3015
 3410TIP3    H210176   0.529   3.167   5.828 -2.0249  1.0822 -0.0624
 3411TIP3   OH210177   5.956   6.533   5.794 -0.1043  0.1885 -0.5724
 3411TIP3    H110178   5.894   6.542   5.721 -0.2376 -1.0770 -0.6402
 3411TIP3    H210179   6.041   6.520   5.751  0.0389  0.8111 -0.4854
 3412TIP3   OH210180   5.149   7.329   3.000 -0.4923  0.3124 -0.1111
 3412TIP3    H110181   5.200   7.334   2.919  0.2939 -0.6482  0.3011
 3412TIP3    H210182   5.060   7.311   2.972 -0.4699  1.1863 -0.8092
 3413TIP3   OH210183   5.945   6.027   2.196 -0.4302 -0.6196  0.3766
 3413TIP3    H110184   5.916   6.085   2.125 -0.5219 -0.1015  0.8280
 3413TIP3    H210185   6.029   6.063   2.224 -1.2549  0.3315  1.7785
 3414TIP3   OH210186   1.259   1.759   1.626 -0.5039  0.0450 -0.4113
 3414TIP3    H110187   1.300   1.845   1.625  0.8441 -0.5015  1.5736
 3414TIP3    H210188   1.189   1.765   1.561  1.4091  1.6639 -2.4611
 3415TIP3   OH210189   2.776   5.013   1.576 -0.2792  0.8669  0.1063
 3415TIP3    H110190   2.800   4.924   1.600 -3.7121  0.3206  2.2832
 3415TIP3    H210191   2.704   5.003   1.514 -1.4326  2.0310  1.1930
 3416TIP3   OH210192   3.134   7.205   5.610  0.0705 -0.5573  0.3696
 3416TIP3    H110193   3.154   7.207   5.516 -0.1682 -0.4051  0.3208
 3416TIP3    H210194   3.219   7.198   5.653  0.1173 -2.0792  0.1002
 3417TIP3   OH210195   3.356   0.167   1.104 -0.7869 -0.0304  0.2778
 3417TIP3    H110196   3.331   0.078   1.080  0.8405 -0.3705 -0.3027
 3417TIP3    H210197   3.382   0.207   1.021  0.8125  0.1689  0.8365
 3418TIP3   OH210198   4.761   7.774   0.472  0.5091 -0.1243 -0.1598
 3418TIP3    H110199   4.689   7.770   0.408  0.6536  0.6973 -0.3933
 3418TIP3    H210200   4.799   7.861   0.459  1.9457 -0.7727 -0.4706
 3419TIP3   OH210201   0.272   6.490   1.570  0.6109 -0.3486 -0.1945
 3419TIP3    H110202   0.307   6.531   1.490  1.0255 -0.4823 -0.0880
 3419TIP3    H210203   0.179   6.479   1.553  0.5113  0.5375 -0.2642
 3420TIP3   OH210204   3.215   5.719   0.353  0.5037  0.4264 -0.3482
 3420TIP3    H110205   3.279   5.656   0.387  0.5046  0.1854 -0.7800
 3420TIP3    H210206   3.258   5.804   0.363  0.1776  0.4519  0.9835
 3421TIP3   OH210207   2.225   7.024   2.512  0.1289 -0.0109 -0.0193
 3421TIP3    H110208   2.300   6.997   2.565  0.6854  1.0483 -0.2379
 3421TIP3    H210209   2.167   7.067   2.575 -0.1992 -0.6259  0.1070
 3422TIP3   OH210210   0.955   6.070   2.963  0.0553  0.1704 -0.0528
 3422TIP3    H110211   1.026   6.132   2.950 -0.0413  0.1604 -0.6610
 3422TIP3    H210212   0.898   6.112   3.027 -0.4668  1.1183 -1.0930
 3423TIP3   OH210213   5.717   7.256   3.529 -0.0803 -0.5164  0.3567
 3423TIP3    H110214   5.711   7.343   3.491 -0.2973 -1.0085 -0.7659
 3423TIP3    H210215   5.641   7.250   3.587 -0.0075  0.0688  0.5148
 3424TIP3   OH210216   3.534   1.798   3.648 -0.3164  0.0248  0.2165
 3424TIP3    H110217   3.615   1.779   3.602 -0.1603 -0.3866  0.6553
 3424TIP3    H210218   3.559   1.801   3.740 -1.0409 -1.5627  0.5000
 3425TIP3   OH210219   5.898   7.246   4.584 -0.4072  0.3648  0.2166
 3425TIP3    H110220   5.822   7.294   4.617  0.7381  2.9818 -0.6301
 3425TIP3    H210221   5.956   7.237   4.660 -0.9331 -0.3199  0.5388
 3426TIP3   OH210222   3.409   1.831   0.296  0.4846 -0.0020 -0.6577
 3426TIP3    H110223   3.457   1.813   0.216 -0.2999  0.8844 -1.3506
 3426TIP3    H210224   3.340   1.765   0.298  0.8393 -0.3700 -0.4144
 3427TIP3   OH210225   7.162   7.366   4.219 -0.3607 -0.5915  0.3579
 3427TIP3    H110226   7.232   7.383   4.156  0.7063 -0.9231  1.4051
 3427TIP3    H210227   7.163   7.271   4.230  0.2556 -0.4543  1.6979
 3428TIP3   OH210228   8.031   0.852   0.374  0.1900  0.1905 -0.5446
 3428TIP3    H110229   8.025   0.867   0.280  1.4873  0.9813 -0.5220
 3428TIP3    H210230   8.060   0.936   0.410 -0.2286 -0.1211  0.5514
 3429TIP3   OH210231   1.729   4.472   3.760  0.1408  0.2776  0.4087
 3429TIP3    H110232   1.800   4.413   3.783 -1.3266 -1.1351  1.6110
 3429TIP3    H210233   1.714   4.523   3.839 -0.6094  0.0633  0.4159
 3430TIP3   OH210234   1.583   1.242   6.376  0.0287  0.0309  0.5046
 3430TIP3    H110235   1.616   1.196   6.299  0.7097 -0.0529  0.8396
 3430TIP3    H210236   1.646   1.312   6.391 -0.6575  0.6906  0.3820
 3431TIP3   OH210237   5.404   4.252   6.125 -0.0154 -0.1704  0.2060
 3431TIP3    H110238   5.343   4.268   6.053  2.0607  0.6908 -1.4531
 3431TIP3    H210239   5.416   4.157   6.126  1.4401 -0.0715 -1.9804
 3432TIP3   OH210240   3.597   2.430   4.960 -0.0236 -0.2063  0.1392
 3432TIP3    H110241   3.584   2.344   5.000  1.2007  0.2079  1.5273
 3432TIP3    H210242   3.681   2.422   4.914  0.6832  0.5368  1.2367
 3433TIP3   OH210243   2.843   1.907   3.266  0.3858 -0.2141 -0.6233
 3433TIP3    H110244   2.829   2.001   3.254  0.1879  0.0688  1.4641
 3433TIP3    H210245   2.902   1.902   3.341  0.9093 -1.7586 -1.1153
 3434TIP3   OH210246   3.969   5.775   0.502 -0.0218 -0.1604  0.1488
 3434TIP3    H110247   3.900   5.759   0.438  0.7163  0.8141 -0.9235
 3434TIP3    H210248   3.923   5.786   0.585 -1.1558  0.4914 -0.5469
 3435TIP3   OH210249   0.172   1.133   6.169  0.4457  0.7839  0.2021
 3435TIP3    H110250   0.086   1.159   6.201 -0.0290 -0.1109 -0.3360
 3435TIP3    H210251   0.161   1.126   6.074  1.2455  1.1422  0.0720
 3436TIP3   OH210252   4.944   4.593   4.846  0.4929  0.5447  0.1078
 3436TIP3    H110253   4.926   4.666   4.905  0.9970  0.9462 -0.2198
 3436TIP3    H210254   4.953   4.517   4.904  0.7084  0.8831  0.5245
 3437TIP3   OH210255   4.513   1.282   6.002 -0.4407 -0.1836 -0.2785
 3437TIP3    H110256   4.574   1.260   5.932  0.3956  0.5544  0.1877
 3437TIP3    H210257   4.462   1.203   6.016  0.4635 -0.8460 -0.6387
 3438TIP3   OH210258   0.500   5.529   4.424 -0.1788 -0.0627  0.3405
 3438TIP3    H110259   0.536   5.494   4.343 -0.4388  1.6762 -0.5570
 3438TIP3    H210260   0.410   5.554   4.402  0.1113  1.5063  0.8259
 3439TIP3   OH210261   2.993   0.234   6.024 -0.3050 -0.7557 -0.0691
 3439TIP3    H110262   3.045   0.232   6.105  0.1800  1.1028 -0.2829
 3439TIP3    H210263   2.929   0.164   6.035 -0.4184 -0.3935  2.0510
 3440TIP3   OH210264   6.337   2.178   5.490  0.4757  0.3679 -0.0791
 3440TIP3    H110265   6.253   2.160   5.533  1.0238 -1.4757  0.3354
 3440TIP3    H210266   6.391   2.103   5.514  2.0598  1.2419 -0.8232
 3441TIP3   OH210267   1.623   1.906   3.561 -0.2858  0.4749  0.0258
 3441TIP3    H110268   1.543   1.955   3.541  0.6793  1.7931 -0.8009
 3441TIP3    H210269   1.649   1.938   3.648  0.3934  1.5644 -0.5518
 3442TIP3   OH210270   5.760   6.522   1.406  0.4809  0.1693 -0.1722
 3442TIP3    H110271   5.746   6.609   1.443 -0.7225 -0.4426  0.8775
 3442TIP3    H210272   5.750   6.462   1.480  0.8688 -0.9016 -0.9620
 3443TIP3   OH210273   4.956   3.414   0.115 -0.8622 -0.4385 -0.4973
 3443TIP3    H110274   5.010   3.370   0.181 -0.3976  0.8159 -0.0005
 3443TIP3    H210275   4.951   3.352   0.042 -0.9504 -1.6453  0.4938
 3444TIP3   OH210276   7.434   4.217   2.937  0.2249 -0.0399 -0.3490
 3444TIP3    H110277   7.491   4.191   2.865 -1.0637  0.8064 -1.7507
 3444TIP3    H210278   7.351   4.239   2.894  0.0480  2.5577  1.1099
 3445TIP3   OH210279   3.938   2.969   3.573  0.5853 -0.2054 -0.4882
 3445TIP3    H110280   3.971   2.939   3.488  0.2694  0.3566 -0.8138
 3445TIP3    H210281   3.973   2.906   3.636  2.6000  0.5796 -0.7538
 3446TIP3   OH210282   7.481   0.361   0.300 -0.2154  0.2198 -0.0384
 3446TIP3    H110283   7.526   0.438   0.334 -0.8051  0.5491  0.0161
 3446TIP3    H210284   7.541   0.288   0.316  0.3929  0.6853 -0.1940
 3447TIP3   OH210285   1.830   5.137   5.874  0.5929 -0.1680  0.2796
 3447TIP3    H110286   1.781   5.056   5.886  0.2793  0.1119  0.9434
 3447TIP3    H210287   1.890   5.118   5.803 -1.1490 -0.2100 -1.2452
 3448TIP3   OH210288   6.341   1.201   6.044 -0.3736 -0.0546 -0.2891
 3448TIP3    H110289   6.280   1.127   6.051 -0.2326 -0.3726 -2.0459
 3448TIP3    H210290   6.291   1.269   5.999 -0.0426  0.4113  0.0407
 3449TIP3   OH210291   2.794   2.556   5.681 -0.0412  0.0596 -0.6996
 3449TIP3    H110292   2.827   2.620   5.619 -0.0294 -0.9992 -1.8100
 3449TIP3    H210293   2.861   2.553   5.750  1.1158 -0.4733 -1.8216
 3450TIP3   OH210294   1.809   2.225   1.495  0.4315  0.1331  0.2759
 3450TIP3    H110295   1.826   2.245   1.587 -2.9643 -2.0825  1.5869
 3450TIP3    H210296   1.857   2.144   1.478  0.3530  0.0596  0.4020
 3451TIP3   OH210297   1.210   0.699   3.671 -0.1861  0.1619  0.2633
 3451TIP3    H110298   1.222   0.608   3.698 -0.4832  0.2484  0.7049
 3451TIP3    H210299   1.143   0.733   3.731 -0.4655  0.5183 -0.2428
 3452TIP3   OH210300   1.245   6.303   6.192  0.4071 -0.5528 -0.6177
 3452TIP3    H110301   1.219   6.389   6.226  1.2131  0.0381 -1.4386
 3452TIP3    H210302   1.338   6.312   6.172  0.4100 -1.4960 -1.0888
 3453TIP3   OH210303   5.643   0.075   1.086 -0.1137 -0.5856  0.4025
 3453TIP3    H110304   5.592   0.152   1.111  0.2891 -0.5328  1.0809
 3453TIP3    H210305   5.689   0.103   1.006  0.6700  0.1809  1.0949
 3454TIP3   OH210306   8.096   3.471   0.083 -0.1542 -0.0043 -0.1548
 3454TIP3    H110307   8.084   3.549   0.138  0.1251 -0.6528  0.8502
 3454TIP3    H210308   8.015   3.422   0.092 -0.5261  0.3792 -1.1772
 3455TIP3   OH210309   5.965   7.234   3.299 -0.6388  0.1811 -0.2023
 3455TIP3    H110310   6.005   7.236   3.386 -1.7085  2.3304  0.3030
 3455TIP3    H210311   5.872   7.246   3.315 -0.8294  0.8187 -1.6484
 3456TIP3   OH210312   4.195   6.799   4.288  0.3193 -0.3395  0.3469
 3456TIP3    H110313   4.283   6.802   4.250  0.4161 -1.1510  0.4946
 3456TIP3    H210314   4.169   6.707   4.281 -1.7262  0.3437 -2.4299
 3457TIP3   OH210315   8.267   0.696   5.857  0.0857 -0.0482  0.1076
 3457TIP3    H110316   8.258   0.745   5.775 -1.8342 -0.8642 -0.2341
 3457TIP3    H210317   8.268   0.604   5.830  0.5805 -0.2986  0.9353
 3458TIP3   OH210318   6.633   6.173   4.950 -0.5733  0.2340 -0.1274
 3458TIP3    H110319   6.712   6.119   4.942 -0.2377  0.7222 -0.1346
 3458TIP3    H210320   6.561   6.110   4.944 -0.1763 -0.3068  0.6291
 3459TIP3   OH210321   3.342   2.693   2.464 -0.1277 -0.3747 -0.4170
 3459TIP3    H110322   3.394   2.637   2.406 -1.0242 -1.6478 -0.0606
 3459TIP3    H210323   3.345   2.649   2.549 -2.6568 -1.1675 -0.6391
 3460TIP3   OH210324   7.786   3.105   6.389  0.2135 -0.2275  0.5066
 3460TIP3    H110325   7.745   3.022   6.365  0.5690 -0.6596  1.3674
 3460TIP3    H210326   7.852   3.082   6.454  2.7859  0.2380 -1.7279
 3461TIP3   OH210327   7.097   5.826   5.197  0.0817  0.4880 -0.2758
 3461TIP3    H110328   7.174   5.772   5.215  0.4505  0.9987 -0.3058
 3461TIP3    H210329   7.132   5.914   5.182 -0.4950  0.6969 -0.4276
 3462TIP3   OH210330   6.678   6.261   3.758  0.5591  0.4826  0.4430
 3462TIP3    H110331   6.614   6.198   3.723 -1.6860  2.3624  0.9016
 3462TIP3    H210332   6.728   6.211   3.821 -1.1729 -0.8848  0.8277
 3463TIP3   OH210333   5.341   1.197   6.264  0.1144 -0.0981 -0.4259
 3463TIP3    H110334   5.339   1.109   6.302  0.8688 -0.3446 -0.9368
 3463TIP3    H210335   5.355   1.255   6.339  0.9744 -0.5300 -0.2376
 3464TIP3   OH210336   4.894   2.257   1.884  0.0738  0.7450 -0.1403
 3464TIP3    H110337   4.945   2.268   1.804  0.7137  0.4090  0.2166
 3464TIP3    H210338   4.925   2.325   1.942  1.3240 -0.4691  0.6796
 3465TIP3   OH210339   4.008   0.267   4.038  0.4363  0.5035  0.8686
 3465TIP3    H110340   3.940   0.236   4.098 -1.2793  0.4959 -0.9382
 3465TIP3    H210341   3.992   0.362   4.030 -0.0105  0.3556 -0.2692
 3466TIP3   OH210342   7.091   4.459   4.887  0.6003 -0.3619  0.0587
 3466TIP3    H110343   7.095   4.468   4.982  0.0416  2.8229 -0.1241
 3466TIP3    H210344   7.176   4.490   4.856  0.8945 -1.6713 -0.4978
 3467TIP3   OH210345   7.914   1.882   0.591  0.0086 -0.7354 -0.4986
 3467TIP3    H110346   7.996   1.912   0.551 -0.4717 -0.1248 -1.0582
 3467TIP3    H210347   7.912   1.925   0.676  0.5965 -1.2996 -0.1962
 3468TIP3   OH210348   2.920   0.518   0.166 -0.9374 -0.3629 -0.1945
 3468TIP3    H110349   2.992   0.563   0.121 -0.5686  0.0367  0.7776
 3468TIP3    H210350   2.850   0.582   0.170 -0.8189 -0.2571  0.1784
 3469TIP3   OH210351   3.656   1.899   4.749  0.3352 -0.4549 -0.1805
 3469TIP3    H110352   3.622   1.948   4.673  1.1140 -0.5200 -0.5738
 3469TIP3    H210353   3.594   1.920   4.819  0.6218  1.0789 -0.3463
 3470TIP3   OH210354   0.913   0.116   4.802 -0.0858 -0.6412 -0.2221
 3470TIP3    H110355   0.938   0.208   4.808  1.6323 -0.9333 -2.0353
 3470TIP3    H210356   0.886   0.093   4.891  0.1221  1.4167  0.4223
 3471TIP3   OH210357   6.442   1.933   4.800 -0.2000  0.2729  0.0134
 3471TIP3    H110358   6.438   2.020   4.760  0.8291  0.2293 -0.2055
 3471TIP3    H210359   6.368   1.932   4.862 -0.2272  1.2972  0.0171
 3472TIP3   OH210360   6.976   0.895   3.067 -0.6601  0.2099  0.0933
 3472TIP3    H110361   7.033   0.912   2.992 -0.9617 -0.1893 -0.2284
 3472TIP3    H210362   7.036   0.869   3.137 -0.3155  1.2237  0.1928
 3473TIP3   OH210363   7.641   0.757   5.893 -0.0721  0.1602 -0.5146
 3473TIP3    H110364   7.645   0.812   5.972 -2.1924 -1.2383  0.6712
 3473TIP3    H210365   7.693   0.680   5.916  2.8254  1.4840 -2.1383
 3474TIP3   OH210366   7.939   6.170   3.735 -0.0806  0.1404  0.0525
 3474TIP3    H110367   7.955   6.203   3.646 -1.9825 -1.0461 -0.7977
 3474TIP3    H210368   7.864   6.221   3.766  0.2214  0.1588  0.7609
 3475TIP3   OH210369   6.326   2.521   5.894  0.1417 -0.4707  1.1319
 3475TIP3    H110370   6.402   2.580   5.893  0.4274 -0.8454  0.4940
 3475TIP3    H210371   6.337   2.466   5.816 -1.4546  0.3246  0.2978
 3476TIP3   OH210372   1.706   2.717   3.459  0.5570 -0.4406 -0.0314
 3476TIP3    H110373   1.696   2.624   3.480  3.0796 -0.7170  0.2552
 3476TIP3    H210374   1.801   2.733   3.464  0.2003  2.1415 -0.1462
 3477TIP3   OH210375   2.230   7.354   0.827 -0.0060 -0.0926 -0.0996
 3477TIP3    H110376   2.235   7.343   0.922 -3.0886  0.2845  0.1941
 3477TIP3    H210377   2.220   7.265   0.793  0.1477 -0.1459 -0.0069
 3478TIP3   OH210378   7.968   2.200   5.512 -0.0222 -0.5078 -0.0823
 3478TIP3    H110379   7.992   2.218   5.421 -2.5050 -0.3972 -0.7966
 3478TIP3    H210380   7.910   2.124   5.506 -0.5154 -0.2643  1.3575
 3479TIP3   OH210381   5.064   6.574   6.691  0.2862 -0.2716  0.2158
 3479TIP3    H110382   5.010   6.500   6.717  0.5428 -1.0070 -1.2211
 3479TIP3    H210383   5.144   6.535   6.656  1.3924  0.7718  1.4549
 3480TIP3   OH210384   2.056   2.398   6.530  0.2106  0.3503  0.0349
 3480TIP3    H110385   1.991   2.336   6.560  0.1755  0.5721  0.4180
 3480TIP3    H210386   2.126   2.343   6.492  0.0300  0.0962  0.0689
 3481TIP3   OH210387   7.218   1.856   1.166 -0.0763  0.3913  0.0061
 3481TIP3    H110388   7.301   1.859   1.214 -0.4610  2.2449  0.6351
 3481TIP3    H210389   7.160   1.805   1.223  0.2853  0.1398  0.1545
 3482TIP3   OH210390   6.881   5.925   3.671 -0.3150 -0.4783 -0.4028
 3482TIP3    H110391   6.799   5.883   3.645 -1.0307  0.9675 -0.5777
 3482TIP3    H210392   6.872   6.015   3.642  0.5853  0.1625  1.1603
 3483TIP3   OH210393   4.118   4.231   4.370  0.0814  0.0898  0.1639
 3483TIP3    H110394   4.078   4.208   4.286  2.9293  0.5759 -1.4493
 3483TIP3    H210395   4.111   4.326   4.375  0.0198  0.0720  0.4048
 3484TIP3   OH210396   0.346  -0.014   1.794  0.3522 -0.6047  0.2248
 3484TIP3    H110397   0.434  -0.008   1.755  0.5313  0.8049  0.7803
 3484TIP3    H210398   0.293   0.047   1.743  0.6817  1.5962  2.2979
 3485TIP3   OH210399   8.043   4.062   5.240 -0.2710  0.0832 -0.4821
 3485TIP3    H110400   7.971   4.001   5.254 -0.2791  0.2534  0.2684
 3485TIP3    H210401   8.121   4.013   5.265 -0.4159  0.8460  1.6669
 3486TIP3   OH210402   3.725   7.209   2.513  0.7498  0.3443 -0.3228
 3486TIP3    H110403   3.802   7.168   2.552  0.1394 -0.8027 -0.3050
 3486TIP3    H210404   3.745   7.213   2.420  1.8061  2.2197 -0.0756
 3487TIP3   OH210405   4.705   6.158   1.697  0.1163 -0.4522  0.1911
 3487TIP3    H110406   4.782   6.215   1.704 -1.0053  1.0136  1.0696
 3487TIP3    H210407   4.689   6.152   1.603  0.3777  0.5354  0.0662
 3488TIP3   OH210408   7.354   2.789   6.337  0.3215 -0.1994 -0.4000
 3488TIP3    H110409   7.372   2.878   6.367 -1.4097 -0.3629  1.3114
 3488TIP3    H210410   7.428   2.738   6.369  0.0058  0.1859  1.0184
 3489TIP3   OH210411   3.987   1.387   0.224  0.0895  0.8001  0.1012
 3489TIP3    H110412   4.046   1.311   0.222  0.7631  1.3260 -0.7167
 3489TIP3    H210413   4.014   1.436   0.302  2.5890  2.4249 -1.6520
 3490TIP3   OH210414   0.484   4.634   1.156 -0.1355 -0.0727  0.3557
 3490TIP3    H110415   0.529   4.717   1.139 -0.3907  0.2436  1.1976
 3490TIP3    H210416   0.541   4.588   1.218 -0.5987  0.0097  0.8494
 3491TIP3   OH210417   2.254   4.373   4.018 -0.3030  0.2311  0.2056
 3491TIP3    H110418   2.188   4.386   4.086  1.3562  2.1960  1.5454
 3491TIP3    H210419   2.272   4.279   4.019  0.0164  0.2604  2.8241
 3492TIP3   OH210420   7.320   3.195   0.712 -0.0603  0.0797  0.8424
 3492TIP3    H110421   7.269   3.256   0.766  0.8582  0.7386  0.9724
 3492TIP3    H210422   7.379   3.152   0.773  0.5528  0.3821  0.4776
 3493TIP3   OH210423   1.528   2.631   6.540  0.1851  0.2321  0.3668
 3493TIP3    H110424   1.609   2.657   6.584  0.4879  0.1700 -0.1497
 3493TIP3    H210425   1.476   2.711   6.538  0.5037  0.4352  0.1141
 3494TIP3   OH210426   5.908   0.089   6.528 -0.9639 -0.6437 -0.0674
 3494TIP3    H110427   5.894   0.119   6.618  0.9726 -0.4945  0.2285
 3494TIP3    H210428   5.825   0.106   6.483 -1.9465 -0.6564  1.6615
 3495TIP3   OH210429   5.866   6.460   2.291  0.1024 -0.3406 -0.1590
 3495TIP3    H110430   5.941   6.422   2.245  0.5000  0.9702 -0.6629
 3495TIP3    H210431   5.790   6.434   2.238 -0.0205 -2.8585  1.1179
 3496TIP3   OH210432   2.056   3.532   2.074 -0.3359  0.3931  0.4904
 3496TIP3    H110433   2.042   3.477   1.996 -0.7021 -0.1087  0.9101
 3496TIP3    H210434   1.972   3.534   2.118  0.7986 -3.2559  3.4243
 3497TIP3   OH210435   6.114   7.618   3.204  0.9149 -0.4942 -0.0909
 3497TIP3    H110436   6.114   7.712   3.189  1.3939 -0.5027 -0.1735
 3497TIP3    H210437   6.049   7.584   3.143 -0.3022 -0.0797  0.9329
 3498TIP3   OH210438   7.900   1.463   2.413  0.6699 -0.2709 -0.7736
 3498TIP3    H110439   7.835   1.502   2.472  0.8142  0.5091 -1.1219
 3498TIP3    H210440   7.855   1.387   2.376 -0.0496  0.2485 -1.0027
 3499TIP3   OH210441   1.540   5.992   2.566 -0.2900  0.2118 -0.3951
 3499TIP3    H110442   1.520   6.026   2.480 -2.8924 -0.0036  0.0574
 3499TIP3    H210443   1.518   5.899   2.561  0.1721  0.0504  0.3208
 3500TIP3   OH210444   0.699   6.348   5.648  0.2456  0.1472  0.3963
 3500TIP3    H110445   0.679   6.255   5.652  4.1805 -0.8278  1.1387
 3500TIP3    H210446   0.668   6.383   5.731 -1.9258 -0.2274 -0.1792
 3501TIP3   OH210447   5.109   6.106   3.286  0.1228  0.3775 -0.1688
 3501TIP3    H110448   5.025   6.089   3.330  0.1299  0.5461 -0.0903
 3501TIP3    H210449   5.170   6.045   3.327  0.2126  0.7871  0.3124
 3502TIP3   OH210450   5.250   0.435   4.702 -0.0377 -0.4754  0.0544
 3502TIP3    H110451   5.278   0.345   4.686 -0.7327 -0.8437  0.8633
 3502TIP3    H210452   5.192   0.430   4.777 -0.2213  0.6330  0.0123
 3503TIP3   OH210453   6.758   0.257   2.469 -0.0998 -0.0056 -0.4361
 3503TIP3    H110454   6.692   0.327   2.470  0.6671  0.7345  0.0672
 3503TIP3    H210455   6.764   0.229   2.561  2.0673  1.6948  0.0227
 3504TIP3   OH210456   5.870   5.689   5.981  1.2297 -0.1790  0.0507
 3504TIP3    H110457   5.835   5.722   5.898  0.4235  0.6620  0.7060
 3504TIP3    H210458   5.919   5.764   6.017 -0.2639  0.2139  1.3585
 3505TIP3   OH210459   6.007   2.226   4.024  0.1129  0.1296 -0.3265
 3505TIP3    H110460   6.002   2.301   3.964 -0.8717 -0.0571 -0.4879
 3505TIP3    H210461   6.100   2.203   4.025  0.2196  0.4285 -1.4258
 3506TIP3   OH210462   5.378   7.002   0.609 -0.5845  0.4670 -0.1394
 3506TIP3    H110463   5.462   6.969   0.640 -0.7771  0.2534  0.1543
 3506TIP3    H210464   5.400   7.052   0.530 -0.0064  1.6063  0.7136
 3507TIP3   OH210465   3.119   2.666   0.751 -0.1504 -0.2165 -0.3129
 3507TIP3    H110466   3.112   2.659   0.656 -2.1483 -0.3455 -0.2003
 3507TIP3    H210467   3.213   2.680   0.767 -0.0039  1.8500 -2.3972
 3508TIP3   OH210468   0.537   0.278   0.170  0.2455  0.0919 -0.0081
 3508TIP3    H110469   0.472   0.348   0.178  0.7268  0.6955 -1.2082
 3508TIP3    H210470   0.487   0.201   0.144  0.0016  0.5528 -0.9170
 3509TIP3   OH210471   1.481   5.765   4.862  0.2792  0.2810 -0.3775
 3509TIP3    H110472   1.540   5.774   4.937 -0.1063 -1.6024  0.2128
 3509TIP3    H210473   1.495   5.675   4.832 -1.4883  0.1508 -0.8973
 3510TIP3   OH210474   2.778   7.856   2.998 -0.1970  0.1162 -0.5605
 3510TIP3    H110475   2.872   7.836   2.993  0.0662  1.2053 -0.2425
 3510TIP3    H210476   2.736   7.780   2.957  0.9204  0.4802 -2.5107
 3511TIP3   OH210477   0.800   3.233   2.616 -0.3186  0.0782 -0.0082
 3511TIP3    H110478   0.887   3.271   2.600 -0.4778  0.7779  0.7599
 3511TIP3    H210479   0.739   3.298   2.581 -0.6132  0.8177  1.7835
 3512TIP3   OH210480   2.815   5.890   1.719  0.5618 -0.2860  0.0681
 3512TIP3    H110481   2.831   5.833   1.643 -0.5856  0.3469 -0.6855
 3512TIP3    H210482   2.721   5.904   1.719  0.0624 -2.5231  3.3165
 3513TIP3   OH210483   0.759   3.682   1.182  0.0799 -0.1590 -0.5269
 3513TIP3    H110484   0.848   3.716   1.173 -0.3566  1.1894 -0.0346
 3513TIP3    H210485   0.763   3.623   1.258  0.2524  1.0700  0.4505
 3514TIP3   OH210486   1.425   0.743   0.395 -0.1175 -0.2876  0.2208
 3514TIP3    H110487   1.518   0.763   0.410  0.7806 -1.8661 -2.4522
 3514TIP3    H210488   1.402   0.796   0.318 -0.8021 -1.3925 -0.3654
 3515TIP3   OH210489   8.102   7.224   1.829 -0.0951  0.9052 -0.4965
 3515TIP3    H110490   8.175   7.273   1.791 -0.4910  2.6672  0.8712
 3515TIP3    H210491   8.061   7.286   1.890 -1.1078 -0.9023  0.7469
 3516TIP3   OH210492   6.360   7.652   6.056  0.4890 -0.2398 -0.2170
 3516TIP3    H110493   6.374   7.558   6.044  1.1426 -0.5950  2.5573
 3516TIP3    H210494   6.334   7.683   5.970 -1.0491 -3.1742 -0.9583
 3517TIP3   OH210495   6.481   6.912   4.234  0.1535  0.5654  0.0331
 3517TIP3    H110496   6.449   6.822   4.227  2.1662 -0.0861 -2.5650
 3517TIP3    H210497   6.533   6.913   4.314 -0.4015 -0.4240  0.4197
 3518TIP3   OH210498   5.178   2.743   6.435  0.8512  0.2131  0.1236
 3518TIP3    H110499   5.139   2.732   6.348  1.0048  0.6365  0.0004
 3518TIP3    H210500   5.128   2.684   6.491 -0.3796  1.1662  0.0798
 3519TIP3   OH210501   1.437   2.528   0.878 -0.0115  0.4030 -0.0122
 3519TIP3    H110502   1.489   2.563   0.805 -0.5770  1.6236  0.1370
 3519TIP3    H210503   1.387   2.457   0.840  0.3294  0.4750 -0.6112
 3520TIP3   OH210504   1.402   1.079   4.015  0.0981 -0.1660 -0.1777
 3520TIP3    H110505   1.416   1.146   3.948 -0.5770  1.1527  0.9418
 3520TIP3    H210506   1.452   1.110   4.090  0.9696 -1.7001 -0.0729
 3521TIP3   OH210507   3.337   5.147   2.383 -0.0245 -0.1889  0.0114
 3521TIP3    H110508   3.324   5.222   2.441  1.1181  0.0877 -0.0764
 3521TIP3    H210509   3.252   5.135   2.339 -1.0429 -0.6638  2.0115
 3522TIP3   OH210510   3.699   4.218   6.585  0.2570  0.6948 -0.0299
 3522TIP3    H110511   3.722   4.311   6.589  1.9100  0.2959  0.2418
 3522TIP3    H210512   3.699   4.198   6.491 -0.5647  1.0668 -0.1157
 3523TIP3   OH210513   7.277   4.370   1.377 -0.4223  0.5244  0.1472
 3523TIP3    H110514   7.263   4.353   1.283  1.3977 -0.0124 -0.0505
 3523TIP3    H210515   7.212   4.315   1.421  0.7217 -1.6218 -0.7161
 3524TIP3   OH210516   7.380   3.885   2.771  0.7225 -0.2618 -0.0645
 3524TIP3    H110517   7.410   3.804   2.729  1.7108  0.4426 -0.7819
 3524TIP3    H210518   7.380   3.950   2.700 -1.1660  0.1134  0.2420
 3525TIP3   OH210519   0.255   2.998   6.658  0.1947 -0.4291 -0.2067
 3525TIP3    H110520   0.312   2.922   6.658  0.5528 -0.1957 -1.7584
 3525TIP3    H210521   0.307   3.067   6.616 -1.5000 -0.4533 -2.5171
 3526TIP3   OH210522   2.250   5.217   5.109 -0.1775 -0.2790 -0.4215
 3526TIP3    H110523   2.272   5.125   5.093  0.0418 -0.2803 -0.1146
 3526TIP3    H210524   2.156   5.216   5.126 -0.3639 -0.3131 -1.4169
 3527TIP3   OH210525   7.440   6.343   6.130  0.4104  0.2447  0.1162
 3527TIP3    H110526   7.517   6.316   6.180 -0.4156 -0.1698  1.2084
 3527TIP3    H210527   7.440   6.286   6.053  1.4409  0.5620 -0.1259
 3528TIP3   OH210528   0.825   3.570   3.720 -0.0855 -0.5409 -0.1535
 3528TIP3    H110529   0.759   3.623   3.765 -0.2477  0.4255 -1.4946
 3528TIP3    H210530   0.805   3.579   3.627  0.3386 -2.3770 -0.4610
 3529TIP3   OH210531   1.355   2.865   6.511  0.4762 -0.2485  0.6722
 3529TIP3    H110532   1.273   2.840   6.470  0.3066  0.8037  0.3373
 3529TIP3    H210533   1.404   2.911   6.443  1.7209 -1.5852  0.6114
 3530TIP3   OH210534   3.189   1.736   2.979  0.7834 -0.1726  0.0152
 3530TIP3    H110535   3.106   1.714   3.021  1.4844 -0.9116  1.0491
 3530TIP3    H210536   3.168   1.742   2.886 -0.2839 -1.0750  0.1803
 3531TIP3   OH210537   6.120   0.035   4.274  1.0804 -0.2872 -0.1274
 3531TIP3    H110538   6.059   0.015   4.346  1.7391 -0.9083  0.2658
 3531TIP3    H210539   6.157   0.120   4.298  0.9091 -0.2489  0.0039
 3532TIP3   OH210540   0.165   4.763   6.153  0.0320  0.1766  0.7600
 3532TIP3    H110541   0.241   4.806   6.114 -1.6105 -0.5339 -3.8205
 3532TIP3    H210542   0.194   4.672   6.167  0.2115  0.0361 -0.4460
 3533TIP3   OH210543   7.876   4.738   0.145  0.1135 -0.2080  0.2745
 3533TIP3    H110544   7.821   4.675   0.098  1.0342 -0.0751 -1.0429
 3533TIP3    H210545   7.905   4.691   0.224 -1.0924 -0.5948  0.5062
 3534TIP3   OH210546   2.279   3.116   3.362 -0.5132 -0.6636  0.2404
 3534TIP3    H110547   2.339   3.080   3.427 -0.2444 -0.3286  0.1770
 3534TIP3    H210548   2.195   3.076   3.383 -0.3433 -0.8630  0.5471
 3535TIP3   OH210549   5.249   4.437   3.344  0.5973  0.3331  0.3356
 3535TIP3    H110550   5.281   4.520   3.378  1.7564 -0.8207  2.2533
 3535TIP3    H210551   5.197   4.400   3.415 -1.0002 -0.0613 -0.9567
 3536TIP3   OH210552   0.625   1.856   3.205  0.0913 -0.5690  0.5742
 3536TIP3    H110553   0.693   1.796   3.236  2.1060  1.8012  1.0055
 3536TIP3    H210554   0.669   1.940   3.196 -2.2852  0.5975 -1.3525
 3537TIP3   OH210555   3.517   3.578   3.031  0.3888 -0.6459  0.0257
 3537TIP3    H110556   3.577   3.621   2.969  1.3089 -3.3724 -1.1350
 3537TIP3    H210557   3.446   3.546   2.977 -0.5912 -0.1238  0.9601
 3538TIP3   OH210558   2.856   6.013   2.189 -0.1248  0.4549  0.6136
 3538TIP3    H110559   2.830   5.940   2.245 -0.3068 -0.8377 -1.1136
 3538TIP3    H210560   2.945   5.993   2.162 -0.4910  0.3961 -0.5985
 3539TIP3   OH210561   2.871   1.301   2.801 -0.7175 -0.1691  0.7688
 3539TIP3    H110562   2.930   1.370   2.831  0.3120 -0.7804  0.2185
 3539TIP3    H210563   2.911   1.268   2.721 -2.7879  0.6226 -0.6776
 3540TIP3   OH210564   6.966   4.530   0.820 -0.0348 -0.2565 -0.0246
 3540TIP3    H110565   6.885   4.524   0.769 -0.1404 -0.4348  0.1649
 3540TIP3    H210566   7.012   4.604   0.781 -0.7504  0.4959  0.5250
 3541TIP3   OH210567   2.532   2.089   5.797  0.5515  0.2033 -0.0998
 3541TIP3    H110568   2.465   2.153   5.770  0.2722 -0.0895 -0.1032
 3541TIP3    H210569   2.524   2.087   5.893  0.8127  0.4475 -0.0723
 3542TIP3   OH210570   5.250   4.233   4.313 -0.6772 -0.1521 -0.4291
 3542TIP3    H110571   5.257   4.324   4.341 -0.6868 -0.0639 -0.7085
 3542TIP3    H210572   5.242   4.238   4.217  0.6976 -0.5042 -0.5810
 3543TIP3   OH210573   5.711   0.713   5.282  0.4171 -0.2099  0.0499
 3543TIP3    H110574   5.695   0.804   5.306 -2.1632 -0.7088  0.5663
 3543TIP3    H210575   5.624   0.678   5.260  1.3931 -2.4145 -0.6580
 3544TIP3   OH210576   3.698   1.336   3.541  0.5623  0.3064 -0.2625
 3544TIP3    H110577   3.611   1.368   3.568 -0.3928 -1.9977 -0.4134
 3544TIP3    H210578   3.736   1.301   3.622  0.2697 -1.0170 -0.6906
 3545TIP3   OH210579   5.208   7.776   5.500 -0.8595 -0.9563 -0.1649
 3545TIP3    H110580   5.300   7.762   5.521 -0.7371 -0.5269 -0.3958
 3545TIP3    H210581   5.165   7.789   5.584 -0.6376 -0.7676 -0.0779
 3546TIP3   OH210582   0.985   4.977   6.416 -0.7475  0.2703 -0.2991
 3546TIP3    H110583   1.035   5.041   6.466 -0.4499 -0.5832  0.5232
 3546TIP3    H210584   0.951   4.916   6.481  1.8231 -2.3841 -1.2108
 3547TIP3   OH210585   0.688   6.202   6.612 -0.0284 -0.3131  0.1917
 3547TIP3    H110586   0.620   6.231   6.551  0.6815  1.0110  0.0036
 3547TIP3    H210587   0.737   6.281   6.633  1.7368 -1.3036 -0.0428
 3548TIP3   OH210588   5.284   1.409   4.297 -0.2436 -0.2689 -0.7322
 3548TIP3    H110589   5.308   1.336   4.355  0.3679 -1.1106 -2.0046
 3548TIP3    H210590   5.206   1.447   4.337  0.0443 -0.9577  0.5249
 3549TIP3   OH210591   2.900   0.934   6.425 -0.2490 -0.1937 -0.5790
 3549TIP3    H110592   2.926   0.919   6.334 -3.1299 -0.0915 -1.5100
 3549TIP3    H210593   2.841   0.862   6.446 -1.4114  0.9812  0.4120
 3550TIP3   OH210594   3.631   4.494   5.221  0.0784  0.3202 -0.9767
 3550TIP3    H110595   3.649   4.405   5.251  0.0178  0.4435 -0.5733
 3550TIP3    H210596   3.560   4.484   5.158  0.0804  0.0802 -0.9403
 3551TIP3   OH210597   2.142   4.449   5.921 -0.2970 -0.0366 -0.5290
 3551TIP3    H110598   2.078   4.484   5.860 -1.0698 -0.3598  0.0800
 3551TIP3    H210599   2.090   4.403   5.987  0.5598 -0.3114 -0.0272
 3552TIP3   OH210600   1.847   5.679   0.865 -0.0595  0.3283  0.2232
 3552TIP3    H110601   1.911   5.638   0.923  1.0112  1.4037 -0.1560
 3552TIP3    H210602   1.766   5.682   0.916  1.0722  2.0697  2.0629
 3553TIP3   OH210603   5.191   1.421   6.175 -0.3249 -0.6225  0.2151
 3553TIP3    H110604   5.235   1.490   6.225 -1.1150 -0.9291  1.3877
 3553TIP3    H210605   5.240   1.341   6.196 -0.0893 -0.6057 -0.2566
 3554TIP3   OH210606   6.900   3.988   2.173 -0.2410  0.1643 -0.1343
 3554TIP3    H110607   6.866   3.981   2.084 -1.1268  1.3805  0.0783
 3554TIP3    H210608   6.889   3.901   2.210  0.1472 -0.3562 -1.2095
 3555TIP3   OH210609   8.215   2.320   0.144 -0.1502 -0.0671 -0.6523
 3555TIP3    H110610   8.293   2.272   0.118  0.0137  0.0580 -0.3870
 3555TIP3    H210611   8.195   2.287   0.232 -0.7315 -0.5261 -0.9438
 3556TIP3   OH210612   1.822   3.437   2.453  0.0578  0.5150 -0.6023
 3556TIP3    H110613   1.777   3.418   2.535  1.3629 -0.2886 -0.0294
 3556TIP3    H210614   1.884   3.507   2.475  0.7624 -0.0455 -0.7522
 3557TIP3   OH210615   6.749   6.906   2.032  0.3526 -0.3891 -0.2655
 3557TIP3    H110616   6.726   6.840   1.966 -0.5412 -0.5573  0.2002
 3557TIP3    H210617   6.814   6.962   1.988  1.9489 -2.1777 -0.3335
 3558TIP3   OH210618   1.810   3.807   2.997 -0.2749 -0.4176 -0.2746
 3558TIP3    H110619   1.886   3.821   3.054 -1.7019  2.9005  1.0696
 3558TIP3    H210620   1.743   3.771   3.054 -1.1515  1.2154 -0.2255
 3559TIP3   OH210621   3.464   4.616   2.461 -0.5795 -0.2121  0.1920
 3559TIP3    H110622   3.475   4.559   2.385  0.0965  1.4370 -0.9916
 3559TIP3    H210623   3.552   4.623   2.498 -0.8078 -0.5604  0.8195
 3560TIP3   OH210624   5.949   5.549   3.790  0.1872  0.1360  0.2898
 3560TIP3    H110625   6.009   5.510   3.854  0.1864 -0.0980  0.1478
 3560TIP3    H210626   5.909   5.623   3.837  0.9691  0.6209  0.2167
 3561TIP3   OH210627   5.506   1.980   3.152 -0.0920 -0.3624 -0.5475
 3561TIP3    H110628   5.461   2.046   3.206  0.6195 -0.8614  0.6939
 3561TIP3    H210629   5.435   1.924   3.119 -0.6548  0.6966 -1.1847
 3562TIP3   OH210630   3.803   2.423   5.430 -0.3063 -0.0148 -0.0410
 3562TIP3    H110631   3.789   2.396   5.339 -0.7198 -0.9293  0.2765
 3562TIP3    H210632   3.876   2.369   5.460  0.5382  1.0523 -0.1402
 3563TIP3   OH210633   0.844   7.616   6.248 -0.6155  0.3793 -0.0865
 3563TIP3    H110634   0.824   7.584   6.336  1.2283 -1.9286 -0.3979
 3563TIP3    H210635   0.807   7.550   6.189 -1.4729  1.6861 -1.0725
 3564TIP3   OH210636   1.879   7.281   3.557 -0.1005 -0.4325  0.8076
 3564TIP3    H110637   1.963   7.326   3.567  0.0418 -0.7513  1.0648
 3564TIP3    H210638   1.814   7.351   3.559 -0.0211 -0.3531  3.0060
 3565TIP3   OH210639   2.302   5.384   4.395  0.6260  0.0236 -0.2255
 3565TIP3    H110640   2.358   5.311   4.419  0.7480 -0.0917 -0.8445
 3565TIP3    H210641   2.347   5.427   4.323 -1.0682 -1.3493 -2.2200
 3566TIP3   OH210642   0.800   0.441   6.442 -0.3015  0.1820  0.2778
 3566TIP3    H110643   0.736   0.410   6.378 -0.6488  0.6538  0.3899
 3566TIP3    H210644   0.765   0.524   6.473  1.0347  1.1239 -0.6301
 3567TIP3   OH210645   8.212   2.066   2.510  0.0206  0.0743 -0.6624
 3567TIP3    H110646   8.228   2.147   2.560 -0.4105 -0.2286 -0.0150
 3567TIP3    H210647   8.179   2.005   2.576  0.4578 -0.6675 -1.1247
 3568TIP3   OH210648   5.375   4.333   3.106  0.1742  0.0262  0.1369
 3568TIP3    H110649   5.336   4.380   3.180 -0.6763  2.4416 -1.7183
 3568TIP3    H210650   5.300   4.312   3.050  1.0848  1.5626 -1.7725
 3569TIP3   OH210651   6.233   6.425   4.115  0.4329 -0.5904 -0.3443
 3569TIP3    H110652   6.165   6.374   4.070  0.3574 -1.4532  0.6866
 3569TIP3    H210653   6.223   6.401   4.208  0.0951  1.6598  0.2762
 3570TIP3   OH210654   5.324   5.937   3.771 -0.4777 -0.1339 -0.2363
 3570TIP3    H110655   5.341   5.860   3.717 -1.2739 -0.0452 -0.6210
 3570TIP3    H210656   5.378   6.006   3.733 -1.3504  0.0399 -1.1984
 3571TIP3   OH210657   6.849   2.594   6.326 -0.6653 -0.1638 -0.5125
 3571TIP3    H110658   6.919   2.533   6.305 -0.4596 -0.5044  1.0279
 3571TIP3    H210659   6.888   2.681   6.315 -1.2277 -0.1922 -3.6456
 3572TIP3   OH210660   7.209   0.421   6.608  0.0788  0.5785 -0.0625
 3572TIP3    H110661   7.261   0.383   6.679  0.8368  0.3469 -0.7225
 3572TIP3    H210662   7.231   0.368   6.532 -0.8401  0.7312 -0.4474
 3573TIP3   OH210663   2.893   0.515   4.399  0.2017  0.2013  0.4011
 3573TIP3    H110664   2.962   0.466   4.355  1.2569  1.4031  0.6552
 3573TIP3    H210665   2.922   0.521   4.490 -1.1532 -0.8288  0.9534
 3574TIP3   OH210666   1.494   1.584   4.730 -0.1212 -0.3611  0.6307
 3574TIP3    H110667   1.563   1.554   4.789 -0.1248 -0.4898  0.5697
 3574TIP3    H210668   1.510   1.538   4.648 -0.1427 -0.2161  0.5439
 3575TIP3   OH210669   0.137   1.098   5.846  0.0202  0.6338 -0.2848
 3575TIP3    H110670   0.056   1.050   5.862  0.2350  0.0394 -0.9505
 3575TIP3    H210671   0.204   1.030   5.832  0.6271  1.1124  0.1982
 3576TIP3   OH210672   2.554   5.425   4.657  0.9957 -0.2996 -0.3908
 3576TIP3    H110673   2.490   5.495   4.667  1.6574  0.3463 -0.6196
 3576TIP3    H210674   2.535   5.365   4.729 -1.4976 -1.4442 -1.8685
 3577TIP3   OH210675   7.756   7.786   0.902 -0.2501 -0.2372  0.0013
 3577TIP3    H110676   7.749   7.836   0.821 -0.7213  1.2179  0.8953
 3577TIP3    H210677   7.693   7.714   0.891  0.1576 -0.4405 -1.1586
 3578TIP3   OH210678   4.365   6.920   0.646 -0.0434  0.1377 -0.7822
 3578TIP3    H110679   4.455   6.953   0.635  0.6011 -1.2450  0.1375
 3578TIP3    H210680   4.366   6.834   0.604 -0.5594 -0.4494  0.3633
 3579TIP3   OH210681   0.940   2.277   0.204 -0.1034  0.0641 -0.0299
 3579TIP3    H110682   0.969   2.230   0.281  0.1862  0.5942  0.1919
 3579TIP3    H210683   1.020   2.309   0.163 -0.3305  1.2744  0.4202
 3580TIP3   OH210684   2.004   4.045   5.330 -0.1009  0.1855 -0.1943
 3580TIP3    H110685   2.022   4.024   5.239 -1.6344 -1.6062 -0.1570
 3580TIP3    H210686   1.972   3.962   5.367 -2.8989  1.6908  1.0328
 3581TIP3   OH210687   1.792   6.109   2.546  0.2481  0.1693 -0.4893
 3581TIP3    H110688   1.771   6.153   2.629  1.8186 -1.5166  0.8907
 3581TIP3    H210689   1.720   6.047   2.532  1.0295 -1.0888  0.8281
 3582TIP3   OH210690   2.856   0.886   0.473 -0.5484  0.2661 -0.1897
 3582TIP3    H110691   2.932   0.849   0.428  1.2466 -0.6854  3.3099
 3582TIP3    H210692   2.790   0.817   0.466  0.3456 -0.6597  0.2481
 3583TIP3   OH210693   1.516   1.337   5.460 -0.1050 -0.6423 -0.1104
 3583TIP3    H110694   1.500   1.259   5.513 -0.3895 -0.6659 -0.2320
 3583TIP3    H210695   1.450   1.400   5.489  0.0013 -0.5134 -0.1480
 3584TIP3   OH210696   2.820   1.837   3.730  0.3738 -0.3681 -0.4399
 3584TIP3    H110697   2.812   1.777   3.656 -1.2305  1.3918 -1.7768
 3584TIP3    H210698   2.834   1.923   3.690 -1.1732  0.7397  1.2489
 3585TIP3   OH210699   2.069   7.516   2.819  0.0693 -0.2685 -0.4223
 3585TIP3    H110700   2.043   7.569   2.743  1.9530 -0.5911 -1.3521
 3585TIP3    H210701   1.987   7.480   2.852 -0.8830  0.4514 -1.8816
 3586TIP3   OH210702   7.622   7.183   1.686  0.0379 -0.2973  0.0980
 3586TIP3    H110703   7.694   7.128   1.718 -0.5178 -1.3560 -0.4312
 3586TIP3    H210704   7.666   7.253   1.638  0.7508 -0.3587  0.6388
 3587TIP3   OH210705   7.646   5.008   6.565  0.0797  0.0361 -0.8723
 3587TIP3    H110706   7.681   5.097   6.556  0.2967  0.0096 -0.3119
 3587TIP3    H210707   7.559   5.013   6.525 -1.1061  1.2471  1.6730
 3588TIP3   OH210708   8.215   3.863   1.577  0.6223  0.5385 -0.9729
 3588TIP3    H110709   8.215   3.775   1.540 -1.7173 -0.0452  0.1800
 3588TIP3    H210710   8.233   3.849   1.670 -1.9739  0.9154 -0.3212
 3589TIP3   OH210711   2.173   7.288   0.101 -0.2470  0.0772  0.2063
 3589TIP3    H110712   2.263   7.258   0.086 -0.8561 -1.6666 -0.1753
 3589TIP3    H210713   2.140   7.231   0.171 -1.3143  0.1676 -0.2050
 3590TIP3   OH210714   2.755   7.260   2.473  0.1682  0.0268  0.5104
 3590TIP3    H110715   2.783   7.333   2.418 -0.7690  0.5713  0.7326
 3590TIP3    H210716   2.801   7.273   2.556  0.9715 -0.3510  0.1292
 3591TIP3   OH210717   5.438   6.678   3.476 -0.3325 -0.3957 -0.3061
 3591TIP3    H110718   5.435   6.585   3.498 -1.8786 -0.5581 -1.0749
 3591TIP3    H210719   5.525   6.706   3.503 -0.2441 -1.7909  1.0122
 3592TIP3   OH210720   3.809   2.637   2.756  0.6256 -0.0136 -0.8099
 3592TIP3    H110721   3.731   2.625   2.703  0.3298  1.1586 -0.6561
 3592TIP3    H210722   3.872   2.678   2.697  0.2236  1.5029 -0.2402
 3593TIP3   OH210723   2.823   0.085   0.440 -0.1021 -0.2442  0.1285
 3593TIP3    H110724   2.915   0.072   0.414  0.1547 -1.0871  1.3891
 3593TIP3    H210725   2.822   0.173   0.479  0.0484 -0.0150 -0.3774
 3594TIP3   OH210726   1.384   6.164   1.189 -0.3301  0.0942 -0.1724
 3594TIP3    H110727   1.409   6.137   1.277 -1.4914  1.1736  0.5244
 3594TIP3    H210728   1.466   6.187   1.146  0.2609 -0.5955  0.5649
 3595TIP3   OH210729   2.587   7.238   6.558 -0.3865  0.7695  0.2548
 3595TIP3    H110730   2.545   7.193   6.485  0.3153 -0.7139  0.7255
 3595TIP3    H210731   2.529   7.311   6.578 -0.2250  1.6586 -2.2510
 3596TIP3   OH210732   0.556   6.958   0.998  0.6023 -0.4290  0.3028
 3596TIP3    H110733   0.577   7.050   0.986  2.8631 -0.9540 -0.2677
 3596TIP3    H210734   0.574   6.941   1.090  0.7639 -0.4306  0.2711
 3597TIP3   OH210735   1.481   1.242   4.611 -0.2117  0.3368 -0.2963
 3597TIP3    H110736   1.509   1.302   4.542  0.0612 -0.1956 -0.6594
 3597TIP3    H210737   1.385   1.242   4.606 -0.2545  1.3987  0.2824
 3598TIP3   OH210738   3.540   0.225   4.989  0.1217 -0.0695  0.3438
 3598TIP3    H110739   3.602   0.237   5.060 -0.3507 -1.5750  1.0435
 3598TIP3    H210740   3.590   0.241   4.909  0.5007  2.3191  0.9864
 3599TIP3   OH210741   5.483   7.207   1.901 -0.5716  0.1341  0.2811
 3599TIP3    H110742   5.443   7.121   1.907  0.2289 -0.1894  1.5161
 3599TIP3    H210743   5.431   7.263   1.959 -1.3062  0.5845 -0.7938
 3600TIP3   OH210744   3.530   1.875   1.035  0.0770 -0.3525  0.1354
 3600TIP3    H110745   3.582   1.954   1.047  1.2668 -1.1131  0.1347
 3600TIP3    H210746   3.594   1.804   1.035 -0.9706 -1.3226  0.1741
 3601TIP3   OH210747   7.252   3.160   1.304  0.3895  0.7580 -0.2427
 3601TIP3    H110748   7.336   3.203   1.289  0.3520  0.2023 -2.2812
 3601TIP3    H210749   7.188   3.231   1.294  0.4990  0.7893 -0.7549
 3602TIP3   OH210750   7.251   0.071   2.591  0.2693  0.0992  0.1178
 3602TIP3    H110751   7.331   0.120   2.613  0.2867 -0.3871  1.2466
 3602TIP3    H210752   7.222   0.107   2.507  2.1670 -0.3326 -0.7704
 3603TIP3   OH210753   6.943   2.312   4.484 -0.3407  0.5702  0.2464
 3603TIP3    H110754   6.944   2.363   4.403  1.1721 -0.3617 -0.3603
 3603TIP3    H210755   6.982   2.371   4.550 -0.7167  0.9944  0.0981
 3604TIP3   OH210756   6.347   6.969   6.222 -0.2832  0.1582 -0.3206
 3604TIP3    H110757   6.368   6.883   6.257 -1.0373  0.5691  1.2244
 3604TIP3    H210758   6.379   6.967   6.132 -1.6586 -2.2925 -0.8487
 3605TIP3   OH210759   7.629   6.134   0.224 -0.8279 -0.2944 -0.8618
 3605TIP3    H110760   7.663   6.117   0.312 -2.8327  0.4077  0.1266
 3605TIP3    H210761   7.614   6.229   0.222 -1.7143 -0.4338 -1.5857
 3606TIP3   OH210762   5.160   5.395   4.531 -0.9028  0.5063  0.2073
 3606TIP3    H110763   5.176   5.468   4.591 -0.7157 -0.5000  1.4309
 3606TIP3    H210764   5.105   5.334   4.581  0.3598 -0.9861 -0.1274
 3607TIP3   OH210765   2.986   0.481   5.005 -0.4991  0.4141  0.5056
 3607TIP3    H110766   3.050   0.551   4.997 -1.2310  1.0497 -0.0228
 3607TIP3    H210767   2.939   0.482   4.921  0.4965 -1.7522 -0.1404
 3608TIP3   OH210768   1.439   2.148   6.265  0.2280  0.0354 -0.2460
 3608TIP3    H110769   1.394   2.230   6.242  1.4415  0.1538 -2.4824
 3608TIP3    H210770   1.368   2.086   6.281 -0.7277  1.0273 -0.5116
 3609TIP3   OH210771   2.331   3.580   1.717  0.5920  0.3507 -0.1532
 3609TIP3    H110772   2.317   3.498   1.764 -0.9642 -0.1035 -1.3154
 3609TIP3    H210773   2.425   3.585   1.706  0.8696 -0.3543  1.5163
 3610TIP3   OH210774   5.298   6.575   0.685  0.2676 -0.2495 -0.2608
 3610TIP3    H110775   5.223   6.611   0.733  0.8814 -0.9221  1.2523
 3610TIP3    H210776   5.271   6.486   0.663  0.4476 -0.3437 -0.1002
 3611TIP3   OH210777   2.829   5.607   3.811 -0.3535  0.7431  0.1964
 3611TIP3    H110778   2.753   5.555   3.787 -0.1937  0.2834  0.6584
 3611TIP3    H210779   2.880   5.615   3.730  0.0837 -0.6205  0.3124
 3612TIP3   OH210780   3.628   7.171   6.622 -0.5840  0.0440  0.2111
 3612TIP3    H110781   3.663   7.130   6.701 -0.4326  1.5214  0.9548
 3612TIP3    H210782   3.537   7.191   6.644 -0.4624  0.7150  0.1417
 3613TIP3   OH210783   5.868   6.203   5.905  0.0308 -0.0363  0.3034
 3613TIP3    H110784   5.923   6.275   5.936 -0.3038 -0.0289  0.9060
 3613TIP3    H210785   5.848   6.225   5.814  0.6841  0.1671  0.2083
 3614TIP3   OH210786   1.335   1.351   1.933  0.0104  0.3152 -0.2423
 3614TIP3    H110787   1.415   1.400   1.954 -0.6890  1.0611  0.7517
 3614TIP3    H210788   1.333   1.349   1.837  2.3149 -1.5521 -0.3285
 3615TIP3   OH210789   6.353   4.889   4.924 -0.2333 -0.0589 -0.5869
 3615TIP3    H110790   6.399   4.964   4.887  0.2372  0.7370  1.4341
 3615TIP3    H210791   6.276   4.928   4.968 -0.7476 -0.9269 -0.6985
 3616TIP3   OH210792   7.574   3.935   1.038  0.0426 -0.5766  0.3883
 3616TIP3    H110793   7.560   3.994   1.112  1.6910 -0.2670  0.5033
 3616TIP3    H210794   7.526   3.975   0.966 -0.6877 -0.2986  1.0157
 3617TIP3   OH210795   2.825   2.646   2.868 -0.1259 -0.5305  0.0329
 3617TIP3    H110796   2.855   2.732   2.839 -2.0444 -0.2388 -1.3363
 3617TIP3    H210797   2.794   2.661   2.958  0.3439  0.0120  0.1098
 3618TIP3   OH210798   1.351   3.639   4.674 -0.0839  0.3401  0.1547
 3618TIP3    H110799   1.433   3.639   4.724 -0.6399  3.0318  1.2523
 3618TIP3    H210800   1.362   3.711   4.610 -1.5009  0.6302  0.2081
 3619TIP3   OH210801   5.977   7.606   6.323  0.0207 -0.1815  0.2117
 3619TIP3    H110802   5.919   7.660   6.376 -0.2398 -1.5566  1.4004
 3619TIP3    H210803   6.050   7.664   6.300 -1.6853  1.5557 -1.2065
 3620TIP3   OH210804   6.812   2.682   4.104  0.2667 -0.6416  0.1141
 3620TIP3    H110805   6.861   2.761   4.079  1.0738 -0.3920  2.2841
 3620TIP3    H210806   6.846   2.659   4.191 -0.1648 -3.2183 -0.3210
 3621TIP3   OH210807   2.363   2.862   1.179  0.7806  0.2525 -0.5032
 3621TIP3    H110808   2.322   2.857   1.266 -0.0626  2.9412 -0.6390
 3621TIP3    H210809   2.395   2.773   1.162  0.8469 -0.4044  2.4710
 3622TIP3   OH210810   1.528   7.696   6.658 -0.0103 -0.4434  0.1846
 3622TIP3    H110811   1.479   7.754   6.717 -0.0290 -0.5388  0.2626
 3622TIP3    H210812   1.544   7.617   6.710 -0.9426 -0.9512 -0.2718
 3623TIP3   OH210813   3.139   5.016   3.962 -0.2437 -0.0672  0.1283
 3623TIP3    H110814   3.206   5.014   4.030 -1.6904  1.6967  1.7013
 3623TIP3    H210815   3.113   4.924   3.952  0.3510 -0.4323  1.5982
 3624TIP3   OH210816   4.687   3.940   4.954 -0.1106 -0.2951 -0.3700
 3624TIP3    H110817   4.608   3.992   4.971  0.5716  0.3160  1.1623
 3624TIP3    H210818   4.759   3.994   4.989  0.4638 -3.0580  3.2667
 3625TIP3   OH210819   0.416   3.525   3.123  0.4647 -0.3377 -0.3291
 3625TIP3    H110820   0.411   3.619   3.106 -0.1233 -0.4349 -0.7227
 3625TIP3    H210821   0.456   3.518   3.210  0.2330  0.2841 -0.1695
 3626TIP3   OH210822   3.540   6.159   6.448  0.6450 -0.2365 -0.4626
 3626TIP3    H110823   3.563   6.162   6.355 -1.2181  1.0226 -0.9335
 3626TIP3    H210824   3.498   6.243   6.465  1.6162 -0.1224  1.7444
 3627TIP3   OH210825   4.300   6.557   5.869 -0.5897 -0.5521 -0.3436
 3627TIP3    H110826   4.255   6.473   5.858 -0.5764 -0.6243  0.1268
 3627TIP3    H210827   4.371   6.555   5.805  1.1027 -2.0628  1.4668
 3628TIP3   OH210828   6.070   0.949   6.020 -0.5086 -0.3373 -0.7041
 3628TIP3    H110829   6.096   0.873   6.072  1.5140 -0.5079 -1.8455
 3628TIP3    H210830   6.110   0.934   5.934 -0.6387  1.6660 -1.1612
 3629TIP3   OH210831   7.978   5.216   3.912  0.2121  0.6341  0.0277
 3629TIP3    H110832   7.924   5.174   3.978  1.2448 -1.9142 -0.6171
 3629TIP3    H210833   7.944   5.183   3.829  2.2344 -0.4736 -0.4150
 3630TIP3   OH210834   7.685   1.092   6.404  0.1314  0.0084  0.1554
 3630TIP3    H110835   7.683   1.118   6.312  0.8996  0.2000  0.1832
 3630TIP3    H210836   7.713   1.170   6.451  2.3025 -0.7509  0.2571
 3631TIP3   OH210837   3.288   1.524   5.572 -0.4161  0.1243 -0.3360
 3631TIP3    H110838   3.323   1.517   5.483 -2.6106  0.3189 -1.2877
 3631TIP3    H210839   3.342   1.465   5.624 -0.4087 -1.6793 -2.2573
 3632TIP3   OH210840   5.093   3.129   4.572  0.1210  0.3547  0.3951
 3632TIP3    H110841   5.188   3.138   4.571  0.0668  1.0135 -1.3157
 3632TIP3    H210842   5.065   3.184   4.646  0.9753  1.2780  0.0568
 3633TIP3   OH210843   1.249   2.059   1.675  0.6566  0.0079  0.6716
 3633TIP3    H110844   1.158   2.065   1.646  1.0421  3.7034 -0.3217
 3633TIP3    H210845   1.245   2.079   1.768  0.3316 -1.7489  1.0613
 3634TIP3   OH210846   3.385   3.430   2.506 -0.4182 -0.2395 -0.0865
 3634TIP3    H110847   3.361   3.337   2.513 -1.2366 -0.0338 -0.0018
 3634TIP3    H210848   3.337   3.461   2.429 -1.7732  0.5783  1.0299
 3635TIP3   OH210849   7.438   6.863   6.232  0.2119 -0.1441 -0.4615
 3635TIP3    H110850   7.400   6.780   6.261  1.2149 -0.4829 -0.0803
 3635TIP3    H210851   7.367   6.907   6.185 -0.5329 -0.9194 -0.0856
 3636TIP3   OH210852   5.312   0.487   1.548 -0.2334  0.1655 -0.5519
 3636TIP3    H110853   5.290   0.532   1.630 -0.5132  0.2098 -0.6502
 3636TIP3    H210854   5.385   0.537   1.512  1.1989 -0.9724  0.6226
 3637TIP3   OH210855   0.862   3.460   5.925 -0.0720 -0.0531  0.4403
 3637TIP3    H110856   0.771   3.449   5.950 -0.4482 -1.5770 -1.3211
 3637TIP3    H210857   0.881   3.384   5.870  1.8787  0.8839 -0.2932
 3638TIP3   OH210858   1.849   2.157   6.214  0.0397  0.0717  0.2389
 3638TIP3    H110859   1.779   2.192   6.269  0.3502  2.6503 -0.8337
 3638TIP3    H210860   1.853   2.218   6.140  1.2517 -1.8830 -1.3971
 3639TIP3   OH210861   0.828   4.987   3.197 -0.0271  0.1010  0.0441
 3639TIP3    H110862   0.826   5.068   3.248 -1.6761 -0.7827  1.4618
 3639TIP3    H210863   0.738   4.955   3.198  0.5669 -1.7162 -0.5647
 3640TIP3   OH210864   2.203   3.069   3.078 -0.3914  0.4645 -0.5228
 3640TIP3    H110865   2.110   3.080   3.097 -0.8490 -2.4652 -0.6394
 3640TIP3    H210866   2.248   3.115   3.148 -1.7714  4.4205 -1.9717
 3641TIP3   OH210867   4.460   1.199   4.538 -0.1743  0.2157  0.1759
 3641TIP3    H110868   4.527   1.236   4.596 -0.3231  0.2324  0.3365
 3641TIP3    H210869   4.482   1.234   4.452 -0.0530  0.3288  0.2509
 3642TIP3   OH210870   8.072   0.277   1.799 -0.0518 -0.4665  0.3094
 3642TIP3    H110871   7.991   0.227   1.791 -1.6407  1.9692  0.0368
 3642TIP3    H210872   8.132   0.235   1.738 -2.0639 -0.6834 -1.6710
 3643TIP3   OH210873   7.955   4.836   4.919  0.6399  0.1180 -0.2252
 3643TIP3    H110874   7.965   4.745   4.946  0.4967  0.3917  0.8041
 3643TIP3    H210875   8.022   4.883   4.968  0.7157  0.5749 -0.7529
 3644TIP3   OH210876   6.301   6.168   5.173  0.1448 -0.4090 -0.3530
 3644TIP3    H110877   6.219   6.120   5.168  1.5608 -3.0833 -0.2637
 3644TIP3    H210878   6.326   6.184   5.082 -0.5240  0.5542 -0.3756
 3645TIP3   OH210879   2.009   4.497   3.371  0.0225  0.1834 -0.1740
 3645TIP3    H110880   1.969   4.411   3.358  0.7590 -0.1218 -0.4703
 3645TIP3    H210881   2.065   4.485   3.447 -1.6465  1.0434  1.2735
 3646TIP3   OH210882   2.396   7.790   3.404  0.2414 -0.3972 -0.8461
 3646TIP3    H110883   2.371   7.709   3.447  1.0759  0.5444  1.5750
 3646TIP3    H210884   2.371   7.777   3.312  1.4580 -3.8544 -0.8535
 3647TIP3   OH210885   7.696   1.727   6.435  0.3157  0.2270  0.1526
 3647TIP3    H110886   7.716   1.702   6.525  1.0613 -0.2342 -0.1287
 3647TIP3    H210887   7.602   1.709   6.425 -0.0122  1.2687  1.1345
 3648TIP3   OH210888   5.918   3.977   0.638  0.3555  0.2685  0.3291
 3648TIP3    H110889   5.842   4.009   0.686 -0.2563 -0.5908 -0.0262
 3648TIP3    H210890   5.990   4.035   0.664 -0.0953  0.2148  1.7741
 3649TIP3   OH210891   5.202   5.550   5.457  0.3499  0.4501  0.2197
 3649TIP3    H110892   5.123   5.557   5.402 -0.1435 -0.2611  0.8251
 3649TIP3    H210893   5.226   5.640   5.476 -1.7776  0.6827  2.0856
 3650TIP3   OH210894   5.564   0.295   1.572 -0.1551  0.3809 -0.6511
 3650TIP3    H110895   5.619   0.326   1.500 -1.2987  1.1468 -1.2280
 3650TIP3    H210896   5.556   0.371   1.630  1.3037 -0.4114  0.6873
 3651TIP3   OH210897   5.218   6.689   2.254  0.1587 -0.3858 -0.2470
 3651TIP3    H110898   5.230   6.595   2.269 -0.8702 -0.5369 -0.3022
 3651TIP3    H210899   5.139   6.695   2.201  0.0771  0.5313 -0.0381
 3652TIP3   OH210900   4.211   0.408   4.208  0.4474 -0.0136 -0.0517
 3652TIP3    H110901   4.296   0.367   4.196  1.2791  1.5638  0.3016
 3652TIP3    H210902   4.164   0.390   4.126  0.6424 -1.8954  0.2092
 3653TIP3   OH210903   2.652   4.650   5.062 -0.0663  0.3622  0.8396
 3653TIP3    H110904   2.677   4.597   5.138  0.7030  0.0082  0.3447
 3653TIP3    H210905   2.734   4.674   5.021 -0.4909 -0.2388 -0.4221
 3654TIP3   OH210906   6.763   4.511   4.454 -0.0619 -0.7114 -0.2376
 3654TIP3    H110907   6.812   4.517   4.372  0.3426  2.3536  0.1141
 3654TIP3    H210908   6.828   4.528   4.522 -0.9899  0.0083  0.4859
 3655TIP3   OH210909   3.872   7.338   3.628  0.2836 -0.3720  0.0165
 3655TIP3    H110910   3.893   7.245   3.615 -0.0520 -0.4793  0.2312
 3655TIP3    H210911   3.949   7.384   3.595  0.0831 -0.6931 -0.9650
 3656TIP3   OH210912   4.018   4.245   6.421 -0.1579  0.0926  0.2144
 3656TIP3    H110913   4.027   4.204   6.507 -0.6649 -0.0754  0.1882
 3656TIP3    H210914   4.040   4.175   6.359 -0.0770  0.1306  0.2001
 3657TIP3   OH210915   3.396   7.505   4.912 -0.3918 -0.1273  0.2772
 3657TIP3    H110916   3.305   7.475   4.914 -0.9281  1.3263 -1.0810
 3657TIP3    H210917   3.403   7.563   4.988 -0.3689 -0.8023  0.8060
 3658TIP3   OH210918   6.064   1.830   4.074  0.1282  0.3516 -0.3683
 3658TIP3    H110919   6.127   1.811   4.144 -1.4267 -0.4031  0.8851
 3658TIP3    H210920   6.043   1.744   4.038  0.1058  0.6418 -1.0623
 3659TIP3   OH210921   1.981   6.410   5.755 -0.2035  0.2534  0.1025
 3659TIP3    H110922   1.942   6.439   5.673 -0.3344 -0.7432 -0.1993
 3659TIP3    H210923   2.001   6.491   5.802  2.0492  0.9970 -1.8829
 3660TIP3   OH210924   1.410   5.784   4.052  0.1610  0.0270 -0.3521
 3660TIP3    H110925   1.391   5.835   4.130 -0.8986 -1.0505  0.1358
 3660TIP3    H210926   1.383   5.839   3.979 -2.9359 -0.5292  0.2244
 3661TIP3   OH210927   3.917   3.405   4.651 -0.5908 -0.0463  0.1132
 3661TIP3    H110928   4.010   3.424   4.661 -0.3193 -1.0893 -0.2830
 3661TIP3    H210929   3.902   3.408   4.556 -1.4782  2.3290  0.2622
 3662TIP3   OH210930   2.936   5.158   5.138 -0.1350 -0.2226 -0.1966
 3662TIP3    H110931   2.997   5.213   5.187 -1.4508  1.8764 -0.7603
 3662TIP3    H210932   2.953   5.069   5.169  1.8021  0.5363  1.0949
 3663TIP3   OH210933   7.206   5.615   0.490 -0.3344 -0.2110  0.4208
 3663TIP3    H110934   7.172   5.568   0.413 -0.9896  1.8222 -0.5832
 3663TIP3    H210935   7.128   5.643   0.538  0.0346  0.3426  0.7054
 3664TIP3   OH210936   3.541   1.491   5.885 -0.2532 -0.3922 -0.7306
 3664TIP3    H110937   3.572   1.426   5.949  0.8345  0.9807  0.2218
 3664TIP3    H210938   3.499   1.440   5.817  0.2391 -2.0653  0.1599
 3665TIP3   OH210939   0.726   2.784   3.015 -0.5056  0.5669 -0.2414
 3665TIP3    H110940   0.697   2.834   3.091  0.5750  0.0076  0.5732
 3665TIP3    H210941   0.820   2.801   3.011 -0.5143  0.4014 -1.3226
 3666TIP3   OH210942   4.901   2.025   6.335 -0.1820 -0.0736  0.9007
 3666TIP3    H110943   4.920   2.031   6.429  0.5069 -1.5917  0.8863
 3666TIP3    H210944   4.811   2.056   6.327 -0.3322 -0.1434  2.0981
 3667TIP3   OH210945   7.017   2.807   5.680 -0.0357 -0.7561 -0.4954
 3667TIP3    H110946   6.956   2.795   5.753 -0.4279  1.1328 -0.4387
 3667TIP3    H210947   7.041   2.719   5.653 -2.7257 -1.5866 -0.4596
 3668TIP3   OH210948   6.940   4.631   6.182 -0.6509  0.1688  0.3291
 3668TIP3    H110949   6.873   4.682   6.137 -1.4784 -1.2716 -0.1243
 3668TIP3    H210950   6.986   4.585   6.113 -0.5751 -0.4603  0.7843
 3669TIP3   OH210951   0.616   6.751   6.727  0.0129  0.1763  0.4726
 3669TIP3    H110952   0.685   6.815   6.710  0.7921 -0.4330  1.2352
 3669TIP3    H210953   0.641   6.711   6.811 -0.8735 -0.5758  0.3927
 3670TIP3   OH210954   0.263   1.630   4.848  0.3928 -0.0383 -0.0083
 3670TIP3    H110955   0.224   1.717   4.853  1.7049  0.5263  1.1321
 3670TIP3    H210956   0.317   1.632   4.770 -0.8669 -0.4199 -0.9190
 3671TIP3   OH210957   0.218   0.161   4.114 -0.5800 -0.3142  0.2804
 3671TIP3    H110958   0.242   0.219   4.042 -0.9170 -0.4360  0.0676
 3671TIP3    H210959   0.192   0.220   4.184 -0.3759 -0.1985  0.2624
 3672TIP3   OH210960   0.107   6.785   6.073  0.0513  0.0318 -0.2981
 3672TIP3    H110961   0.138   6.786   5.982  1.5243 -0.9549  0.1479
 3672TIP3    H210962   0.016   6.756   6.067  0.6742 -1.8964 -1.3544
 3673TIP3   OH210963   4.249   5.263   4.786  0.1528 -0.2748  0.1822
 3673TIP3    H110964   4.266   5.352   4.817 -1.0301 -0.4493  1.3992
 3673TIP3    H210965   4.294   5.207   4.850 -0.9448 -0.5952  0.6889
 3674TIP3   OH210966   7.740   4.848   6.757 -0.0256  0.2347 -0.8041
 3674TIP3    H110967   7.674   4.860   6.825  0.9869  0.1356  0.2198
 3674TIP3    H210968   7.711   4.904   6.685 -0.8690  0.7022 -0.1133
 3675TIP3   OH210969   3.824   2.228   1.175 -0.2325 -0.5145 -0.4501
 3675TIP3    H110970   3.797   2.146   1.134  0.4668 -0.2363 -1.5061
 3675TIP3    H210971   3.897   2.259   1.121  0.4577  0.0795  0.7832
 3676TIP3   OH210972   3.328   4.714   5.306  0.4189 -0.3973 -0.4577
 3676TIP3    H110973   3.404   4.680   5.354  0.2630 -0.3248 -0.1584
 3676TIP3    H210974   3.280   4.635   5.279 -0.7449 -0.4483  1.5060
 3677TIP3   OH210975   0.502   3.460   4.578 -0.7519  0.0413  0.1388
 3677TIP3    H110976   0.436   3.526   4.598 -1.5861  0.3709 -3.1318
 3677TIP3    H210977   0.578   3.510   4.549 -0.7528 -0.3809 -0.6235
 3678TIP3   OH210978   2.348   2.952   2.568  0.1266  0.6215  0.4116
 3678TIP3    H110979   2.290   2.882   2.597 -1.1060  1.3990 -0.0748
 3678TIP3    H210980   2.435   2.913   2.568 -0.6332 -1.2217 -0.8076
 3679TIP3   OH210981   4.000   2.867   1.408 -0.2118  0.5694  0.2815
 3679TIP3    H110982   4.073   2.859   1.470 -1.0766 -0.2236  1.2226
 3679TIP3    H210983   4.024   2.809   1.336  0.5023  1.0127  0.1445
 3680TIP3   OH210984   7.405   6.054   2.062  0.5728  0.1563  0.1439
 3680TIP3    H110985   7.355   6.082   1.985  0.0063  0.3008  0.5575
 3680TIP3    H210986   7.486   6.019   2.026  0.2351  0.0500 -0.5363
 3681TIP3   OH210987   3.669   3.800   0.375 -0.7129 -0.3751 -0.0480
 3681TIP3    H110988   3.605   3.768   0.311 -2.0962  0.3406  0.9238
 3681TIP3    H210989   3.697   3.885   0.340 -3.3391  1.2391  1.3721
 3682TIP3   OH210990   2.991   7.132   2.632 -0.3305 -0.1539 -0.3764
 3682TIP3    H110991   3.048   7.063   2.598 -1.1316 -0.1658 -1.7905
 3682TIP3    H210992   2.945   7.091   2.706  0.6390 -0.4917  0.0543
 3683TIP3   OH210993   0.029   0.455   2.389  0.4175 -0.2110 -0.0624
 3683TIP3    H110994   0.027   0.432   2.296  0.3941  0.1786 -0.1624
 3683TIP3    H210995   0.113   0.499   2.401 -0.3986  1.5244 -0.3560
 3684TIP3   OH210996   7.595   7.029   3.960 -0.3620 -0.5474 -0.5320
 3684TIP3    H110997   7.515   6.978   3.954 -1.6034  1.3941 -1.3272
 3684TIP3    H210998   7.586   7.078   4.042 -0.3879  0.2929 -1.0293
 3685TIP3   OH210999   7.751   3.144   6.045 -0.5221 -0.0881  0.0444
 3685TIP3    H111000   7.822   3.081   6.054 -0.6479 -0.4331 -1.2124
 3685TIP3    H211001   7.758   3.176   5.955 -0.4957  1.6662  0.6278
 3686TIP3   OH211002   0.337   5.377   4.810  0.3770 -0.5692  0.3894
 3686TIP3    H111003   0.358   5.346   4.898  0.6059  2.8776  1.7014
 3686TIP3    H211004   0.421   5.402   4.773  0.3975 -2.8009 -1.2748
 3687TIP3   OH211005   6.421   4.340   1.530  0.4774 -0.4961  0.3709
 3687TIP3    H111006   6.413   4.245   1.516  0.8814 -0.5253  0.3391
 3687TIP3    H211007   6.454   4.374   1.447 -2.0179  0.0102 -0.4864
 3688TIP3   OH211008   8.021   3.812   0.004  0.0712 -0.1439 -0.3522
 3688TIP3    H111009   8.073   3.892   0.010  0.9582 -0.3360 -3.4701
 3688TIP3    H211010   7.983   3.802   0.091  0.2841  3.3877  0.3200
 3689TIP3   OH211011   0.886   5.438   0.094  0.2472 -0.2805  0.0300
 3689TIP3    H111012   0.813   5.430   0.155 -1.2373 -2.1191 -1.8642
 3689TIP3    H211013   0.904   5.348   0.066  1.3490  0.4316 -1.6931
 3690TIP3   OH211014   7.510   4.750   4.700  0.1288  0.3831  0.1298
 3690TIP3    H111015   7.591   4.793   4.673 -0.7429  1.1970 -1.3467
 3690TIP3    H211016   7.472   4.717   4.619 -1.1478  0.2595  0.7442
 3691TIP3   OH211017   4.724   1.434   5.158  0.0274 -0.0569  0.1156
 3691TIP3    H111018   4.631   1.428   5.137  0.4026 -0.5054 -1.5519
 3691TIP3    H211019   4.726   1.466   5.248 -1.7144  1.5201 -0.3407
 3692TIP3   OH211020   5.423   2.479   5.354  0.0152  0.0958  0.7700
 3692TIP3    H111021   5.383   2.452   5.271 -1.3802  1.9351  0.7730
 3692TIP3    H211022   5.351   2.519   5.403  1.0936  0.1738  2.3608
 3693TIP3   OH211023   4.478   4.026   6.431 -0.0470 -0.0423  0.0849
 3693TIP3    H111024   4.397   3.976   6.441  0.6755 -1.0878  0.8598
 3693TIP3    H211025   4.494   4.027   6.336  0.6738 -2.5979  0.0873
 3694TIP3   OH211026   5.889   6.549   3.484 -0.3580 -0.3811  0.4094
 3694TIP3    H111027   5.818   6.549   3.419 -1.3530  0.0030  1.4712
 3694TIP3    H211028   5.947   6.619   3.456 -1.7731  1.0621  0.9544
 3695TIP3   OH211029   2.412   4.283   6.289  0.4735  0.0306 -0.0217
 3695TIP3    H111030   2.482   4.247   6.236  2.2202 -1.2584  2.9316
 3695TIP3    H211031   2.451   4.296   6.375 -2.3015  1.5673  1.1419
 3696TIP3   OH211032   0.727   3.478   0.049  0.3041  0.6000  0.3238
 3696TIP3    H111033   0.691   3.468  -0.039 -1.1313 -1.7700  1.0714
 3696TIP3    H211034   0.685   3.557   0.084 -0.1594  0.7974 -0.6457
 3697TIP3   OH211035   2.361   2.224   2.068  0.3534  0.5483 -0.4854
 3697TIP3    H111036   2.277   2.270   2.078 -0.4875 -0.7394 -1.1976
 3697TIP3    H211037   2.413   2.251   2.143 -0.8452  1.1292  0.1575
 3698TIP3   OH211038   1.724   2.422   4.214  0.0924 -0.0590 -0.1100
 3698TIP3    H111039   1.634   2.451   4.223  0.7027  1.9340 -0.0313
 3698TIP3    H211040   1.752   2.401   4.304 -0.1249 -0.1701 -0.0682
 3699TIP3   OH211041   3.027   1.012   5.817 -0.6226  0.0557 -0.0560
 3699TIP3    H111042   2.933   1.030   5.813 -0.3855  1.2459 -1.0255
 3699TIP3    H211043   3.034   0.926   5.857 -2.1715 -0.3708 -0.6418
 3700TIP3   OH211044   6.065   3.725   3.132  0.2515  0.4622  0.5850
 3700TIP3    H111045   6.102   3.651   3.181 -0.7421  0.2915  1.0914
 3700TIP3    H211046   6.032   3.685   3.051  0.5463  0.5110  0.4364
 3701TIP3   OH211047   5.240   7.731   0.704  0.2625 -0.2115 -0.0604
 3701TIP3    H111048   5.156   7.733   0.658 -0.3526  1.8982  1.0444
 3701TIP3    H211049   5.297   7.789   0.655  1.2216 -1.7962 -0.9281
 3702TIP3   OH211050   2.144   0.541   5.868  0.7191  0.1959  0.0853
 3702TIP3    H111051   2.137   0.478   5.796 -2.3112  0.3047  0.1526
 3702TIP3    H211052   2.199   0.497   5.932 -0.1154 -1.8163 -0.4740
 3703TIP3   OH211053   1.442   6.686   3.041 -0.1270 -0.4145  0.5051
 3703TIP3    H111054   1.362   6.706   2.993 -0.7179 -1.9212  0.8044
 3703TIP3    H211055   1.493   6.767   3.038 -1.1429  0.2124 -0.6922
 3704TIP3   OH211056   6.282   2.346   2.698  0.3990 -0.7503  0.3100
 3704TIP3    H111057   6.363   2.342   2.749  1.1463 -0.5560 -0.8333
 3704TIP3    H211058   6.231   2.415   2.741  0.2433 -1.7732  1.8513
 3705TIP3   OH211059   4.513   7.781   2.061 -0.0555 -0.4299  0.5922
 3705TIP3    H111060   4.436   7.779   2.005 -0.2395 -0.3586  0.8435
 3705TIP3    H211061   4.518   7.871   2.092  0.3623 -0.3323  0.2544
 3706TIP3   OH211062   2.030   5.334   2.408  0.1216  0.5708  0.4950
 3706TIP3    H111063   2.002   5.362   2.321 -0.5309  0.5144  0.6805
 3706TIP3    H211064   2.074   5.251   2.393  0.1600  0.6444  0.1955
 3707TIP3   OH211065   0.094   6.088   0.363  0.2892  0.6103 -0.5247
 3707TIP3    H111066   0.115   6.159   0.303 -0.1754 -0.3845 -1.9466
 3707TIP3    H211067  -0.002   6.085   0.363  0.3072 -0.4821 -1.1018
 3708TIP3   OH211068   4.499   4.834   6.055  0.5812  0.0949  0.3414
 3708TIP3    H111069   4.490   4.928   6.072 -0.2406  0.2713 -0.9714
 3708TIP3    H211070   4.432   4.793   6.110  0.4070  0.3406  0.3115
 3709TIP3   OH211071   2.798   5.639   0.770  0.4606  0.0273  0.6565
 3709TIP3    H111072   2.820   5.732   0.773  1.1687 -0.1164  0.1526
 3709TIP3    H211073   2.753   5.627   0.686  0.1156 -0.0367  0.8477
 3710TIP3   OH211074   6.879   2.054   6.489 -0.3349 -0.3926  0.0207
 3710TIP3    H111075   6.799   2.080   6.444 -0.3803 -0.9723 -0.2414
 3710TIP3    H211076   6.851   2.032   6.578 -0.4005 -0.1941  0.0487
 3711TIP3   OH211077   5.096   2.809   1.637  0.3039 -0.0052 -0.3359
 3711TIP3    H111078   5.116   2.730   1.687  0.6633  0.4687  0.2856
 3711TIP3    H211079   5.165   2.813   1.570 -0.1816 -0.6427 -0.8928
 3712TIP3   OH211080   6.111   4.143   4.500 -0.1175 -0.0239 -0.1737
 3712TIP3    H111081   6.132   4.094   4.580 -0.7946 -0.5618 -0.3080
 3712TIP3    H211082   6.023   4.112   4.476 -0.0481  0.3599 -0.9568
 3713TIP3   OH211083   5.737   2.113   5.595  0.1660  0.3328 -0.4083
 3713TIP3    H111084   5.756   2.019   5.590 -2.3165 -0.2609  0.1216
 3713TIP3    H211085   5.742   2.133   5.689  1.1768  0.8746 -0.5633
 3714TIP3   OH211086   3.417   7.498   3.280  0.2388  0.3651  0.9740
 3714TIP3    H111087   3.440   7.491   3.373 -0.2942 -0.6857  1.0462
 3714TIP3    H211088   3.439   7.412   3.243  0.7790  0.8892  0.0412
 3715TIP3   OH211089   2.167   2.334   3.261  0.6260 -0.6268 -0.1256
 3715TIP3    H111090   2.236   2.325   3.328 -0.1031 -0.4987  0.6573
 3715TIP3    H211091   2.093   2.286   3.296  0.1846 -0.4479 -0.7952
 3716TIP3   OH211092   7.089   2.829   2.518 -0.3638 -1.0309 -0.6143
 3716TIP3    H111093   7.049   2.847   2.433 -1.6263 -0.2383  0.1179
 3716TIP3    H211094   7.035   2.877   2.581  0.8902 -1.1211  0.5816
 3717TIP3   OH211095   0.200   5.859   4.337  0.5348  0.0803  0.0717
 3717TIP3    H111096   0.157   5.881   4.254  1.1410  0.9896 -0.0232
 3717TIP3    H211097   0.137   5.884   4.405  0.2669 -0.1284 -0.0984
 3718TIP3   OH211098   0.494   4.959   2.340  0.0103 -0.0351  0.7290
 3718TIP3    H111099   0.424   5.007   2.384 -1.6974 -1.2096 -0.5720
 3718TIP3    H211100   0.527   4.899   2.408 -0.3227  0.4541  1.3350
 3719TIP3   OH211101   7.786   6.218   2.372  0.4617 -0.2459  0.0256
 3719TIP3    H111102   7.823   6.131   2.357  0.1938 -0.7396  1.8904
 3719TIP3    H211103   7.779   6.257   2.285  2.6384 -1.2386 -0.6764
 3720TIP3   OH211104   7.482   6.425   1.490  0.5167 -0.8743  0.0507
 3720TIP3    H111105   7.494   6.330   1.490 -0.2375 -1.0066  1.8252
 3720TIP3    H211106   7.529   6.455   1.568  0.7907  0.2390 -0.5137
 3721TIP3   OH211107   6.198   4.997   5.419  1.1752  0.3711  0.1374
 3721TIP3    H111108   6.154   5.058   5.359  1.4979  0.2555 -0.2218
 3721TIP3    H211109   6.286   5.032   5.428  1.0129  0.6098  0.8697
 3722TIP3   OH211110   4.187   2.348   4.684 -0.0201 -0.8865  0.1934
 3722TIP3    H111111   4.283   2.342   4.684  0.0864  0.5022 -0.5328
 3722TIP3    H211112   4.166   2.398   4.606 -1.3702 -1.3129  0.2598
 3723TIP3   OH211113   6.882   3.553   1.466 -0.0901 -0.5653  0.1289
 3723TIP3    H111114   6.900   3.588   1.378 -1.7039 -2.4346 -1.0107
 3723TIP3    H211115   6.812   3.609   1.500  1.0947  0.6838  0.6297
 3724TIP3   OH211116   7.949   3.124   3.273 -0.2276  0.1545 -0.6631
 3724TIP3    H111117   7.982   3.214   3.272  1.3697 -0.3956 -0.1492
 3724TIP3    H211118   8.027   3.070   3.264 -1.0069 -1.2099  0.4258
 3725TIP3   OH211119   1.316   0.937   5.035 -0.9778 -0.1741 -0.2869
 3725TIP3    H111120   1.411   0.927   5.044 -0.5550  1.5470 -2.1549
 3725TIP3    H211121   1.280   0.899   5.116  1.3056 -0.3680  0.7166
 3726TIP3   OH211122   0.094   4.375   3.712  0.2793 -0.2461 -0.0596
 3726TIP3    H111123   0.098   4.320   3.791 -0.0201 -1.9906 -1.2086
 3726TIP3    H211124   0.006   4.364   3.679  1.2079 -1.8864 -2.2001
 3727TIP3   OH211125   0.896   5.179   5.688  0.3742  0.0768  0.0878
 3727TIP3    H111126   0.964   5.215   5.631 -0.6166 -0.1813 -1.3084
 3727TIP3    H211127   0.939   5.104   5.730  1.0400  0.0723 -0.5626
 3728TIP3   OH211128   7.473   2.964   6.098 -0.3248  0.4759 -0.1704
 3728TIP3    H111129   7.442   3.004   6.179 -2.5452 -1.2729 -0.0853
 3728TIP3    H211130   7.515   2.883   6.126  1.1721  1.0647 -0.6123
 3729TIP3   OH211131   6.599   7.362   3.752 -0.1968  0.3568  0.1100
 3729TIP3    H111132   6.666   7.385   3.817 -0.5975  0.7913  0.3828
 3729TIP3    H211133   6.524   7.416   3.776  0.0407  1.4258 -1.4470
 3730TIP3   OH211134   1.747   0.715   1.973  0.2335 -0.4831  0.2888
 3730TIP3    H111135   1.695   0.636   1.989 -1.2641  0.6183  1.0945
 3730TIP3    H211136   1.826   0.683   1.930  1.5835 -2.9217  4.1289
 3731TIP3   OH211137   2.299   6.631   5.756 -0.1547  0.2372 -0.3194
 3731TIP3    H111138   2.247   6.671   5.686 -1.0015 -1.6206 -0.8204
 3731TIP3    H211139   2.358   6.571   5.712 -0.8339 -1.1125  0.5246
 3732TIP3   OH211140   0.957   6.116   0.673  0.5649  0.2427  0.3335
 3732TIP3    H111141   0.881   6.126   0.730  0.5496 -0.7736  0.5066
 3732TIP3    H211142   0.990   6.206   0.662 -0.3970  0.6410  0.5958
 3733TIP3   OH211143   0.902   7.577   0.629  0.0776  0.0287 -0.4942
 3733TIP3    H111144   0.870   7.544   0.713 -1.3124  0.8000 -0.6788
 3733TIP3    H211145   0.969   7.641   0.652  0.9535 -1.0064 -0.0579
 3734TIP3   OH211146   7.097   0.451   2.377 -0.2403  0.1929  0.0073
 3734TIP3    H111147   7.006   0.438   2.406 -0.0862 -0.9731  0.0146
 3734TIP3    H211148   7.124   0.365   2.344  0.7930  0.5850 -0.1926
 3735TIP3   OH211149   5.494   0.313   0.798  0.3225 -0.5381  0.0534
 3735TIP3    H111150   5.482   0.218   0.800 -0.0658 -0.5235 -1.0330
 3735TIP3    H211151   5.567   0.327   0.737 -0.7748 -0.0491 -1.1853
 3736TIP3   OH211152   1.772   0.123   3.798  0.1217 -0.6828 -0.0403
 3736TIP3    H111153   1.681   0.110   3.770  0.1272 -0.4477 -0.1675
 3736TIP3    H211154   1.765   0.137   3.893  0.0537 -0.9461 -0.0041
 3737TIP3   OH211155   2.783   3.314   3.933  0.3333  0.2110 -0.9626
 3737TIP3    H111156   2.769   3.394   3.984  2.3200  0.9454 -1.4947
 3737TIP3    H211157   2.771   3.243   3.996  2.1243  1.0788  0.4485
 3738TIP3   OH211158   4.333   1.014   6.442  0.7856 -0.2936 -0.2672
 3738TIP3    H111159   4.363   0.924   6.434  1.1001 -0.1531 -0.6893
 3738TIP3    H211160   4.245   1.014   6.406  0.5192 -0.5693  0.3631
 3739TIP3   OH211161   7.908   6.366   0.063  0.4471  0.9686 -0.0002
 3739TIP3    H111162   7.843   6.409   0.008  0.8453  1.4449 -0.0985
 3739TIP3    H211163   7.946   6.299   0.006 -0.9898 -0.3397  0.5006
 3740TIP3   OH211164   3.965   3.158   1.886  0.1435  0.2643 -0.0352
 3740TIP3    H111165   4.029   3.181   1.819 -0.1884  1.1974 -0.0419
 3740TIP3    H211166   3.882   3.154   1.839  0.1306 -0.5463  0.0478
 3741TIP3   OH211167   5.505   5.155   2.958 -0.3630  0.4330 -0.0266
 3741TIP3    H111168   5.514   5.060   2.950  1.4745  0.3862  1.8124
 3741TIP3    H211169   5.428   5.168   3.013 -0.0807 -0.0570  0.4923
 3742TIP3   OH211170   2.161   7.274   3.050 -0.4407  0.1563  0.4011
 3742TIP3    H111171   2.094   7.239   2.992 -0.2208  2.3110 -1.2727
 3742TIP3    H211172   2.221   7.321   2.992  1.0017  0.6093  2.1525
 3743TIP3   OH211173   6.717   0.199   6.426 -0.4900  0.0412 -0.5725
 3743TIP3    H111174   6.775   0.169   6.356 -0.2133 -0.5331 -0.0942
 3743TIP3    H211175   6.632   0.211   6.382 -0.6726 -1.6210 -0.7462
 3744TIP3   OH211176   2.689   1.612   1.412  0.0826  0.2296  0.4117
 3744TIP3    H111177   2.731   1.531   1.383 -0.8817 -0.0030 -0.4300
 3744TIP3    H211178   2.759   1.664   1.450  1.2772  0.1401 -1.5233
 3745TIP3   OH211179   2.519   2.620   1.227 -0.0192  0.1448  0.5168
 3745TIP3    H111180   2.544   2.540   1.181  0.8923  0.8570 -0.2805
 3745TIP3    H211181   2.602   2.664   1.245 -0.5210  1.0394  0.6948
 3746TIP3   OH211182   3.435   5.044   6.719 -0.1659  0.4419  1.0367
 3746TIP3    H111183   3.367   5.034   6.652  1.8186 -1.4762 -0.8423
 3746TIP3    H211184   3.495   5.110   6.683 -0.4935  1.4332  2.2485
 3747TIP3   OH211185   2.532   6.840   6.563 -0.3677 -0.2649 -0.8320
 3747TIP3    H111186   2.512   6.781   6.491  0.5690 -2.3327  0.5154
 3747TIP3    H211187   2.450   6.848   6.611 -1.4139  2.2902 -2.7902
 3748TIP3   OH211188   2.335   1.156   0.559  0.4099  0.2235  0.0687
 3748TIP3    H111189   2.357   1.064   0.574  0.7432 -0.1791 -2.5143
 3748TIP3    H211190   2.276   1.178   0.631  1.0104 -1.7309  1.2426
 3749TIP3   OH211191   4.484   5.839   2.274 -0.0127 -0.3587  0.3611
 3749TIP3    H111192   4.514   5.898   2.206 -0.5178  0.5530  0.9154
 3749TIP3    H211193   4.492   5.888   2.355  0.6256 -1.4500  0.9790
 3750TIP3   OH211194   3.844   5.008   1.246 -0.0659  0.8895  0.0552
 3750TIP3    H111195   3.828   4.943   1.315 -0.3700  1.4516  0.5253
 3750TIP3    H211196   3.940   5.012   1.238 -0.0115  1.1107  0.7407
 3751TIP3   OH211197   8.324   0.697   5.441 -0.1163 -0.3482 -0.7026
 3751TIP3    H111198   8.249   0.638   5.436 -0.0461 -0.6661  1.2573
 3751TIP3    H211199   8.289   0.777   5.479  0.5582 -0.5636  0.3979
 3752TIP3   OH211200   0.543   0.694   2.825 -0.1571 -0.2475 -0.3209
 3752TIP3    H111201   0.475   0.636   2.859 -1.7704  0.3561 -2.3339
 3752TIP3    H211202   0.512   0.782   2.847  0.2783  0.0155 -0.7384
 3753TIP3   OH211203   2.692   2.629   5.347 -0.0783 -0.2382  0.0985
 3753TIP3    H111204   2.665   2.645   5.256  0.1342 -0.3676  0.0126
 3753TIP3    H211205   2.615   2.590   5.388 -0.7477  1.3236  0.4157
 3754TIP3   OH211206   0.251   2.352   5.706  0.4827 -0.4881 -0.3119
 3754TIP3    H111207   0.281   2.443   5.704 -1.0559  0.0556 -0.0488
 3754TIP3    H211208   0.189   2.349   5.778 -0.8404 -1.2890 -1.4293
 3755TIP3   OH211209   7.358   1.594   6.109 -0.0323 -0.3890 -0.8576
 3755TIP3    H111210   7.268   1.567   6.093 -1.0815  2.1939  0.1320
 3755TIP3    H211211   7.356   1.690   6.100  2.1140 -0.0391  1.2908
 3756TIP3   OH211212   0.523   6.887   4.415  0.1817  0.5307  0.2020
 3756TIP3    H111213   0.471   6.820   4.371 -0.2523  0.0847  1.3755
 3756TIP3    H211214   0.507   6.874   4.508  1.6831  0.9814  0.5539
 3757TIP3   OH211215   6.747   5.093   4.183  0.0346 -0.6527 -0.7106
 3757TIP3    H111216   6.697   5.024   4.228 -0.4550 -0.0851 -0.3614
 3757TIP3    H211217   6.767   5.157   4.252  1.5117 -1.0074 -0.7904
 3758TIP3   OH211218   5.136   3.772   6.408 -0.0687 -0.7130  0.2444
 3758TIP3    H111219   5.173   3.815   6.485  0.9577  0.0746 -0.6532
 3758TIP3    H211220   5.198   3.702   6.388  0.4391 -0.0488 -0.6437
 3759TIP3   OH211221   7.031   3.778   4.412 -0.2113 -0.1379  0.3522
 3759TIP3    H111222   7.027   3.838   4.337 -2.5173 -1.4691 -0.6987
 3759TIP3    H211223   6.968   3.709   4.391 -1.3546 -0.3178  3.7501
 3760TIP3   OH211224   5.392   0.044   3.603 -0.5972 -0.2612 -0.5307
 3760TIP3    H111225   5.481   0.077   3.597 -0.2072 -1.0351  0.6065
 3760TIP3    H211226   5.359   0.044   3.513 -0.0714  1.6623 -0.7752
 3761TIP3   OH211227   2.931   4.151   6.095  0.0273  0.3835 -0.0195
 3761TIP3    H111228   2.961   4.061   6.107 -1.3286  0.2695  3.5500
 3761TIP3    H211229   2.839   4.150   6.122 -0.2548  2.7129 -0.6674
 3762TIP3   OH211230   6.562   0.022   5.943 -0.4417  0.1789  0.2547
 3762TIP3    H111231   6.546  -0.053   6.000 -1.3307 -1.1789 -1.6741
 3762TIP3    H211232   6.477   0.067   5.938 -0.2901  0.4658  0.2371
 3763TIP3   OH211233   5.586   0.739   5.733  0.0168  0.4885  0.3996
 3763TIP3    H111234   5.549   0.715   5.818  1.7807  0.2926  1.1606
 3763TIP3    H211235   5.668   0.783   5.754  0.4759  0.4771 -1.2065
 3764TIP3   OH211236   0.634   3.156   6.094 -0.2940 -0.1307  0.2909
 3764TIP3    H111237   0.635   3.118   6.007 -0.2267  1.0582 -0.2510
 3764TIP3    H211238   0.695   3.103   6.145 -1.8423 -2.1157  0.1958
 3765TIP3   OH211239   3.014   1.896   5.907  0.8219  1.0731 -0.3080
 3765TIP3    H111240   3.034   1.906   5.999  0.5594  1.1310 -0.2558
 3765TIP3    H211241   2.982   1.982   5.879  0.2656  0.8802 -0.2879
 3766TIP3   OH211242   2.852   0.281   6.449 -0.7585  0.1369  0.3952
 3766TIP3    H111243   2.801   0.299   6.370 -0.7825 -0.8535  0.1669
 3766TIP3    H211244   2.786   0.280   6.519 -0.6647  1.5247  0.5166
 3767TIP3   OH211245   0.391   2.290   6.226  0.1578  0.2915  0.0966
 3767TIP3    H111246   0.330   2.254   6.290  1.0762 -0.4320  0.6046
 3767TIP3    H211247   0.381   2.234   6.149 -0.4551  0.7374 -0.1572
 3768TIP3   OH211248   5.481   7.119   4.700 -0.0197 -1.2645 -0.1550
 3768TIP3    H111249   5.474   7.191   4.763  0.3716 -1.3640  0.0069
 3768TIP3    H211250   5.442   7.154   4.620  0.7063 -0.6477 -0.2598
 3769TIP3   OH211251   2.081   4.275   2.224 -0.2539  0.0098  0.1020
 3769TIP3    H111252   2.161   4.270   2.172  0.1964 -0.4017  0.8234
 3769TIP3    H211253   2.032   4.196   2.202  0.5587 -0.8576  1.2860
 3770TIP3   OH211254   0.284   4.154   6.139  0.2684 -0.3011 -0.7598
 3770TIP3    H111255   0.289   4.236   6.189  1.6878  0.0395 -1.3995
 3770TIP3    H211256   0.214   4.170   6.075  0.7345  0.5536 -1.0822
 3771TIP3   OH211257   6.566   3.605   5.453  0.1675 -1.0315  0.4769
 3771TIP3    H111258   6.500   3.559   5.401  0.3125 -0.6144 -0.0954
 3771TIP3    H211259   6.607   3.665   5.390 -0.9936  0.9421  1.4860
 3772TIP3   OH211260   5.986   2.804   5.882  0.2891 -0.2931  0.3167
 3772TIP3    H111261   6.019   2.834   5.797 -0.1938 -0.3028  0.1192
 3772TIP3    H211262   5.893   2.785   5.865  0.6680 -2.3880  0.2940
 3773TIP3   OH211263   1.762   5.463   1.329 -0.4173  0.4340  0.1699
 3773TIP3    H111264   1.837   5.405   1.339  0.2202  1.0681 -0.7771
 3773TIP3    H211265   1.744   5.464   1.235 -0.2882  1.9179  0.1356
 3774TIP3   OH211266   6.589   1.018   1.914 -0.6232 -1.2148 -0.1785
 3774TIP3    H111267   6.513   1.019   1.856 -0.8712  0.1213  0.1395
 3774TIP3    H211268   6.626   1.105   1.907  2.0164 -2.3474 -1.7257
 3775TIP3   OH211269   7.996   2.432   5.997  0.5355  0.3936 -1.1605
 3775TIP3    H111270   8.026   2.342   5.983  2.0871  0.8283 -0.8384
 3775TIP3    H211271   7.909   2.423   6.036  0.3887 -0.9478 -1.7461
 3776TIP3   OH211272   0.189   2.023   4.522 -0.2407 -0.2659  0.1005
 3776TIP3    H111273   0.281   2.010   4.545 -0.1746 -0.6679 -0.3581
 3776TIP3    H211274   0.192   2.083   4.448 -0.2687 -1.1039 -0.6025
 3777TIP3   OH211275   4.533   2.134   3.787  0.2565  0.8623  0.0272
 3777TIP3    H111276   4.485   2.217   3.795  0.0550  1.0332 -2.3881
 3777TIP3    H211277   4.482   2.072   3.840  0.1009  2.1151  1.4142
 3778TIP3   OH211278   7.269   7.673   5.616  0.4036  0.0537  0.2866
 3778TIP3    H111279   7.304   7.736   5.553 -0.4614 -0.2207 -0.4882
 3778TIP3    H211280   7.261   7.591   5.567  0.3193 -0.3263  0.9268
 3779TIP3   OH211281   5.896   0.851   2.174  0.6240 -0.1005 -0.1435
 3779TIP3    H111282   5.810   0.835   2.136  0.1214  1.0574  0.4536
 3779TIP3    H211283   5.910   0.777   2.233 -1.3063  1.0932  1.9995
 3780TIP3   OH211284   5.759   3.869   2.772  0.6045 -0.4895  0.5267
 3780TIP3    H111285   5.843   3.886   2.815  0.5351 -0.0351  0.4835
 3780TIP3    H211286   5.772   3.785   2.727  1.3029 -0.0390 -0.1485
 3781TIP3   OH211287   4.945   0.880   6.262  0.1477  0.3075 -0.8312
 3781TIP3    H111288   4.851   0.898   6.266  0.1136  0.1218 -0.8097
 3781TIP3    H211289   4.982   0.934   6.331 -0.2705 -1.7889  1.1513
 3782TIP3   OH211290   2.574   5.493   3.945  0.3328  0.3687  0.1646
 3782TIP3    H111291   2.490   5.523   3.980  0.7543  1.7019  0.0684
 3782TIP3    H211292   2.556   5.475   3.853 -0.2508 -1.0514  0.5285
 3783TIP3   OH211293   5.399   6.190   6.030 -0.0977 -0.2045  0.3735
 3783TIP3    H111294   5.364   6.277   6.017 -0.4655 -0.1192  1.7278
 3783TIP3    H211295   5.323   6.134   6.045  0.1895  0.0332  3.6260
 3784TIP3   OH211296   1.726   1.228   2.790 -0.4872 -0.4818 -0.3618
 3784TIP3    H111297   1.786   1.207   2.861 -1.2174  0.0933  0.4469
 3784TIP3    H211298   1.765   1.304   2.747  0.1923 -1.1130 -0.8833
 3785TIP3   OH211299   4.699   7.150   4.903 -0.1322  0.3911  0.3477
 3785TIP3    H111300   4.657   7.069   4.932  0.2355  0.3642  0.8121
 3785TIP3    H211301   4.664   7.218   4.961 -2.0468  0.9544 -1.3547
 3786TIP3   OH211302   6.386   1.925   1.953  0.0254  0.2794 -0.0764
 3786TIP3    H111303   6.359   1.932   1.861 -2.7023  0.1042  0.6390
 3786TIP3    H211304   6.324   1.863   1.992 -0.0161  1.6716  2.2748
 3787TIP3   OH211305   1.331   6.673   0.172  0.7027  0.2329  0.5196
 3787TIP3    H111306   1.249   6.639   0.207  0.0339  0.4731 -0.7696
 3787TIP3    H211307   1.378   6.705   0.249  1.0358 -2.8274  1.7396
 3788TIP3   OH211308   6.593   2.501   1.373 -0.0012 -0.0839 -0.0005
 3788TIP3    H111309   6.679   2.494   1.333 -0.2699  0.0870 -0.6128
 3788TIP3    H211310   6.601   2.453   1.455  0.1153 -1.8078 -0.9726
 3789TIP3   OH211311   2.539   7.294   5.314 -0.3389 -0.1704  0.3829
 3789TIP3    H111312   2.592   7.245   5.251 -1.5339 -0.3623 -0.5201
 3789TIP3    H211313   2.570   7.384   5.307  0.3157 -0.3882  0.3773
 3790TIP3   OH211314   3.372   5.259   4.070  0.4669 -0.4021 -0.1177
 3790TIP3    H111315   3.436   5.329   4.059 -2.4621  2.6640  0.6347
 3790TIP3    H211316   3.324   5.256   3.988  0.2942 -1.2758  0.0038
 3791TIP3   OH211317   4.412   7.761   3.415  0.2165  0.0612 -0.4004
 3791TIP3    H111318   4.435   7.737   3.505  0.4222  0.4876 -0.3381
 3791TIP3    H211319   4.496   7.771   3.370  0.1124 -0.2507 -0.6692
 3792TIP3   OH211320   0.083   4.022   3.436 -0.0250  0.0990 -0.1356
 3792TIP3    H111321   0.002   4.072   3.446 -0.9189 -1.4195  0.5803
 3792TIP3    H211322   0.094   3.977   3.520  0.5303 -1.2132 -0.8821
 3793TIP3   OH211323   0.832   6.341   2.901  0.0302  1.1834 -0.4538
 3793TIP3    H111324   0.767   6.326   2.970 -0.0631 -1.5881 -1.0415
 3793TIP3    H211325   0.782   6.381   2.830 -0.9713 -0.3950 -0.6901
 3794TIP3   OH211326   5.485   3.071   6.444  0.6642  0.0757  0.0547
 3794TIP3    H111327   5.573   3.073   6.408  0.2424  0.7353 -0.9715
 3794TIP3    H211328   5.443   2.996   6.401  0.4837  0.2313 -0.0403
 3795TIP3   OH211329   5.716   3.411   1.065 -0.1248  0.0829 -0.1422
 3795TIP3    H111330   5.655   3.402   0.992 -0.7812  0.8078  0.3038
 3795TIP3    H211331   5.797   3.444   1.024  0.4723 -2.1808 -0.9419
 3796TIP3   OH211332   2.719   7.328   4.593 -0.1641  0.1267  0.3293
 3796TIP3    H111333   2.661   7.384   4.542 -0.3880 -0.4197 -0.0309
 3796TIP3    H211334   2.749   7.383   4.665 -0.1142  0.8049 -0.2007
 3797TIP3   OH211335   0.862   6.469   5.449  0.3017  0.2783 -0.6261
 3797TIP3    H111336   0.952   6.502   5.453  0.7039 -0.7569 -0.8907
 3797TIP3    H211337   0.845   6.433   5.536  0.1209  0.5043 -0.5649
 3798TIP3   OH211338   3.661   4.625   5.800 -0.2339  0.2870  0.3878
 3798TIP3    H111339   3.677   4.639   5.707 -0.8184 -3.0634 -0.3464
 3798TIP3    H211340   3.730   4.674   5.844 -0.0872  2.1654 -1.7401
 3799TIP3   OH211341   3.254   7.263   5.269  0.4751  0.6024 -0.4735
 3799TIP3    H111342   3.243   7.226   5.182  0.3322  0.6008 -0.4550
 3799TIP3    H211343   3.170   7.306   5.288 -0.4122 -1.4719  0.6339
 3800TIP3   OH211344   1.756   4.088   0.575  0.2716 -0.3059 -0.7250
 3800TIP3    H111345   1.723   4.005   0.540 -1.4070  0.6665 -1.5532
 3800TIP3    H211346   1.757   4.147   0.500  0.5209  0.7143  0.0577
 3801TIP3   OH211347   3.575   1.630   6.136  0.0236  0.4773 -0.0599
 3801TIP3    H111348   3.552   1.540   6.158 -0.5855  0.7520  0.4434
 3801TIP3    H211349   3.617   1.623   6.050 -1.0431 -0.1667 -0.5524
 3802TIP3   OH211350   1.168   2.537   5.208 -0.0306 -0.1875  0.7596
 3802TIP3    H111351   1.170   2.531   5.304 -1.4675 -0.5956  0.7926
 3802TIP3    H211352   1.175   2.447   5.178  0.3847 -0.0626  0.4683
 3803TIP3   OH211353   4.618   7.389   2.030  0.0437  0.6735  0.0904
 3803TIP3    H111354   4.651   7.462   2.082  0.4928 -0.1750  1.0240
 3803TIP3    H211355   4.687   7.323   2.035  0.5925  0.9385 -2.4606
 3804TIP3   OH211356   0.944   3.295   6.605 -0.0116  0.2623  0.0082
 3804TIP3    H111357   1.010   3.348   6.560  0.7061  0.2459  1.0023
 3804TIP3    H211358   0.994   3.242   6.667 -1.0483  1.0876  1.6245
 3805TIP3   OH211359   7.727   4.425   2.542  0.0578  0.1654  0.0273
 3805TIP3    H111360   7.801   4.483   2.559  1.1837 -1.0822 -0.4046
 3805TIP3    H211361   7.651   4.474   2.572  1.0204  1.5953  0.2549
 3806TIP3   OH211362   5.068   0.389   1.019  0.2689  0.6982  0.0884
 3806TIP3    H111363   5.108   0.303   1.023  0.7997  0.9527  2.8870
 3806TIP3    H211364   4.987   0.377   0.969  1.1196 -1.0297 -0.9382
 3807TIP3   OH211365   4.470   2.515   2.319 -0.0440  0.0150  0.0735
 3807TIP3    H111366   4.465   2.538   2.411 -0.9840 -1.1412  0.3336
 3807TIP3    H211367   4.546   2.456   2.313 -0.5412 -0.6682  0.3022
 3808TIP3   OH211368   0.181   3.478   4.221 -0.4168 -0.5731 -0.8400
 3808TIP3    H111369   0.099   3.474   4.270  0.5673  1.3550  1.1821
 3808TIP3    H211370   0.161   3.439   4.136 -3.0160 -1.4328  0.0736
 3809TIP3   OH211371   6.450   0.415   4.531 -1.2446  0.0137  0.1651
 3809TIP3    H111372   6.480   0.382   4.616 -3.1508 -1.5946  0.2994
 3809TIP3    H211373   6.498   0.363   4.467 -1.5862 -0.4894  0.3139
 3810TIP3   OH211374   6.192   4.805   3.649 -0.1531 -0.7288 -0.1537
 3810TIP3    H111375   6.118   4.767   3.601 -0.0680 -2.3524  0.9282
 3810TIP3    H211376   6.268   4.788   3.594 -0.4551  0.2934 -0.9236
 3811TIP3   OH211377   0.555   0.661   0.742 -0.7744 -0.6830  0.3791
 3811TIP3    H111378   0.504   0.735   0.710  2.1041  0.9971 -0.6829
 3811TIP3    H211379   0.570   0.607   0.664  0.4376 -0.2399  0.2781
 3812TIP3   OH211380   6.760   1.975   6.714 -0.4640  0.6978 -0.3554
 3812TIP3    H111381   6.749   1.908   6.781 -1.7307  1.9243  0.7339
 3812TIP3    H211382   6.683   1.968   6.658  0.5067 -0.2104 -1.6597
 3813TIP3   OH211383   6.244   5.245   1.195 -0.1587  0.0590 -0.0136
 3813TIP3    H111384   6.181   5.312   1.222  0.8828  1.5552 -1.1698
 3813TIP3    H211385   6.328   5.290   1.191  0.9234 -1.7709  0.9348
 3814TIP3   OH211386   6.046   1.421   0.509  0.5951 -0.5963 -0.2663
 3814TIP3    H111387   6.021   1.482   0.439  1.5654 -0.3381 -0.4089
 3814TIP3    H211388   5.963   1.389   0.544  0.0879 -1.0919 -1.8488
 3815TIP3   OH211389   1.506   3.161   6.072 -0.0613 -0.3960  0.1313
 3815TIP3    H111390   1.451   3.223   6.120 -1.4280 -0.3664 -1.3695
 3815TIP3    H211391   1.515   3.087   6.132 -1.9616 -0.4951  0.3822
 3816TIP3   OH211392   2.907   7.250   5.760 -0.5898  0.2436  0.0852
 3816TIP3    H111393   2.979   7.236   5.698 -0.2644 -0.5780  0.6296
 3816TIP3    H211394   2.831   7.268   5.704  0.0597  1.3347 -0.4914
 3817TIP3   OH211395   2.456   7.524   1.182  0.0277 -0.0899  0.3663
 3817TIP3    H111396   2.530   7.570   1.142 -0.7558  1.2684  0.4293
 3817TIP3    H211397   2.471   7.533   1.276 -0.1167  0.0208  0.3786
 3818TIP3   OH211398   5.804   6.471   3.233 -0.6293 -0.1771 -0.3642
 3818TIP3    H111399   5.815   6.540   3.168  1.8788 -1.1505 -1.0972
 3818TIP3    H211400   5.784   6.393   3.182  0.3606 -0.7440  0.0765
 3819TIP3   OH211401   3.162   7.437   3.723 -0.3074  0.1217  0.2502
 3819TIP3    H111402   3.254   7.451   3.701 -0.1521 -0.8465  0.2459
 3819TIP3    H211403   3.130   7.523   3.752 -0.0131  1.0094 -1.8949
 3820TIP3   OH211404   6.027   5.247   2.431 -0.6682  0.4002 -0.1020
 3820TIP3    H111405   6.011   5.159   2.466 -1.1734 -0.6016 -2.6616
 3820TIP3    H211406   6.122   5.258   2.437 -0.6854  0.0626  1.0415
 3821TIP3   OH211407   7.001   3.249   4.732  0.4586  0.7519 -0.1428
 3821TIP3    H111408   7.087   3.290   4.721  0.6307  0.3412 -0.3011
 3821TIP3    H211409   6.980   3.212   4.647  0.6161 -0.1046  0.1802
 3822TIP3   OH211410   8.096   5.281   6.234  0.3407 -0.0058 -0.3839
 3822TIP3    H111411   8.058   5.222   6.299  1.2240 -0.1337  0.0265
 3822TIP3    H211412   8.179   5.240   6.208 -0.1357 -0.1196 -1.8342
 3823TIP3   OH211413   4.679   2.210   4.812 -0.4481 -0.2041  0.2442
 3823TIP3    H111414   4.619   2.255   4.871 -1.0400 -0.4533 -0.1597
 3823TIP3    H211415   4.732   2.280   4.774 -1.2250  0.1465 -0.2236
 3824TIP3   OH211416   6.313   5.731   1.933 -0.2387 -0.3751  0.3336
 3824TIP3    H111417   6.314   5.787   1.856  1.2774 -0.8220 -0.0032
 3824TIP3    H211418   6.346   5.786   2.004 -2.2089  0.2227  0.8437
 3825TIP3   OH211419   5.103   2.305   3.053  0.2170 -0.2029 -0.0420
 3825TIP3    H111420   5.095   2.295   3.148 -1.1340  0.2127 -0.0886
 3825TIP3    H211421   5.096   2.399   3.038 -1.9354 -0.4059 -0.6951
 3826TIP3   OH211422   2.434   0.520   4.206 -0.4775 -0.2887  0.1902
 3826TIP3    H111423   2.420   0.507   4.112 -0.4455 -1.0243  0.2862
 3826TIP3    H211424   2.410   0.611   4.221  1.2101  0.3925 -0.8635
 3827TIP3   OH211425   3.949   2.419   3.732 -0.1732 -0.0258  0.3232
 3827TIP3    H111426   3.995   2.473   3.797  0.2023 -1.0170  0.9109
 3827TIP3    H211427   3.858   2.444   3.740 -0.1320 -0.1267  1.2531
 3828TIP3   OH211428   0.319   6.403   5.529 -0.2845  0.0160  0.5945
 3828TIP3    H111429   0.397   6.418   5.476  0.2281 -2.2017  0.6542
 3828TIP3    H211430   0.252   6.377   5.466 -0.4364  0.0069  0.7596
 3829TIP3   OH211431   2.388   2.898   5.727 -0.6016  0.3570  0.0647
 3829TIP3    H111432   2.465   2.848   5.753 -1.3424 -0.0676  1.5951
 3829TIP3    H211433   2.379   2.881   5.633  1.0348  0.2688 -0.1044
 3830TIP3   OH211434   5.662   6.698   4.168 -0.3541  0.7891  0.2150
 3830TIP3    H111435   5.595   6.629   4.166 -0.3755  0.7359 -2.9652
 3830TIP3    H211436   5.613   6.778   4.150  0.0922  1.1574  0.6273
 3831TIP3   OH211437   6.930   2.814   3.852  0.2894 -0.4967 -0.3911
 3831TIP3    H111438   6.975   2.832   3.769  0.1577  2.6996  0.1431
 3831TIP3    H211439   6.989   2.846   3.920 -0.3675 -1.5016  0.7057
 3832TIP3   OH211440   2.090   0.377   1.949  0.3574 -0.1910 -0.2957
 3832TIP3    H111441   2.143   0.301   1.973  0.4675  0.1449  0.5438
 3832TIP3    H211442   2.137   0.452   1.984 -0.5990  0.1259  0.3490
 3833TIP3   OH211443   0.900   2.396   3.930  0.7245  0.0273 -0.1331
 3833TIP3    H111444   0.831   2.462   3.925  0.2621 -0.5155 -1.5350
 3833TIP3    H211445   0.875   2.340   4.003  0.6011  0.8232  0.4435
 3834TIP3   OH211446   2.715   6.716   0.311 -0.0232  0.0977 -0.5566
 3834TIP3    H111447   2.755   6.637   0.348 -1.8618 -0.1047  1.1910
 3834TIP3    H211448   2.780   6.785   0.327 -0.2512 -0.1920  2.2391
 3835TIP3   OH211449   5.624   1.781   4.128  0.3786  0.3918 -0.0003
 3835TIP3    H111450   5.535   1.806   4.152  0.9017  1.0143  1.4359
 3835TIP3    H211451   5.644   1.833   4.050 -0.9144 -0.6679 -1.0908
 3836TIP3   OH211452   6.024   7.149   0.973 -0.0711 -0.1421  0.0205
 3836TIP3    H111453   6.063   7.074   0.928  1.7007 -1.2249  3.0493
 3836TIP3    H211454   6.092   7.216   0.972 -0.3589  0.1584  0.3146
 3837TIP3   OH211455   4.381   5.115   3.317 -0.3231 -0.1055  0.4863
 3837TIP3    H111456   4.360   5.085   3.229  0.3519 -0.1362  0.3328
 3837TIP3    H211457   4.380   5.035   3.370  0.2924 -0.2429  0.3036
 3838TIP3   OH211458   3.535   4.582   5.461  0.1887  0.4440  0.9795
 3838TIP3    H111459   3.492   4.524   5.524 -2.5181  0.9701 -0.2430
 3838TIP3    H211460   3.574   4.524   5.396  0.4857 -0.0208  1.5626
 3839TIP3   OH211461   0.038   6.362   2.623 -0.2146  0.2066 -0.3005
 3839TIP3    H111462   0.028   6.306   2.547  0.0117 -0.6611  0.2885
 3839TIP3    H211463   0.087   6.308   2.686 -0.2437  0.9622  0.3882
 3840TIP3   OH211464   0.096   3.365   3.982  0.4221 -0.4011  0.1289
 3840TIP3    H111465   0.164   3.319   3.933  1.0503  0.0368  0.5754
 3840TIP3    H211466   0.030   3.298   4.000  1.0629 -1.0015  0.2882
 3841TIP3   OH211467   0.964   4.362   4.065 -0.1873 -0.2695 -0.1834
 3841TIP3    H111468   0.999   4.331   3.981 -1.4938  0.6130 -1.1005
 3841TIP3    H211469   0.907   4.290   4.094  2.0162 -1.5929  1.1809
 3842TIP3   OH211470   0.727   5.989   2.829 -0.3247 -0.4602 -0.1887
 3842TIP3    H111471   0.818   5.992   2.860  0.6154 -2.9145 -2.3001
 3842TIP3    H211472   0.676   5.963   2.905  0.4953  2.0559  1.3311
 3843TIP3   OH211473   6.067   2.671   0.601  0.5070  0.4424 -0.3436
 3843TIP3    H111474   6.038   2.586   0.567 -1.3439  0.4297  1.0506
 3843TIP3    H211475   6.060   2.661   0.696  0.6411  2.0197 -0.1521
 3844TIP3   OH211476   6.231   3.337   3.616  0.2225  0.0549  0.0350
 3844TIP3    H111477   6.173   3.261   3.613 -0.7671  0.7837  0.2676
 3844TIP3    H211478   6.275   3.330   3.701  0.2351 -0.3237 -0.0017
 3845TIP3   OH211479   6.286   2.471   0.710 -0.3029 -0.2441 -0.1955
 3845TIP3    H111480   6.230   2.441   0.781 -1.0979  1.6337  0.0308
 3845TIP3    H211481   6.242   2.442   0.630 -1.4831  0.9456 -0.0079
 3846TIP3   OH211482   0.885   7.526   0.889 -0.4179 -0.6623 -0.3744
 3846TIP3    H111483   0.936   7.463   0.940  0.2379  1.2629  1.4942
 3846TIP3    H211484   0.837   7.576   0.954 -0.8626  0.8029 -1.7781
 3847TIP3   OH211485   2.156   5.013   3.195  0.0669  0.4585 -0.1807
 3847TIP3    H111486   2.215   5.038   3.266  1.2741 -0.5288 -0.7974
 3847TIP3    H211487   2.071   5.003   3.237  0.6996  0.1326  1.0864
 3848TIP3   OH211488   3.469   0.517   6.228  0.1154  0.2003 -0.0459
 3848TIP3    H111489   3.490   0.610   6.218  1.3470 -0.0253  0.3071
 3848TIP3    H211490   3.384   0.507   6.185  0.4428  1.2851 -0.9857
 3849TIP3   OH211491   8.057   4.747   4.406 -0.2230  0.1705 -0.1372
 3849TIP3    H111492   8.048   4.841   4.391  1.5483  0.4114  0.1561
 3849TIP3    H211493   8.029   4.707   4.324  0.3430  1.0268 -0.7644
 3850TIP3   OH211494   2.098   1.479   3.200  0.3162  0.2882  0.5115
 3850TIP3    H111495   2.166   1.492   3.267 -1.1908 -0.2936  2.2650
 3850TIP3    H211496   2.040   1.554   3.210  0.2988  0.4150 -0.4694
 3851TIP3   OH211497   3.781   3.731   3.159 -0.5430  0.1437  0.0128
 3851TIP3    H111498   3.767   3.731   3.064  0.4928 -0.2024 -0.1583
 3851TIP3    H211499   3.721   3.665   3.193  0.1784 -0.8548 -0.5975
 3852TIP3   OH211500   5.808   5.023   5.746  0.4007  0.2222 -0.1590
 3852TIP3    H111501   5.838   5.114   5.742  2.6369 -0.3975  0.9075
 3852TIP3    H211502   5.879   4.973   5.705 -0.7579 -1.0611 -0.6618
 3853TIP3   OH211503   6.029   7.102   5.806 -0.1043 -0.3049 -0.5941
 3853TIP3    H111504   6.077   7.040   5.861 -0.4281 -1.2526 -1.3394
 3853TIP3    H211505   5.941   7.064   5.800 -0.6402  0.8287 -0.1486
 3854TIP3   OH211506   3.131   6.001   2.086 -0.0430  0.6027  0.3004
 3854TIP3    H111507   3.130   6.089   2.048  0.2810  0.8765  0.9090
 3854TIP3    H211508   3.156   5.943   2.013 -2.6284  0.6827 -0.7494
 3855TIP3   OH211509   2.733   5.047   6.336 -0.8311 -0.5746  0.5728
 3855TIP3    H111510   2.659   5.020   6.281  0.8190 -0.3395 -1.9226
 3855TIP3    H211511   2.811   5.021   6.287  0.7942 -0.2585  2.8144
 3856TIP3   OH211512   3.542   1.673   1.976  0.8747  0.1407  0.3490
 3856TIP3    H111513   3.530   1.581   1.997 -1.2891  0.1450 -0.5112
 3856TIP3    H211514   3.550   1.717   2.061 -0.1931 -0.6394  0.8825
 3857TIP3   OH211515   5.885   6.968   2.866 -0.1398 -0.0935  0.0942
 3857TIP3    H111516   5.963   6.952   2.919  0.8327 -0.2284 -1.3025
 3857TIP3    H211517   5.920   6.982   2.777 -1.2535  4.7560  0.1871
 3858TIP3   OH211518   5.568   4.415   0.812  0.1183 -0.5807 -0.3447
 3858TIP3    H111519   5.524   4.499   0.800  1.3551 -0.0533 -1.5334
 3858TIP3    H211520   5.498   4.353   0.831 -0.6828  0.9725  2.1708
 3859TIP3   OH211521   3.066   7.367   5.946  0.1979  0.7982  0.2340
 3859TIP3    H111522   3.015   7.323   5.878  1.9323 -2.3890  0.7901
 3859TIP3    H211523   3.025   7.338   6.028  0.7049  1.1272  0.6067
 3860TIP3   OH211524   0.588   3.448   2.258  0.5800  0.0208 -0.0391
 3860TIP3    H111525   0.520   3.402   2.209  0.0736 -0.4106  1.0325
 3860TIP3    H211526   0.651   3.476   2.192 -0.1359 -0.4478 -0.9383
 3861TIP3   OH211527   7.219   0.032   4.069  0.2342  0.0623 -0.4365
 3861TIP3    H111528   7.247  -0.047   4.024 -1.5482 -2.3151  2.2452
 3861TIP3    H211529   7.191   0.092   4.000 -2.4546 -3.3319 -2.6293
 3862TIP3   OH211530   4.398   3.754   6.135 -0.2772  0.6691  0.2612
 3862TIP3    H111531   4.322   3.713   6.175 -0.5978  1.1314  0.1248
 3862TIP3    H211532   4.467   3.687   6.141 -1.4904 -0.9617 -2.3739
 3863TIP3   OH211533   5.081   1.628   6.631 -0.1677  0.5120  0.4125
 3863TIP3    H111534   5.071   1.661   6.720  2.6929  0.7172  0.7546
 3863TIP3    H211535   5.061   1.704   6.576  1.3174  1.4023  1.0361
 3864TIP3   OH211536   4.351   7.290   6.017 -0.7015 -0.5476  0.4502
 3864TIP3    H111537   4.357   7.228   6.090 -1.1632  0.8418  1.7452
 3864TIP3    H211538   4.438   7.290   5.978  0.1334  0.0413  2.2231
 3865TIP3   OH211539   6.785   1.412   5.752  0.5318 -0.2877  0.5484
 3865TIP3    H111540   6.789   1.507   5.762  1.3231 -0.3728  1.0740
 3865TIP3    H211541   6.693   1.395   5.730  0.5332  0.6534 -0.2390
 3866TIP3   OH211542   8.102   6.146   5.323 -0.3065 -0.5215 -0.2081
 3866TIP3    H111543   8.167   6.090   5.281 -1.2545 -0.8030 -1.3692
 3866TIP3    H211544   8.059   6.088   5.386 -0.4731 -0.7834 -0.5546
 3867TIP3   OH211545   3.294   1.187   1.816 -0.2743 -0.9940  0.0620
 3867TIP3    H111546   3.327   1.276   1.818  0.8362 -1.4080  1.3722
 3867TIP3    H211547   3.218   1.188   1.875  0.3502 -1.1236  0.8877
 3868TIP3   OH211548   4.214   1.679   5.049  0.4729  0.0400 -0.5571
 3868TIP3    H111549   4.221   1.737   5.124 -0.5840 -0.9004  0.3064
 3868TIP3    H211550   4.305   1.666   5.020  0.8557  0.7265  0.3022
 3869TIP3   OH211551   2.944   3.155   1.780 -0.4853  0.5831 -0.1369
 3869TIP3    H111552   2.885   3.134   1.708 -0.4450 -0.0594  0.0180
 3869TIP3    H211553   2.907   3.235   1.818 -2.2096 -0.6940  0.9987
 3870TIP3   OH211554   7.354   2.230   1.215 -0.5322 -0.2447  0.2428
 3870TIP3    H111555   7.298   2.257   1.288  0.0493 -0.7188  0.8756
 3870TIP3    H211556   7.380   2.140   1.237  0.1906 -0.1560 -0.2211
 3871TIP3   OH211557   1.519   4.240   2.163  0.2865 -0.2629  0.4408
 3871TIP3    H111558   1.509   4.150   2.132  1.4696 -0.6084  0.9986
 3871TIP3    H211559   1.430   4.271   2.178 -0.3033 -0.3893 -2.3377
 3872TIP3   OH211560   1.830   5.015   1.782 -0.3214  0.1333 -0.3689
 3872TIP3    H111561   1.740   5.000   1.808  0.3741 -2.3688  0.9746
 3872TIP3    H211562   1.858   4.931   1.744  2.0257  0.1003  1.2252
 3873TIP3   OH211563   4.683   4.230   5.183  0.1713  0.2698 -0.4096
 3873TIP3    H111564   4.696   4.282   5.262 -2.3509  0.7137 -0.1968
 3873TIP3    H211565   4.635   4.153   5.212 -1.4984  0.8089 -1.5260
 3874TIP3   OH211566   4.443   0.350   1.561  0.1046  0.3722  0.2949
 3874TIP3    H111567   4.503   0.310   1.498 -0.9468  1.0246 -1.1946
 3874TIP3    H211568   4.489   0.347   1.644  1.6102 -0.4055 -0.5277
 3875TIP3   OH211569   2.902   2.667   5.000  0.6951 -0.2771 -0.4448
 3875TIP3    H111570   2.898   2.571   4.997 -1.2041 -0.2519  0.1699
 3875TIP3    H211571   2.954   2.686   5.077  0.6659 -0.8090 -0.2881
 3876TIP3   OH211572   1.868   2.491   3.991  0.5782  0.0975  0.1042
 3876TIP3    H111573   1.951   2.455   4.024  0.7219  0.9059  0.6600
 3876TIP3    H211574   1.803   2.464   4.056  0.5028 -0.0334 -0.0244
 3877TIP3   OH211575   1.269   7.321   0.970 -0.0274 -0.3811 -0.1625
 3877TIP3    H111576   1.319   7.260   0.916 -1.1186 -1.1940 -0.2810
 3877TIP3    H211577   1.284   7.407   0.929  2.9578 -0.2244  1.0459
 3878TIP3   OH211578   0.313   1.907   4.089 -0.7111  0.0592  0.1480
 3878TIP3    H111579   0.400   1.868   4.092 -0.9169 -0.7012 -2.0109
 3878TIP3    H211580   0.254   1.834   4.070 -1.8887  0.5383  1.6860
 3879TIP3   OH211581   6.889   3.383   5.952 -0.7967  0.4158  0.6950
 3879TIP3    H111582   6.978   3.419   5.952  1.4223 -4.3406  0.4692
 3879TIP3    H211583   6.870   3.368   6.045 -1.2475  1.1089  0.7195
 3880TIP3   OH211584   7.749   1.218   4.771 -0.0337  0.3852  0.1293
 3880TIP3    H111585   7.780   1.189   4.857  2.5038  2.2772 -0.0608
 3880TIP3    H211586   7.814   1.281   4.741 -0.9343 -0.0285 -3.1266
 3881TIP3   OH211587   3.187   3.509   5.735  0.2605 -0.1868 -0.3810
 3881TIP3    H111588   3.214   3.575   5.798 -0.2625 -1.5474  1.3713
 3881TIP3    H211589   3.259   3.445   5.734 -0.9792 -1.7001  1.1743
 3882TIP3   OH211590   3.420   0.814   5.058  0.1101  0.0280  0.4417
 3882TIP3    H111591   3.382   0.736   5.100 -1.5921  0.4615 -0.2003
 3882TIP3    H211592   3.417   0.794   4.965  3.5865 -0.8100  0.3811
 3883TIP3   OH211593   3.336   6.292   3.065 -0.1388 -0.4934  0.1164
 3883TIP3    H111594   3.348   6.321   2.975 -1.9896 -0.6377 -0.2165
 3883TIP3    H211595   3.402   6.340   3.115 -1.2093  2.1188 -0.8271
 3884TIP3   OH211596   6.200   6.833   2.152  0.5066  0.5826  0.5026
 3884TIP3    H111597   6.217   6.861   2.062  0.0557  0.2026  0.2972
 3884TIP3    H211598   6.163   6.745   2.143  1.9309 -0.1015  1.1448
 3885TIP3   OH211599   3.739   5.141   1.900 -0.7534 -0.7878  0.3632
 3885TIP3    H111600   3.787   5.178   1.826  0.1043 -0.2977  1.1283
 3885TIP3    H211601   3.649   5.133   1.870 -0.6615  0.5524 -0.3372
 3886TIP3   OH211602   6.684   7.172   5.501 -0.2146  0.1053  0.1671
 3886TIP3    H111603   6.633   7.095   5.527  0.5154 -0.4697 -0.0665
 3886TIP3    H211604   6.765   7.136   5.466  1.1825  1.0637  2.2553
 3887TIP3   OH211605   1.609   5.435   1.097  0.1862 -0.2557 -0.0986
 3887TIP3    H111606   1.626   5.354   1.049  0.0449 -1.1557  1.3340
 3887TIP3    H211607   1.518   5.429   1.124  0.6803 -0.5112  1.6084
 3888TIP3   OH211608   7.722   3.200   3.674  0.1708 -0.4442  0.4560
 3888TIP3    H111609   7.750   3.113   3.645 -0.5749 -1.3190  2.2548
 3888TIP3    H211610   7.627   3.197   3.670  0.1363  1.1036 -1.6292
 3889TIP3   OH211611   8.199   0.926   2.743 -0.0969  0.9310 -0.0714
 3889TIP3    H111612   8.215   0.935   2.837 -1.0571 -0.7826  0.3076
 3889TIP3    H211613   8.284   0.941   2.702  0.3521  1.5973  1.0726
 3890TIP3   OH211614   3.567   3.782   1.487 -0.8131  0.2867 -0.5199
 3890TIP3    H111615   3.654   3.774   1.447 -0.2762 -1.3541  0.8392
 3890TIP3    H211616   3.510   3.806   1.414  0.5752  0.1842 -1.7044
 3891TIP3   OH211617   0.880   7.056   2.137 -0.2443  0.4055  0.0370
 3891TIP3    H111618   0.824   6.987   2.103 -0.2059  0.3875  0.0093
 3891TIP3    H211619   0.883   7.040   2.232 -0.6689  0.6939  0.0992
 3892TIP3   OH211620   7.751   2.347   0.925  0.5467 -0.2521 -0.7862
 3892TIP3    H111621   7.673   2.300   0.955  0.2411 -0.4829 -1.9145
 3892TIP3    H211622   7.724   2.438   0.922  1.1379  0.0619  1.4009
 3893TIP3   OH211623   3.884   6.328   6.488  0.3828 -0.1121 -0.0162
 3893TIP3    H111624   3.825   6.349   6.560 -1.0020  0.7511 -1.3475
 3893TIP3    H211625   3.836   6.354   6.410  2.2237 -0.1312 -1.2003
 3894TIP3   OH211626   0.924   2.076   1.610  0.3515  0.5335  0.6466
 3894TIP3    H111627   0.957   2.132   1.539 -0.0345 -1.0662 -0.8648
 3894TIP3    H211628   0.890   1.999   1.565  0.9652 -0.9818  2.6708
 3895TIP3   OH211629   7.600   6.174   4.120  1.0250 -0.1799 -0.7377
 3895TIP3    H111630   7.627   6.098   4.069  2.4723  0.6152 -1.2191
 3895TIP3    H211631   7.618   6.150   4.211 -1.5486 -1.5970 -0.4835
 3896TIP3   OH211632   5.381   2.511   6.246  0.3777 -0.6601  0.0214
 3896TIP3    H111633   5.409   2.443   6.185 -0.5925 -0.4768 -0.6676
 3896TIP3    H211634   5.372   2.590   6.191  2.1959  0.2345  0.9377
 3897TIP3   OH211635   1.140   0.657   6.271  0.0585 -0.1443 -0.1394
 3897TIP3    H111636   1.163   0.595   6.341 -0.6147 -0.4600 -0.1922
 3897TIP3    H211637   1.052   0.686   6.293 -0.8507 -1.5304 -1.7497
 3898TIP3   OH211638   4.977   1.915   0.253 -0.0888  0.1435 -0.7788
 3898TIP3    H111639   5.047   1.970   0.286 -1.0577  1.1703 -0.3699
 3898TIP3    H211640   5.015   1.869   0.178  1.5701 -0.7820  0.5582
 3899TIP3   OH211641   0.584   3.129   2.140  0.7161  0.0755  0.2776
 3899TIP3    H111642   0.554   3.166   2.057  1.5610  3.0125  1.1563
 3899TIP3    H211643   0.528   3.168   2.206  1.1264 -0.9135  1.2452
 3900TIP3   OH211644   0.412   3.149   5.390 -0.1407 -0.1633  0.0512
 3900TIP3    H111645   0.331   3.099   5.396 -0.3279  0.0298 -0.8128
 3900TIP3    H211646   0.397   3.227   5.444 -0.5168 -0.1400 -0.0878
 3901TIP3   OH211647   6.954   4.169   5.040 -0.5035  0.0539  0.1089
 3901TIP3    H111648   7.025   4.194   5.099 -0.2074 -0.5223  0.0046
 3901TIP3    H211649   6.986   4.089   4.997 -1.1590 -0.1318 -0.0385
 3902TIP3   OH211650   0.316   3.380   5.511  0.2543 -0.3552 -0.0273
 3902TIP3    H111651   0.358   3.424   5.585 -0.0116  0.0472 -0.1124
 3902TIP3    H211652   0.223   3.399   5.522  0.2687  0.1712 -0.7653
 3903TIP3   OH211653   5.191   2.897   1.986 -0.3661  0.2611  0.5308
 3903TIP3    H111654   5.217   2.807   1.964  0.7058  0.4774  0.8936
 3903TIP3    H211655   5.101   2.903   1.953  0.0209 -0.5006 -0.7675
 3904TIP3   OH211656   5.042   7.019   1.248  0.0916 -0.6356 -0.1198
 3904TIP3    H111657   5.130   7.055   1.260  0.1802 -0.3950 -1.3345
 3904TIP3    H211658   4.991   7.056   1.320  1.0066 -0.8861  0.6824
 3905TIP3   OH211659   7.504   4.857   0.243  0.2319 -0.0200  0.3210
 3905TIP3    H111660   7.519   4.762   0.244  0.3470 -0.0017  0.3450
 3905TIP3    H211661   7.422   4.868   0.196  0.9135 -0.0263 -0.9148
 3906TIP3   OH211662   4.924   1.765   1.958 -0.4867 -0.1630  0.1951
 3906TIP3    H111663   4.984   1.789   1.887 -0.5038  1.6356  0.7321
 3906TIP3    H211664   4.840   1.750   1.915 -1.0434  2.9798 -0.0677
 3907TIP3   OH211665   3.629   1.121   0.810 -0.2604  0.3651 -0.4340
 3907TIP3    H111666   3.541   1.151   0.833 -0.2275  1.2530 -1.4007
 3907TIP3    H211667   3.677   1.201   0.790  0.6311 -0.1532 -0.4183
 3908TIP3   OH211668   7.385   6.342   4.042  0.0240  0.5652  0.1169
 3908TIP3    H111669   7.463   6.286   4.045  0.7972  1.6681  1.1009
 3908TIP3    H211670   7.339   6.322   4.123  0.4363  1.5196  0.5970
 3909TIP3   OH211671   3.434   1.910   5.640  0.0463 -0.0811 -0.1855
 3909TIP3    H111672   3.449   2.001   5.664  1.9803 -0.3605 -0.1500
 3909TIP3    H211673   3.454   1.860   5.719  0.1081 -0.6033 -0.5230
 3910TIP3   OH211674   5.835   4.373   3.055 -0.0522 -0.4503  0.7090
 3910TIP3    H111675   5.794   4.433   3.118 -0.9763  1.3187 -1.4604
 3910TIP3    H211676   5.770   4.304   3.044 -1.0109  0.5426 -0.1153
 3911TIP3   OH211677   7.102   7.295   0.075 -0.1569 -0.3966  1.1119
 3911TIP3    H111678   7.157   7.228   0.035  1.6210  2.5905 -1.9360
 3911TIP3    H211679   7.022   7.295   0.023 -0.2269 -0.2693  1.2175
 3912TIP3   OH211680   6.425   3.104   5.093 -0.1042 -0.2887 -0.4950
 3912TIP3    H111681   6.460   3.035   5.149 -1.6790 -0.5640  0.1945
 3912TIP3    H211682   6.411   3.178   5.152 -0.9196 -0.2729 -0.7084
 3913TIP3   OH211683   0.025   2.690   2.902 -0.2643  0.1484  0.3488
 3913TIP3    H111684   0.095   2.668   2.841 -0.2157 -0.5210  0.6339
 3913TIP3    H211685  -0.053   2.650   2.864 -0.8626  2.2981 -0.8467
 3914TIP3   OH211686   7.269   7.394   2.294  0.3464  0.4021  0.1416
 3914TIP3    H111687   7.262   7.344   2.376  0.8297  0.7489  0.3984
 3914TIP3    H211688   7.178   7.401   2.263  0.1752  0.1250  0.5596
 3915TIP3   OH211689   6.239   3.565   6.491 -0.1690 -0.4253 -0.2339
 3915TIP3    H111690   6.321   3.551   6.443  0.6818 -2.4118  1.6126
 3915TIP3    H211691   6.189   3.625   6.436  2.0330 -0.0600 -1.9984
 3916TIP3   OH211692   3.039   4.789   2.065  0.2777 -0.4141  0.0923
 3916TIP3    H111693   3.102   4.718   2.053 -0.8262 -1.0514 -2.7514
 3916TIP3    H211694   2.956   4.744   2.081 -0.4522  0.1469 -1.8082
 3917TIP3   OH211695   7.925   4.683   0.407  0.2117  0.0670  0.1780
 3917TIP3    H111696   7.975   4.764   0.399  0.7573 -0.4006 -1.6093
 3917TIP3    H211697   7.879   4.692   0.491  0.3176  2.1675  0.0788
 3918TIP3   OH211698   5.567   1.159   6.078  0.3147 -0.2745 -0.2261
 3918TIP3    H111699   5.658   1.175   6.102  0.0344  2.1786 -0.5134
 3918TIP3    H211700   5.516   1.205   6.146 -0.7182 -1.4348 -0.1774
 3919TIP3   OH211701   4.037   2.838   2.266  0.1950 -0.6182 -0.3970
 3919TIP3    H111702   4.089   2.760   2.286  0.1012 -0.5280  0.2138
 3919TIP3    H211703   4.049   2.851   2.171 -0.2274 -1.6870 -0.6146
 3920TIP3   OH211704   1.493   0.561   4.711  0.5310 -0.3436 -0.2327
 3920TIP3    H111705   1.580   0.581   4.677 -0.2016  1.2676 -1.2898
 3920TIP3    H211706   1.435   0.572   4.636 -1.0871  2.7566  1.3071
 3921TIP3   OH211707   3.806   3.699   2.702 -0.1338 -0.3168  0.1507
 3921TIP3    H111708   3.815   3.773   2.643  1.0002 -0.1603  0.4877
 3921TIP3    H211709   3.768   3.629   2.648 -1.0108  0.4253 -0.2208
 3922TIP3   OH211710   0.708   3.727   6.213  0.3578  0.9131  0.1127
 3922TIP3    H111711   0.667   3.730   6.299 -0.1639  0.4179 -0.1037
 3922TIP3    H211712   0.734   3.635   6.203  0.3590  0.9554 -0.2781
 3923TIP3   OH211713   8.230   5.714   2.538 -0.0887  0.3088 -0.3255
 3923TIP3    H111714   8.181   5.730   2.619 -1.0008 -0.1523 -0.7644
 3923TIP3    H211715   8.301   5.656   2.563 -0.4811  0.0141  0.1101
 3924TIP3   OH211716   4.073   5.767   0.227  0.0460  0.3050  0.2468
 3924TIP3    H111717   4.095   5.690   0.174 -1.1622  0.4538 -0.5183
 3924TIP3    H211718   4.015   5.819   0.171  1.2843  2.0846  0.5096
 3925TIP3   OH211719   6.902   3.053   4.932 -0.3482 -0.1993  0.2073
 3925TIP3    H111720   6.808   3.047   4.915 -0.6289  0.9046  1.2034
 3925TIP3    H211721   6.932   3.125   4.877  0.1608 -1.2242 -0.9201
 3926TIP3   OH211722   3.840   2.395   4.859 -0.2089 -0.3459  0.7015
 3926TIP3    H111723   3.917   2.350   4.894 -0.4708 -0.2253  1.4520
 3926TIP3    H211724   3.838   2.371   4.766  0.3446 -0.8960  0.8271
 3927TIP3   OH211725   4.838   5.265   1.694 -1.1110 -0.0509 -0.2539
 3927TIP3    H111726   4.811   5.236   1.781 -1.3975  1.1408  0.0621
 3927TIP3    H211727   4.787   5.211   1.634 -0.1627 -1.6126  0.2789
 3928TIP3   OH211728   3.261   3.198   4.117  0.5141 -0.3721  0.7758
 3928TIP3    H111729   3.229   3.172   4.031  1.0740 -2.4758  1.1317
 3928TIP3    H211730   3.349   3.233   4.100 -0.1530  1.1420  0.3048
 3929TIP3   OH211731   5.240   3.006   4.871 -0.1076 -0.4974  0.8367
 3929TIP3    H111732   5.289   3.016   4.953  0.6800  0.2929  0.2722
 3929TIP3    H211733   5.198   3.091   4.858  1.2035 -0.0257 -0.4889
 3930TIP3   OH211734   6.572   7.668   0.692 -0.0352  0.4145 -0.1902
 3930TIP3    H111735   6.625   7.689   0.769 -0.1576  0.8545 -0.2185
 3930TIP3    H211736   6.574   7.573   0.686  0.0382  0.3787  0.3160
 3931TIP3   OH211737   3.706   3.305   1.268 -0.1334  0.2684 -0.3840
 3931TIP3    H111738   3.779   3.261   1.311 -1.4692  0.2225  2.0453
 3931TIP3    H211739   3.677   3.244   1.200 -1.0080 -2.0288  1.9199
 3932TIP3   OH211740   5.775   4.475   3.591 -0.0553 -0.2062 -0.7744
 3932TIP3    H111741   5.738   4.412   3.530  0.6810 -0.2735 -1.1702
 3932TIP3    H211742   5.840   4.425   3.641 -1.1340 -0.3227  0.5621
 3933TIP3   OH211743   2.645   5.067   2.463 -0.1753 -0.0506 -0.5287
 3933TIP3    H111744   2.665   5.015   2.541  1.3315 -0.7336 -1.3353
 3933TIP3    H211745   2.712   5.136   2.462 -1.1999  0.9855 -0.3377
 3934TIP3   OH211746   0.587   0.030   2.812 -0.3256 -0.0458  0.2376
 3934TIP3    H111747   0.536   0.083   2.873 -1.3549 -0.5584 -0.1399
 3934TIP3    H211748   0.571   0.070   2.726 -1.1407 -0.9333 -0.0576
 3935TIP3   OH211749   4.598   3.474   4.666 -0.1078 -0.4805 -0.1957
 3935TIP3    H111750   4.584   3.492   4.573 -1.6026 -0.8079 -0.0629
 3935TIP3    H211751   4.571   3.554   4.710  0.4185 -0.3937 -0.0285
 3936TIP3   OH211752   4.555   2.421   5.881  0.3617 -0.0044 -0.5489
 3936TIP3    H111753   4.581   2.401   5.971  2.5846  0.5348 -1.0350
 3936TIP3    H211754   4.477   2.476   5.890 -0.8698 -1.8531  0.9602
 3937TIP3   OH211755   7.924   4.547   2.672 -0.0924 -0.1515  0.5097
 3937TIP3    H111756   7.978   4.622   2.698 -0.0214  0.2834 -0.8302
 3937TIP3    H211757   7.960   4.474   2.722  0.3013  0.5588  1.3018
 3938TIP3   OH211758   0.638   0.624   1.019  0.6184  0.1915 -0.4525
 3938TIP3    H111759   0.618   0.644   0.928  1.6036 -0.4612 -0.8338
 3938TIP3    H211760   0.597   0.694   1.069  0.6352  0.9341 -1.4488
 3939TIP3   OH211761   3.375   1.345   4.091 -0.9720  0.4802 -0.3564
 3939TIP3    H111762   3.457   1.307   4.122 -1.7409 -1.7122 -0.8486
 3939TIP3    H211763   3.393   1.439   4.085  0.5219  0.4769  2.5067
 3940TIP3   OH211764   2.036   2.669   6.605 -0.6414 -0.2191 -0.1798
 3940TIP3    H111765   2.037   2.725   6.527  1.7473 -1.4399 -1.1177
 3940TIP3    H211766   2.028   2.580   6.572 -1.7806 -0.6358  1.1293
 3941TIP3   OH211767   0.975   2.739   0.595  0.4564  0.5015 -0.4292
 3941TIP3    H111768   0.961   2.780   0.681  0.5784  1.4292 -0.8316
 3941TIP3    H211769   0.893   2.696   0.575  0.3334  0.5139  0.0369
 3942TIP3   OH211770   3.306   4.202   5.219 -0.6297 -0.2870 -0.2067
 3942TIP3    H111771   3.246   4.137   5.183 -1.0014 -0.0977  0.0761
 3942TIP3    H211772   3.368   4.151   5.271 -1.5215 -0.3125  0.8354
 3943TIP3   OH211773   5.262   4.765   3.140  1.0914 -0.0790  0.3529
 3943TIP3    H111774   5.222   4.680   3.124 -0.1277  0.5132  0.1885
 3943TIP3    H211775   5.330   4.747   3.206 -1.3367 -0.6763  2.8975
 3944TIP3   OH211776   0.071   1.958   0.688 -0.1760 -0.1776  0.4489
 3944TIP3    H111777   0.149   1.938   0.739 -0.1980  0.2663  0.6552
 3944TIP3    H211778   0.025   2.024   0.739 -0.3524  0.0451  0.0049
 3945TIP3   OH211779   8.293   6.834   2.322  0.0161 -0.4446  0.4347
 3945TIP3    H111780   8.214   6.814   2.372 -0.4666  2.3034  0.9671
 3945TIP3    H211781   8.269   6.822   2.231 -0.8436 -0.1692  0.6218
 3946TIP3   OH211782   4.868   5.144   5.640 -0.1619 -0.1209 -0.4368
 3946TIP3    H111783   4.898   5.179   5.724  2.4076  1.9036 -2.0424
 3946TIP3    H211784   4.867   5.049   5.652  0.5793  0.0986  1.7241
 3947TIP3   OH211785   5.214   6.459   6.316 -0.0697 -0.2867 -0.1952
 3947TIP3    H111786   5.163   6.517   6.260 -0.8878 -0.4947  0.3081
 3947TIP3    H211787   5.291   6.436   6.264 -0.6861 -0.2815 -1.1297
 3948TIP3   OH211788   2.491   2.138   2.570  0.4452  0.3175 -0.2968
 3948TIP3    H111789   2.479   2.115   2.478 -1.5795  0.2699 -0.0610
 3948TIP3    H211790   2.494   2.233   2.571  0.8152  0.3098 -0.4345
 3949TIP3   OH211791   0.349   0.038   0.138  0.2900  0.0093 -0.0475
 3949TIP3    H111792   0.284   0.036   0.068 -0.3319  0.2382  0.5185
 3949TIP3    H211793   0.383  -0.052   0.141  0.7528  0.1432 -1.0343
 3950TIP3   OH211794   5.536   5.251   4.099 -0.1777 -0.3692 -0.1311
 3950TIP3    H111795   5.602   5.235   4.032  1.7921 -1.0087  1.8215
 3950TIP3    H211796   5.505   5.164   4.124 -1.9532 -0.0641 -1.1563
 3951TIP3   OH211797   1.093   0.726   0.328  0.4148  0.3031 -0.0484
 3951TIP3    H111798   1.092   0.630   0.333 -0.2725  0.2957 -0.2134
 3951TIP3    H211799   1.122   0.754   0.415  0.0593 -0.0473  0.1884
 3952TIP3   OH211800   0.860   3.102   0.475 -0.2564 -0.4480 -0.4368
 3952TIP3    H111801   0.801   3.140   0.411  1.0245 -1.7735 -2.5159
 3952TIP3    H211802   0.874   3.012   0.445  0.8728 -0.9354  1.3640
 3953TIP3   OH211803   0.060   5.546   3.212  0.0356 -0.3725  0.1685
 3953TIP3    H111804   0.101   5.616   3.263 -0.5725 -0.6803  1.0996
 3953TIP3    H211805  -0.029   5.539   3.246  0.1425 -1.7385  0.2556
 3954TIP3   OH211806   2.747   5.576   6.686 -0.0009 -0.5879  0.0413
 3954TIP3    H111807   2.776   5.608   6.771  1.0052 -0.8373 -0.1946
 3954TIP3    H211808   2.791   5.491   6.676  0.8864 -0.0205 -1.2317
 3955TIP3   OH211809   6.379   3.649   2.126  0.7799 -0.0998 -0.1315
 3955TIP3    H111810   6.396   3.725   2.183  0.8304 -0.2828  0.0970
 3955TIP3    H211811   6.431   3.578   2.164  2.1327  0.1868 -1.3598
 3956TIP3   OH211812   1.320   1.434   3.874  0.2831  0.0779 -0.5622
 3956TIP3    H111813   1.296   1.400   3.788 -1.8569 -1.0077  0.4034
 3956TIP3    H211814   1.259   1.507   3.890  0.4009  0.0231  0.1961
 3957TIP3   OH211815   4.550   1.025   2.842  0.0194 -0.4688  0.0064
 3957TIP3    H111816   4.516   0.956   2.785 -0.1777 -1.0124  0.7689
 3957TIP3    H211817   4.528   1.107   2.797 -1.0829 -0.8555 -0.1769
 3958TIP3   OH211818   4.862   6.678   1.221  0.0095 -0.3746 -0.4344
 3958TIP3    H111819   4.859   6.729   1.303  1.3569 -1.1150  0.1067
 3958TIP3    H211820   4.950   6.640   1.220 -0.5801 -1.7731 -1.3912
 3959TIP3   OH211821   4.684   7.631   6.295  0.0456  0.5864 -0.1579
 3959TIP3    H111822   4.605   7.682   6.315  0.6944  1.4366  0.2891
 3959TIP3    H211823   4.707   7.589   6.378 -1.3315 -1.7228 -0.8376
 3960TIP3   OH211824   5.164   2.051   4.692 -0.2068  0.0045  0.7497
 3960TIP3    H111825   5.184   2.098   4.772  1.1950  1.9727 -0.6477
 3960TIP3    H211826   5.090   1.995   4.714 -0.0427  0.6945  3.3001
 3961TIP3   OH211827   5.740   7.190   2.947 -0.1783  0.1697  0.7395
 3961TIP3    H111828   5.783   7.109   2.919  1.2556  0.4765  1.9317
 3961TIP3    H211829   5.709   7.230   2.865 -0.8262 -1.4986  0.1206
 3962TIP3   OH211830   2.979   5.233   2.375  0.5025 -0.7978  0.2404
 3962TIP3    H111831   2.983   5.142   2.348 -1.2659 -1.1717  1.1109
 3962TIP3    H211832   3.014   5.234   2.464  0.4621 -0.6251  0.2562
 3963TIP3   OH211833   3.505   2.573   2.285 -0.5714 -0.4580 -1.0458
 3963TIP3    H111834   3.490   2.563   2.190  0.1498  0.8849 -1.3162
 3963TIP3    H211835   3.600   2.568   2.294 -0.5959  0.1590 -0.4769
 3964TIP3   OH211836   2.603   6.680   5.185 -0.3262 -0.2961  0.2437
 3964TIP3    H111837   2.694   6.663   5.161 -0.2971  0.2726 -0.0769
 3964TIP3    H211838   2.552   6.652   5.108 -0.1636  2.4113 -0.9483
 3965TIP3   OH211839   0.347   4.911   1.095 -0.4748 -0.6011 -0.0636
 3965TIP3    H111840   0.313   4.999   1.078  0.0146 -0.5042 -0.5816
 3965TIP3    H211841   0.269   4.859   1.113 -0.6009  0.5963  3.6303
 3966TIP3   OH211842   6.963   7.412   2.324  0.7874  0.1838  0.5186
 3966TIP3    H111843   6.904   7.451   2.389  0.2650 -1.4298  1.0571
 3966TIP3    H211844   6.951   7.466   2.246 -1.1458  0.1363  0.7338
 3967TIP3   OH211845   6.705   2.134   0.012 -0.0472  0.3817 -0.4769
 3967TIP3    H111846   6.697   2.042  -0.014  0.6742 -0.0069  0.6122
 3967TIP3    H211847   6.659   2.139   0.096  1.5791  0.5737  0.4254
 3968TIP3   OH211848   8.088   7.418   0.561 -0.3540 -0.0455 -0.8113
 3968TIP3    H111849   8.090   7.324   0.575 -0.0683 -0.1379 -1.4269
 3968TIP3    H211850   8.006   7.447   0.601 -0.3113 -0.5129 -0.3857
 3969TIP3   OH211851   7.195   5.521   6.227  0.6634 -0.1325  0.5640
 3969TIP3    H111852   7.133   5.540   6.156 -1.0851 -1.4619  1.6495
 3969TIP3    H211853   7.205   5.604   6.273 -1.5106 -0.1655  1.2221
 3970TIP3   OH211854   4.901   5.920   0.339 -0.6356 -0.8178  0.2210
 3970TIP3    H111855   4.817   5.957   0.365  0.1741  0.5847  0.9295
 3970TIP3    H211856   4.916   5.953   0.250  0.1513  0.7803  0.9027
 3971TIP3   OH211857   7.214   3.546   5.688 -0.2263 -0.0756  0.0286
 3971TIP3    H111858   7.187   3.513   5.773  0.1360  1.0753  0.6101
 3971TIP3    H211859   7.252   3.470   5.643 -2.0111 -1.1015  0.1920
 3972TIP3   OH211860   4.757   0.769   1.269  0.1270 -0.3172  0.0673
 3972TIP3    H111861   4.720   0.824   1.338 -0.3179  1.0695 -1.2382
 3972TIP3    H211862   4.707   0.688   1.274 -0.5860  0.1458  0.6993
 3973TIP3   OH211863   1.101   7.746   2.965 -0.1720  0.2452  0.3745
 3973TIP3    H111864   1.169   7.679   2.954  0.7219  0.9931  1.1011
 3973TIP3    H211865   1.064   7.758   2.878  1.1682  0.3487 -0.2049
 3974TIP3   OH211866   0.750   4.051   6.259  0.2095 -0.1827  0.2634
 3974TIP3    H111867   0.671   4.023   6.212 -1.2004  2.8277  0.6065
 3974TIP3    H211868   0.719   4.065   6.349  1.4897 -0.2915  0.7369
 3975TIP3   OH211869   5.060   2.112   6.626  0.1598 -0.1190  0.4668
 3975TIP3    H111870   4.972   2.082   6.646  0.4457 -1.2335  0.1421
 3975TIP3    H211871   5.116   2.037   6.645  0.6938 -0.4908 -2.2003
 3976TIP3   OH211872   3.127   3.756   2.855  0.1559 -0.7025 -0.2911
 3976TIP3    H111873   3.188   3.756   2.929 -1.3830 -0.5021  1.0301
 3976TIP3    H211874   3.148   3.836   2.806 -0.3587  0.4683  1.3178
 3977TIP3   OH211875   7.912   5.465   3.528  0.4749 -0.1169  0.4079
 3977TIP3    H111876   7.821   5.444   3.506  0.9965 -1.1282 -0.8795
 3977TIP3    H211877   7.905   5.534   3.594 -1.2198  0.8596 -0.7220
 3978TIP3   OH211878   1.888   5.661   5.384  0.4357 -0.2623  0.1743
 3978TIP3    H111879   1.873   5.581   5.434  1.0471 -0.0704  0.6838
 3978TIP3    H211880   1.848   5.645   5.299  0.9599 -1.2805  0.1147
 3979TIP3   OH211881   2.818   4.189   2.109 -0.2519  0.6284 -0.2192
 3979TIP3    H111882   2.764   4.185   2.030 -0.2901 -1.8816 -0.1567
 3979TIP3    H211883   2.902   4.151   2.083 -0.5662 -1.1283  1.1053
 3980TIP3   OH211884   5.254   5.955   4.191  0.3426  0.5736  0.3088
 3980TIP3    H111885   5.211   5.889   4.136 -0.1096  0.7045  0.5038
 3980TIP3    H211886   5.347   5.947   4.169  0.0964  1.0576 -0.9351
 3981TIP3   OH211887   1.362   0.346   6.269 -0.2170 -0.4453  0.0105
 3981TIP3    H111888   1.366   0.434   6.305 -1.3098 -0.5795  0.5218
 3981TIP3    H211889   1.406   0.291   6.333 -1.4505 -0.5659  0.7925
 3982TIP3   OH211890   2.031   0.763   5.661 -0.0880  0.0872  0.2754
 3982TIP3    H111891   2.041   0.818   5.584 -0.3235 -1.2428 -0.7424
 3982TIP3    H211892   1.938   0.741   5.663  0.1184 -0.8410  0.2360
 3983TIP3   OH211893   5.312   7.610   4.028  0.2681  0.3840  0.2682
 3983TIP3    H111894   5.229   7.632   3.986  0.3490 -0.5068 -0.3818
 3983TIP3    H211895   5.357   7.694   4.036  0.0379  0.6525 -0.9988
 3984TIP3   OH211896   0.479   3.920   3.986  0.3565 -0.1027 -0.2681
 3984TIP3    H111897   0.470   4.010   4.017 -0.5591 -0.4901  0.6713
 3984TIP3    H211898   0.418   3.870   4.041  1.1808 -1.3664 -0.4541
 3985TIP3   OH211899   3.706   4.091   0.508  0.1088  0.0740  0.2253
 3985TIP3    H111900   3.709   4.178   0.546 -0.2791  0.2257 -0.0789
 3985TIP3    H211901   3.711   4.106   0.413 -1.1512 -0.1504  0.1071
 3986TIP3   OH211902   2.101   0.937   3.599  0.2388  0.1123  0.1629
 3986TIP3    H111903   2.182   0.976   3.566  0.3506 -0.3989 -0.1749
 3986TIP3    H211904   2.101   0.956   3.693  1.1623 -0.5956  0.3188
 3987TIP3   OH211905   2.001   2.732   4.020 -0.2279  0.0081  0.3376
 3987TIP3    H111906   1.923   2.678   4.025 -0.5936  0.5407  0.4935
 3987TIP3    H211907   2.071   2.671   3.996 -1.0453 -0.1298 -1.8878
 3988TIP3   OH211908   2.299   7.784   4.857  0.2590  0.2563 -0.2363
 3988TIP3    H111909   2.236   7.747   4.919  0.2213 -1.3980 -1.1969
 3988TIP3    H211910   2.302   7.878   4.879 -1.9725  0.2666  0.3287
 3989TIP3   OH211911   5.226   0.617   4.289 -1.1382 -0.0582  0.0906
 3989TIP3    H111912   5.241   0.528   4.319 -1.5609  0.2511  1.2667
 3989TIP3    H211913   5.310   0.645   4.253 -0.3898 -0.2089  1.6461
 3990TIP3   OH211914   5.327   7.261   2.519 -0.0455  0.0423  0.6583
 3990TIP3    H111915   5.266   7.295   2.454  1.5985 -0.1689 -1.0912
 3990TIP3    H211916   5.338   7.169   2.496  2.0653  0.4175 -0.0954
 3991TIP3   OH211917   1.893   3.225   1.338 -0.3770  0.5564 -0.1438
 3991TIP3    H111918   1.911   3.270   1.256 -1.2009 -0.8613 -1.1378
 3991TIP3    H211919   1.799   3.209   1.337 -0.4806  0.8981  1.3019
 3992TIP3   OH211920   1.900   5.935   6.511 -0.6702  0.7212  0.2111
 3992TIP3    H111921   1.920   5.946   6.418 -0.8964  0.0548  0.0831
 3992TIP3    H211922   1.955   5.862   6.538 -0.1331  1.3122  0.7581
 3993TIP3   OH211923  -0.009   7.016   0.988 -0.0247  0.1774 -0.1507
 3993TIP3    H111924  -0.018   7.053   0.900 -0.3759  0.4504 -0.0029
 3993TIP3    H211925   0.084   6.997   0.997 -0.1008 -0.5906 -0.8782
 3994TIP3   OH211926   3.633   0.231   1.010 -0.0350 -0.3328  0.1458
 3994TIP3    H111927   3.552   0.273   0.984 -0.5289 -2.0023 -1.2290
 3994TIP3    H211928   3.650   0.263   1.098 -0.7815  2.0412 -0.4908
 3995TIP3   OH211929   0.091   3.836   6.575 -0.2534  0.3768 -0.0132
 3995TIP3    H111930   0.031   3.768   6.605  0.6557 -0.1919  0.5438
 3995TIP3    H211931   0.175   3.791   6.564  0.3852  1.4192  0.4484
 3996TIP3   OH211932   8.304   6.429   4.955  0.1071  0.6604 -0.1416
 3996TIP3    H111933   8.257   6.512   4.967  0.5902  1.0022 -0.5504
 3996TIP3    H211934   8.249   6.364   4.999 -0.1041  1.2486  0.4927
 3997TIP3   OH211935   0.024   5.297   1.605  0.1733  0.7959 -0.0134
 3997TIP3    H111936   0.077   5.270   1.529 -0.8504  0.1682 -0.5135
 3997TIP3    H211937   0.024   5.393   1.600 -0.3909  0.7547 -1.1849
 3998TIP3   OH211938   5.718   0.832   3.423 -0.9190 -0.4712 -0.0654
 3998TIP3    H111939   5.801   0.789   3.443 -0.1350 -0.5664 -3.1465
 3998TIP3    H211940   5.656   0.759   3.412 -1.2350 -0.4365  1.2694
 3999TIP3   OH211941   7.155   3.190   6.307  0.7120 -0.2969 -0.2595
 3999TIP3    H111942   7.113   3.215   6.389  1.4679 -2.9764  1.0570
 3999TIP3    H211943   7.099   3.122   6.270  0.2887  0.9708 -2.1625
 4000TIP3   OH211944   0.349   5.876   4.568  0.0327  0.0254 -0.4636
 4000TIP3    H111945   0.278   5.826   4.528  0.2464 -0.0349 -0.7736
 4000TIP3    H211946   0.392   5.919   4.495 -0.7067  1.4081 -0.1093
 4001TIP3   OH211947   6.340   6.804   0.395  0.0889 -0.1827  0.2767
 4001TIP3    H111948   6.319   6.789   0.487 -0.4319 -0.2792  0.1473
 4001TIP3    H211949   6.255   6.810   0.352  0.3237  0.4669 -0.1060
 4002TIP3   OH211950   8.039   4.235   4.499  0.5428 -0.1824  0.6073
 4002TIP3    H111951   8.076   4.314   4.461 -0.8905  0.3032  0.1665
 4002TIP3    H211952   8.073   4.164   4.445 -1.1385  0.4560 -1.4078
 4003TIP3   OH211953   2.335   7.528   2.043  0.0979 -0.1015 -0.5237
 4003TIP3    H111954   2.243   7.518   2.016 -0.6581  0.0840  1.8092
 4003TIP3    H211955   2.347   7.463   2.111  1.4416  0.4965 -0.1687
 4004TIP3   OH211956   5.299   1.198   4.476 -0.4469  0.1838 -0.1085
 4004TIP3    H111957   5.274   1.118   4.430 -1.0768 -0.5185  1.3878
 4004TIP3    H211958   5.374   1.172   4.529  0.6597  1.1364 -1.1595
 4005TIP3   OH211959   4.443   1.717   2.222 -0.3605 -0.3295  0.1050
 4005TIP3    H111960   4.533   1.719   2.191 -0.5390 -1.0100 -0.4621
 4005TIP3    H211961   4.395   1.670   2.155 -0.9288 -1.0174  0.9739
 4006TIP3   OH211962   4.789   6.427   6.733 -0.4857 -0.1980 -0.2452
 4006TIP3    H111963   4.774   6.486   6.808 -1.2917  0.5941 -1.0052
 4006TIP3    H211964   4.703   6.390   6.714 -0.5612  0.5899 -1.5718
 4007TIP3   OH211965   4.413   7.482   2.766  0.0646 -0.3041  0.0179
 4007TIP3    H111966   4.497   7.518   2.795  0.2035  0.6749 -1.5124
 4007TIP3    H211967   4.397   7.522   2.680 -1.0344 -1.9691 -0.6058
 4008TIP3   OH211968   4.077   0.929   6.200  0.4915  0.0362  0.6405
 4008TIP3    H111969   4.084   0.974   6.116 -1.6621  0.8968  0.8767
 4008TIP3    H211970   4.094   0.837   6.179 -0.5948  0.1389 -0.8709
 4009TIP3   OH211971   3.951   1.105   5.784 -0.3656 -0.1054 -0.0032
 4009TIP3    H111972   3.993   1.181   5.744 -2.7689  2.2739  1.6304
 4009TIP3    H211973   4.006   1.084   5.859  0.0432  0.3328 -0.1770
 4010TIP3   OH211974   2.282   3.798   2.637 -0.6479  0.4458 -0.0285
 4010TIP3    H111975   2.373   3.812   2.664  0.2032  1.1853 -2.8362
 4010TIP3    H211976   2.254   3.884   2.605 -2.3632  0.2229  0.7678
 4011TIP3   OH211977   6.733   2.581   2.539 -0.1582  0.3923 -0.3487
 4011TIP3    H111978   6.655   2.623   2.576  0.1595 -0.7397  1.7092
 4011TIP3    H211979   6.806   2.624   2.584  0.4481  1.2471 -2.0597
 4012TIP3   OH211980   2.624   7.536   2.122  0.3672  0.1568  0.6579
 4012TIP3    H111981   2.585   7.608   2.072 -0.3786 -0.6317  0.0774
 4012TIP3    H211982   2.658   7.476   2.055  0.4419 -0.3238  1.1178
 4013TIP3   OH211983   4.019   1.082   4.429  0.1327  0.4700 -0.7444
 4013TIP3    H111984   4.006   1.103   4.522  1.8469  3.2372 -1.0234
 4013TIP3    H211985   3.931   1.088   4.391 -0.8274 -2.0357  0.8396
 4014TIP3   OH211986   8.216   3.637   3.825 -0.2738 -1.0352 -0.2622
 4014TIP3    H111987   8.274   3.569   3.791  1.3159 -1.2047  2.5453
 4014TIP3    H211988   8.128   3.609   3.797  0.6424 -2.4547 -1.9336
 4015TIP3   OH211989   7.562   7.223   5.712  0.0962  0.4931 -0.7900
 4015TIP3    H111990   7.653   7.200   5.733  0.2419  1.3982 -0.3895
 4015TIP3    H211991   7.554   7.208   5.618  0.1350 -1.3276 -0.5323
 4016TIP3   OH211992   0.624   4.417   4.333 -0.4321 -0.2452 -0.1879
 4016TIP3    H111993   0.627   4.343   4.394 -0.7988 -0.3822 -0.3344
 4016TIP3    H211994   0.712   4.455   4.338 -0.5815  0.0083  0.7437
 4017TIP3   OH211995   1.133   0.393   3.616 -0.0738 -0.2161 -0.3232
 4017TIP3    H111996   1.142   0.308   3.574 -0.4602  0.3923 -1.7209
 4017TIP3    H211997   1.051   0.429   3.580 -0.8876 -0.0081  1.6393
 4018TIP3   OH211998   3.182   2.184   5.785 -0.0465 -0.3604 -0.2437
 4018TIP3    H111999   3.259   2.162   5.838  1.0918  1.0624 -1.2346
 4018TIP3    H212000   3.202   2.148   5.698 -0.8295 -0.5982 -0.3330
 4019TIP3   OH212001   2.136   5.563   2.554  0.1355 -0.0895 -0.5236
 4019TIP3    H112002   2.206   5.520   2.504  1.0898  0.0563  0.6444
 4019TIP3    H212003   2.064   5.500   2.552 -0.2605  0.3336 -2.9298
 4020TIP3   OH212004   6.173   6.103   2.380 -0.4853  0.7366  0.2748
 4020TIP3    H112005   6.105   6.098   2.447 -3.1584 -1.8833 -2.3465
 4020TIP3    H212006   6.225   6.024   2.393 -1.0169  0.2132 -0.6135
 4021TIP3   OH212007   3.805   6.909   4.130  0.0926 -0.1932  0.3906
 4021TIP3    H112008   3.778   6.854   4.203  0.1989  0.3254  0.8254
 4021TIP3    H212009   3.751   6.880   4.057 -0.6738 -0.0876  0.9058
 4022TIP3   OH212010   5.985   2.217   0.975  0.0180  0.0147 -0.0886
 4022TIP3    H112011   5.898   2.178   0.972 -0.5620  1.2835 -0.2461
 4022TIP3    H212012   6.007   2.235   0.884  0.3557 -0.0864 -0.0310
 4023TIP3   OH212013   3.093   1.532   1.798  0.0221  0.3451 -0.0639
 4023TIP3    H112014   3.053   1.494   1.877  0.0471  0.9762  0.2684
 4023TIP3    H212015   3.177   1.487   1.789 -0.3102 -0.2648 -0.1684
 4024TIP3   OH212016   4.973   2.616   2.799  0.4246 -0.1344  0.4389
 4024TIP3    H112017   5.065   2.598   2.783  0.0481  0.2305 -2.6383
 4024TIP3    H212018   4.972   2.701   2.842  1.4926  1.0432 -1.7130
 4025TIP3   OH212019   7.150   1.467   5.283 -0.4870  0.9386  0.2105
 4025TIP3    H112020   7.103   1.416   5.217 -0.8985  0.6022  0.7594
 4025TIP3    H212021   7.129   1.424   5.366  0.1140  1.2939  0.5508
 4026TIP3   OH212022   6.496   2.818   0.229  0.6815  0.0874 -0.4401
 4026TIP3    H112023   6.450   2.758   0.288  0.3991  0.8698  0.1472
 4026TIP3    H212024   6.581   2.776   0.216  0.7083 -0.1646  0.4370
 4027TIP3   OH212025   5.891   7.544   1.730 -0.2383 -0.1302 -0.4574
 4027TIP3    H112026   5.923   7.626   1.767 -0.9455  0.0731 -0.2675
 4027TIP3    H212027   5.799   7.540   1.758 -0.4364 -0.5845 -1.1490
 4028TIP3   OH212028   5.374   4.805   4.689 -0.6977 -0.0460  0.4230
 4028TIP3    H112029   5.331   4.811   4.604  0.4719  0.6509 -0.1345
 4028TIP3    H212030   5.312   4.755   4.743 -2.5151  1.4529 -0.1446
 4029TIP3   OH212031   1.425   1.552   6.375  0.3972  0.2139  0.2354
 4029TIP3    H112032   1.417   1.628   6.319 -0.5233  1.6390  2.1908
 4029TIP3    H212033   1.518   1.529   6.372  0.4318  0.4976 -1.4861
 4030TIP3   OH212034   5.259   6.171   2.290  0.6582  0.8931  0.2058
 4030TIP3    H112035   5.313   6.099   2.323 -1.5633 -0.1831  1.7075
 4030TIP3    H212036   5.241   6.147   2.199  0.9326  0.2004  0.3292
 4031TIP3   OH212037   0.957   1.895   4.736 -0.4817  0.3328 -0.6913
 4031TIP3    H112038   1.000   1.844   4.667 -0.7939  3.0614 -3.1211
 4031TIP3    H212039   1.022   1.962   4.760 -0.5915 -0.2100  1.3608
 4032TIP3   OH212040   0.976   6.259   6.188 -0.2435 -0.2212  0.2700
 4032TIP3    H112041   1.068   6.286   6.187 -0.1179 -0.5973  1.0467
 4032TIP3    H212042   0.935   6.313   6.120  0.3047  0.8549  0.7584
 4033TIP3   OH212043   2.602   3.087   3.507  0.0951 -0.1250  0.4536
 4033TIP3    H112044   2.541   3.160   3.517  0.9653  0.7661 -0.5578
 4033TIP3    H212045   2.636   3.073   3.596 -1.6462 -0.7561  1.0793
 4034TIP3   OH212046   4.720   2.755   6.398 -0.5492 -0.9119  0.3226
 4034TIP3    H112047   4.650   2.690   6.391 -0.5106 -0.9421  0.2251
 4034TIP3    H212048   4.800   2.706   6.380 -0.5967 -0.6616 -0.5982
 4035TIP3   OH212049   5.940   7.652   5.194 -0.2847 -0.3010 -0.6308
 4035TIP3    H112050   6.019   7.678   5.147  0.2698 -0.9755 -0.0809
 4035TIP3    H212051   5.907   7.733   5.233  1.0595 -0.2800  0.5227
 4036TIP3   OH212052   7.731   4.226   1.138 -0.4949  0.4097 -0.6084
 4036TIP3    H112053   7.641   4.194   1.145 -0.3818 -0.0162 -1.1018
 4036TIP3    H212054   7.721   4.318   1.112 -0.8490  1.1530  1.8663
 4037TIP3   OH212055   5.745   2.160   2.649 -0.2586  0.0031 -0.3834
 4037TIP3    H112056   5.827   2.194   2.685  0.0982 -0.6531 -0.5583
 4037TIP3    H212057   5.679   2.180   2.716  0.0663  0.4017 -0.1760
 4038TIP3   OH212058   8.270   2.949   6.615  0.5721  0.5265 -0.4252
 4038TIP3    H112059   8.231   2.884   6.673  1.5606  0.8579  0.6444
 4038TIP3    H212060   8.352   2.974   6.658  0.4981  2.0482 -1.0901
 4039TIP3   OH212061   6.839   6.672   6.093 -0.4341 -0.3285  0.0012
 4039TIP3    H112062   6.869   6.736   6.158 -2.3028  0.7486 -0.1296
 4039TIP3    H212063   6.748   6.697   6.075 -0.8217 -2.2898 -0.9911
 4040TIP3   OH212064   1.002   0.932   4.702 -0.0981 -0.0819 -0.0188
 4040TIP3    H112065   1.092   0.916   4.730  0.0867 -0.4132 -0.7659
 4040TIP3    H212066   1.006   0.932   4.606 -1.1256 -1.5034 -0.0872
 4041TIP3   OH212067   7.863   0.698   2.210  0.1855  0.3612  0.2981
 4041TIP3    H112068   7.917   0.658   2.278  3.0127 -0.3630 -2.1608
 4041TIP3    H212069   7.774   0.668   2.229  0.8760 -0.0767  3.3998
 4042TIP3   OH212070   2.214   0.098   0.679 -0.0441  0.3286  0.1444
 4042TIP3    H112071   2.234   0.189   0.700 -0.3622  0.2677  0.7204
 4042TIP3    H212072   2.276   0.076   0.609  0.8888  0.5927  0.8622
 4043TIP3   OH212073   7.852   5.605   1.226 -0.1425  0.3990  0.0120
 4043TIP3    H112074   7.910   5.672   1.191  0.8624  1.2130  2.9359
 4043TIP3    H212075   7.768   5.650   1.238 -0.0733  0.5315  0.0006
 4044TIP3   OH212076   5.431   2.322   6.050 -0.1956  0.4730  0.1346
 4044TIP3    H112077   5.505   2.322   5.989 -0.6354 -0.8588 -0.4352
 4044TIP3    H212078   5.354   2.323   5.994 -0.6130  0.2377  0.7015
 4045TIP3   OH212079   6.326   0.264   3.007 -0.2582  0.0281 -0.4591
 4045TIP3    H112080   6.315   0.301   2.919 -0.7755 -2.4330 -1.5105
 4045TIP3    H212081   6.236   0.257   3.040 -0.1682 -0.2969 -0.2879
 4046TIP3   OH212082   8.100   5.350   5.011 -0.0978  0.2183 -0.1737
 4046TIP3    H112083   8.070   5.357   4.920 -0.0736  0.0657 -0.1939
 4046TIP3    H212084   8.137   5.262   5.017  1.2306  0.7480 -0.4115
 4047TIP3   OH212085   0.125   5.089   0.804 -0.2690 -0.5360 -0.8341
 4047TIP3    H112086   0.164   5.149   0.868  1.1598  0.2040 -2.3232
 4047TIP3    H212087   0.108   5.010   0.854  0.4215  0.1454  0.5661
 4048TIP3   OH212088   4.916   7.208   3.977  0.1444 -0.0054 -0.3489
 4048TIP3    H112089   4.839   7.166   4.016  0.1977  1.0676  0.9409
 4048TIP3    H212090   4.934   7.283   4.033  0.9989  0.8607 -1.7226
 4049TIP3   OH212091   2.388   6.203   0.009  0.4307  0.0831 -0.1693
 4049TIP3    H112092   2.427   6.140   0.069 -0.6153  0.1588  0.6167
 4049TIP3    H212093   2.387   6.158  -0.076 -0.6475 -1.1265  0.4516
 4050TIP3   OH212094   3.287   6.799   1.222 -0.0604 -0.1986  0.1391
 4050TIP3    H112095   3.345   6.874   1.211  0.7766 -0.6615  1.2444
 4050TIP3    H212096   3.276   6.791   1.317  2.0317 -3.0393  0.2851
 4051TIP3   OH212097   6.658   4.102   3.792 -0.2875 -0.1875 -0.4237
 4051TIP3    H112098   6.751   4.120   3.780 -0.1049 -0.5081  0.4192
 4051TIP3    H212099   6.635   4.144   3.875 -0.9264 -0.0048 -0.6829
 4052TIP3   OH212100   5.525   5.141   5.643  0.1361 -0.2080  0.0066
 4052TIP3    H112101   5.516   5.235   5.657  0.3761  0.0258 -1.2665
 4052TIP3    H212102   5.589   5.113   5.708  0.2384  0.5537  0.2455
 4053TIP3   OH212103   6.479   5.074   5.418  0.2472 -0.2695  0.1393
 4053TIP3    H112104   6.477   4.990   5.464  0.3020 -1.6497 -2.2173
 4053TIP3    H212105   6.534   5.058   5.342  0.0161  1.8539 -0.5327
 4054TIP3   OH212106   2.254   5.314   2.692  0.1582 -0.5968 -0.1362
 4054TIP3    H112107   2.306   5.243   2.729  2.8012  0.1140 -2.1667
 4054TIP3    H212108   2.302   5.341   2.613 -3.0998  0.4608 -1.9657
 4055TIP3   OH212109   5.085   5.387   1.581  0.2084 -0.0761 -0.5109
 4055TIP3    H112110   4.999   5.376   1.621 -0.1831  0.6831 -1.1165
 4055TIP3    H212111   5.144   5.405   1.655  0.0932 -1.7864  0.0339
 4056TIP3   OH212112   1.202   3.670   0.940  0.2974 -0.1910  0.3291
 4056TIP3    H112113   1.264   3.709   0.878  0.3766 -0.8677 -0.0231
 4056TIP3    H212114   1.238   3.584   0.959 -0.6531 -0.6911 -0.0617
 4057TIP3   OH212115   5.153   3.953   4.731 -0.3522 -0.3577 -0.5198
 4057TIP3    H112116   5.119   4.008   4.660  1.4777  1.1108 -0.3439
 4057TIP3    H212117   5.217   4.009   4.775  0.0906 -1.9740  0.9813
 4058TIP3   OH212118   4.127   0.519   3.320 -0.0816 -0.3835  0.4978
 4058TIP3    H112119   4.172   0.546   3.240 -1.7388 -0.4109 -0.4780
 4058TIP3    H212120   4.149   0.427   3.330 -1.5892 -0.9679 -1.1736
 4059TIP3   OH212121   3.653   4.476   6.119 -0.3943 -0.2684 -0.2757
 4059TIP3    H112122   3.577   4.514   6.076 -0.3810 -0.8769 -0.8447
 4059TIP3    H212123   3.649   4.510   6.208 -1.1226 -0.0008 -0.4030
 4060TIP3   OH212124   4.293   2.640   3.755 -0.2178 -0.7061  0.5940
 4060TIP3    H112125   4.201   2.661   3.767 -0.3862 -1.2691  0.3073
 4060TIP3    H212126   4.320   2.689   3.677  0.1498  0.7283  1.5897
 4061TIP3   OH212127   0.142   6.384   2.303 -0.0635 -0.5423 -0.3350
 4061TIP3    H112128   0.149   6.289   2.293 -1.3150 -0.8201  1.0467
 4061TIP3    H212129   0.053   6.404   2.272 -2.0051 -0.6973  4.3104
 4062TIP3   OH212130   5.163   2.395   5.891  0.4066  0.2262 -0.0435
 4062TIP3    H112131   5.130   2.312   5.856 -0.5063  0.8145 -0.6234
 4062TIP3    H212132   5.221   2.428   5.823  2.5615 -0.9634  1.1132
 4063TIP3   OH212133   1.217   4.085   6.687  0.2776 -0.8251  0.1493
 4063TIP3    H112134   1.278   4.141   6.734 -0.8358 -0.6429  1.4292
 4063TIP3    H212135   1.271   4.012   6.657  2.1573  1.6445 -3.1069
 4064TIP3   OH212136   3.450   2.244   2.598 -0.0886  0.4855  0.2180
 4064TIP3    H112137   3.415   2.156   2.587 -2.2338  1.4437 -1.4849
 4064TIP3    H212138   3.483   2.246   2.688  0.0569 -2.0192  0.2863
 4065TIP3   OH212139   0.351   3.298   2.196  0.1885  0.5552  0.3907
 4065TIP3    H112140   0.278   3.357   2.178 -0.0904  0.2357  0.4744
 4065TIP3    H212141   0.352   3.289   2.292  1.2464  1.7115  0.5156
 4066TIP3   OH212142   5.907   5.626   0.399 -0.2720 -0.3536 -0.6323
 4066TIP3    H112143   5.979   5.598   0.343 -0.5652  0.9291 -1.7036
 4066TIP3    H212144   5.950   5.677   0.468 -0.0429 -0.7598 -0.4664
 4067TIP3   OH212145   2.998   4.579   4.324  0.0943 -0.3606 -0.7542
 4067TIP3    H112146   2.953   4.557   4.405 -0.9422 -0.1312 -1.2507
 4067TIP3    H212147   2.951   4.530   4.256  2.2125 -2.2267 -1.0230
 4068TIP3   OH212148   8.186   6.374   5.490  0.8072 -0.4454 -0.4524
 4068TIP3    H112149   8.112   6.430   5.467 -0.4141 -0.6277  2.6238
 4068TIP3    H212150   8.169   6.292   5.443 -0.9557 -0.4508  0.1173
 4069TIP3   OH212151   6.947   2.760   6.678 -0.0094 -0.3470 -0.4704
 4069TIP3    H112152   6.967   2.668   6.657  1.0565 -0.1212 -0.5066
 4069TIP3    H212153   6.905   2.756   6.764 -0.4537 -0.9187 -0.7108
 4070TIP3   OH212154   5.463   1.243   1.758 -0.1510 -0.2085  0.1047
 4070TIP3    H112155   5.499   1.310   1.700 -2.3787  0.6633 -0.4025
 4070TIP3    H212156   5.452   1.288   1.842  0.1845 -0.5234  0.3151
 4071TIP3   OH212157   1.397   0.287   0.107  0.0720  0.0579  0.4308
 4071TIP3    H112158   1.354   0.250   0.184 -0.7261 -1.0639 -0.5037
 4071TIP3    H212159   1.490   0.284   0.127  0.0704 -2.7092  0.3654
 4072TIP3   OH212160   7.337   1.180   6.079  0.4025  0.6865 -0.1830
 4072TIP3    H112161   7.410   1.144   6.130  0.2879  0.6670 -0.0314
 4072TIP3    H212162   7.373   1.257   6.036  0.7121  0.2614 -0.6884
 4073TIP3   OH212163   1.148   0.594   6.734  0.1128  0.2538  0.0786
 4073TIP3    H112164   1.145   0.608   6.829 -0.2569 -0.9032  0.2473
 4073TIP3    H212165   1.197   0.512   6.724  2.0085  1.4389 -0.8544
 4074TIP3   OH212166   4.758   7.616   5.763 -0.2162 -0.4381 -0.3336
 4074TIP3    H112167   4.692   7.547   5.771 -0.2092 -0.4950 -0.7255
 4074TIP3    H212168   4.772   7.647   5.853 -0.2691 -0.9028 -0.1602
 4075TIP3   OH212169   6.496   2.277   0.695 -0.3553  0.3991  0.2763
 4075TIP3    H112170   6.499   2.210   0.764 -0.0734  1.3736  1.2283
 4075TIP3    H212171   6.431   2.340   0.726 -2.6769 -0.7203 -1.8732
 4076TIP3   OH212172   6.450   3.376   4.936 -0.4404  0.3026 -0.1171
 4076TIP3    H112173   6.511   3.445   4.964  0.1502  0.3253 -1.3915
 4076TIP3    H212174   6.444   3.317   5.011  1.4511  0.0989 -0.0904
 4077TIP3   OH212175   0.755   6.644   4.144  0.3311 -0.3081  0.1875
 4077TIP3    H112176   0.718   6.629   4.057 -0.9600  1.2227  0.4263
 4077TIP3    H212177   0.845   6.673   4.127 -0.0336  0.3782 -0.6862
 4078TIP3   OH212178   1.982   5.138   1.973 -0.1892 -0.1614 -0.5212
 4078TIP3    H112179   2.044   5.177   1.911 -2.1368  2.5997 -0.9420
 4078TIP3    H212180   1.938   5.069   1.924  1.0941 -0.7792 -0.8426
 4079TIP3   OH212181   5.770   2.047   0.876 -0.2584  0.3166 -0.2641
 4079TIP3    H112182   5.682   2.054   0.838 -1.1036 -0.7716  1.3447
 4079TIP3    H212183   5.777   1.956   0.902  1.2044  0.4942  0.0387
 4080TIP3   OH212184   3.798   2.058   6.511  0.0887 -0.5022  0.0783
 4080TIP3    H112185   3.740   2.014   6.572 -0.5981  1.0082  0.5788
 4080TIP3    H212186   3.748   2.062   6.429  0.7962 -2.0467 -0.4640
 4081TIP3   OH212187   1.136   2.064   0.926 -0.4348  0.2508  0.0268
 4081TIP3    H112188   1.197   2.107   0.986  0.5277 -1.3258  0.2317
 4081TIP3    H212189   1.079   2.012   0.983 -0.7056  0.1713 -0.3118
 4082TIP3   OH212190   8.063   1.228   1.697 -0.0193  0.5636  0.0053
 4082TIP3    H112191   7.974   1.263   1.704 -0.0865  0.6718 -1.2671
 4082TIP3    H212192   8.052   1.143   1.654  0.3570 -0.1384  1.2246
 4083TIP3   OH212193   7.427   2.882   4.745  0.6630  0.4289 -0.1518
 4083TIP3    H112194   7.468   2.963   4.713 -1.0981  1.9840  1.2780
 4083TIP3    H212195   7.357   2.912   4.802  0.4436 -2.1622  1.0756
 4084TIP3   OH212196   1.038   1.498   1.700 -0.1608 -0.0041 -0.1430
 4084TIP3    H112197   1.042   1.590   1.673  3.4423 -0.1535 -0.6191
 4084TIP3    H212198   1.040   1.501   1.796 -0.1365  0.4162 -0.1554
 4085TIP3   OH212199   5.072   4.807   0.412  0.4877  0.4191 -0.0759
 4085TIP3    H112200   5.165   4.831   0.419  0.3317  1.1326 -0.3191
 4085TIP3    H212201   5.053   4.762   0.494  1.1820 -0.2269 -0.2482
 4086TIP3   OH212202   2.942   3.779   3.299 -0.6022 -0.2003 -0.2728
 4086TIP3    H112203   2.969   3.703   3.351  1.5577 -0.9002 -2.2687
 4086TIP3    H212204   2.847   3.775   3.299 -0.5677 -2.3037  0.5477
 4087TIP3   OH212205   5.751   5.407   5.899 -0.3194 -0.0380 -0.0630
 4087TIP3    H112206   5.741   5.410   5.804  1.0786  1.5657 -0.2093
 4087TIP3    H212207   5.749   5.499   5.926  2.0087 -0.2648  1.1118
 4088TIP3   OH212208   0.414   5.208   1.666  0.3612 -0.1334 -0.0461
 4088TIP3    H112209   0.427   5.189   1.758 -0.0176 -1.1033 -0.1759
 4088TIP3    H212210   0.442   5.128   1.621 -1.0790 -0.3368 -0.6394
 4089TIP3   OH212211   4.203   3.565   1.926 -0.3184 -0.0788 -0.1145
 4089TIP3    H112212   4.269   3.599   1.865  0.8356 -1.2182  0.4581
 4089TIP3    H212213   4.120   3.583   1.883  0.2681  2.3621 -0.3913
 4090TIP3   OH212214   2.374   1.965   4.238  0.1051  0.1192  0.3566
 4090TIP3    H112215   2.292   1.920   4.219 -0.0428  0.5638 -0.0891
 4090TIP3    H212216   2.439   1.895   4.247 -0.4812 -0.2900  1.5883
 4091TIP3   OH212217   7.107   3.067   0.611  0.2963  0.3017 -0.4774
 4091TIP3    H112218   7.185   3.107   0.648  1.0242 -0.0024 -1.6275
 4091TIP3    H212219   7.090   3.116   0.531  0.5382 -0.9307 -1.3196
 4092TIP3   OH212220   8.123   3.304   1.616 -0.5963  0.0992 -0.7474
 4092TIP3    H112221   8.077   3.252   1.682 -0.9593 -0.4433 -1.4184
 4092TIP3    H212222   8.080   3.281   1.533 -0.8883  1.5992 -1.0411
 4093TIP3   OH212223   1.763   2.195   2.966 -0.5574  0.3873  0.0012
 4093TIP3    H112224   1.718   2.276   2.988  0.1066  1.0214 -0.9033
 4093TIP3    H212225   1.692   2.134   2.942 -1.0444  0.7441  0.5182
 4094TIP3   OH212226   4.888   4.799   5.563 -0.1269  0.0302  0.0068
 4094TIP3    H112227   4.854   4.755   5.641  1.1459 -1.6021 -0.2838
 4094TIP3    H212228   4.934   4.729   5.515  0.5001  1.3422 -1.3777
 4095TIP3   OH212229   6.868   0.119   3.385 -0.7525 -0.3411  0.0152
 4095TIP3    H112230   6.936   0.175   3.422 -1.8145 -0.3455  2.1367
 4095TIP3    H212231   6.880   0.035   3.430 -1.2540 -0.7915 -0.6736
 4096TIP3   OH212232   3.952   6.872   6.152 -0.1924 -0.4418  0.0485
 4096TIP3    H112233   3.961   6.807   6.081  3.7775 -0.6867  0.5415
 4096TIP3    H212234   3.949   6.820   6.232 -1.4317 -0.0747  0.2579
 4097TIP3   OH212235   4.483   4.434   0.741 -0.4106  0.2919 -0.0750
 4097TIP3    H112236   4.497   4.443   0.836 -0.3605  0.7832 -0.1287
 4097TIP3    H212237   4.447   4.518   0.714  2.9394  1.5711 -1.0887
 4098TIP3   OH212238   8.030   4.016   6.722  0.5339  0.6586 -0.0217
 4098TIP3    H112239   8.005   3.981   6.637 -0.2482  1.9974 -0.3833
 4098TIP3    H212240   7.978   3.966   6.785  0.9499 -0.1882 -0.3366
 4099TIP3   OH212241   1.111   5.085   5.393  0.4949 -0.3495  0.4725
 4099TIP3    H112242   1.186   5.063   5.338  1.2750 -0.5310  1.5770
 4099TIP3    H212243   1.139   5.163   5.442 -1.0442  1.2700 -1.0356
 4100TIP3   OH212244   5.359   0.057   5.941 -0.5410  0.2061 -0.1131
 4100TIP3    H112245   5.273   0.082   5.907 -1.2356 -0.8236  0.7929
 4100TIP3    H212246   5.343   0.034   6.032 -0.1124 -3.6860 -0.8387
 4101TIP3   OH212247   2.064   0.239   4.612 -0.3870  0.4679 -0.9058
 4101TIP3    H112248   2.141   0.291   4.592  0.7117 -0.1218  1.4970
 4101TIP3    H212249   2.066   0.167   4.549  0.8643  0.6225 -1.0553
 4102TIP3   OH212250   3.649   7.335   4.438 -0.4333  0.4051  0.4826
 4102TIP3    H112251   3.722   7.309   4.496 -0.7403  2.0751  1.6914
 4102TIP3    H212252   3.621   7.420   4.472 -1.9644  0.4996 -0.9194
 4103TIP3   OH212253   1.766   5.063   2.112  0.2213 -0.0204 -0.3881
 4103TIP3    H112254   1.858   5.079   2.091 -0.2777  2.6624 -0.8300
 4103TIP3    H212255   1.760   4.968   2.119  3.1846 -0.2455  0.4868
 4104TIP3   OH212256   7.544   5.154   3.749 -0.3344 -0.0803 -0.6354
 4104TIP3    H112257   7.536   5.249   3.754  1.1008  0.0128  0.9702
 4104TIP3    H212258   7.483   5.128   3.680  0.3896  2.1238 -2.2002
 4105TIP3   OH212259   1.835   0.558   6.490 -0.2821  0.0868  0.1357
 4105TIP3    H112260   1.858   0.535   6.580 -1.4615  0.1168  0.4586
 4105TIP3    H212261   1.820   0.473   6.447 -0.4385  0.0988  0.1667
 4106TIP3   OH212262   1.123   4.024   0.891 -0.3633 -0.3748  0.0632
 4106TIP3    H112263   1.108   4.018   0.796 -0.4562 -0.2905  0.0727
 4106TIP3    H212264   1.040   4.055   0.926 -0.6816 -1.4305  0.2916
 4107TIP3   OH212265   4.370   5.154   6.370 -0.1787 -0.4142  0.0328
 4107TIP3    H112266   4.295   5.135   6.426  0.1745 -1.0545  0.3070
 4107TIP3    H212267   4.446   5.142   6.427  0.1194  0.6242 -0.1346
 4108TIP3   OH212268   0.675   1.395   2.178 -0.0221  0.3035  0.5377
 4108TIP3    H112269   0.713   1.326   2.231 -1.0623  0.2810  1.2869
 4108TIP3    H212270   0.750   1.445   2.145  0.7871 -1.5626 -0.5931
 4109TIP3   OH212271   0.468   3.969   4.404 -0.3520 -0.1074 -0.3333
 4109TIP3    H112272   0.524   4.046   4.415  1.3243 -1.3725  0.5388
 4109TIP3    H212273   0.445   3.942   4.493 -1.8583  0.0086 -0.6587
 4110TIP3   OH212274   7.486   2.551   3.449  0.3878 -0.1979  0.2205
 4110TIP3    H112275   7.567   2.577   3.404 -0.3253  1.0907 -0.3858
 4110TIP3    H212276   7.500   2.577   3.540  1.2773 -1.4821  0.4700
 4111TIP3   OH212277   1.202   4.890   2.224 -0.1066 -0.4984 -0.3397
 4111TIP3    H112278   1.157   4.931   2.297  0.1109 -1.5342  0.3921
 4111TIP3    H212279   1.140   4.825   2.191 -0.4855  0.4390 -1.5505
 4112TIP3   OH212280   0.649   4.463   4.731  0.6898  0.4459 -0.8884
 4112TIP3    H112281   0.733   4.448   4.687 -0.1648  0.1712 -2.5149
 4112TIP3    H212282   0.630   4.556   4.714  0.2556  0.2853 -1.3220
 4113TIP3   OH212283   7.868   2.026   0.823 -0.2095  0.3542  0.1152
 4113TIP3    H112284   7.818   1.968   0.880 -1.0292 -0.1235 -1.0532
 4113TIP3    H212285   7.915   2.084   0.883 -1.5950  0.3443  1.2716
 4114TIP3   OH212286   2.649   3.735   5.368  0.2187 -0.3934 -0.1280
 4114TIP3    H112287   2.561   3.772   5.370 -0.5204 -2.0044 -0.5558
 4114TIP3    H212288   2.699   3.787   5.431 -1.1316  0.3315  0.3904
 4115TIP3   OH212289   2.578   5.844   6.163  0.0421  0.5346  0.1010
 4115TIP3    H112290   2.613   5.832   6.075 -0.2855 -1.0766  0.1524
 4115TIP3    H212291   2.538   5.931   6.161  0.8019  0.8844 -1.0660
 4116TIP3   OH212292   0.889   1.706   6.580  0.3075 -0.0755  0.4488
 4116TIP3    H112293   0.808   1.740   6.618 -0.7434 -2.3309  0.4011
 4116TIP3    H212294   0.944   1.685   6.655 -0.1547 -0.7718  0.6089
 4117TIP3   OH212295   1.431   5.657   6.513  0.4334  0.1154  0.1548
 4117TIP3    H112296   1.463   5.634   6.600  1.7765  0.2738 -0.2797
 4117TIP3    H212297   1.456   5.583   6.457 -2.5842 -1.1512  0.3213
 4118TIP3   OH212298   7.006   6.317   4.188  0.5545 -1.1160 -0.2316
 4118TIP3    H112299   6.980   6.405   4.160  0.7035 -1.7332 -2.4885
 4118TIP3    H212300   6.942   6.295   4.257 -0.0077  0.4017 -0.2109
 4119TIP3   OH212301   6.913   4.453   1.821  0.3004  0.4617 -0.2632
 4119TIP3    H112302   6.831   4.414   1.790  1.5805 -1.0907 -1.8468
 4119TIP3    H212303   6.918   4.537   1.775 -0.4843  0.6758  0.0158
 4120TIP3   OH212304   1.462   3.390   2.749  0.6179  0.5616  0.9730
 4120TIP3    H112305   1.517   3.314   2.769  0.0285  0.1102  0.9114
 4120TIP3    H212306   1.373   3.355   2.746  0.5312  0.8500 -1.1092
 4121TIP3   OH212307   1.948   1.994   1.485 -0.4549  0.5591 -0.3581
 4121TIP3    H112308   2.023   2.001   1.543 -0.5543  0.0810 -0.1696
 4121TIP3    H212309   1.979   1.939   1.412 -0.5142  0.6528 -0.4543
 4122TIP3   OH212310   5.157   1.978   4.060 -0.3883 -1.0529 -0.5942
 4122TIP3    H112311   5.174   2.071   4.051 -0.8846 -1.0605 -1.7255
 4122TIP3    H212312   5.197   1.938   3.983 -2.0539 -1.5178 -1.2505
 4123TIP3   OH212313   0.996   0.699   2.778 -0.0655  0.2099  0.1206
 4123TIP3    H112314   1.075   0.667   2.734 -0.9214 -0.9189 -0.6523
 4123TIP3    H212315   0.924   0.678   2.718 -0.9957  0.9074  0.9504
 4124TIP3   OH212316   0.903   1.187   5.005 -0.1706 -0.3794  0.3355
 4124TIP3    H112317   0.997   1.170   5.000 -0.4509 -1.7458 -1.1370
 4124TIP3    H212318   0.862   1.103   4.982 -1.7202  0.5504 -0.4745
 4125TIP3   OH212319   6.511   6.059   1.156 -0.3862  0.1098 -0.3669
 4125TIP3    H112320   6.524   6.012   1.073 -1.7322 -2.4159  0.7254
 4125TIP3    H212321   6.485   6.147   1.130 -2.8798 -1.1762 -2.7303
 4126TIP3   OH212322   6.085   7.020   2.334  0.3741  0.0325  0.2864
 4126TIP3    H112323   6.095   6.962   2.258  0.2771  0.2732  0.0887
 4126TIP3    H212324   6.170   7.064   2.342  0.8704 -1.0117  1.1745
 4127TIP3   OH212325   1.916   4.006   3.789  0.2407  0.1360 -0.1185
 4127TIP3    H112326   1.899   4.069   3.719 -0.5273 -0.0567 -0.1134
 4127TIP3    H212327   2.007   4.021   3.813  1.0914 -0.9579 -2.3590
 4128TIP3   OH212328   6.504   2.361   5.355 -0.1284  0.4377 -0.0803
 4128TIP3    H112329   6.434   2.316   5.403  0.3275  0.5020  0.6699
 4128TIP3    H212330   6.525   2.303   5.282 -0.5676  0.1407  0.0290
 4129TIP3   OH212331   4.101   0.781   0.976  0.2074 -0.7283 -0.8183
 4129TIP3    H112332   4.168   0.756   0.912  2.3643 -0.7479  1.3405
 4129TIP3    H212333   4.128   0.867   1.008 -0.2279 -1.1660  0.8141
 4130TIP3   OH212334   1.635   5.986   0.532 -0.2097 -0.2329  0.0588
 4130TIP3    H112335   1.572   5.943   0.592  0.2945  0.3003  0.9953
 4130TIP3    H212336   1.581   6.019   0.461 -0.6125 -2.5579 -0.8076
 4131TIP3   OH212337   0.688   1.281   6.759  0.2941 -0.1416  0.1732
 4131TIP3    H112338   0.698   1.342   6.832  0.0593  1.2721 -0.9435
 4131TIP3    H212339   0.774   1.241   6.749  1.0104  1.4824 -0.3347
 4132TIP3   OH212340   3.293   2.721   2.100  0.2305  0.5794 -0.1238
 4132TIP3    H112341   3.251   2.748   2.182  0.2498 -0.7122  0.3317
 4132TIP3    H212342   3.228   2.666   2.057  0.8530 -0.1264 -0.1694
 4133TIP3   OH212343   0.471   6.106   6.047  0.2891  0.4816  0.2538
 4133TIP3    H112344   0.515   6.056   6.116 -0.8957 -0.0742  0.6265
 4133TIP3    H212345   0.467   6.196   6.081 -0.3616  0.1923  0.9453
 4134TIP3   OH212346   4.720   3.529   3.926 -0.2525 -0.3138 -0.5539
 4134TIP3    H112347   4.749   3.461   3.987 -0.8823  1.0753  1.3547
 4134TIP3    H212348   4.783   3.524   3.854  2.1790 -0.2834  1.4219
 4135TIP3   OH212349   0.620   2.483   4.865  0.5550 -0.2062 -0.4664
 4135TIP3    H112350   0.557   2.412   4.854 -0.0584  0.1523  0.5703
 4135TIP3    H212351   0.640   2.511   4.776 -0.0597 -0.9365 -0.8448
 4136TIP3   OH212352   6.283   3.274   6.553  0.6610  0.2322  0.7046
 4136TIP3    H112353   6.221   3.255   6.624  1.6171  0.4156  1.6212
 4136TIP3    H212354   6.264   3.364   6.528 -1.8996 -0.8322 -1.6101
 4137TIP3   OH212355   5.060   1.659   2.719 -0.1586 -0.0059 -0.5223
 4137TIP3    H112356   4.986   1.614   2.677 -1.3580 -1.0730  2.3870
 4137TIP3    H212357   5.136   1.638   2.665 -1.1803 -3.2006 -0.9311
 4138TIP3   OH212358   3.679   0.293   5.816  0.1910 -0.1586  0.0019
 4138TIP3    H112359   3.596   0.276   5.773  0.6404 -0.2232 -0.8715
 4138TIP3    H212360   3.665   0.271   5.908 -0.0389 -2.5737 -0.5628
 4139TIP3   OH212361   4.240   0.353   6.533 -0.4537  0.1703  0.0471
 4139TIP3    H112362   4.282   0.303   6.603 -0.1916 -1.0020 -0.9202
 4139TIP3    H212363   4.177   0.293   6.494 -0.5114  0.7626 -0.8073
 4140TIP3   OH212364   3.411   4.512   5.073 -0.1435 -0.1683  0.7826
 4140TIP3    H112365   3.367   4.432   5.045  0.7872 -1.0569  1.8065
 4140TIP3    H212366   3.381   4.578   5.010 -2.7348 -0.7582  1.2719
 4141TIP3   OH212367   0.441   4.775   1.558 -0.0527  0.2730 -0.7483
 4141TIP3    H112368   0.390   4.835   1.612 -0.8171  0.2513 -1.4279
 4141TIP3    H212369   0.454   4.821   1.475  1.1874  0.3456 -0.5461
 4142TIP3   OH212370   6.497   1.486   5.487  0.3619 -0.3197  0.0670
 4142TIP3    H112371   6.484   1.421   5.417  0.1263  0.9369 -1.0966
 4142TIP3    H212372   6.412   1.490   5.531  0.4499 -0.9796  0.3035
 4143TIP3   OH212373   4.874   7.605   4.029 -0.7313 -0.0612  0.1679
 4143TIP3    H112374   4.836   7.530   4.075  0.3041 -0.9847 -0.4433
 4143TIP3    H212375   4.963   7.612   4.063 -1.2869  1.9389  1.4082
 4144TIP3   OH212376   1.442   2.822   2.377 -0.2548 -0.5006 -0.5708
 4144TIP3    H112377   1.456   2.794   2.467  0.4035 -0.5499 -0.6804
 4144TIP3    H212378   1.477   2.911   2.374 -1.8038  0.1475 -0.3674
 4145TIP3   OH212379   7.849   6.689   4.793  0.1028  0.4580 -0.1548
 4145TIP3    H112380   7.892   6.762   4.838  1.7216  0.0764 -1.0005
 4145TIP3    H212381   7.788   6.731   4.732 -0.7238  1.0133  1.0027
 4146TIP3   OH212382   6.673   7.607   0.167  0.2892 -0.1595  0.0531
 4146TIP3    H112383   6.629   7.524   0.153 -1.5384  0.6783  0.5014
 4146TIP3    H212384   6.695   7.607   0.261 -2.4433  1.0146  0.8077
 4147TIP3   OH212385   3.247   0.269   2.906  0.3594 -0.1864 -0.1835
 4147TIP3    H112386   3.197   0.317   2.840 -1.5428 -2.8159 -0.8463
 4147TIP3    H212387   3.251   0.328   2.981 -2.8161  0.6497 -0.5297
 4148TIP3   OH212388   0.628   1.186   3.430  0.3099  0.5452  0.7115
 4148TIP3    H112389   0.568   1.181   3.504 -0.8923  0.8303 -0.2094
 4148TIP3    H212390   0.692   1.253   3.455 -0.7724  1.4986  1.0338
 4149TIP3   OH212391   4.994   0.119   4.255  0.8170  0.0196  0.5250
 4149TIP3    H112392   4.980   0.031   4.221 -2.6001  0.7498 -0.3999
 4149TIP3    H212393   5.033   0.167   4.183 -0.8970  0.1087 -0.4031
 4150TIP3   OH212394   1.102   1.569   2.613  0.1549  0.8707 -0.3477
 4150TIP3    H112395   1.185   1.549   2.571  0.0862 -0.3942  0.0791
 4150TIP3    H212396   1.038   1.564   2.542  0.1133 -0.7185 -0.2348
 4151TIP3   OH212397   4.475   4.933   2.356 -0.3159 -0.1816  0.1786
 4151TIP3    H112398   4.493   5.012   2.305 -2.2277 -0.4117 -0.9803
 4151TIP3    H212399   4.453   4.965   2.444  0.8928  0.3990  0.2791
 4152TIP3   OH212400   7.258   3.301   1.690  0.5267 -0.1871  0.6898
 4152TIP3    H112401   7.292   3.335   1.773 -1.1129  0.8124  1.0137
 4152TIP3    H212402   7.207   3.374   1.655  0.2187 -1.0157 -0.6172
 4153TIP3   OH212403   4.844   0.366   6.371  0.2825  0.3182 -0.2291
 4153TIP3    H112404   4.795   0.316   6.437 -0.3623  0.8712 -0.2776
 4153TIP3    H212405   4.917   0.404   6.418  0.6554 -0.4899 -0.1433
 4154TIP3   OH212406   5.309   6.576   5.204 -0.2530  0.9236  0.0803
 4154TIP3    H112407   5.345   6.650   5.155 -2.2725  1.3973 -0.7681
 4154TIP3    H212408   5.385   6.520   5.220  0.9365  2.0485 -1.2623
 4155TIP3   OH212409   1.133   0.376   1.462 -1.0147  0.3178  0.0818
 4155TIP3    H112410   1.111   0.293   1.504 -1.8742  0.4404 -0.1204
 4155TIP3    H212411   1.219   0.399   1.499 -0.3983 -1.0310 -0.4291
 4156TIP3   OH212412   8.092   2.800   2.168 -0.8845  0.0982 -0.6357
 4156TIP3    H112413   8.124   2.812   2.257 -2.4558 -1.0659  0.1435
 4156TIP3    H212414   8.028   2.870   2.156  0.3318  1.1201 -1.4069
 4157TIP3   OH212415   2.903   6.772   1.526  0.1607  0.7854  0.2341
 4157TIP3    H112416   2.958   6.818   1.589 -0.1938  0.6093  0.6789
 4157TIP3    H212417   2.816   6.772   1.566 -0.0761  0.6985 -0.2703
 4158TIP3   OH212418   1.434   3.234   0.475 -0.8078 -0.7921  0.5650
 4158TIP3    H112419   1.425   3.329   0.479  0.6029 -0.6621  1.3993
 4158TIP3    H212420   1.344   3.201   0.474 -1.3363  0.5773 -1.3900
 4159TIP3   OH212421   8.115   0.131   3.715  0.2338  0.4735 -0.0317
 4159TIP3    H112422   8.036   0.134   3.663  0.6607 -0.1059 -0.7345
 4159TIP3    H212423   8.177   0.081   3.662  0.1167 -1.7566  1.7690
 4160TIP3   OH212424   1.701   4.803   4.184  0.1787 -0.1938 -0.0865
 4160TIP3    H112425   1.728   4.890   4.214  2.4024 -0.8934  0.1438
 4160TIP3    H212426   1.729   4.800   4.092  3.0673 -1.6725  0.7167
 4161TIP3   OH212427   2.853   5.706   6.014  0.5595  0.2731  0.6296
 4161TIP3    H112428   2.893   5.658   5.941 -2.9198 -1.6093 -0.2127
 4161TIP3    H212429   2.816   5.784   5.973 -1.5089 -0.8489  0.2506
 4162TIP3   OH212430   0.350   1.108   5.236  0.0314  0.2514  0.2022
 4162TIP3    H112431   0.309   1.174   5.180  0.3948 -0.6878 -1.2272
 4162TIP3    H212432   0.410   1.157   5.292 -1.1324  1.3396  0.5314
 4163TIP3   OH212433   7.426   6.921   1.649  0.9139 -0.1283  0.4495
 4163TIP3    H112434   7.397   6.850   1.593 -1.9749  0.2266  1.3303
 4163TIP3    H212435   7.444   6.880   1.734 -3.0999  0.2381  1.7181
 4164TIP3   OH212436   1.874   2.482   3.310  0.4806  0.2907 -0.4779
 4164TIP3    H112437   1.928   2.408   3.281 -1.6642 -2.4212  1.9386
 4164TIP3    H212438   1.907   2.503   3.397 -0.9074  0.0565  0.1217
 4165TIP3   OH212439   2.747   1.907   0.564 -0.7477 -0.0077 -0.1179
 4165TIP3    H112440   2.839   1.927   0.581 -0.3257 -0.0917 -2.0577
 4165TIP3    H212441   2.729   1.950   0.481 -2.2537 -0.6327 -0.1355
 4166TIP3   OH212442   6.014   1.035   6.696 -0.3374  0.4364  0.4326
 4166TIP3    H112443   6.101   1.061   6.726 -0.4722 -0.1468  1.3653
 4166TIP3    H212444   5.979   1.114   6.653  1.3458  0.1352 -1.6514
 4167TIP3   OH212445   2.666   3.210   0.105  0.1525 -0.3319 -0.0770
 4167TIP3    H112446   2.759   3.231   0.116  0.6814 -2.8147  0.9450
 4167TIP3    H212447   2.622   3.258   0.175  0.4558  1.7565 -1.2458
 4168TIP3   OH212448   3.166   4.071   6.600 -0.2028 -0.3008 -0.5158
 4168TIP3    H112449   3.261   4.067   6.605 -0.2777 -1.4211  0.7796
 4168TIP3    H212450   3.142   4.151   6.648  0.0358 -0.8768  0.6007
 4169TIP3   OH212451   2.414   6.696   4.209 -0.4800 -0.1479 -0.3775
 4169TIP3    H112452   2.402   6.752   4.287  2.2015  0.3302 -0.2212
 4169TIP3    H212453   2.408   6.607   4.243  0.0929  0.0555  0.2942
 4170TIP3   OH212454   7.600   4.041   6.746  0.3801  0.9172  0.1454
 4170TIP3    H112455   7.659   4.115   6.762  0.7344  0.9916 -1.3342
 4170TIP3    H212456   7.512   4.076   6.762  0.5872  1.4843  0.0738
 4171TIP3   OH212457   0.482   3.161   4.078 -0.2691  0.1307 -0.1358
 4171TIP3    H112458   0.419   3.228   4.106 -1.3867 -0.5163 -1.0055
 4171TIP3    H212459   0.565   3.207   4.071 -0.9748  1.3909 -0.5132
 4172TIP3   OH212460   7.079   4.565   5.282  0.8461 -0.4341 -0.1429
 4172TIP3    H112461   7.136   4.506   5.332  0.9645 -0.8349 -0.7301
 4172TIP3    H212462   7.001   4.576   5.337  0.3903 -1.9396 -0.4208
 4173TIP3   OH212463   2.859   2.847   6.429 -0.1406 -0.0115  0.6426
 4173TIP3    H112464   2.933   2.813   6.379  0.0490  1.3424 -0.0710
 4173TIP3    H212465   2.839   2.931   6.387 -0.9508  0.4665  1.9102
 4174TIP3   OH212466   4.615   2.618   1.274 -0.4635  0.5273  0.8913
 4174TIP3    H112467   4.577   2.704   1.287 -0.5489  0.6648 -0.1768
 4174TIP3    H212468   4.709   2.632   1.279 -0.4533  0.8049  0.1398
 4175TIP3   OH212469   3.500   0.686   4.198  0.3601  0.5003 -0.6863
 4175TIP3    H112470   3.453   0.608   4.228  1.7138  0.0598  0.4111
 4175TIP3    H212471   3.433   0.741   4.159 -0.9199 -0.4610  0.0713
 4176TIP3   OH212472   5.907   3.234   3.458  0.1301  0.3392  0.3067
 4176TIP3    H112473   5.925   3.280   3.376 -1.1102  0.0334 -0.1655
 4176TIP3    H212474   5.858   3.298   3.510  1.6271  0.8277  1.1777
 4177TIP3   OH212475   7.438   0.270   2.706  0.2397 -0.1711  0.1892
 4177TIP3    H112476   7.375   0.331   2.746  0.3510 -0.2691  0.5146
 4177TIP3    H212477   7.520   0.319   2.704  0.1022  0.0421 -0.4522
 4178TIP3   OH212478   3.622   4.164   3.565  0.5878  0.7339 -0.2859
 4178TIP3    H112479   3.649   4.073   3.557 -0.5364  0.3573 -0.0021
 4178TIP3    H212480   3.536   4.168   3.523  0.2002  1.4404  0.5260
 4179TIP3   OH212481   5.478   6.863   6.745  0.4031  0.3343 -0.4355
 4179TIP3    H112482   5.411   6.876   6.813  0.4024 -0.3695 -0.2949
 4179TIP3    H212483   5.529   6.943   6.746  0.8276  0.0641  0.8735
 4180TIP3   OH212484   1.850   1.818   4.278  0.1781  0.4150 -0.2949
 4180TIP3    H112485   1.790   1.743   4.273 -0.7544  1.1626 -0.6494
 4180TIP3    H212486   1.913   1.802   4.208  0.3774 -0.3660  0.0542
 4181TIP3   OH212487   7.112   3.911   4.940 -0.4376 -0.6991  0.2083
 4181TIP3    H112488   7.130   3.941   4.851  0.0088 -1.0021  0.1896
 4181TIP3    H212489   7.197   3.878   4.972 -0.7781 -1.3906  0.4302
 4182TIP3   OH212490   6.733   6.769   4.234 -0.1393  0.3554  0.1291
 4182TIP3    H112491   6.783   6.786   4.314  1.6117  1.0073 -1.0351
 4182TIP3    H212492   6.714   6.856   4.200  2.1810  0.1829 -1.8991
 4183TIP3   OH212493   4.846   5.633   1.097 -0.4312 -0.2022 -0.1292
 4183TIP3    H112494   4.764   5.587   1.118 -0.2704 -0.1303  0.7004
 4183TIP3    H212495   4.838   5.717   1.143 -1.3989  1.3320 -2.8649
 4184TIP3   OH212496   5.664   3.272   0.067  0.0338 -0.4483 -0.0437
 4184TIP3    H112497   5.760   3.266   0.072  0.0261 -0.1449  0.5722
 4184TIP3    H212498   5.645   3.365   0.081 -0.5413 -0.9559  3.8457
 4185TIP3   OH212499   1.143   6.548   6.239 -0.1583  0.7443 -0.0227
 4185TIP3    H112500   1.154   6.568   6.332 -0.2086  1.2279 -0.1184
 4185TIP3    H212501   1.055   6.578   6.218  0.5039  2.3681 -0.6540
 4186TIP3   OH212502   1.353   2.966   6.780  0.3005 -0.1200 -0.1539
 4186TIP3    H112503   1.403   2.942   6.702  1.2174 -0.4731  0.5255
 4186TIP3    H212504   1.383   3.054   6.802  0.3228 -0.1699  0.0181
 4187TIP3   OH212505   7.605   7.735   3.982  0.1314 -0.3819  0.1355
 4187TIP3    H112506   7.598   7.691   3.898 -1.9468  0.7158 -0.3331
 4187TIP3    H212507   7.555   7.681   4.042 -0.3093  0.0097  0.1285
 4188TIP3   OH212508   0.615   5.449   6.110  0.1789  0.4570 -0.4722
 4188TIP3    H112509   0.689   5.507   6.093  0.3628 -0.0424 -1.4624
 4188TIP3    H212510   0.601   5.456   6.204  2.8846 -1.0426  0.1596
 4189TIP3   OH212511   2.813   0.954   0.189  0.5779 -0.4867 -0.2731
 4189TIP3    H112512   2.834   1.014   0.117  1.6988 -1.6242 -0.9316
 4189TIP3    H212513   2.898   0.926   0.223  0.0650 -0.8786  0.7252
 4190TIP3   OH212514   2.567   6.446   6.565 -0.0954 -0.7490  0.9868
 4190TIP3    H112515   2.624   6.497   6.622 -0.4077  1.0239 -0.1953
 4190TIP3    H212516   2.496   6.506   6.542 -0.3756 -1.6354 -0.6349
 4191TIP3   OH212517   7.050   0.625   6.448  0.2474 -0.6602 -0.3957
 4191TIP3    H112518   7.109   0.557   6.480 -0.8395 -1.2680  0.3739
 4191TIP3    H212519   7.061   0.624   6.353  1.2359 -0.9795 -0.2842
 4192TIP3   OH212520   1.850   3.879   5.968  0.0704 -0.1481  0.2458
 4192TIP3    H112521   1.906   3.862   6.043 -1.8342 -3.1459  1.1423
 4192TIP3    H212522   1.775   3.926   6.004  0.1932  0.4360 -0.2379
 4193TIP3   OH212523   7.534   0.968   1.292 -0.1840  0.1297 -0.1246
 4193TIP3    H112524   7.564   1.051   1.256 -0.5594  0.1355 -0.4315
 4193TIP3    H212525   7.508   0.916   1.215 -1.9403  0.5128  0.1686
 4194TIP3   OH212526   7.255   6.336   3.590 -0.2522  0.0969 -0.3443
 4194TIP3    H112527   7.313   6.274   3.547  2.1353  1.0972  1.2327
 4194TIP3    H212528   7.198   6.282   3.645  1.4713 -0.7621  0.6576
 4195TIP3   OH212529   1.441   6.747   4.914 -0.1114  0.3694 -0.0502
 4195TIP3    H112530   1.525   6.706   4.934 -0.1394  0.1685 -0.3334
 4195TIP3    H212531   1.465   6.830   4.874  0.0106 -0.6262 -2.1775
 4196TIP3   OH212532   3.170   1.278   5.699  0.3910 -0.4983  0.0613
 4196TIP3    H112533   3.175   1.184   5.714 -2.1254 -0.7759 -0.3004
 4196TIP3    H212534   3.081   1.292   5.665  0.3416  2.1345  1.0437
 4197TIP3   OH212535   8.240   0.020   2.538 -0.0177  0.1819  0.2398
 4197TIP3    H112536   8.228   0.086   2.470 -1.1096  1.0798  1.2689
 4197TIP3    H212537   8.179   0.045   2.607 -0.4027 -1.8470  0.7048
 4198TIP3   OH212538   1.595   1.367   1.640  0.1782  0.5585 -0.0705
 4198TIP3    H112539   1.670   1.408   1.684 -0.5543  0.8792  0.9379
 4198TIP3    H212540   1.521   1.425   1.660 -0.2282  0.6128 -1.6112
 4199TIP3   OH212541   7.229   4.860   1.945  0.3869 -0.1621  0.7269
 4199TIP3    H112542   7.209   4.953   1.956  1.3742  0.0186  1.0380
 4199TIP3    H212543   7.236   4.827   2.035  0.1625 -0.5192  0.6151
 4200TIP3   OH212544   0.039   4.763   2.720  0.2073 -0.6571  0.3465
 4200TIP3    H112545  -0.052   4.780   2.695  0.3831 -1.1891 -0.7543
 4200TIP3    H212546   0.037   4.753   2.815 -0.1327  3.9218  1.0350
 4201TIP3   OH212547   6.201   7.741   6.257  0.7632 -0.4948 -0.4157
 4201TIP3    H112548   6.251   7.819   6.281 -0.6480  1.3080 -2.8931
 4201TIP3    H212549   6.237   7.715   6.172 -0.4173 -1.0232 -0.7696
 4202TIP3   OH212550   6.204   4.362   2.328  0.6583 -0.0701  0.3490
 4202TIP3    H112551   6.167   4.402   2.249  0.9829 -0.1914  0.1342
 4202TIP3    H212552   6.161   4.276   2.333  0.0292  0.2647  0.7597
 4203TIP3   OH212553   6.892   5.667   5.081  0.6701 -0.8365  0.1655
 4203TIP3    H112554   6.827   5.735   5.065  0.3075 -1.0991  0.5256
 4203TIP3    H212555   6.959   5.710   5.135  1.6982 -0.0573 -1.6317
 4204TIP3   OH212556   5.825   0.278   4.813 -0.3159  0.4903 -0.2410
 4204TIP3    H112557   5.876   0.359   4.815  1.1523 -0.3580 -1.0200
 4204TIP3    H212558   5.878   0.215   4.863  0.5799 -1.0073 -2.8561
 4205TIP3   OH212559   7.484   5.685   4.648 -0.3002 -0.0910  0.3843
 4205TIP3    H112560   7.440   5.614   4.600  1.1458  0.0390 -1.2464
 4205TIP3    H212561   7.427   5.761   4.634 -0.1641 -0.1755 -0.7572
 4206TIP3   OH212562   0.152   3.094   3.223  0.2176  0.2357  0.1379
 4206TIP3    H112563   0.164   3.078   3.129 -3.5986 -0.3758 -0.4308
 4206TIP3    H212564   0.181   3.013   3.265  0.5619 -0.0722 -0.6636
 4207TIP3   OH212565   4.684   7.471   4.688  0.1082 -0.2527 -0.2478
 4207TIP3    H112566   4.742   7.547   4.700 -1.8035  0.9844  1.9189
 4207TIP3    H212567   4.642   7.486   4.604  1.4006 -0.1353 -0.9013
 4208TIP3   OH212568   7.245   6.049   5.132  0.5586 -0.2917 -0.1825
 4208TIP3    H112569   7.320   5.990   5.143  1.5049  0.9562  0.3631
 4208TIP3    H212570   7.238   6.095   5.216 -1.8194 -1.4545  0.3236
 4209TIP3   OH212571   5.156   1.751   2.102  0.2649 -0.3467  0.5356
 4209TIP3    H112572   5.161   1.826   2.161  0.8414 -0.5467  0.7436
 4209TIP3    H212573   5.075   1.766   2.052 -1.6307 -1.4171  3.0557
 4210TIP3   OH212574   8.196   0.775   3.293  0.2112 -0.3791 -0.7432
 4210TIP3    H112575   8.276   0.815   3.328 -2.1531  3.0168  1.4048
 4210TIP3    H212576   8.175   0.706   3.355 -0.7456  1.6874  1.4046
 4211TIP3   OH212577   7.955   0.864   2.022 -0.6667 -0.2000  0.6006
 4211TIP3    H112578   8.035   0.910   2.048 -0.7778  0.8502 -0.7460
 4211TIP3    H212579   7.927   0.817   2.100 -0.0400  1.3344  1.8016
 4212TIP3   OH212580   2.931   3.006   4.572 -0.3057 -0.4467 -0.5848
 4212TIP3    H112581   2.916   2.936   4.636  1.6314 -0.4453 -0.0610
 4212TIP3    H212582   2.848   3.014   4.526 -1.3504 -1.3868  1.0117
 4213TIP3   OH212583   7.833   1.870   4.571  0.1865 -0.1559 -0.2220
 4213TIP3    H112584   7.860   1.826   4.651  2.3404 -1.0911 -1.3754
 4213TIP3    H212585   7.804   1.799   4.513  1.3972  0.1524 -1.2502
 4214TIP3   OH212586   7.369   5.142   4.873 -0.6260 -0.0156  0.4669
 4214TIP3    H112587   7.433   5.191   4.821 -0.3713 -1.5392 -0.7097
 4214TIP3    H212588   7.348   5.065   4.820 -0.6166 -1.4718  2.4555
 4215TIP3   OH212589   7.460   6.756   0.575  0.2840 -0.4084 -0.2340
 4215TIP3    H112590   7.459   6.692   0.647  0.4242  0.2467  0.3609
 4215TIP3    H212591   7.488   6.705   0.499 -0.4372 -1.2446  0.0410
 4216TIP3   OH212592   2.645   4.644   0.355 -0.2253 -0.5856  0.2569
 4216TIP3    H112593   2.607   4.668   0.270  2.6721  1.7100 -0.5435
 4216TIP3    H212594   2.609   4.708   0.417 -2.3749 -2.2875  0.9118
 4217TIP3   OH212595   6.225   3.468   3.913  0.5829 -0.6928  0.4209
 4217TIP3    H112596   6.234   3.530   3.840 -0.2011 -0.3914  0.5774
 4217TIP3    H212597   6.248   3.520   3.991 -0.6153 -0.4293  0.6161
 4218TIP3   OH212598   1.154   0.838   2.365  0.3280  0.1641  0.3629
 4218TIP3    H112599   1.231   0.818   2.418  0.0121 -1.5537  0.2142
 4218TIP3    H212600   1.156   0.774   2.294 -0.5822  0.8864 -0.3457
 4219TIP3   OH212601   5.318   5.990   3.391 -0.2360  0.5847 -0.1266
 4219TIP3    H112602   5.376   6.024   3.459 -0.7515 -0.7773  1.0357
 4219TIP3    H212603   5.377   5.959   3.322  0.2869  2.0697 -0.3790
 4220TIP3   OH212604   5.933   0.083   4.989  0.3444  0.0073  0.4617
 4220TIP3    H112605   5.894   0.024   5.053  0.6075  0.8068  1.3863
 4220TIP3    H212606   5.968   0.156   5.041  1.1527  0.3576 -0.5302
 4221TIP3   OH212607   0.133   4.603   2.509 -0.3663 -0.1067  0.0273
 4221TIP3    H112608   0.105   4.659   2.581 -0.4979  0.8532 -0.7515
 4221TIP3    H212609   0.162   4.522   2.552  0.6942  0.8799  1.2675
 4222TIP3   OH212610   2.426   4.097   0.670  0.0420  0.7707 -0.0496
 4222TIP3    H112611   2.507   4.141   0.694  1.5055 -2.1803  0.8991
 4222TIP3    H212612   2.439   4.069   0.580 -0.6727  1.7487 -0.4769
 4223TIP3   OH212613   2.651   1.396   5.533 -0.1764  0.4186 -0.0127
 4223TIP3    H112614   2.602   1.364   5.458  1.8135  0.2828 -1.3332
 4223TIP3    H212615   2.693   1.477   5.503  1.2288 -0.0183  0.6566
 4224TIP3   OH212616   5.804   5.732   4.448 -0.1576 -0.0742 -0.1657
 4224TIP3    H112617   5.864   5.807   4.449  0.2388 -0.3758 -0.6204
 4224TIP3    H212618   5.729   5.762   4.397 -0.6967  0.5201  0.9421
 4225TIP3   OH212619   3.302   6.231   2.113  0.0671  0.1547 -0.0774
 4225TIP3    H112620   3.340   6.166   2.172 -2.3076 -2.3215 -1.0658
 4225TIP3    H212621   3.347   6.218   2.030 -0.0327  0.1411 -0.1297
 4226TIP3   OH212622   1.829   7.687   6.217 -0.0691  0.2665  0.3085
 4226TIP3    H112623   1.748   7.710   6.172  0.2495  0.5001 -0.1434
 4226TIP3    H212624   1.801   7.665   6.306 -0.5598  0.9124  0.3186
 4227TIP3   OH212625   6.702   0.825   0.058  0.4011 -0.1461 -0.0565
 4227TIP3    H112626   6.756   0.846  -0.018  1.2247 -0.2394  0.4845
 4227TIP3    H212627   6.758   0.770   0.113 -0.3106 -0.3926  0.4411
 4228TIP3   OH212628   0.691   6.817   4.720 -0.2614 -0.1931  0.2516
 4228TIP3    H112629   0.623   6.883   4.709 -0.9798 -0.6213  1.8275
 4228TIP3    H212630   0.704   6.811   4.815  0.1138 -1.9658  0.1250
 4229TIP3   OH212631   7.254   6.207   3.165  0.8349 -0.6009 -0.1283
 4229TIP3    H112632   7.261   6.116   3.139  1.4663  0.0195 -2.2859
 4229TIP3    H212633   7.317   6.216   3.238 -1.0251 -2.3814  1.8359
 4230TIP3   OH212634   3.180   0.057   4.050  0.7690  0.1260  0.6395
 4230TIP3    H112635   3.096   0.018   4.027  0.4970  0.8445  0.4010
 4230TIP3    H212636   3.193   0.032   4.142  1.4311 -1.9706  0.0130
 4231TIP3   OH212637   5.530   6.621   4.731  0.4760  0.1354 -0.5253
 4231TIP3    H112638   5.552   6.623   4.638  1.4355 -1.2162 -0.3614
 4231TIP3    H212639   5.529   6.713   4.757 -0.4329  0.5695 -1.9918
 4232TIP3   OH212640   0.866   3.389   3.315  0.2702 -0.0864  0.3297
 4232TIP3    H112641   0.909   3.470   3.290  0.4491 -0.5377 -0.8853
 4232TIP3    H212642   0.924   3.350   3.381  0.2888  0.6511  0.7573
 4233TIP3   OH212643   8.254   5.845   3.900 -0.6346  1.3107 -0.5734
 4233TIP3    H112644   8.205   5.775   3.943  1.7525 -0.3611 -0.3657
 4233TIP3    H212645   8.260   5.817   3.809 -2.6211  3.0645 -1.3129
 4234TIP3   OH212646   6.207   4.407   2.870 -0.1554 -1.1556 -0.4242
 4234TIP3    H112647   6.136   4.344   2.887 -0.5052 -0.2758  1.6296
 4234TIP3    H212648   6.177   4.455   2.793 -1.0072 -1.8915 -0.5759
 4235TIP3   OH212649   5.432   1.452   6.009 -0.1753 -0.3817 -0.3005
 4235TIP3    H112650   5.451   1.544   5.992  0.7689 -0.4479  0.3331
 4235TIP3    H212651   5.337   1.451   6.025 -0.3625  0.3173 -1.2364
 4236TIP3   OH212652   2.598   3.158   1.396 -0.1081  0.1508 -0.0470
 4236TIP3    H112653   2.683   3.127   1.365 -1.0317 -1.4235 -1.1445
 4236TIP3    H212654   2.613   3.250   1.417  1.7376  0.0493 -0.7051
 4237TIP3   OH212655   6.504   1.069   5.677 -0.2969  0.0485  0.3649
 4237TIP3    H112656   6.524   1.048   5.768  0.9648  0.8357  0.2955
 4237TIP3    H212657   6.541   1.156   5.664  2.2776 -1.2221 -1.7371
 4238TIP3   OH212658   2.384   1.466   3.839  0.3774 -0.0961  0.6874
 4238TIP3    H112659   2.345   1.548   3.869 -1.6108 -1.4867  2.2496
 4238TIP3    H212660   2.327   1.438   3.766  0.5493 -0.4586  0.6881
 4239TIP3   OH212661   7.662   1.579   2.930  0.5609 -0.1810 -0.2943
 4239TIP3    H112662   7.699   1.490   2.936  0.6551 -0.0872  0.6261
 4239TIP3    H212663   7.731   1.635   2.965 -0.3052  0.0306  1.1592
 4240TIP3   OH212664   3.611   7.749   4.178 -1.0401 -0.2577  0.1567
 4240TIP3    H112665   3.644   7.669   4.220 -1.0386 -0.0968  0.4656
 4240TIP3    H212666   3.552   7.787   4.243 -1.0927 -0.0413 -0.0164
 4241TIP3   OH212667   5.523   3.202   3.407  0.0183 -0.6231  0.0022
 4241TIP3    H112668   5.607   3.202   3.362  0.5903  1.6642  0.9069
 4241TIP3    H212669   5.458   3.189   3.337  0.8359  3.2810 -1.7438
 4242TIP3   OH212670   0.257   2.260   5.222 -0.4786  0.0010 -0.0210
 4242TIP3    H112671   0.223   2.319   5.290 -0.1239  1.8396 -1.3671
 4242TIP3    H212672   0.209   2.178   5.235 -1.7114  0.8916  1.3090
 4243TIP3   OH212673   5.354   5.234   0.849  0.1208  0.3710 -0.3335
 4243TIP3    H112674   5.398   5.306   0.805  0.9689 -0.1776 -0.4173
 4243TIP3    H212675   5.306   5.189   0.780 -1.7320  1.7609 -0.0205
 4244TIP3   OH212676   5.820   1.453   3.493  0.1040  0.0535 -0.0196
 4244TIP3    H112677   5.796   1.502   3.414  1.6436  0.1750 -0.4319
 4244TIP3    H212678   5.894   1.399   3.467  0.7526  0.2110  1.3783
 4245TIP3   OH212679   6.212   2.264   3.740 -0.0036 -0.5760 -0.3285
 4245TIP3    H112680   6.302   2.262   3.707  1.0053 -3.7358  2.0782
 4245TIP3    H212681   6.208   2.342   3.795  1.5399 -0.7466  0.0793
 4246TIP3   OH212682   3.528   4.889   4.161 -0.0264 -0.3174 -0.0976
 4246TIP3    H112683   3.556   4.886   4.252 -1.4574 -2.4479  0.3355
 4246TIP3    H212684   3.439   4.926   4.164  0.2799  0.4979 -0.7452
 4247TIP3   OH212685   7.811   0.272   0.647 -0.1476 -0.0715  0.4855
 4247TIP3    H112686   7.788   0.257   0.739  1.7358  0.3492  1.0737
 4247TIP3    H212687   7.892   0.223   0.634 -0.6193 -0.4867 -1.1086
 4248TIP3   OH212688   7.324   6.174   1.818  0.3643  0.6396  0.1415
 4248TIP3    H112689   7.358   6.263   1.816 -1.7437  1.4923 -0.5080
 4248TIP3    H212690   7.233   6.182   1.788  0.1200 -1.7313  0.0364
 4249TIP3   OH212691   7.904   5.995   0.190  0.3187 -0.1613 -0.4143
 4249TIP3    H112692   7.915   6.079   0.146  0.8132  0.1102  0.2085
 4249TIP3    H212693   7.828   6.007   0.246  0.5997 -0.0101 -0.0617
 4250TIP3   OH212694   3.395   2.589   3.798  0.1360  0.0752 -0.0966
 4250TIP3    H112695   3.398   2.558   3.889  3.2922  1.6576  0.4767
 4250TIP3    H212696   3.323   2.653   3.797 -0.4318 -0.5106  1.0666
 4251TIP3   OH212697   8.075   1.846   1.884  0.5900  0.4038 -0.1415
 4251TIP3    H112698   8.158   1.825   1.927 -0.6271  0.2689  2.3362
 4251TIP3    H212699   8.046   1.926   1.927 -0.3479  0.7286 -1.3279
 4252TIP3   OH212700   4.146   3.006   4.469  0.4752  0.1110 -0.4739
 4252TIP3    H112701   4.147   3.101   4.466  0.0991  0.1621 -3.9614
 4252TIP3    H212702   4.054   2.982   4.468  0.5437 -0.1982 -1.4402
 4253TIP3   OH212703   1.857   5.635   2.720  0.4204  0.5323  0.4727
 4253TIP3    H112704   1.948   5.661   2.710  0.6178 -0.0866  0.6033
 4253TIP3    H212705   1.822   5.693   2.788  1.6723 -1.4231  2.9818
 4254TIP3   OH212706   1.038   6.708   4.163 -0.0347 -0.3707  0.8254
 4254TIP3    H112707   1.077   6.700   4.250 -0.8455 -1.9543  1.0702
 4254TIP3    H212708   1.106   6.680   4.103  1.0168  2.0471  0.7845
 4255TIP3   OH212709   5.834   5.107   5.369 -0.0801  0.0983 -0.0472
 4255TIP3    H112710   5.754   5.132   5.415  0.2762  0.2867  0.4873
 4255TIP3    H212711   5.883   5.189   5.360 -1.0284  0.4613 -2.5953
 4256TIP3   OH212712   8.331   6.640   2.933 -0.6759  0.8897 -0.7593
 4256TIP3    H112713   8.292   6.657   2.847  0.1738  0.7034 -1.1982
 4256TIP3    H212714   8.290   6.703   2.992  0.5972  2.8310 -1.8279
 4257TIP3   OH212715   6.271   7.584   5.786 -0.0870 -0.0850  0.5997
 4257TIP3    H112716   6.310   7.511   5.738 -1.0780  0.2650 -0.7792
 4257TIP3    H212717   6.207   7.544   5.844 -0.9582 -0.3075 -0.4826
 4258TIP3   OH212718   3.288   3.687   5.894 -0.1240 -0.0093  0.2911
 4258TIP3    H112719   3.276   3.772   5.936 -1.9914 -0.6255  1.1138
 4258TIP3    H212720   3.377   3.690   5.860  0.5654  1.5107  2.0367
 4259TIP3   OH212721   1.674   2.919   5.961  0.0932  0.1905 -0.4020
 4259TIP3    H112722   1.761   2.958   5.953  0.7517 -0.8019  1.4011
 4259TIP3    H212723   1.648   2.936   6.052 -0.4031 -1.8784 -0.1135
 4260TIP3   OH212724   6.896   6.841   2.702  0.2253  0.7286  0.3512
 4260TIP3    H112725   6.972   6.898   2.704  0.9956 -0.1550 -1.4235
 4260TIP3    H212726   6.928   6.756   2.732  0.1937  0.1393 -1.1679
 4261TIP3   OH212727   6.634   2.180   4.847  0.3658 -0.3323 -0.2855
 4261TIP3    H112728   6.562   2.199   4.786  0.8406  1.5439 -0.3190
 4261TIP3    H212729   6.704   2.146   4.791  0.6726  1.0462 -0.7948
 4262TIP3   OH212730   2.108   2.217   4.706 -0.1774  0.0041 -0.3283
 4262TIP3    H112731   2.151   2.263   4.778  0.0677  2.7179 -2.0464
 4262TIP3    H212732   2.156   2.135   4.696 -0.8327 -0.9484  3.1346
 4263TIP3   OH212733   8.087   1.435   0.533  0.2336  0.1884 -0.5825
 4263TIP3    H112734   8.176   1.439   0.569  0.3653 -0.1288 -0.8674
 4263TIP3    H212735   8.066   1.526   0.511  0.6195  0.2199 -0.8261
 4264TIP3   OH212736   1.893   6.636   5.074  0.3091  0.0796 -0.3039
 4264TIP3    H112737   1.977   6.667   5.107 -1.1688  1.9851  2.0095
 4264TIP3    H212738   1.885   6.547   5.109  1.7365 -0.5213 -1.4074
 4265TIP3   OH212739   4.626   3.786   5.494  0.1756  0.1229 -0.0978
 4265TIP3    H112740   4.566   3.860   5.490  0.7027  0.7299  2.0876
 4265TIP3    H212741   4.576   3.717   5.537  0.5668  0.1355  0.3800
 4266TIP3   OH212742   0.796   6.207   4.369 -0.1027  0.0901 -0.0242
 4266TIP3    H112743   0.713   6.252   4.354 -0.7025 -1.3056 -1.1405
 4266TIP3    H212744   0.777   6.142   4.436 -0.9960 -2.7594 -2.8154
 4267TIP3   OH212745   2.386   4.800   5.026  0.4998  0.1849  0.4026
 4267TIP3    H112746   2.366   4.779   4.935  0.0931  1.6966  0.1107
 4267TIP3    H212747   2.475   4.768   5.039  0.0949 -1.2416 -0.1050
 4268TIP3   OH212748   4.029   0.257   4.611  0.1021  0.5894  0.0822
 4268TIP3    H112749   3.957   0.194   4.622  0.2411  0.9016  4.2926
 4268TIP3    H212750   4.108   0.206   4.625  0.3098  1.2820  1.6378
 4269TIP3   OH212751   1.575   0.633   1.697 -0.4143 -0.2113 -0.6656
 4269TIP3    H112752   1.518   0.626   1.773 -1.6891 -1.1977 -1.6665
 4269TIP3    H212753   1.586   0.727   1.684  1.5806  0.0353  1.9440
 4270TIP3   OH212754   1.798   5.275   2.962  0.1474 -0.4226 -0.1088
 4270TIP3    H112755   1.822   5.366   2.977 -0.1395 -0.2169 -0.8400
 4270TIP3    H212756   1.881   5.226   2.970  0.0157 -0.3668  2.1377
 4271TIP3   OH212757   0.514   7.285   0.693  0.5902  0.2052 -0.3864
 4271TIP3    H112758   0.501   7.192   0.677 -1.3581  0.4837 -0.6757
 4271TIP3    H212759   0.575   7.312   0.625  2.7227 -1.1889  0.8670
 4272TIP3   OH212760   2.812   7.430   1.036  0.1516  0.2826 -0.0774
 4272TIP3    H112761   2.896   7.417   1.080  0.4552  1.2743 -0.3481
 4272TIP3    H212762   2.777   7.511   1.074 -0.4552  0.1388 -0.3222
 4273TIP3   OH212763   4.175   0.621   6.163 -0.0277 -0.4667  0.2040
 4273TIP3    H112764   4.122   0.548   6.196  0.4612 -0.0621  1.9908
 4273TIP3    H212765   4.255   0.617   6.215  0.6359  0.4396 -0.7377
 4274TIP3   OH212766   3.153   1.860   0.484 -0.2887 -0.6080  0.5765
 4274TIP3    H112767   3.217   1.930   0.470 -0.5865 -0.5170 -0.3850
 4274TIP3    H212768   3.113   1.882   0.568 -1.6845  1.4640 -0.5356
 4275TIP3   OH212769   0.006   1.380   2.263 -0.0391  0.8357  0.2024
 4275TIP3    H112770  -0.068   1.361   2.205  0.3090 -1.4284  0.3996
 4275TIP3    H212771   0.072   1.419   2.205 -0.0461 -0.5356 -0.7783
 4276TIP3   OH212772   6.315   0.750   1.839  0.1163 -0.2791 -0.0778
 4276TIP3    H112773   6.234   0.800   1.847 -0.3560 -0.8015 -1.2521
 4276TIP3    H212774   6.286   0.659   1.831  0.8769 -0.5793  0.4914
 4277TIP3   OH212775   7.658   6.562   4.122  0.0038 -0.3383 -0.8604
 4277TIP3    H112776   7.747   6.591   4.098 -0.4036  2.1649  0.3208
 4277TIP3    H212777   7.662   6.549   4.217 -0.3947 -2.3969 -1.0755
 4278TIP3   OH212778   6.782   5.289   1.442 -0.2862 -0.5895  0.0297
 4278TIP3    H112779   6.831   5.207   1.440 -0.0245 -0.4225 -1.0751
 4278TIP3    H212780   6.697   5.266   1.481  0.5301 -0.9427  1.6808
 4279TIP3   OH212781   4.016   3.718   0.944 -0.6206 -0.1721 -0.1918
 4279TIP3    H112782   4.068   3.723   0.864 -1.7369  3.5242 -0.9027
 4279TIP3    H212783   4.081   3.715   1.015  0.4178 -0.9414 -1.1383
 4280TIP3   OH212784   0.468   4.675   1.864 -0.0285 -0.2912  0.0763
 4280TIP3    H112785   0.397   4.695   1.926 -1.2341 -1.0063 -1.0156
 4280TIP3    H212786   0.479   4.756   1.814  1.9042  0.7667  2.0337
 4281TIP3   OH212787   7.906   5.298   2.622  0.7386 -0.4593 -0.0084
 4281TIP3    H112788   7.987   5.313   2.671  1.5995 -0.5970 -1.3429
 4281TIP3    H212789   7.912   5.357   2.546 -0.9493  0.3695  0.4423
 4282TIP3   OH212790   2.235   7.075   3.502  0.1219  0.7291  0.2995
 4282TIP3    H112791   2.241   7.088   3.408 -0.9754  0.9329  0.2493
 4282TIP3    H212792   2.320   7.105   3.536  0.5228  0.6487 -0.6130
 4283TIP3   OH212793   6.507   4.565   2.295 -0.4806  0.1329 -0.2353
 4283TIP3    H112794   6.601   4.568   2.275 -0.1154  0.9960  1.4345
 4283TIP3    H212795   6.466   4.617   2.226  0.0825 -1.3316 -1.7428
 4284TIP3   OH212796   7.255   1.262   0.482  0.6737 -0.5228 -0.3084
 4284TIP3    H112797   7.341   1.283   0.446  1.3121 -0.6049  1.0840
 4284TIP3    H212798   7.257   1.297   0.571 -0.2177 -1.7770  0.2400
 4285TIP3   OH212799   6.028   3.524   1.869  0.4042 -0.1198 -0.4392
 4285TIP3    H112800   5.975   3.603   1.860  0.3765  0.0441  1.0071
 4285TIP3    H212801   5.979   3.469   1.931  1.0593 -0.7133 -0.4384
 4286TIP3   OH212802   2.012   4.814   0.555 -0.0880  0.2167 -0.0450
 4286TIP3    H112803   2.072   4.870   0.604 -0.0614 -1.1848  1.5798
 4286TIP3    H212804   2.036   4.725   0.579 -0.9974 -0.4825 -1.5482
 4287TIP3   OH212805   8.020   6.987   5.841  0.7205  0.1860 -0.5168
 4287TIP3    H112806   7.966   7.062   5.814 -0.0675  0.1531  0.8693
 4287TIP3    H212807   7.961   6.932   5.892  1.9605 -0.0753  0.6873
 4288TIP3   OH212808   2.863   6.983   5.517  0.1704 -0.1279 -0.0548
 4288TIP3    H112809   2.777   7.013   5.490 -0.0215 -1.8249 -1.5564
 4288TIP3    H212810   2.925   7.036   5.467 -0.0050  0.6199  0.5072
 4289TIP3   OH212811   2.630   1.296   0.120  0.6042  0.6725  0.2658
 4289TIP3    H112812   2.694   1.362   0.146  0.4321  0.6042  0.8820
 4289TIP3    H212813   2.610   1.249   0.201  0.0479  0.4553  0.0087
 4290TIP3   OH212814   3.743   2.977   3.779 -0.6027  0.6399 -0.3246
 4290TIP3    H112815   3.790   2.899   3.806 -0.1603  1.1373  0.3784
 4290TIP3    H212816   3.798   3.016   3.711 -0.6579  0.5226 -0.4373
 4291TIP3   OH212817   4.207   2.493   1.078  0.2428  0.4504  0.3921
 4291TIP3    H112818   4.302   2.496   1.089  0.2620  1.8634  0.0779
 4291TIP3    H212819   4.188   2.564   1.017 -1.2255  1.6489  2.1329
 4292TIP3   OH212820   3.151   6.002   4.331 -0.2847 -1.0376 -0.2452
 4292TIP3    H112821   3.209   5.933   4.299 -0.4738 -0.5982 -1.6030
 4292TIP3    H212822   3.113   6.040   4.252  0.8334  1.4989  0.3421
 4293TIP3   OH212823   7.874   2.016   3.265  0.3834  0.6289 -0.3689
 4293TIP3    H112824   7.794   2.062   3.291  0.8506  1.7663 -0.8585
 4293TIP3    H212825   7.927   2.012   3.345 -0.2981 -0.4517  0.0431
 4294TIP3   OH212826   0.767   0.936   3.222  0.4011 -0.1002 -0.3115
 4294TIP3    H112827   0.741   0.844   3.216  1.2868 -0.3488 -0.4053
 4294TIP3    H212828   0.861   0.934   3.240  0.2344  0.7792  0.7754
 4295TIP3   OH212829   0.714   5.232   3.331 -0.1697 -0.5171  0.4142
 4295TIP3    H112830   0.654   5.262   3.398  1.4521  1.1552  1.2129
 4295TIP3    H212831   0.689   5.282   3.253 -1.2491 -1.5359  0.0813
 4296TIP3   OH212832   2.706   7.685   2.802  0.2277  0.1048  0.0746
 4296TIP3    H112833   2.651   7.607   2.789  1.5024 -1.2036  2.0190
 4296TIP3    H212834   2.742   7.704   2.716 -1.2249 -0.5576 -0.7232
 4297TIP3   OH212835   2.721   0.900   1.894 -0.1151 -0.4677  0.7175
 4297TIP3    H112836   2.768   0.874   1.814  0.4426 -0.4270  1.0257
 4297TIP3    H212837   2.700   0.817   1.937 -0.9394 -0.5166  0.2433
 4298TIP3   OH212838   0.183   1.069   2.860  0.0513 -0.1487  0.3360
 4298TIP3    H112839   0.144   1.157   2.860  0.5598  0.1112 -1.4385
 4298TIP3    H212840   0.138   1.022   2.790  0.7978 -0.8305  0.2990
 4299TIP3   OH212841   2.930   0.128   5.550 -0.4523 -0.3164 -0.1168
 4299TIP3    H112842   3.016   0.086   5.544  1.1971  2.7943 -0.0974
 4299TIP3    H212843   2.906   0.118   5.642  0.3167 -0.4458  0.0845
 4300TIP3   OH212844   3.341   0.171   0.521  0.1131 -0.0000 -0.9946
 4300TIP3    H112845   3.352   0.255   0.476 -0.0012 -0.1930 -1.3899
 4300TIP3    H212846   3.421   0.160   0.572 -0.2193  0.7288 -0.3106
 4301TIP3   OH212847   8.081   4.586   2.371  0.4264  0.7908 -0.6302
 4301TIP3    H112848   8.059   4.584   2.464 -0.7057  0.2748 -0.8850
 4301TIP3    H212849   8.003   4.550   2.327  0.9129  1.0819 -1.7784
 4302TIP3   OH212850   6.334   3.561   1.439  0.5164 -0.0015  0.1561
 4302TIP3    H112851   6.269   3.511   1.390  0.9069 -0.2695 -0.0908
 4302TIP3    H212852   6.378   3.496   1.494  1.0584  0.0594 -0.1988
 4303TIP3   OH212853   0.182   3.383   5.861  0.5221 -0.3470  1.4141
 4303TIP3    H112854   0.246   3.349   5.924  2.3549  0.2500 -0.0076
 4303TIP3    H212855   0.229   3.454   5.816 -0.2673 -1.4478 -1.3463
 4304TIP3   OH212856   7.375   4.025   3.650 -0.4529 -0.1073 -0.0546
 4304TIP3    H112857   7.312   3.956   3.665 -1.5978  0.7480 -0.7293
 4304TIP3    H212858   7.385   4.029   3.555  1.3929 -0.8655  0.0514
 4305TIP3   OH212859   7.440   3.761   0.309 -0.0216  0.2583  0.2239
 4305TIP3    H112860   7.531   3.787   0.317  0.0995 -0.3356  0.9280
 4305TIP3    H212861   7.439   3.669   0.334 -0.5806 -0.1647 -1.2769
 4306TIP3   OH212862   2.766   0.476   5.707 -0.2538  0.2421  0.1821
 4306TIP3    H112863   2.709   0.403   5.683  1.1950 -0.5752 -0.9180
 4306TIP3    H212864   2.851   0.436   5.725  0.4947  1.6184 -0.1137
 4307TIP3   OH212865   2.019   3.107   1.014 -0.2728  0.5305 -0.2312
 4307TIP3    H112866   2.059   3.071   0.935  1.6725  1.0042  0.4658
 4307TIP3    H212867   2.008   3.032   1.072 -1.6585  0.1908 -0.8974
 4308TIP3   OH212868   3.224   0.474   2.457  0.2775  0.7100  0.1726
 4308TIP3    H112869   3.150   0.423   2.425 -0.6431  1.6918  0.6938
 4308TIP3    H212870   3.299   0.414   2.450 -0.2518  0.1882 -1.8052
 4309TIP3   OH212871   7.309   0.883   4.716 -0.0836 -0.6499  0.2338
 4309TIP3    H112872   7.375   0.915   4.778 -0.6887  2.8035 -0.6936
 4309TIP3    H212873   7.225   0.902   4.758 -0.4821 -0.6437 -0.5496
 4310TIP3   OH212874   4.919   3.798   1.088 -0.2844  0.0161  0.6693
 4310TIP3    H112875   4.886   3.862   1.025 -0.0389  0.6785  1.2048
 4310TIP3    H212876   5.007   3.828   1.109  1.0073 -2.0535 -1.2133
 4311TIP3   OH212877   6.096   1.945   0.662 -0.4215  0.0520 -0.3960
 4311TIP3    H112878   6.186   1.925   0.637  0.7443  0.8280  2.6736
 4311TIP3    H212879   6.042   1.888   0.608  2.0449 -2.2168 -0.6575
 4312TIP3   OH212880   4.951   3.513   5.966  0.0256 -0.1366  0.1200
 4312TIP3    H112881   4.927   3.457   6.040  0.1465 -0.0958  0.1900
 4312TIP3    H212882   4.868   3.548   5.934  0.0602  0.7312  0.9367
 4313TIP3   OH212883   6.164   1.573   0.143 -0.1451 -0.0877 -0.0225
 4313TIP3    H112884   6.148   1.621   0.224 -0.4828 -1.2502  0.6234
 4313TIP3    H212885   6.234   1.512   0.164 -0.6595 -0.8334 -0.4135
 4314TIP3   OH212886   3.545   2.185   5.090  0.4492 -0.2607  0.0824
 4314TIP3    H112887   3.457   2.150   5.107  0.4091 -0.8603 -1.2657
 4314TIP3    H212888   3.603   2.110   5.098  1.1106  0.4200  2.6106
 4315TIP3   OH212889   2.346   6.194   4.855 -0.1411 -0.1159  0.0437
 4315TIP3    H112890   2.347   6.138   4.933  1.3518 -0.4953 -0.2095
 4315TIP3    H212891   2.386   6.276   4.884  1.6436 -0.7133 -0.5907
 4316TIP3   OH212892   5.735   1.640   6.378 -0.2344 -0.5281  0.2322
 4316TIP3    H112893   5.701   1.631   6.467 -0.0396 -1.0984  0.2575
 4316TIP3    H212894   5.735   1.734   6.361 -0.7001 -0.4441  0.6673
 4317TIP3   OH212895   4.163   2.557   1.907  0.2907  0.4475 -0.0635
 4317TIP3    H112896   4.145   2.587   1.818  0.1605 -0.5112 -0.3724
 4317TIP3    H212897   4.158   2.462   1.901 -1.3950  0.4025  1.3192
 4318TIP3   OH212898   0.253   3.344   0.492  0.6042 -0.1933 -0.5945
 4318TIP3    H112899   0.256   3.416   0.430 -2.4094  1.1283  0.6552
 4318TIP3    H212900   0.338   3.348   0.537  0.4984  2.6211 -0.5069
 4319TIP3   OH212901   1.663   1.081   2.188 -0.0874  0.3553 -0.1082
 4319TIP3    H112902   1.702   1.110   2.105 -1.1951 -0.2098 -0.8482
 4319TIP3    H212903   1.719   1.009   2.217  0.2198  0.4574 -0.4428
 4320TIP3   OH212904   4.448   7.320   4.569  0.1854  0.7223  0.3885
 4320TIP3    H112905   4.508   7.250   4.595  0.3517  0.4924 -0.5482
 4320TIP3    H212906   4.429   7.368   4.649  1.5620  0.7507  0.7150
 4321TIP3   OH212907   0.144   7.702   2.386  0.4600  0.1803  0.4665
 4321TIP3    H112908   0.050   7.706   2.371  0.4718  0.8787  0.5484
 4321TIP3    H212909   0.166   7.786   2.425  1.0956 -0.0390  0.5997
 4322TIP3   OH212910   8.257   5.929   1.465  0.1074 -0.1571 -0.0676
 4322TIP3    H112911   8.338   5.979   1.475  0.0890 -0.1762  0.1850
 4322TIP3    H212912   8.226   5.915   1.555 -1.2339  1.5610 -0.2214
 4323TIP3   OH212913   5.480   6.723   2.195  0.3960 -0.1427  0.1696
 4323TIP3    H112914   5.507   6.809   2.164  1.1808 -0.3147  0.3508
 4323TIP3    H212915   5.384   6.725   2.192  0.4108  0.7051  0.1066
 4324TIP3   OH212916   5.168   7.159   4.630  0.3269 -0.2821 -0.1534
 4324TIP3    H112917   5.084   7.188   4.666  0.7309  0.4868  0.1954
 4324TIP3    H212918   5.146   7.085   4.574 -0.6639  0.3010 -0.5567
 4325TIP3   OH212919   4.229   1.568   6.581  0.3383  0.2265 -0.4430
 4325TIP3    H112920   4.277   1.615   6.512 -0.6223  1.6589 -0.1720
 4325TIP3    H212921   4.195   1.490   6.538  0.3646  0.7409 -1.4208
 4326TIP3   OH212922   3.997   5.240   5.114 -0.4282 -0.2101 -0.0746
 4326TIP3    H112923   3.907   5.250   5.144 -0.5690 -0.0608 -0.5417
 4326TIP3    H212924   4.010   5.145   5.108 -0.7802 -0.2183 -0.6845
 4327TIP3   OH212925   6.168   4.743   5.361 -0.0033  0.3552  0.4404
 4327TIP3    H112926   6.078   4.712   5.348 -0.0737  0.7873 -0.1608
 4327TIP3    H212927   6.159   4.837   5.373  0.0925  0.0830  3.3916
 4328TIP3   OH212928   5.477   0.044   2.219  0.2792 -0.6352 -0.0006
 4328TIP3    H112929   5.476   0.117   2.156 -1.1628  1.1384  1.9555
 4328TIP3    H212930   5.559  -0.002   2.200  1.7383  2.0279 -0.7594
 4329TIP3   OH212931   3.542   1.991   4.516 -0.0040  0.3749 -0.4175
 4329TIP3    H112932   3.620   2.046   4.516  1.7299 -1.8025  2.4935
 4329TIP3    H212933   3.554   1.933   4.440  1.2205  0.1256 -0.0603
 4330TIP3   OH212934   4.758   1.719   1.533  0.0076 -0.0699  0.5328
 4330TIP3    H112935   4.741   1.733   1.440 -0.2885 -2.1708  0.2112
 4330TIP3    H212936   4.683   1.760   1.577  0.7969  2.0777 -0.0234
 4331TIP3   OH212937   3.452   4.325   5.797  0.3982  0.7873  0.1495
 4331TIP3    H112938   3.375   4.289   5.841 -0.2285  2.3014  0.3529
 4331TIP3    H212939   3.523   4.265   5.819 -0.0891  0.9776  2.4614
 4332TIP3   OH212940   4.265   6.920   3.342  0.8959  0.4613  0.3089
 4332TIP3    H112941   4.357   6.947   3.340  0.6729  1.1952 -0.3224
 4332TIP3    H212942   4.267   6.828   3.318  1.2645  1.0549 -2.2030
 4333TIP3   OH212943   4.719   0.518   3.073  0.3050  0.1146 -0.8512
 4333TIP3    H112944   4.705   0.553   2.985 -1.3404  0.9923 -0.2834
 4333TIP3    H212945   4.814   0.508   3.079  0.4740  0.2077 -2.6490
 4334TIP3   OH212946   7.577   0.468   4.397 -0.0738 -0.6078 -0.2261
 4334TIP3    H112947   7.548   0.412   4.469  2.4730 -1.0664  0.5312
 4334TIP3    H212948   7.656   0.511   4.430 -0.4804  1.4688 -1.7342
 4335TIP3   OH212949   7.269   3.547   1.480  0.0436 -0.1182 -0.2715
 4335TIP3    H112950   7.345   3.527   1.534 -0.5915 -1.7706  0.0809
 4335TIP3    H212951   7.199   3.568   1.542  0.1466  1.2046 -0.5836
 4336TIP3   OH212952   7.933   4.520   3.544 -0.1460 -0.2689 -0.2533
 4336TIP3    H112953   7.968   4.609   3.550  1.2885 -0.8276  0.3031
 4336TIP3    H212954   7.866   4.524   3.476 -0.6206  1.3840  0.2735
 4337TIP3   OH212955   4.505   0.795   2.662 -0.4938  0.5129 -0.2811
 4337TIP3    H112956   4.581   0.804   2.605 -0.0470 -1.5082 -0.0822
 4337TIP3    H212957   4.438   0.754   2.607 -0.5728 -0.0426  0.2204
 4338TIP3   OH212958   1.278   6.405   6.658 -0.5582 -0.3467  0.2674
 4338TIP3    H112959   1.213   6.337   6.644 -0.2399 -0.4671 -0.7474
 4338TIP3    H212960   1.257   6.472   6.593 -1.0561  0.6929  1.4513
 4339TIP3   OH212961   0.125   7.020  -0.010  0.7064 -0.3702 -0.1377
 4339TIP3    H112962   0.161   6.974   0.065 -0.9139  1.3047  1.7837
 4339TIP3    H212963   0.107   7.109   0.021 -1.6760 -0.0884 -1.9374
 4340TIP3   OH212964   4.107   7.011   1.742  0.2439  0.1753 -0.2064
 4340TIP3    H112965   4.027   6.978   1.783 -0.0003  1.2868  0.2601
 4340TIP3    H212966   4.089   7.007   1.648 -1.1001  2.0783 -0.0822
 4341TIP3   OH212967   4.478   3.592   4.980 -0.0135  0.0603 -0.4041
 4341TIP3    H112968   4.495   3.660   4.915  1.5490  0.5000  0.4068
 4341TIP3    H212969   4.538   3.612   5.052 -2.6441  0.4487  1.8518
 4342TIP3   OH212970   7.746   4.774   5.143  0.1657  0.0404 -0.5248
 4342TIP3    H112971   7.727   4.797   5.052 -1.7809  1.3389  0.1467
 4342TIP3    H212972   7.814   4.836   5.169  1.1238 -0.6837 -1.2075
 4343TIP3   OH212973   6.215   2.767   3.922  0.4040 -0.0353  0.0261
 4343TIP3    H112974   6.146   2.779   3.987 -0.3093  1.5443 -0.9705
 4343TIP3    H212975   6.295   2.793   3.967  0.1224 -0.2862  0.6849
 4344TIP3   OH212976   3.453   7.817   4.601  0.0138  0.2701  0.4648
 4344TIP3    H112977   3.362   7.804   4.627  0.5228 -3.0243  1.0852
 4344TIP3    H212978   3.492   7.865   4.674 -0.8066 -0.0431  1.1234
 4345TIP3   OH212979   1.180   3.043   3.420  0.8338 -0.1743  0.6404
 4345TIP3    H112980   1.121   3.028   3.347  0.9037  0.7333  0.3846
 4345TIP3    H212981   1.261   2.997   3.397  0.2241 -1.4581  1.0143
 4346TIP3   OH212982   0.893   5.791   2.440 -0.1418 -0.0999  0.0706
 4346TIP3    H112983   0.948   5.801   2.518 -0.8674  1.7303  0.3984
 4346TIP3    H212984   0.948   5.820   2.368  0.1234 -0.6202  0.0603
 4347TIP3   OH212985   3.971   3.781   4.482 -0.3424  0.5254 -0.3435
 4347TIP3    H112986   3.925   3.779   4.566 -3.5475  1.7460 -1.9213
 4347TIP3    H212987   3.984   3.689   4.459 -0.5679  0.1737  0.8457
 4348TIP3   OH212988   1.078   5.990   4.724 -0.2708  0.3854  1.0210
 4348TIP3    H112989   1.085   6.053   4.796  2.0909  0.7682  0.5576
 4348TIP3    H212990   1.169   5.961   4.710 -0.9177 -0.9640 -0.6824
 4349TIP3   OH212991   3.825   0.808   2.984 -0.2972  0.3443  0.3697
 4349TIP3    H112992   3.894   0.818   3.050  0.4208  1.4050 -0.5125
 4349TIP3    H212993   3.870   0.822   2.901 -1.1836 -1.0158 -0.3681
 4350TIP3   OH212994   3.894   5.472   0.355  0.2465 -0.0656 -0.1187
 4350TIP3    H112995   3.812   5.518   0.371 -2.0829 -3.7189 -0.2960
 4350TIP3    H212996   3.876   5.415   0.281  3.9475  0.9165 -2.0181
 4351TIP3   OH212997   4.339   0.520   3.845 -0.2600  0.1717  0.0656
 4351TIP3    H112998   4.251   0.490   3.820 -0.0871  0.6183 -1.1143
 4351TIP3    H212999   4.346   0.607   3.806 -0.2017  1.1913  2.2165
 4352TIP3   OH213000   3.091   2.288   1.979  0.1279 -0.1622 -0.2851
 4352TIP3    H113001   3.054   2.334   2.054 -0.8077 -0.7067 -0.3880
 4352TIP3    H213002   3.075   2.196   1.997  1.3661 -0.4150 -0.4013
 4353TIP3   OH213003   7.829   3.753   5.683 -0.3209 -0.0485  0.0728
 4353TIP3    H113004   7.893   3.778   5.750  1.1574 -0.3974 -1.1529
 4353TIP3    H213005   7.745   3.786   5.717  0.7618  2.0835  0.8698
 4354TIP3   OH213006   2.258   3.832   1.837  0.2202 -0.1835  0.5679
 4354TIP3    H113007   2.319   3.768   1.798 -0.7116 -0.5438 -0.3622
 4354TIP3    H213008   2.285   3.916   1.800  0.3091 -0.3024  0.3606
 4355TIP3   OH213009   3.342   6.465   2.846  0.0052 -0.1072  0.5113
 4355TIP3    H113010   3.310   6.543   2.891  0.1061 -0.3411  0.9947
 4355TIP3    H213011   3.396   6.498   2.774  1.1382  0.2646  1.5113
 4356TIP3   OH213012   0.222   2.837   2.781  0.1940 -0.4065 -0.2121
 4356TIP3    H113013   0.213   2.891   2.702  1.1789  0.1620  0.0488
 4356TIP3    H213014   0.249   2.752   2.748 -2.5862 -1.1726 -0.7318
 4357TIP3   OH213015   3.836   3.345   0.494  0.7786  0.0821 -0.0873
 4357TIP3    H113016   3.824   3.408   0.566 -0.5945 -0.7115  0.4071
 4357TIP3    H213017   3.763   3.362   0.435  0.2289 -1.2132  0.1934
 4358TIP3   OH213018   3.141   0.478   0.370 -0.1834  0.0355  0.1633
 4358TIP3    H113019   3.098   0.454   0.288 -0.0137 -0.2805  0.1663
 4358TIP3    H213020   3.204   0.546   0.345 -0.4833  0.3039  0.1160
 4359TIP3   OH213021   2.191   6.297   0.237 -0.2634  0.4455 -0.2067
 4359TIP3    H113022   2.206   6.219   0.184 -3.6382  1.0761 -2.3717
 4359TIP3    H213023   2.216   6.271   0.326  0.9588 -2.2725 -1.2459
 4360TIP3   OH213024   3.728   6.800   3.189 -0.4640  0.3087  0.0035
 4360TIP3    H113025   3.762   6.767   3.106 -0.1634  1.7486 -0.4850
 4360TIP3    H213026   3.668   6.733   3.220 -0.1847 -0.4774 -1.1263
 4361TIP3   OH213027   2.882   7.627   4.434 -0.3052 -0.0613  0.3343
 4361TIP3    H113028   2.795   7.634   4.395  0.7029 -0.5819 -2.1498
 4361TIP3    H213029   2.866   7.589   4.521 -2.4363 -1.4919 -0.6054
 4362TIP3   OH213030   0.825   4.221   1.935  0.1726  0.0906  0.0462
 4362TIP3    H113031   0.789   4.139   1.970 -0.0483 -0.2689 -0.9764
 4362TIP3    H213032   0.855   4.198   1.847 -3.0038  1.8156 -1.6807
 4363TIP3   OH213033   7.657   1.847   5.991  0.6559 -0.1852  0.1471
 4363TIP3    H113034   7.702   1.786   6.048  1.0665 -1.2910 -1.3020
 4363TIP3    H213035   7.645   1.799   5.909  0.0247  1.3126 -0.6764
 4364TIP3   OH213036   3.603   1.070   5.674 -0.2929  0.5164 -0.2251
 4364TIP3    H113037   3.566   0.990   5.711  0.3533  1.0739  1.7269
 4364TIP3    H213038   3.648   1.041   5.594 -0.7313 -0.9267  0.0228
 4365TIP3   OH213039   8.130   1.241   0.160 -0.1842  0.0003  0.0574
 4365TIP3    H113040   8.180   1.219   0.239  3.0347  0.3573 -1.7395
 4365TIP3    H213041   8.118   1.336   0.166 -0.0615  0.0105  0.1499
 4366TIP3   OH213042   3.324   6.669   0.853  0.1762  0.1852 -0.4871
 4366TIP3    H113043   3.355   6.580   0.839  0.8408  0.2906  0.2885
 4366TIP3    H213044   3.370   6.722   0.787  1.7284  0.3527  0.7010
 4367TIP3   OH213045   7.521   4.042   5.427  0.1037 -0.2734 -0.1199
 4367TIP3    H113046   7.464   4.090   5.486  0.5739  0.1642 -0.0127
 4367TIP3    H213047   7.527   3.954   5.465  1.8989  0.5046  1.5680
 4368TIP3   OH213048   8.224   6.846   4.072  0.0359 -0.3225 -0.5395
 4368TIP3    H113049   8.228   6.763   4.023  0.2174 -0.5643 -0.1193
 4368TIP3    H213050   8.276   6.830   4.150 -0.1599  0.1021 -0.3203
 4369TIP3   OH213051   6.926   6.839   4.429  0.2698 -0.3444  0.8128
 4369TIP3    H113052   6.956   6.920   4.388  0.7854 -0.2962  1.2676
 4369TIP3    H213053   6.922   6.860   4.523  1.7417 -1.2270  1.1068
 4370TIP3   OH213054   5.509   0.660   5.982  0.4457  0.2967  0.1386
 4370TIP3    H113055   5.476   0.570   5.989  2.2758 -0.3730  0.5107
 4370TIP3    H213056   5.436   0.714   6.014 -0.2602 -1.1151  1.0263
 4371TIP3   OH213057   3.745   2.409   6.234 -0.1820  0.3502 -0.4177
 4371TIP3    H113058   3.681   2.441   6.171 -0.9082  2.0089  1.0784
 4371TIP3    H213059   3.816   2.473   6.230 -0.2507  0.4857  0.4649
 4372TIP3   OH213060   5.298   2.523   3.535 -0.3574  0.1833  0.3438
 4372TIP3    H113061   5.390   2.547   3.541 -0.4986  0.6103  0.8723
 4372TIP3    H213062   5.279   2.479   3.618 -0.6797  0.2671  0.3152
 4373TIP3   OH213063   4.081   6.544   4.230 -0.3213  0.0948  0.6697
 4373TIP3    H113064   4.158   6.518   4.179 -1.2852 -1.8465  0.1374
 4373TIP3    H213065   4.087   6.493   4.311  0.1357  1.6654  1.6654
 4374TIP3   OH213066   0.567   4.072   2.674 -0.0072  0.1813  0.1162
 4374TIP3    H113067   0.629   4.009   2.709  0.8675  1.5824  1.1949
 4374TIP3    H213068   0.491   4.066   2.732 -0.8545 -1.3452 -1.0510
 4375TIP3   OH213069   7.546   3.599   5.043 -0.0620  0.6791 -0.0878
 4375TIP3    H113070   7.603   3.576   5.116 -0.2129  3.6514  1.0730
 4375TIP3    H213071   7.586   3.676   5.004 -1.3655  0.6507 -1.5847
 4376TIP3   OH213072   6.724   1.954   4.588 -0.0377 -0.1108 -0.4791
 4376TIP3    H113073   6.673   2.018   4.538 -0.8359  0.2368  0.7122
 4376TIP3    H213074   6.810   1.955   4.548 -0.0576  1.6583 -0.5771
 4377TIP3   OH213075   1.645   3.162   0.827 -0.4524 -0.0706  0.2007
 4377TIP3    H113076   1.563   3.113   0.817 -1.0873  0.8347  0.8409
 4377TIP3    H213077   1.687   3.156   0.741 -0.8457 -1.1237  0.0606
 4378TIP3   OH213078   6.441   4.639   5.249 -0.3099 -0.4065  0.0463
 4378TIP3    H113079   6.439   4.558   5.299  0.5206 -0.2351  0.3788
 4378TIP3    H213080   6.352   4.674   5.256 -0.2851 -0.5362  1.1623
 4379TIP3   OH213081   0.107   4.925   0.041  0.0624 -0.2148  0.2897
 4379TIP3    H113082   0.117   4.901  -0.051  1.0820 -2.9127  1.0089
 4379TIP3    H213083   0.037   4.869   0.074  0.9328 -0.6010  1.5615
 4380TIP3   OH213084   1.616   4.565   6.163 -0.0890 -0.0099 -0.1656
 4380TIP3    H113085   1.557   4.494   6.138 -0.5155  0.3595 -0.2492
 4380TIP3    H213086   1.694   4.522   6.197  0.8463 -0.5946 -2.7819
 4381TIP3   OH213087   2.271   1.434   0.509 -0.2723  0.4342 -0.4558
 4381TIP3    H113088   2.292   1.342   0.494  0.5057  0.5633 -0.2015
 4381TIP3    H213089   2.271   1.473   0.421 -0.1270  0.2894 -0.5204
 4382TIP3   OH213090   1.354   5.349   3.730  0.0245 -0.3744  0.2062
 4382TIP3    H113091   1.260   5.362   3.729  0.2615  1.5744  0.0699
 4382TIP3    H213092   1.391   5.432   3.700  1.7543 -1.4915 -0.9572
 4383TIP3   OH213093   3.648   0.556   2.928 -0.2111  0.1293 -0.5071
 4383TIP3    H113094   3.680   0.514   3.008  0.2233  1.4079  0.0019
 4383TIP3    H213095   3.703   0.634   2.918 -3.0659  2.4250  0.3647
 4384TIP3   OH213096   2.778   0.730   3.405 -0.1494  0.1428  0.0044
 4384TIP3    H113097   2.847   0.672   3.437  0.6145  1.3177  0.5378
 4384TIP3    H213098   2.752   0.692   3.320  0.6631 -0.6878  0.1142
 4385TIP3   OH213099   4.957   3.246   2.014 -0.4797  0.0371  0.0225
 4385TIP3    H113100   5.041   3.290   1.998 -1.4609  2.2973  0.6363
 4385TIP3    H213101   4.922   3.229   1.926  1.4324 -2.7992 -0.3042
 4386TIP3   OH213102   8.235   5.132   0.619  0.5466 -0.0476 -0.2351
 4386TIP3    H113103   8.293   5.131   0.695  2.0339  0.9611 -1.2861
 4386TIP3    H213104   8.293   5.111   0.545 -0.9156 -1.2803 -1.0774
 4387TIP3   OH213105   7.542   5.360   2.081 -0.1698 -0.0744 -0.1511
 4387TIP3    H113106   7.615   5.369   2.143  0.9629 -1.6292 -1.1542
 4387TIP3    H213107   7.581   5.379   1.996 -1.0882 -0.3879 -0.6533
 4388TIP3   OH213108   6.148   5.686   6.078 -0.0620  0.3441 -0.1956
 4388TIP3    H113109   6.092   5.708   6.152  0.7444 -0.5361  0.7097
 4388TIP3    H213110   6.130   5.594   6.061  0.4441  0.2924 -0.4719
 4389TIP3   OH213111   4.155   7.773   3.617  0.2692  0.0013  0.8182
 4389TIP3    H113112   4.223   7.827   3.657  1.4146 -1.5725  1.0845
 4389TIP3    H213113   4.088   7.764   3.685  0.3006  0.6723  0.9390
 4390TIP3   OH213114   3.673   2.353   2.480 -0.3272  0.2045  0.1101
 4390TIP3    H113115   3.590   2.305   2.487 -0.7508  0.5943 -1.6830
 4390TIP3    H213116   3.719   2.310   2.408  0.3987  0.9185  0.1314
 4391TIP3   OH213117   1.906   6.499   1.637  0.0313  0.2383  0.0611
 4391TIP3    H113118   1.872   6.496   1.547  2.0727  0.7065 -0.7990
 4391TIP3    H213119   1.937   6.410   1.654  0.1090  0.2718  0.0967
 4392TIP3   OH213120   7.573   5.314   4.750 -0.0480  0.3174  0.5815
 4392TIP3    H113121   7.647   5.326   4.691  0.4575 -0.7261  0.9881
 4392TIP3    H213122   7.562   5.399   4.792  0.7886  0.5359  0.3709
 4393TIP3   OH213123   6.402   5.930   2.147 -0.1524 -0.0251 -0.0719
 4393TIP3    H113124   6.462   6.004   2.144  0.0473 -0.1674  0.3383
 4393TIP3    H213125   6.430   5.879   2.222 -0.6565 -0.2097 -0.0024
 4394TIP3   OH213126   4.486   1.894   1.051 -0.2977  0.2384  0.7598
 4394TIP3    H113127   4.511   1.802   1.065 -0.5867 -0.0318 -0.3634
 4394TIP3    H213128   4.406   1.905   1.101 -1.9439 -1.0156 -1.4126
 4395TIP3   OH213129   0.001   3.269   2.734  0.1187  0.1904  0.0657
 4395TIP3    H113130  -0.007   3.290   2.827 -1.1705  0.2467 -0.0368
 4395TIP3    H213131   0.062   3.334   2.700  1.0279 -0.1686  0.9679
 4396TIP3   OH213132   3.472   1.521   0.288 -0.4111  0.2575 -0.5565
 4396TIP3    H113133   3.417   1.536   0.211 -1.1186  1.3096  0.1185
 4396TIP3    H213134   3.549   1.475   0.255 -1.6126 -1.0902 -1.5540
 4397TIP3   OH213135   7.064   1.640   0.477  0.0560 -0.0035  0.2580
 4397TIP3    H113136   6.984   1.634   0.529  0.4451 -0.2064  0.8413
 4397TIP3    H213137   7.121   1.699   0.527  0.0669  0.5843 -0.4281
 4398TIP3   OH213138   4.191   6.585   1.723  0.2465  0.1818  0.0838
 4398TIP3    H113139   4.276   6.596   1.765  0.2002  0.4492  0.1074
 4398TIP3    H213140   4.211   6.575   1.630  0.2070  1.7203 -0.1014
 4399TIP3   OH213141   7.999   5.000   5.788  0.2097  0.1102 -0.3767
 4399TIP3    H113142   8.080   4.957   5.816  0.0387 -0.6434 -1.0096
 4399TIP3    H213143   7.938   4.986   5.860  0.1660 -0.7066 -0.5589
 4400TIP3   OH213144   4.817   0.978   3.243 -0.4369 -0.1839 -0.5264
 4400TIP3    H113145   4.879   1.049   3.258  1.2150 -2.1074  3.1285
 4400TIP3    H213146   4.838   0.945   3.155  1.7533  1.0916 -0.5509
 4401TIP3   OH213147   5.129   3.039   3.973  0.1066  0.0132  0.6578
 4401TIP3    H113148   5.182   2.999   3.903 -2.0778 -1.3045 -0.3431
 4401TIP3    H213149   5.096   3.120   3.934  0.4918  0.2891  0.8970
 4402TIP3   OH213150   2.432   3.538   3.214 -0.1008 -0.4418 -0.2499
 4402TIP3    H113151   2.379   3.472   3.258  0.3720 -2.4167 -2.4148
 4402TIP3    H213152   2.380   3.565   3.138 -0.6108  2.3478  0.9554
 4403TIP3   OH213153   3.792   6.290   5.471 -0.3906 -0.5414  0.4714
 4403TIP3    H113154   3.757   6.266   5.557  0.0709 -0.6651  0.6298
 4403TIP3    H213155   3.739   6.364   5.443 -0.7177 -0.6672  0.7436
 4404TIP3   OH213156   7.813   3.697   1.444  0.2936 -0.4520 -0.1982
 4404TIP3    H113157   7.779   3.786   1.454  0.1709 -0.5442  0.2348
 4404TIP3    H213158   7.856   3.678   1.527 -1.2109 -1.4442  0.3979
 4405TIP3   OH213159   3.160   6.809   2.062 -0.0089  0.1493 -0.6102
 4405TIP3    H113160   3.202   6.724   2.053  0.1649 -0.0660  1.5531
 4405TIP3    H213161   3.067   6.788   2.076 -0.1246  0.3671 -1.0497
 4406TIP3   OH213162   2.607   3.667   5.915  0.2213 -0.2052  0.3552
 4406TIP3    H113163   2.536   3.626   5.866  0.4792 -0.6945  0.3857
 4406TIP3    H213164   2.660   3.712   5.849  0.0758 -0.1302  0.2909
 4407TIP3   OH213165   3.900   2.939   3.249  0.1727 -0.3214  0.1138
 4407TIP3    H113166   3.918   2.922   3.157  0.4808 -0.8954  0.2744
 4407TIP3    H213167   3.963   2.884   3.296 -1.3652 -1.6860  0.6805
 4408TIP3   OH213168   4.333   7.710   4.424  0.2957 -0.3100  0.0644
 4408TIP3    H113169   4.387   7.698   4.502 -0.0204 -0.9348  0.1916
 4408TIP3    H213170   4.337   7.804   4.406  1.5426 -0.3684 -0.0193
 4409TIP3   OH213171   2.341   6.958   5.533  0.3032 -0.2171 -0.5590
 4409TIP3    H113172   2.290   7.015   5.476 -2.8212 -1.3080  0.9295
 4409TIP3    H213173   2.364   6.883   5.478 -1.3740 -0.5607 -0.8636
 4410TIP3   OH213174   0.874   3.852   0.347 -0.9159 -0.3348  0.6628
 4410TIP3    H113175   0.967   3.855   0.325 -0.6619 -3.5843  0.8802
 4410TIP3    H213176   0.871   3.857   0.443 -1.0214  0.0838  0.6423
 4411TIP3   OH213177   3.598   6.231   2.985  0.0961 -0.2792  0.4346
 4411TIP3    H113178   3.564   6.305   3.036  0.1393 -0.9216  1.4117
 4411TIP3    H213179   3.564   6.154   3.029  0.2352 -0.8537 -0.4535
 4412TIP3   OH213180   2.663   5.331   5.994  0.4610 -0.0252  0.0367
 4412TIP3    H113181   2.690   5.355   6.083  0.6269  0.9599 -0.2634
 4412TIP3    H213182   2.742   5.295   5.954  1.0113  1.5999 -0.4066
 4413TIP3   OH213183   3.334   7.009   3.557  0.4958  0.2311  0.0192
 4413TIP3    H113184   3.261   7.031   3.500  0.1204  0.6935  0.6708
 4413TIP3    H213185   3.324   7.067   3.633  1.5493  0.3228  0.1014
 4414TIP3   OH213186   6.087   3.993   5.554 -0.0826  0.2570 -0.1221
 4414TIP3    H113187   6.019   4.061   5.554 -1.1243 -0.7478 -1.0494
 4414TIP3    H213188   6.115   3.987   5.646 -1.9028  0.0544  0.4456
 4415TIP3   OH213189   4.973   3.802   0.187  0.3892 -0.5789  0.3643
 4415TIP3    H113190   4.969   3.842   0.101 -0.0106  0.4583  0.8447
 4415TIP3    H213191   5.045   3.739   0.182 -0.1899 -1.1690 -0.9701
 4416TIP3   OH213192   1.404   1.884   1.892 -0.4827  0.9009 -0.1089
 4416TIP3    H113193   1.318   1.842   1.900 -0.2092  0.1836 -0.7228
 4416TIP3    H213194   1.462   1.832   1.948  0.0685 -0.2104 -1.6167
 4417TIP3   OH213195   6.604   2.233   1.675  0.1550 -0.0937  0.3384
 4417TIP3    H113196   6.681   2.269   1.630  2.5153 -2.5173  2.0508
 4417TIP3    H213197   6.582   2.299   1.740  1.1642  0.4510  0.1570
 4418TIP3   OH213198   2.673   2.489   6.147 -0.7124 -0.3096  0.9234
 4418TIP3    H113199   2.586   2.474   6.186 -0.6154 -1.4222  0.7509
 4418TIP3    H213200   2.676   2.429   6.072 -0.3434  0.7803  0.0461
 4419TIP3   OH213201   6.848   2.118   6.133  0.0763 -0.2715 -0.5596
 4419TIP3    H113202   6.943   2.107   6.130  0.1776 -0.0910  1.1298
 4419TIP3    H213203   6.825   2.150   6.046  1.8244  1.5612 -0.4152
 4420TIP3   OH213204   0.041   1.609   4.576  0.3084 -0.1039 -0.0536
 4420TIP3    H113205  -0.043   1.570   4.554  1.0884 -1.9231 -0.0068
 4420TIP3    H213206   0.049   1.598   4.671  1.5127 -2.0494 -0.3097
 4421TIP3   OH213207   1.129   1.472   3.052  0.1201 -0.4663  0.3946
 4421TIP3    H113208   1.044   1.428   3.043 -0.7095  1.0203  0.5708
 4421TIP3    H213209   1.120   1.552   2.999  1.5898 -0.5186  0.0241
 4422TIP3   OH213210   7.260   1.536   2.587  0.0684 -0.1215 -0.2060
 4422TIP3    H113211   7.353   1.519   2.603 -0.3140 -2.6996 -0.2228
 4422TIP3    H213212   7.215   1.460   2.624 -1.9371  0.4360 -1.3283
 4423TIP3   OH213213   1.934   5.220   1.647  0.3843  0.3105  0.0459
 4423TIP3    H113214   2.019   5.220   1.691  0.8372  0.0513 -0.8064
 4423TIP3    H213215   1.883   5.153   1.693  1.3978 -1.1110 -0.8267
 4424TIP3   OH213216   1.352   4.467   5.499 -0.8638 -0.8217 -0.5268
 4424TIP3    H113217   1.340   4.428   5.413  0.5489  1.3199 -1.7725
 4424TIP3    H213218   1.383   4.395   5.554 -0.3244 -1.9117 -2.1815
 4425TIP3   OH213219   2.631   6.935   3.009 -0.0221  0.2378 -0.1563
 4425TIP3    H113220   2.617   6.841   2.997 -2.1660  0.7076 -2.3373
 4425TIP3    H213221   2.548   6.975   2.982  0.7528  2.7731  0.8667
 4426TIP3   OH213222   6.124   2.681   1.727  0.8246 -1.0204  0.2084
 4426TIP3    H113223   6.143   2.731   1.647  0.4573  0.1263  0.8116
 4426TIP3    H213224   6.122   2.747   1.796 -2.3609 -1.4268  0.6577
 4427TIP3   OH213225   4.802   2.235   1.419 -0.2840 -0.5918 -0.1448
 4427TIP3    H113226   4.830   2.238   1.327 -0.9473  0.3951 -0.3277
 4427TIP3    H213227   4.760   2.150   1.428 -1.1006 -0.3093 -1.0381
 4428TIP3   OH213228   3.250   3.139   2.565  0.3939 -0.1274 -0.4544
 4428TIP3    H113229   3.231   3.165   2.475 -3.5015 -0.8269  0.0250
 4428TIP3    H213230   3.254   3.044   2.562  0.4564 -0.1412  0.0832
 4429TIP3   OH213231   0.552   0.178   1.911  0.2127 -0.2530  0.0160
 4429TIP3    H113232   0.578   0.091   1.881 -0.7027 -1.0214  1.3698
 4429TIP3    H213233   0.512   0.219   1.834 -1.8760 -2.0917  0.0345
 4430TIP3   OH213234   0.038   1.226   1.465  0.1221  1.0279 -0.1028
 4430TIP3    H113235   0.084   1.310   1.462  1.1417  0.4563 -1.3624
 4430TIP3    H213236  -0.013   1.230   1.546  1.4040  2.2121  0.6908
 4431TIP3   OH213237   2.773   5.362   2.852 -0.8100 -0.0952  0.8305
 4431TIP3    H113238   2.837   5.378   2.920  1.6670  0.3225 -1.4228
 4431TIP3    H213239   2.790   5.271   2.824  0.8391  0.8523 -1.6069
 4432TIP3   OH213240   7.694   2.443   1.293 -0.0634  0.6120 -0.1472
 4432TIP3    H113241   7.613   2.454   1.243  0.5190  1.0218 -1.0251
 4432TIP3    H213242   7.723   2.354   1.273  1.4111  1.5493 -2.4804
 4433TIP3   OH213243   1.401   5.120   5.329  0.1890  0.6534 -0.0272
 4433TIP3    H113244   1.469   5.062   5.365  0.4053  1.2986  0.6278
 4433TIP3    H213245   1.415   5.203   5.374 -1.1723  0.7370  0.2871
 4434TIP3   OH213246   8.195   0.626   0.394  0.4909 -0.2688 -0.3923
 4434TIP3    H113247   8.132   0.694   0.370  1.0493 -0.3858 -2.4519
 4434TIP3    H213248   8.147   0.544   0.381  0.5559 -0.3124 -0.3573
 4435TIP3   OH213249   0.396   0.288   5.432  0.0907  0.6182 -0.0128
 4435TIP3    H113250   0.350   0.370   5.450  0.9292  1.0594  0.1181
 4435TIP3    H213251   0.417   0.292   5.339 -1.4278 -0.2534 -0.4323
 4436TIP3   OH213252   2.121   2.882   4.985  0.3019  0.5747  0.0933
 4436TIP3    H113253   2.123   2.856   4.893  0.0879  1.3228 -0.1269
 4436TIP3    H213254   2.172   2.815   5.030 -1.6549 -1.2189 -0.1957
 4437TIP3   OH213255   0.054   4.321   6.357  0.0977 -0.7886 -0.1313
 4437TIP3    H113256   0.045   4.254   6.425  0.7261 -0.1601  0.5996
 4437TIP3    H213257   0.141   4.305   6.320  0.0857 -0.6305 -0.2271
 4438TIP3   OH213258   7.504   1.787   5.458 -0.5857 -0.7304 -0.9016
 4438TIP3    H113259   7.446   1.800   5.533 -0.8379 -0.5912 -1.1183
 4438TIP3    H213260   7.564   1.717   5.485  0.0567  0.0943 -0.1431
 4439TIP3   OH213261   1.503   3.370   3.799  0.0386 -0.2196  0.0259
 4439TIP3    H113262   1.543   3.292   3.761 -1.1805 -1.2274  0.7272
 4439TIP3    H213263   1.427   3.337   3.848 -0.1619  1.3403  0.8416
 4440TIP3   OH213264   6.766   6.559   0.329 -0.2223 -0.2729 -0.0033
 4440TIP3    H113265   6.737   6.484   0.276  0.3471 -0.1108 -0.5469
 4440TIP3    H213266   6.765   6.526   0.419 -2.0633 -0.2900  0.0159
 4441TIP3   OH213267   2.833   2.585   6.532  0.0226 -0.8167 -0.0493
 4441TIP3    H113268   2.814   2.522   6.462 -1.5336 -0.9024  0.4296
 4441TIP3    H213269   2.821   2.671   6.490  0.9451 -0.8195 -0.3650
 4442TIP3   OH213270   8.024   6.987   5.505  0.4874 -0.8246 -0.6503
 4442TIP3    H113271   8.074   7.001   5.424 -1.1740  1.5878 -1.3678
 4442TIP3    H213272   8.072   7.036   5.572  0.9762 -1.4964 -0.4856
 4443TIP3   OH213273   1.594   7.424   2.138 -0.4778  0.1047 -0.2188
 4443TIP3    H113274   1.563   7.334   2.126 -1.4693  0.6880 -2.5712
 4443TIP3    H213275   1.679   7.426   2.093 -0.4856  0.3565 -0.2221
 4444TIP3   OH213276   6.440   5.595   4.498 -0.1877 -0.6005 -0.4559
 4444TIP3    H113277   6.480   5.519   4.539 -0.0366 -0.0751  0.3908
 4444TIP3    H213278   6.399   5.561   4.419 -1.0914 -1.7550  0.4911
 4445TIP3   OH213279   0.263   5.927   5.180  0.0101 -0.0974  0.3881
 4445TIP3    H113280   0.182   5.958   5.220  0.2310  0.8756  0.1050
 4445TIP3    H213281   0.235   5.861   5.117 -0.5476  0.1210  0.4041
 4446TIP3   OH213282   3.547   6.381   3.202  0.1832 -0.0112  0.1182
 4446TIP3    H113283   3.537   6.475   3.184 -0.4003 -0.1016 -0.0459
 4446TIP3    H213284   3.541   6.375   3.297 -1.1487 -0.0343  0.0408
 4447TIP3   OH213285   1.909   2.797   1.051  0.1743 -0.2769 -0.2808
 4447TIP3    H113286   1.825   2.843   1.055 -0.2006 -1.0254  3.0563
 4447TIP3    H213287   1.949   2.828   0.969 -1.9298  2.5459 -0.4060
 4448TIP3   OH213288   4.058   7.034   5.923 -0.0964 -0.1903 -0.3134
 4448TIP3    H113289   4.042   6.964   5.987 -0.3111  1.3263  1.3641
 4448TIP3    H213290   4.149   7.019   5.894  0.7678  0.2757  1.9591
 4449TIP3   OH213291   7.287   2.824   0.942  0.1042  0.3617  0.2575
 4449TIP3    H113292   7.279   2.776   0.860  0.1764  0.9015 -0.0692
 4449TIP3    H213293   7.377   2.854   0.944  0.7959 -1.5870  1.6352
 4450TIP3   OH213294   5.913   0.744   2.980 -0.2325 -0.5082  0.0816
 4450TIP3    H113295   5.919   0.826   2.930  0.4165 -1.1530 -0.9262
 4450TIP3    H213296   5.939   0.769   3.069 -0.7788  0.5248 -0.0221
 4451TIP3   OH213297   4.315   4.246   4.682 -0.2921  0.4215  0.1009
 4451TIP3    H113298   4.252   4.266   4.613 -0.9142  0.6768  0.7322
 4451TIP3    H213299   4.325   4.328   4.730  0.6885  0.4443 -0.1141
 4452TIP3   OH213300   0.274   4.608   0.797  0.2126  0.1826  0.6128
 4452TIP3    H113301   0.188   4.612   0.838 -0.5943  2.6394 -1.1151
 4452TIP3    H213302   0.257   4.571   0.710  1.2600 -1.2084  0.9701
 4453TIP3   OH213303   5.154   4.381   1.211 -0.3418 -0.1302 -0.3537
 4453TIP3    H113304   5.061   4.395   1.198 -0.3755 -0.0873 -0.0724
 4453TIP3    H213305   5.196   4.451   1.161 -0.4638 -0.0656 -0.3658
 4454TIP3   OH213306   7.168   5.871   6.720  0.1163  0.6304  0.4567
 4454TIP3    H113307   7.111   5.948   6.721 -1.6431 -0.6192  1.1878
 4454TIP3    H213308   7.205   5.868   6.808  0.4562  0.8142  0.3230
 4455TIP3   OH213309   3.393   4.441   6.508  0.0557  0.1300 -0.0402
 4455TIP3    H113310   3.353   4.527   6.508  0.1180  0.1589 -0.0075
 4455TIP3    H213311   3.389   4.412   6.599  1.4352  0.7537  0.2488
 4456TIP3   OH213312   3.994   2.173   4.895 -0.1757 -0.0981  0.0716
 4456TIP3    H113313   4.007   2.132   4.809 -2.0313 -0.1695 -0.2281
 4456TIP3    H213314   3.961   2.102   4.950 -2.1742  0.6240 -0.0995
 4457TIP3   OH213315   4.065   6.426   1.271  0.0327 -1.0110  0.1618
 4457TIP3    H113316   4.152   6.455   1.243 -0.4515  0.1451 -0.1928
 4457TIP3    H213317   4.045   6.480   1.347 -0.3603 -1.3045  0.2712
 4458TIP3   OH213318   3.680   6.589   5.588 -0.4786 -0.0349  0.7559
 4458TIP3    H113319   3.762   6.568   5.634 -1.2694 -3.9617  0.6975
 4458TIP3    H213320   3.611   6.562   5.649 -1.7965  2.4329  0.4633
 4459TIP3   OH213321   2.777   6.838   4.956 -1.0882 -0.1144  0.4133
 4459TIP3    H113322   2.762   6.926   4.991 -0.7319 -0.2570  0.9404
 4459TIP3    H213323   2.731   6.837   4.872  1.5013  1.6525 -1.1594
 4460TIP3   OH213324   0.982   7.162   5.704 -0.4745 -0.2023  0.0390
 4460TIP3    H113325   0.911   7.144   5.642  0.6306 -0.1025 -1.3302
 4460TIP3    H213326   1.044   7.215   5.654  1.1036 -1.2445  0.7885
 4461TIP3   OH213327   2.011   1.575   5.282 -0.6929  0.5789 -0.8884
 4461TIP3    H113328   2.103   1.592   5.304 -0.6349 -0.4792 -0.2478
 4461TIP3    H213329   1.998   1.483   5.302 -2.3029  1.0521  0.4536
 4462TIP3   OH213330   7.585   6.727   4.692  0.3648  0.3118  0.0532
 4462TIP3    H113331   7.596   6.634   4.671  0.0989  0.2146  0.3287
 4462TIP3    H213332   7.538   6.727   4.776 -1.9161  0.7031 -1.1495
 4463TIP3   OH213333   3.693   2.417   4.120  0.0665 -0.1435  0.2639
 4463TIP3    H113334   3.739   2.334   4.119  0.1647 -0.0974 -1.0611
 4463TIP3    H213335   3.609   2.398   4.162 -0.5892 -1.3175 -1.4601
 4464TIP3   OH213336   3.672   7.176   3.075 -0.0689  0.7650  0.0768
 4464TIP3    H113337   3.642   7.242   3.012  1.3924  2.2598  0.8766
 4464TIP3    H213338   3.626   7.199   3.156 -0.2088  0.2495  0.1451
 4465TIP3   OH213339   0.513   0.211   4.620 -0.2440 -0.2653 -0.2214
 4465TIP3    H113340   0.587   0.270   4.638 -1.4157  1.0583  0.4142
 4465TIP3    H213341   0.537   0.167   4.538  0.8538  0.7870 -0.4906
 4466TIP3   OH213342   7.517   7.395   0.249  0.2237  0.0744 -0.5576
 4466TIP3    H113343   7.443   7.426   0.198  0.4908 -0.3211 -1.1887
 4466TIP3    H213344   7.540   7.310   0.211  0.7369  0.0003 -0.1032
 4467TIP3   OH213345   4.507   5.369   2.080 -0.4241 -0.5592 -0.4082
 4467TIP3    H113346   4.483   5.444   2.134  0.5435 -0.6796  0.2098
 4467TIP3    H213347   4.431   5.355   2.023 -0.5561  0.9991 -0.6718
 4468TIP3   OH213348   4.564   3.499   6.094  0.1783  0.0064 -0.0116
 4468TIP3    H113349   4.593   3.410   6.115  0.6985  0.1214 -0.2222
 4468TIP3    H213350   4.631   3.556   6.133  0.0937  0.2859 -0.2707
 4469TIP3   OH213351   8.270   5.595   4.057 -0.0736  0.2956  0.5352
 4469TIP3    H113352   8.245   5.510   4.019  1.0053  0.1885  0.0259
 4469TIP3    H213353   8.218   5.601   4.137 -0.9185 -0.3825  0.0590
 4470TIP3   OH213354   5.394   5.171   3.730 -0.2990  0.2178  0.3343
 4470TIP3    H113355   5.458   5.237   3.755 -0.9457  2.0199 -2.3394
 4470TIP3    H213356   5.446   5.092   3.713  0.9440  1.0388  0.2221
 4471TIP3   OH213357   4.512   0.314   1.144  0.1440  0.8459 -0.3344
 4471TIP3    H113358   4.418   0.308   1.125  0.3941  0.1000 -1.4377
 4471TIP3    H213359   4.536   0.225   1.171  0.4463  1.1507  0.4405
 4472TIP3   OH213360   7.390   3.635   0.666  0.1727  0.2632  0.4495
 4472TIP3    H113361   7.308   3.590   0.647  0.2655 -0.2605  1.2326
 4472TIP3    H213362   7.374   3.680   0.749  0.7445 -0.0248  0.7214
 4473TIP3   OH213363   3.448   5.702   3.320  0.2369 -0.1620  0.7011
 4473TIP3    H113364   3.378   5.673   3.378 -0.4140 -1.6117 -0.7473
 4473TIP3    H213365   3.412   5.695   3.232  0.6071  3.5540  0.0751
 4474TIP3   OH213366   3.336   4.920   0.005 -0.6182  0.6049  1.2339
 4474TIP3    H113367   3.358   4.852   0.069 -1.4195 -1.3464 -0.4456
 4474TIP3    H213368   3.410   4.919  -0.056 -0.5122  1.4658  1.3381
 4475TIP3   OH213369   8.183   0.700   6.756  0.3405  0.7302 -0.0514
 4475TIP3    H113370   8.179   0.621   6.702  0.2381  0.7223 -0.0338
 4475TIP3    H213371   8.276   0.715   6.770  0.4161  1.4086 -1.2133
 4476TIP3   OH213372   3.011   4.992   6.093  0.8411  0.0079  0.5405
 4476TIP3    H113373   3.075   4.973   6.025 -0.0632  0.7488 -0.5712
 4476TIP3    H213374   3.034   5.080   6.124  0.8512 -0.0608  0.7323
 4477TIP3   OH213375   1.836   0.855   6.127 -0.1660  0.2707 -0.4803
 4477TIP3    H113376   1.931   0.867   6.134 -0.0508 -0.5287 -0.5865
 4477TIP3    H213377   1.824   0.760   6.121 -0.9777  0.3618 -0.4127
 4478TIP3   OH213378   5.888   1.044   6.413  0.1824  0.9568  0.4772
 4478TIP3    H113379   5.846   1.096   6.482  0.2331 -0.6369  1.7437
 4478TIP3    H213380   5.861   1.087   6.332 -2.2660  1.1746  1.3334
 4479TIP3   OH213381   2.068   5.863   3.578 -0.0729 -0.8964 -0.0213
 4479TIP3    H113382   2.124   5.838   3.505  0.8224 -0.4246  0.4918
 4479TIP3    H213383   2.004   5.923   3.540 -0.5522 -1.8225 -0.7125
 4480TIP3   OH213384   2.002   5.227   2.656 -0.0701 -0.0858 -0.2386
 4480TIP3    H113385   1.994   5.257   2.565  2.3936  0.2913 -0.3979
 4480TIP3    H213386   2.089   5.258   2.684 -0.6568 -0.4224  2.1693
 4481TIP3   OH213387   5.437   7.415   3.880 -0.3017  0.0899 -0.3016
 4481TIP3    H113388   5.413   7.504   3.907  2.1042  0.6156  0.3826
 4481TIP3    H213389   5.471   7.426   3.791 -1.1480 -0.3824 -0.6947
 4482TIP3   OH213390   5.781   0.998   5.971 -0.3148  0.4089 -0.1360
 4482TIP3    H113391   5.871   0.973   5.953 -0.2727  0.7427 -0.4097
 4482TIP3    H213392   5.742   0.921   6.012  0.1866  0.3830  0.2914
 4483TIP3   OH213393   4.681   4.621   5.977  0.4353 -0.6156 -0.1683
 4483TIP3    H113394   4.738   4.657   5.908  0.2033 -0.4046 -0.2507
 4483TIP3    H213395   4.621   4.693   5.998 -1.1004 -1.4397 -1.4809
 4484TIP3   OH213396   3.542   7.044   4.663 -0.0407 -0.5873 -0.3499
 4484TIP3    H113397   3.473   7.047   4.597 -0.1977  0.0491 -0.1647
 4484TIP3    H213398   3.510   7.098   4.735  1.1894  0.8111 -0.7941
 4485TIP3   OH213399   2.720   2.098   5.590  0.1767  0.1279  0.2885
 4485TIP3    H113400   2.697   2.190   5.580  1.4235  0.2286 -2.2290
 4485TIP3    H213401   2.690   2.076   5.678  0.1183  2.9983  1.0904
 4486TIP3   OH213402   4.403   3.647   2.138  0.0406 -0.4757 -0.2053
 4486TIP3    H113403   4.388   3.575   2.076  0.3473 -0.1180 -0.7117
 4486TIP3    H213404   4.444   3.605   2.214  0.3687 -0.8192 -0.5631
 4487TIP3   OH213405   1.304   7.133   3.982 -0.0040  0.0690  0.0571
 4487TIP3    H113406   1.251   7.205   3.948 -0.5060 -0.0227  0.6216
 4487TIP3    H213407   1.382   7.132   3.926 -0.0914  0.9036 -0.0958
 4488TIP3   OH213408   7.949   2.688   3.860  0.6665 -0.6732 -0.0790
 4488TIP3    H113409   7.989   2.662   3.777 -1.3023 -0.9364 -0.9995
 4488TIP3    H213410   7.868   2.638   3.865  0.6184 -0.5110  1.9409
 4489TIP3   OH213411   0.940   1.270   6.390  0.3646 -0.0105  0.1491
 4489TIP3    H113412   0.945   1.262   6.295 -1.0878 -0.6810  0.1008
 4489TIP3    H213413   0.916   1.362   6.405 -2.0570 -0.4915 -0.3163
 4490TIP3   OH213414   6.628   5.421   0.258  0.4107  0.1816 -0.6349
 4490TIP3    H113415   6.703   5.410   0.200 -0.2216 -0.4676 -1.3463
 4490TIP3    H213416   6.568   5.479   0.210 -0.8285 -1.6267 -1.3762
 4491TIP3   OH213417   6.368   5.868   3.605  0.1832  0.8892  0.4701
 4491TIP3    H113418   6.367   5.823   3.521  2.0977  0.5480  0.5961
 4491TIP3    H213419   6.302   5.823   3.657 -0.2280  0.3816 -0.4660
 4492TIP3   OH213420   3.712   5.720   3.737  0.3174  0.0198  0.2485
 4492TIP3    H113421   3.712   5.635   3.781 -0.9375 -1.0385 -1.6264
 4492TIP3    H213422   3.720   5.698   3.644  2.4071  2.1177 -0.1393
 4493TIP3   OH213423   7.479   1.256   4.433  0.3473  0.0482 -0.8421
 4493TIP3    H113424   7.529   1.214   4.363  2.0764  0.2174  0.2421
 4493TIP3    H213425   7.389   1.257   4.400  0.6555 -2.1682 -1.9949
 4494TIP3   OH213426   3.456   1.491   0.841 -0.1217  0.6825  0.5190
 4494TIP3    H113427   3.497   1.486   0.754 -1.0809 -0.7408  0.1083
 4494TIP3    H213428   3.462   1.401   0.875 -0.1841  1.1251  1.7403
 4495TIP3   OH213429   6.875   1.645   3.517 -0.0512  0.5509 -0.2139
 4495TIP3    H113430   6.964   1.662   3.486 -0.0340  0.7850 -0.0421
 4495TIP3    H213431   6.833   1.732   3.518 -0.6755  0.2788 -1.5027
 4496TIP3   OH213432   7.109   4.101   3.569  0.3678 -0.0363  0.0781
 4496TIP3    H113433   7.099   4.117   3.475  0.6830 -1.5844 -0.2366
 4496TIP3    H213434   7.050   4.165   3.610  0.3882  0.8108 -1.1453
 4497TIP3   OH213435   5.111   0.207   5.598 -1.2924 -0.2741  0.8020
 4497TIP3    H113436   5.157   0.250   5.670 -2.0831  0.9407  0.6168
 4497TIP3    H213437   5.033   0.262   5.584  0.2043  1.2617 -2.8421
 4498TIP3   OH213438   5.125   2.186   3.344  0.2422  0.0467 -0.1002
 4498TIP3    H113439   5.127   2.107   3.289  3.1136  0.1692 -0.3669
 4498TIP3    H213440   5.163   2.157   3.427 -2.5269  0.2593  1.3405
 4499TIP3   OH213441   4.192   4.967   3.134 -0.1208  0.0416  0.2133
 4499TIP3    H113442   4.138   4.920   3.198  0.8958  0.8205  1.7037
 4499TIP3    H213443   4.130   5.021   3.084 -0.7169  1.2314  2.1521
 4500TIP3   OH213444   2.102   6.766   5.203 -0.2451 -0.2917  0.4099
 4500TIP3    H113445   2.140   6.700   5.261 -0.4570 -0.2725  0.5746
 4500TIP3    H213446   2.111   6.848   5.251 -0.3649 -0.2666  0.3907
 4501TIP3   OH213447   7.193   4.793   5.456 -0.5599  0.1857  0.9874
 4501TIP3    H113448   7.177   4.784   5.550 -1.4434 -0.1533  0.8211
 4501TIP3    H213449   7.154   4.715   5.418 -2.1086  1.3045  0.1489
 4502TIP3   OH213450   0.876   3.123   4.524 -0.0843 -0.2280 -0.0958
 4502TIP3    H113451   0.809   3.169   4.474  1.3732  0.6958 -1.3100
 4502TIP3    H213452   0.850   3.133   4.615 -0.6892  1.6057 -0.4315
 4503TIP3   OH213453   4.905   7.271   5.662 -0.2178  0.2766 -0.3079
 4503TIP3    H113454   4.848   7.194   5.655  1.2006 -0.7636 -0.9942
 4503TIP3    H213455   4.903   7.310   5.575 -0.3999  0.6071 -0.1532
 4504TIP3   OH213456   0.166   0.297   6.513 -0.1278  0.2023  0.1207
 4504TIP3    H113457   0.228   0.234   6.475  0.2118 -0.0929  1.1395
 4504TIP3    H213458   0.086   0.286   6.461  0.1728 -0.5231 -0.2011
 4505TIP3   OH213459   2.906   3.066   0.302  0.2343 -0.8689 -0.0946
 4505TIP3    H113460   2.973   3.083   0.369 -0.7250  0.9080  0.4839
 4505TIP3    H213461   2.915   3.140   0.241 -1.8467 -0.0211  0.5627
 4506TIP3   OH213462   2.577   2.324   3.438  0.4979  0.4432 -0.1987
 4506TIP3    H113463   2.560   2.232   3.422 -1.8874  0.8128 -0.1385
 4506TIP3    H213464   2.597   2.361   3.352  3.0468 -0.3327 -0.0382
 4507TIP3   OH213465   2.779   1.331   2.423  0.0156 -0.4966 -0.6677
 4507TIP3    H113466   2.809   1.421   2.433  0.1838 -0.4485 -1.4961
 4507TIP3    H213467   2.853   1.278   2.453 -0.3496 -0.3687  0.5127
 4508TIP3   OH213468   5.997   0.962   4.311  0.0538 -0.2398  0.5110
 4508TIP3    H113469   5.956   0.893   4.363 -2.8781  0.2191 -0.9970
 4508TIP3    H213470   5.965   0.947   4.222  2.1401  1.0550 -0.5325
 4509TIP3   OH213471   4.550   6.002   5.817  0.7701 -0.0974  0.0107
 4509TIP3    H113472   4.511   5.979   5.901  0.5169  0.3733  0.0257
 4509TIP3    H213473   4.514   6.088   5.796 -0.2741 -0.7905 -1.2527
 4510TIP3   OH213474   4.868   4.983   4.913 -0.5234  0.7095 -0.4588
 4510TIP3    H113475   4.864   4.901   4.962 -0.1484  0.7543 -0.3504
 4510TIP3    H213476   4.936   5.034   4.957  0.4317  0.4050 -1.5431
 4511TIP3   OH213477   2.378   2.443   0.541 -0.4632 -0.3534  0.1633
 4511TIP3    H113478   2.406   2.374   0.480 -0.5479 -1.7243  1.6145
 4511TIP3    H213479   2.458   2.472   0.584 -0.4777  0.2045 -0.1763
 4512TIP3   OH213480   0.388   4.487   2.973 -0.0827  0.3046  0.0234
 4512TIP3    H113481   0.482   4.489   2.987  0.4563  2.3848 -2.8876
 4512TIP3    H213482   0.361   4.579   2.974 -1.9188 -0.1791 -0.0573
 4513TIP3   OH213483   1.498   5.053   4.568  0.1207 -0.0407  0.0882
 4513TIP3    H113484   1.415   5.099   4.558 -1.3705 -2.5356 -0.0613
 4513TIP3    H213485   1.527   5.075   4.657  0.2347  2.1866 -0.4418
 4514TIP3   OH213486   5.516   5.477   0.758 -0.1677 -0.3846 -0.2410
 4514TIP3    H113487   5.500   5.552   0.816 -1.4392 -0.2308 -0.7743
 4514TIP3    H213488   5.605   5.450   0.779 -1.0521 -1.2394  2.8085
 4515TIP3   OH213489   7.175   1.236   2.611  0.0681  0.2744 -0.3225
 4515TIP3    H113490   7.225   1.243   2.529  1.0932  0.6213  0.3017
 4515TIP3    H213491   7.239   1.202   2.674 -1.2719 -2.0597 -0.1429
 4516TIP3   OH213492   8.034   4.830   0.701  0.9494  0.4328  0.0181
 4516TIP3    H113493   8.067   4.743   0.724  0.5250  0.0371 -0.8211
 4516TIP3    H213494   7.943   4.815   0.676  1.2463  0.8871 -1.4536
 4517TIP3   OH213495   5.367   2.846   5.463 -0.0459  0.3540  0.2157
 4517TIP3    H113496   5.347   2.756   5.490 -3.2898  0.2131 -2.0893
 4517TIP3    H213497   5.462   2.846   5.451  0.2203 -2.4018  1.3558
 4518TIP3   OH213498   4.534   5.174   5.468  0.6305  0.0947  0.2748
 4518TIP3    H113499   4.587   5.253   5.474  2.2337 -0.8226 -0.9276
 4518TIP3    H213500   4.522   5.146   5.559 -0.6749  2.1184  0.7755
 4519TIP3   OH213501   0.119   7.187   6.389 -0.4709  0.2424 -0.1139
 4519TIP3    H113502   0.189   7.154   6.446  0.0694 -0.6110 -1.2385
 4519TIP3    H213503   0.093   7.111   6.337 -3.1328  0.2043  1.1195
 4520TIP3   OH213504   4.903   4.462   2.775 -0.0061  0.2347 -0.4866
 4520TIP3    H113505   4.872   4.533   2.831  2.5608 -0.0593  1.5303
 4520TIP3    H213506   4.926   4.505   2.693  0.4141  1.5807  0.2958
 4521TIP3   OH213507   1.068   1.941   2.460  0.9026 -0.0615 -0.4468
 4521TIP3    H113508   1.019   2.014   2.498 -0.1439 -1.3420  0.7841
 4521TIP3    H213509   1.000   1.882   2.427  1.7470 -0.2020 -2.0228
 4522TIP3   OH213510   3.311   2.509   2.673  0.4716  0.0799  0.0673
 4522TIP3    H113511   3.243   2.529   2.737  0.0895  2.5252 -1.0251
 4522TIP3    H213512   3.292   2.419   2.645 -0.1588 -0.5505  2.3269
 4523TIP3   OH213513   3.556   4.899   5.962 -0.6428  0.2982  0.7308
 4523TIP3    H113514   3.625   4.909   6.028  1.6012  1.0431 -1.5524
 4523TIP3    H213515   3.573   4.969   5.899 -2.4380 -0.6101 -0.8645
 4524TIP3   OH213516   8.275   6.994   3.731  0.7917 -0.3001  0.0187
 4524TIP3    H113517   8.214   6.944   3.786 -0.2252  1.2610  0.3789
 4524TIP3    H213518   8.235   6.993   3.644  0.4047  0.4469  0.1817
 4525TIP3   OH213519   6.413   7.362   6.144 -0.1518  0.2358 -0.1779
 4525TIP3    H113520   6.448   7.405   6.222 -0.2778  1.5169 -0.8084
 4525TIP3    H213521   6.322   7.343   6.167 -0.3118  0.9965 -0.1540
 4526TIP3   OH213522   0.855   2.985   2.040  0.4664  0.1817 -0.3542
 4526TIP3    H113523   0.854   3.027   2.126 -2.7849  1.2318 -0.7556
 4526TIP3    H213524   0.896   3.049   1.982  1.1423  0.1831  0.1207
 4527TIP3   OH213525   3.011   6.318   3.785  0.1362  0.0857  0.4009
 4527TIP3    H113526   3.031   6.230   3.752  2.7682  0.6803  0.1872
 4527TIP3    H213527   3.084   6.339   3.843 -1.2836  1.5082  1.7693
 4528TIP3   OH213528   5.178   3.616   4.560 -0.3201 -0.3089  0.6575
 4528TIP3    H113529   5.243   3.686   4.572  1.0627 -0.7694 -2.8313
 4528TIP3    H213530   5.229   3.536   4.561 -1.3869 -1.0050  1.1760
 4529TIP3   OH213531   1.241   3.989   2.245 -0.2424 -0.3626 -0.3419
 4529TIP3    H113532   1.202   3.988   2.158  0.6524 -2.4521 -0.7537
 4529TIP3    H213533   1.233   3.899   2.277 -0.5204  0.3387  1.7445
 4530TIP3   OH213534   5.681   2.786   2.586 -0.1730 -0.4239 -0.2638
 4530TIP3    H113535   5.691   2.693   2.566 -0.6067 -0.4228 -0.4940
 4530TIP3    H213536   5.592   2.794   2.618  0.2824 -0.3046  1.0099
 4531TIP3   OH213537   0.805   4.368   3.728  1.0614 -0.1326  0.1993
 4531TIP3    H113538   0.823   4.405   3.642  1.5311  0.0743  0.3817
 4531TIP3    H213539   0.780   4.443   3.781  1.2304 -0.1891  0.3610
 4532TIP3   OH213540   4.547   7.426   1.141 -0.1529 -0.0101  0.6814
 4532TIP3    H113541   4.466   7.420   1.090 -0.5811  0.5375  1.2692
 4532TIP3    H213542   4.572   7.335   1.159 -1.8648 -0.2123  2.3606
 4533TIP3   OH213543   0.087   2.714   3.436 -0.3446  0.3811  0.2980
 4533TIP3    H113544   0.173   2.744   3.408 -0.6904  1.1555  0.0429
 4533TIP3    H213545   0.034   2.713   3.356 -0.5342 -0.2500  0.4231
 4534TIP3   OH213546   1.330   6.736   2.727  0.6924  0.0076  0.0604
 4534TIP3    H113547   1.286   6.729   2.812  0.8463  0.6884  0.2086
 4534TIP3    H213548   1.308   6.656   2.681  1.0663 -0.6281  0.9621
 4535TIP3   OH213549   3.049   4.120   2.998  0.5061 -0.4071  0.0914
 4535TIP3    H113550   3.007   4.191   2.951  0.2986 -0.0588  0.7871
 4535TIP3    H213551   3.071   4.056   2.930  2.0319  0.9508 -0.7738
 4536TIP3   OH213552   0.070   5.027   5.479  0.0644 -0.0931 -0.2995
 4536TIP3    H113553   0.038   4.952   5.529  1.4737 -1.7140 -1.7235
 4536TIP3    H213554   0.139   5.065   5.533 -1.0796  0.6403  0.7139
 4537TIP3   OH213555   4.053   3.744   5.533  0.2133 -0.0549 -0.3535
 4537TIP3    H113556   4.060   3.769   5.625  0.1923  1.4834 -0.7529
 4537TIP3    H213557   4.028   3.651   5.536 -0.8593  0.2414  1.1909
 4538TIP3   OH213558   4.719   5.891   2.511 -0.0149  0.2695  0.1935
 4538TIP3    H113559   4.672   5.963   2.554  0.4461  1.0645 -0.5921
 4538TIP3    H213560   4.778   5.935   2.449 -0.9470 -0.8402 -1.5481
 4539TIP3   OH213561   0.735   7.532   1.954 -0.3793  0.4116 -0.0912
 4539TIP3    H113562   0.742   7.551   1.860  3.4326  0.1469  0.0064
 4539TIP3    H213563   0.739   7.436   1.959  1.2846  0.4708  0.3471
 4540TIP3   OH213564   8.217   5.938   0.795  0.1740  0.1206  0.4623
 4540TIP3    H113565   8.264   5.866   0.838 -0.3845 -0.9840 -0.6986
 4540TIP3    H213566   8.175   5.986   0.866  0.1258 -1.0280  1.2335
 4541TIP3   OH213567   0.977   4.626   0.591  0.4128 -0.0352 -0.0159
 4541TIP3    H113568   1.011   4.624   0.681  0.7582 -0.0003 -0.1454
 4541TIP3    H213569   0.891   4.584   0.598  1.1489 -1.6224  0.0417
 4542TIP3   OH213570   0.423   4.813   5.357  0.5029 -0.2532  0.0960
 4542TIP3    H113571   0.417   4.888   5.416  0.0948 -0.2067  0.0008
 4542TIP3    H213572   0.486   4.754   5.399 -1.4486 -1.2974  1.8015
 4543TIP3   OH213573   4.109   0.534   4.743  0.7485  0.0501  0.5963
 4543TIP3    H113574   4.116   0.440   4.763 -0.0275 -0.5855 -1.8515
 4543TIP3    H213575   4.141   0.577   4.823  1.1405 -2.2713  1.7910
 4544TIP3   OH213576   5.586   4.334   6.632  0.4862 -0.5495  0.0519
 4544TIP3    H113577   5.517   4.296   6.578 -0.4222 -0.3965  1.0814
 4544TIP3    H213578   5.550   4.335   6.720  2.2519 -1.5153  0.8196
 4545TIP3   OH213579   3.419   4.744   6.436  0.2553  0.1205 -0.4727
 4545TIP3    H113580   3.452   4.682   6.370 -0.3754 -0.5715 -0.1498
 4545TIP3    H213581   3.498   4.786   6.470  0.8266 -1.4751  0.2554
 4546TIP3   OH213582   1.144   3.633   5.348  0.1959  0.7942  0.7504
 4546TIP3    H113583   1.093   3.697   5.299 -0.4298  0.5234  1.0412
 4546TIP3    H213584   1.192   3.583   5.281 -1.1418  0.0028  0.3555
 4547TIP3   OH213585   5.396   6.589   1.526 -0.2483 -0.0610 -0.5136
 4547TIP3    H113586   5.396   6.685   1.526 -0.3159 -0.0607 -0.5957
 4547TIP3    H213587   5.394   6.565   1.433  2.8042 -0.1429 -0.6734
 4548TIP3   OH213588   5.683   4.487   3.277 -0.4795 -0.0612  0.1553
 4548TIP3    H113589   5.616   4.501   3.344 -1.4339 -0.8599 -0.5908
 4548TIP3    H213590   5.752   4.439   3.321 -0.4981  0.5514  0.8799
 4549TIP3   OH213591   7.688   4.623   3.324 -0.3448  0.2462 -0.0736
 4549TIP3    H113592   7.599   4.637   3.357 -0.3120 -1.6240  0.9332
 4549TIP3    H213593   7.679   4.632   3.229 -1.5662  0.2902  0.0227
 4550TIP3   OH213594   4.259   1.822   2.457  0.1030 -0.2598 -0.0128
 4550TIP3    H113595   4.341   1.805   2.410 -0.2643 -0.6677 -0.5197
 4550TIP3    H213596   4.190   1.796   2.395 -0.4760  2.0673 -0.4493
 4551TIP3   OH213597   3.956   5.680   3.314 -0.0813  0.0172 -0.3994
 4551TIP3    H113598   4.017   5.624   3.362 -0.6355 -0.1259  0.1644
 4551TIP3    H213599   3.897   5.618   3.270 -0.7506  0.1423  0.2996
 4552TIP3   OH213600   4.875   0.398   0.538 -0.7036  0.7339  0.0214
 4552TIP3    H113601   4.887   0.373   0.447 -0.3714  0.9257  0.0114
 4552TIP3    H213602   4.786   0.369   0.560 -1.1837  1.6212 -0.6779
 4553TIP3   OH213603   4.733   1.205   4.080  0.6648 -0.3422  0.4170
 4553TIP3    H113604   4.808   1.236   4.129  0.1015  0.6045  0.7125
 4553TIP3    H213605   4.740   1.110   4.082  2.4230 -0.2802 -0.4719
 4554TIP3   OH213606   4.093   4.505   5.527 -1.3162  0.0904  0.0213
 4554TIP3    H113607   4.030   4.501   5.599 -0.2358 -1.3667  0.9412
 4554TIP3    H213608   4.095   4.416   5.491  0.2266  0.0726  0.0596
 4555TIP3   OH213609   4.816   4.737   2.866 -0.2762  0.5378  0.1444
 4555TIP3    H113610   4.755   4.751   2.793 -1.3788 -2.6248  0.2749
 4555TIP3    H213611   4.759   4.715   2.940  0.9302  0.0800  0.9597
 4556TIP3   OH213612   4.997   0.974   3.467 -0.1194  0.1172  0.5373
 4556TIP3    H113613   5.078   0.985   3.516 -0.2867 -0.3966  0.9302
 4556TIP3    H213614   5.025   0.941   3.381  0.0763 -0.2139  0.7275
 4557TIP3   OH213615   3.975   5.128   4.558 -0.0862 -0.5682  0.3695
 4557TIP3    H113616   3.995   5.038   4.532 -1.3007 -0.7316 -0.0323
 4557TIP3    H213617   3.969   5.124   4.654 -1.1002 -1.1291  0.2917
 4558TIP3   OH213618   3.625   1.162   1.571  0.2390  0.4604 -0.3559
 4558TIP3    H113619   3.715   1.194   1.566  0.9732 -1.3853  0.3062
 4558TIP3    H213620   3.612   1.142   1.664 -1.3676  2.0010 -0.1841
 4559TIP3   OH213621   3.302   2.760   1.356  0.0295  0.2082 -0.5216
 4559TIP3    H113622   3.378   2.736   1.410 -1.9380 -1.7383  1.6302
 4559TIP3    H213623   3.301   2.855   1.357  1.3521  0.2507  1.0681
 4560TIP3   OH213624   4.720   0.805   2.491 -0.6783 -0.3116  0.0875
 4560TIP3    H113625   4.771   0.886   2.484  1.7316 -1.7274  0.1998
 4560TIP3    H213626   4.757   0.748   2.425 -3.2860 -0.9200 -0.9591
 4561TIP3   OH213627   4.342   6.176   4.259  0.2451 -0.8937 -0.0399
 4561TIP3    H113628   4.252   6.201   4.238 -0.3231 -0.6642  2.4219
 4561TIP3    H213629   4.369   6.238   4.327  2.1695 -1.1495 -0.5068
 4562TIP3   OH213630   6.515   3.920   2.238 -0.0918 -0.1683 -0.4901
 4562TIP3    H113631   6.518   4.015   2.245 -1.6466 -0.2204  1.7953
 4562TIP3    H213632   6.576   3.889   2.305 -0.5932 -0.7719 -0.3044
 4563TIP3   OH213633   0.803   6.281   2.028 -0.1978 -0.3105 -0.2179
 4563TIP3    H113634   0.722   6.230   2.024 -0.2186 -0.4366  1.3335
 4563TIP3    H213635   0.780   6.365   1.988 -0.8946 -0.6036 -0.4473
 4564TIP3   OH213636   4.766   6.790   5.511 -0.2668  0.1882  0.0999
 4564TIP3    H113637   4.719   6.720   5.464 -0.2964  0.2010  0.1106
 4564TIP3    H213638   4.767   6.760   5.602  1.8155 -0.9694 -0.2540
 4565TIP3   OH213639   2.390   7.815   1.445  0.0198 -0.0254  0.1643
 4565TIP3    H113640   2.306   7.770   1.437 -0.0772  0.2857 -0.7469
 4565TIP3    H213641   2.367   7.903   1.475 -0.2529  0.8263 -2.3005
 4566TIP3   OH213642   2.638   1.192   1.091 -0.0939  0.1508  0.5844
 4566TIP3    H113643   2.651   1.178   0.998 -1.4612  0.7045  0.2834
 4566TIP3    H213644   2.689   1.123   1.133 -0.8971 -1.2406 -0.6250
 4567TIP3   OH213645   2.900   7.684   0.364  0.4218 -0.1360 -0.2557
 4567TIP3    H113646   2.947   7.732   0.432 -0.4542 -1.0275  1.0248
 4567TIP3    H213647   2.822   7.650   0.408 -1.2058  0.8673 -2.1832
 4568TIP3   OH213648   3.168   7.027   3.986  0.6349  0.5477  0.2510
 4568TIP3    H113649   3.180   7.101   4.046  1.9868  1.3304 -0.9172
 4568TIP3    H213650   3.225   6.958   4.021  0.8126  0.7218  0.3057
 4569TIP3   OH213651   7.353   5.297   6.275 -0.4742 -0.2576 -0.1172
 4569TIP3    H113652   7.316   5.385   6.263  0.7103  0.3508  0.4672
 4569TIP3    H213653   7.327   5.249   6.196 -0.7505  0.7612 -0.6651
 4570TIP3   OH213654   4.647   3.337   6.555 -0.1549  0.1409 -0.4802
 4570TIP3    H113655   4.607   3.260   6.515  0.1293 -0.4442  0.3436
 4570TIP3    H213656   4.576   3.402   6.556 -0.9783 -0.7307  0.5342
 4571TIP3   OH213657   6.539   6.932   2.224 -0.4399  0.3525 -0.0796
 4571TIP3    H113658   6.597   6.905   2.295 -0.9442 -0.2699  0.1018
 4571TIP3    H213659   6.594   6.926   2.145 -0.9093 -2.8424 -0.3170
 4572TIP3   OH213660   1.028   0.932   4.441 -0.0180 -0.4132  0.5978
 4572TIP3    H113661   0.977   0.851   4.440 -2.0651  0.7579  2.4268
 4572TIP3    H213662   0.963   1.001   4.444  1.6976  1.2794  0.6643
 4573TIP3   OH213663   6.843   4.710   1.526 -0.3071 -0.2379  0.2576
 4573TIP3    H113664   6.839   4.647   1.454  0.4600 -0.3513  0.3036
 4573TIP3    H213665   6.768   4.767   1.512 -0.0267 -0.1044 -0.7791
 4574TIP3   OH213666   7.673   6.405   2.580 -0.3452  0.4079 -0.1108
 4574TIP3    H113667   7.595   6.351   2.566 -0.1054  0.4592 -1.8318
 4574TIP3    H213668   7.743   6.359   2.534  0.7801  0.1594  1.7310
 4575TIP3   OH213669   7.461   0.405   5.835 -0.2043  0.1101 -0.2204
 4575TIP3    H113670   7.479   0.392   5.928 -0.4343 -0.4609 -0.2513
 4575TIP3    H213671   7.389   0.468   5.833  0.2435  0.6254 -0.0312
 4576TIP3   OH213672   5.073   2.691   2.287 -0.4999  0.3616 -0.1682
 4576TIP3    H113673   5.155   2.730   2.319 -0.7985  1.4394 -0.6545
 4576TIP3    H213674   5.059   2.733   2.202 -1.7426  0.4507  0.0624
 4577TIP3   OH213675   5.148   6.113   5.450 -0.5716  0.2540 -0.0881
 4577TIP3    H113676   5.059   6.124   5.416 -0.5931  0.4350  0.0280
 4577TIP3    H213677   5.138   6.050   5.522 -0.4988 -0.2762 -0.5282
 4578TIP3   OH213678   8.085   6.464   2.553 -0.1702 -0.7184 -0.5045
 4578TIP3    H113679   8.033   6.511   2.619 -0.4401  0.0591 -1.2477
 4578TIP3    H213680   8.168   6.445   2.597 -0.0575  0.4662 -0.1623
 4579TIP3   OH213681   7.553   4.990   3.034  0.0961 -0.2263  1.2121
 4579TIP3    H113682   7.607   4.963   2.960 -1.9939 -1.1103 -0.0714
 4579TIP3    H213683   7.465   4.957   3.013 -1.2054  2.0489  2.6878
 4580TIP3   OH213684   4.907   1.650   3.716  0.3708 -0.3513  0.9932
 4580TIP3    H113685   4.952   1.686   3.639 -0.4523  1.3800  1.2836
 4580TIP3    H213686   4.964   1.672   3.789 -1.1376  2.4832  1.4563
 4581TIP3   OH213687   7.802   7.528   3.428 -0.0531  0.3382  0.5744
 4581TIP3    H113688   7.799   7.482   3.344 -0.2998  1.3504  0.0134
 4581TIP3    H213689   7.891   7.512   3.460 -0.1551 -0.5798  0.4383
 4582TIP3   OH213690   4.135   1.247   1.341 -0.7022  0.1290  0.0115
 4582TIP3    H113691   4.066   1.191   1.303 -0.6127  0.7272 -1.0719
 4582TIP3    H213692   4.215   1.197   1.330 -0.8320 -0.1871  0.4645
 4583TIP3   OH213693   4.820   0.933   0.261 -0.1566  0.0828  0.6712
 4583TIP3    H113694   4.742   0.986   0.273  0.1891  0.3191  1.9875
 4583TIP3    H213695   4.847   0.909   0.349  1.4912  0.3299  0.2607
 4584TIP3   OH213696   8.150   0.966   5.197  0.2799  0.6604 -0.5603
 4584TIP3    H113697   8.233   0.999   5.161  0.6739  0.2498 -0.0465
 4584TIP3    H213698   8.111   0.918   5.125  0.1413  1.4483 -1.0308
 4585TIP3   OH213699   3.088   0.548   1.816 -0.1729 -0.4460  0.3311
 4585TIP3    H113700   3.020   0.531   1.881 -1.0455 -3.4185 -1.2127
 4585TIP3    H213701   3.169   0.549   1.867 -1.0401 -0.0217  1.7870
 4586TIP3   OH213702   6.122   0.675   1.251 -0.2210 -0.4200 -0.2321
 4586TIP3    H113703   6.078   0.759   1.240  0.8741  0.0285 -1.4503
 4586TIP3    H213704   6.051   0.611   1.259 -1.0710  0.4648 -0.6182
 4587TIP3   OH213705   4.100   7.403   4.100 -0.3005  0.5741  0.4637
 4587TIP3    H113706   4.065   7.350   4.029  3.7664 -0.7127 -0.8176
 4587TIP3    H213707   4.113   7.342   4.172  0.8692  0.6238  0.3073
 4588TIP3   OH213708   1.123   6.672   4.421  0.2091 -0.2383  0.0560
 4588TIP3    H113709   1.174   6.745   4.456 -0.3002 -0.0326  0.3806
 4588TIP3    H213710   1.039   6.676   4.468  1.0165 -2.5068  1.8710
 4589TIP3   OH213711   0.202   6.199   5.003 -0.4893  0.1977  0.3432
 4589TIP3    H113712   0.284   6.157   5.032 -0.8819 -0.0246  1.1869
 4589TIP3    H213713   0.205   6.286   5.042 -0.1283  0.6077 -0.5906
 4590TIP3   OH213714   2.403   2.421   0.063  0.9959  0.3881  0.1563
 4590TIP3    H113715   2.444   2.471  -0.007  1.2158 -0.0430 -0.0200
 4590TIP3    H213716   2.343   2.361   0.019  1.6624 -0.3910  0.2752
 4591TIP3   OH213717   2.713   0.652   0.439  0.4533  0.0773  0.3395
 4591TIP3    H113718   2.650   0.625   0.373  1.0062 -0.0422 -0.1442
 4591TIP3    H213719   2.742   0.570   0.479  1.3687  0.0058 -0.4298
 4592TIP3   OH213720   3.242   7.787   0.665 -0.1196 -0.1474  0.0451
 4592TIP3    H113721   3.194   7.808   0.585  2.3808 -0.7026 -1.7411
 4592TIP3    H213722   3.274   7.871   0.697 -0.4708 -0.0049  0.0267
 4593TIP3   OH213723   2.953   1.722   3.105 -0.1701 -0.8476 -0.1910
 4593TIP3    H113724   2.895   1.769   3.046 -1.8360 -0.7218  1.4568
 4593TIP3    H213725   2.945   1.767   3.189  2.6017 -0.6355  0.0523
 4594TIP3   OH213726   6.231   0.651   0.981  0.4101  0.0695  0.1624
 4594TIP3    H113727   6.210   0.621   1.069  2.6764 -0.0328  0.7159
 4594TIP3    H213728   6.163   0.716   0.961  0.0686  0.3597  2.1108
 4595TIP3   OH213729   5.919   5.159   4.353 -0.2576  0.3596  0.6134
 4595TIP3    H113730   5.872   5.242   4.343  0.3292  0.8109  1.5128
 4595TIP3    H213731   5.885   5.105   4.282 -0.2614  1.5393 -0.3256
 4596TIP3   OH213732   3.623   3.072   4.750  1.1619  0.3335  0.1383
 4596TIP3    H113733   3.528   3.073   4.762  1.2627 -0.2410  1.0652
 4596TIP3    H213734   3.644   2.979   4.739  1.6016  0.4733 -0.2019
 4597TIP3   OH213735   6.545   6.761   5.784 -0.0148 -0.3793 -0.1306
 4597TIP3    H113736   6.486   6.816   5.732  0.2824  1.5598  1.4737
 4597TIP3    H213737   6.627   6.760   5.736 -0.2311  0.0280 -0.5083
 4598TIP3   OH213738   2.384   2.125   0.146 -0.3367  0.1135  0.0922
 4598TIP3    H113739   2.460   2.159   0.099  0.3717  1.3434  1.9915
 4598TIP3    H213740   2.397   2.030   0.148  1.0396  0.2847  0.1549
 4599TIP3   OH213741   4.842   0.368   3.394  0.3939  0.1286  0.3927
 4599TIP3    H113742   4.810   0.458   3.388 -1.4933 -0.4147  1.4503
 4599TIP3    H213743   4.846   0.350   3.488  1.2778 -0.7264  0.2072
 4600TIP3   OH213744   0.850   1.140   4.439 -0.2153  0.5376  0.1138
 4600TIP3    H113745   0.833   1.147   4.345  1.2166  1.8414 -0.0795
 4600TIP3    H213746   0.813   1.221   4.475 -1.9958 -0.5590  0.9254
 4601TIP3   OH213747   6.432   2.946   1.998  0.0261  0.1099 -0.2373
 4601TIP3    H113748   6.452   2.926   1.907 -1.4772  0.8161 -0.7513
 4601TIP3    H213749   6.412   3.039   1.999 -2.2320 -0.3227  0.3521
 4602TIP3   OH213750   8.092   3.178   1.377  0.2573  0.5862 -0.4138
 4602TIP3    H113751   7.998   3.189   1.360  0.5494  0.5778 -2.2902
 4602TIP3    H213752   8.118   3.106   1.320  1.7318  1.7881 -1.3506
 4603TIP3   OH213753   7.919   2.876   1.329 -0.3329 -0.1059  0.2716
 4603TIP3    H113754   7.980   2.806   1.355  0.7634  0.3544 -0.9692
 4603TIP3    H213755   7.973   2.938   1.280 -1.4219  1.3118  0.7973
 4604TIP3   OH213756   5.094   7.503   1.077 -0.5740  0.6882 -0.1494
 4604TIP3    H113757   5.101   7.470   0.987 -0.0439  0.5630 -0.0671
 4604TIP3    H213758   5.155   7.577   1.080  0.9114 -0.4947  0.6282
 4605TIP3   OH213759   1.669   1.899   0.284 -0.8909 -0.4726  0.2177
 4605TIP3    H113760   1.706   1.924   0.199  0.5797  1.1061  1.2428
 4605TIP3    H213761   1.599   1.963   0.298 -1.4847 -1.0604 -0.0122
 4606TIP3   OH213762   3.851   5.579   2.846 -0.7008  0.1492  0.3841
 4606TIP3    H113763   3.846   5.591   2.941 -1.3769 -1.5273  0.5949
 4606TIP3    H213764   3.764   5.601   2.815 -1.6323 -2.7314  0.6524
 4607TIP3   OH213765   6.162   6.021   6.328 -0.1376  0.3796 -0.0273
 4607TIP3    H113766   6.202   6.057   6.250 -0.5481 -0.0842 -0.4618
 4607TIP3    H213767   6.103   5.953   6.296 -1.5759  1.3058  0.5487
 4608TIP3   OH213768   3.721   1.702   0.715 -0.7673  0.4313 -0.3025
 4608TIP3    H113769   3.666   1.709   0.638 -0.0450  2.2948 -0.7153
 4608TIP3    H213770   3.806   1.736   0.687  0.4985 -1.9140  0.4357
 4609TIP3   OH213771   2.317   2.622   2.154 -0.5612 -0.1142  0.0948
 4609TIP3    H113772   2.264   2.698   2.130 -0.1030  0.2190  0.1026
 4609TIP3    H213773   2.359   2.595   2.072 -0.7235 -0.3627  0.0921
 4610TIP3   OH213774   2.933   0.888   5.027 -0.1875 -0.3732  0.3234
 4610TIP3    H113775   2.893   0.925   5.106  0.2506  1.4083 -0.2469
 4610TIP3    H213776   3.022   0.925   5.026  0.3901 -1.7056 -0.1415
 4611TIP3   OH213777   6.244   6.719   4.539  0.4681 -0.7465 -0.6213
 4611TIP3    H113778   6.149   6.730   4.547  0.3646 -1.3644 -0.9381
 4611TIP3    H213779   6.280   6.771   4.612 -0.0901 -0.2447 -0.6941
 4612TIP3   OH213780   6.133   3.161   6.243  0.3018 -0.2152 -0.0795
 4612TIP3    H113781   6.067   3.151   6.311  0.1573 -0.5322 -0.2659
 4612TIP3    H213782   6.122   3.084   6.187  2.2133 -1.3952  1.0501
 4613TIP3   OH213783   5.321   5.028   1.437 -0.0904  0.2962 -0.2160
 4613TIP3    H113784   5.359   5.007   1.352  0.6254  1.8770 -0.3272
 4613TIP3    H213785   5.388   5.002   1.501  0.8395  2.1780 -0.3587
 4614TIP3   OH213786   0.279   7.470   5.843 -0.4040 -0.8517 -0.0229
 4614TIP3    H113787   0.323   7.425   5.915 -1.0104 -1.3367  0.0518
 4614TIP3    H213788   0.199   7.505   5.883  0.1805  0.5381 -0.0143
 4615TIP3   OH213789   6.466   2.864   4.019  0.1366  0.2883 -0.4424
 4615TIP3    H113790   6.483   2.831   4.107  0.2733  2.4428  0.4146
 4615TIP3    H213791   6.540   2.923   4.001 -0.9308  1.4896 -1.1050
 4616TIP3   OH213792   5.330   1.930   5.173 -0.3995 -0.1053 -0.4106
 4616TIP3    H113793   5.250   1.907   5.219 -1.4842  1.0318 -1.6478
 4616TIP3    H213794   5.316   1.896   5.084  1.0789 -1.0779 -0.3162
 4617TIP3   OH213795   7.021   5.347   3.912  0.4168  0.4743 -0.3703
 4617TIP3    H113796   6.967   5.422   3.888 -1.4552  0.5557  3.4932
 4617TIP3    H213797   6.959   5.276   3.927  1.8640 -0.9221 -0.6592
 4618TIP3   OH213798   7.234   7.072   2.121  0.6479 -0.1331  0.3421
 4618TIP3    H113799   7.295   7.144   2.136  0.3459  0.1661  0.1482
 4618TIP3    H213800   7.163   7.087   2.183  0.1252  0.2682 -0.3363
 4619TIP3   OH213801   7.265   5.185   3.301 -0.0422 -0.6946  0.0831
 4619TIP3    H113802   7.202   5.130   3.255  0.0649  0.7138 -1.8712
 4619TIP3    H213803   7.242   5.274   3.276  0.8737  0.0712  1.7674
 4620TIP3   OH213804   3.133   5.990   1.367 -0.0217  0.5544 -0.6272
 4620TIP3    H113805   3.100   5.943   1.291 -0.8306  0.6001 -0.3193
 4620TIP3    H213806   3.137   6.081   1.339  0.5794  0.4464 -0.9051
 4621TIP3   OH213807   4.672   0.953   6.296  0.2012  0.0023 -0.4706
 4621TIP3    H113808   4.638   1.041   6.311  1.7090  0.2369  2.3203
 4621TIP3    H213809   4.604   0.894   6.327 -0.3056  0.2060 -1.1782
 4622TIP3   OH213810   1.265   0.274   2.811  0.0578 -0.0127  0.4334
 4622TIP3    H113811   1.284   0.358   2.854  1.7960 -0.5679  0.8193
 4622TIP3    H213812   1.303   0.282   2.724  0.6520 -0.5456  0.6330
 4623TIP3   OH213813   3.150   0.796   3.311  0.5758 -0.5129 -0.3153
 4623TIP3    H113814   3.087   0.868   3.317  0.4807 -0.6955  1.5111
 4623TIP3    H213815   3.235   0.838   3.318  0.5244 -0.5239  0.5774
 4624TIP3   OH213816   8.192   3.732   2.613  0.0310 -0.2424  0.4215
 4624TIP3    H113817   8.141   3.652   2.598 -0.8788  0.4888 -0.6011
 4624TIP3    H213818   8.278   3.713   2.575 -0.9733  0.1198 -2.2859
 4625TIP3   OH213819   3.283   6.981   4.539  0.1368  0.4767  0.0063
 4625TIP3    H113820   3.296   7.073   4.558  0.9208  0.7764 -1.7757
 4625TIP3    H213821   3.192   6.975   4.510 -0.2391  0.4775  1.1368
 4626TIP3   OH213822   1.084   6.496   0.798 -0.1510  0.5880 -0.6794
 4626TIP3    H113823   1.163   6.473   0.750 -0.7331 -0.9205 -0.9407
 4626TIP3    H213824   1.012   6.484   0.736 -0.7093  0.8294 -0.1050
 4627TIP3   OH213825   6.449   1.153   1.073  0.3303 -0.6269  0.8838
 4627TIP3    H113826   6.518   1.208   1.112  1.7687 -1.0205 -1.0060
 4627TIP3    H213827   6.460   1.164   0.979  0.2733 -3.6427  0.4348
 4628TIP3   OH213828   7.710   3.927   0.620 -0.5314  0.2782 -0.5135
 4628TIP3    H113829   7.729   3.834   0.620 -0.2706  0.3036  0.8925
 4628TIP3    H213830   7.740   3.958   0.706 -0.3834  1.6996 -1.0376
 4629TIP3   OH213831   1.160   1.781   5.529  0.0545  0.4715 -0.3348
 4629TIP3    H113832   1.071   1.762   5.559 -0.4295 -0.1212 -2.0758
 4629TIP3    H213833   1.192   1.848   5.590 -1.8967  1.3234 -0.1963
 4630TIP3   OH213834   4.182   0.098   6.468 -0.1955  0.3632 -0.2175
 4630TIP3    H113835   4.119   0.033   6.438  1.1377 -0.7443 -0.7641
 4630TIP3    H213836   4.249   0.047   6.514  1.8804  1.0197 -2.2789
 4631TIP3   OH213837   5.914   1.865   6.531 -0.5169  0.3887 -0.3712
 4631TIP3    H113838   5.979   1.893   6.596  2.2250 -2.8013 -1.4773
 4631TIP3    H213839   5.910   1.937   6.469  3.4275  0.1415 -1.1840
 4632TIP3   OH213840   7.020   0.980   0.097  0.0956 -0.4382  0.4675
 4632TIP3    H113841   7.100   0.959   0.146 -0.4683 -0.1809  1.5206
 4632TIP3    H213842   7.017   0.914   0.027 -0.1200 -2.0740  1.9507
 4633TIP3   OH213843   3.002   2.397   4.050 -0.3782  0.3404  0.1830
 4633TIP3    H113844   3.018   2.333   3.981 -1.9099  0.5605 -0.4220
 4633TIP3    H213845   3.033   2.480   4.013  1.3026  0.0467  0.8408
 4634TIP3   OH213846   5.028   2.558   3.104 -0.0525 -0.2441  0.9872
 4634TIP3    H113847   5.101   2.616   3.083  1.1419 -1.8285  0.5542
 4634TIP3    H213848   5.031   2.548   3.199  1.1595 -1.3416  0.8556
 4635TIP3   OH213849   1.819   0.855   4.190 -0.5821 -0.7979 -0.0751
 4635TIP3    H113850   1.867   0.781   4.229  0.3352 -0.2092 -0.0536
 4635TIP3    H213851   1.846   0.855   4.098 -0.5719 -0.4974 -0.0744
 4636TIP3   OH213852   6.960   0.741   4.647  0.0055  0.0004  0.4525
 4636TIP3    H113853   6.951   0.807   4.577  0.3355 -0.2720  0.1508
 4636TIP3    H213854   6.989   0.791   4.723 -1.4954  0.5011  0.7406
 4637TIP3   OH213855   1.218   4.183   4.210 -0.0507 -0.1370  0.2568
 4637TIP3    H113856   1.217   4.261   4.153 -0.0300  0.3078  0.8621
 4637TIP3    H213857   1.212   4.110   4.149 -1.8046  0.3759 -0.2387
 4638TIP3   OH213858   3.072   2.717   6.298 -0.7612  0.5045  0.8151
 4638TIP3    H113859   3.136   2.769   6.249 -1.2724 -0.0735 -0.5120
 4638TIP3    H213860   3.113   2.631   6.307 -0.8313  0.4982  1.1008
 4639TIP3   OH213861   4.591   6.741   0.781  0.1822 -0.1549 -0.3251
 4639TIP3    H113862   4.642   6.766   0.704  1.2273  0.0095  0.4105
 4639TIP3    H213863   4.563   6.651   0.763 -0.9753  0.4237 -1.6018
 4640TIP3   OH213864   2.172   3.945   3.616 -0.0311 -0.3811 -0.0397
 4640TIP3    H113865   2.121   3.864   3.624  0.2828 -0.5312  0.4917
 4640TIP3    H213866   2.193   3.969   3.707 -1.1956  0.9904 -0.0881
 4641TIP3   OH213867   4.513   7.473   1.558 -0.1962  0.1551 -0.3210
 4641TIP3    H113868   4.547   7.516   1.479 -0.5083 -2.1140 -1.7760
 4641TIP3    H213869   4.480   7.389   1.527 -0.0725 -0.9477  2.3050
 4642TIP3   OH213870   2.429   5.661   4.721  0.2791 -0.0286  0.1502
 4642TIP3    H113871   2.443   5.694   4.633 -0.4769 -1.3696 -0.5151
 4642TIP3    H213872   2.452   5.734   4.779  1.8397  0.5292 -1.1002
 4643TIP3   OH213873   1.726   4.045   5.450 -0.1421 -0.1556 -0.9478
 4643TIP3    H113874   1.809   4.061   5.405 -0.8657  2.1247 -1.6040
 4643TIP3    H213875   1.713   3.950   5.442  2.6116 -0.6857 -0.3524
 4644TIP3   OH213876   3.533   6.759   0.656 -0.3257 -0.6449 -0.0887
 4644TIP3    H113877   3.564   6.849   0.650  0.2433 -0.8468 -0.1932
 4644TIP3    H213878   3.608   6.706   0.630 -1.1799 -1.0937 -1.8176
 4645TIP3   OH213879   5.784   7.780   6.578  0.3191 -0.1041  0.4619
 4645TIP3    H113880   5.875   7.806   6.564  0.4703 -0.2898  1.0895
 4645TIP3    H213881   5.769   7.790   6.672  0.2347 -1.7724  0.6612
 4646TIP3   OH213882   7.293   6.882   5.314  0.3537 -0.0580  0.6141
 4646TIP3    H113883   7.287   6.802   5.263  0.7126  0.7311 -0.7024
 4646TIP3    H213884   7.206   6.922   5.307  0.6816  0.5280 -0.1997
 4647TIP3   OH213885   3.344   7.023   5.940 -0.5327 -0.1651  0.1185
 4647TIP3    H113886   3.249   7.023   5.939 -0.5720 -1.8256 -1.2004
 4647TIP3    H213887   3.367   7.015   6.033 -1.5964  1.8601  0.6037
 4648TIP3   OH213888   2.327   3.402   6.751  0.4467  0.5360 -0.1048
 4648TIP3    H113889   2.383   3.475   6.725  1.4446 -0.4911 -0.9507
 4648TIP3    H213890   2.301   3.361   6.668  0.6547 -0.5919  0.3696
 4649TIP3   OH213891   2.118   0.721   6.271 -0.1690 -0.1128  0.2833
 4649TIP3    H113892   2.078   0.715   6.184  1.0383  0.9724 -0.3804
 4649TIP3    H213893   2.125   0.630   6.301  2.7601 -0.9227 -2.3758
 4650TIP3   OH213894   2.463   1.846   1.232 -0.1387 -0.0982 -0.2835
 4650TIP3    H113895   2.456   1.917   1.296 -0.0146  0.6059 -1.0215
 4650TIP3    H213896   2.490   1.770   1.282 -2.3880 -0.2008  0.9285
 4651TIP3   OH213897   7.858   4.998   1.991  0.8877  0.2831 -0.2186
 4651TIP3    H113898   7.938   4.947   1.978  1.3483  1.4195 -2.3393
 4651TIP3    H213899   7.887   5.081   2.028  0.3050 -0.3807  1.8355
 4652TIP3   OH213900   0.062   6.117   2.410  0.6673 -0.1515  0.2558
 4652TIP3    H113901  -0.029   6.123   2.440  0.4352  0.7307 -0.5919
 4652TIP3    H213902   0.109   6.078   2.485 -0.5385 -1.4395  0.3920
 4653TIP3   OH213903   4.953   3.493   2.204  0.1914 -0.2568 -0.6598
 4653TIP3    H113904   4.989   3.527   2.123  0.8154 -0.8392 -0.6384
 4653TIP3    H213905   4.897   3.420   2.176 -2.1301  1.4619 -0.8171
 4654TIP3   OH213906   3.213   4.096   5.505 -0.0941  0.8273  0.1588
 4654TIP3    H113907   3.126   4.115   5.539  0.3355  2.0939  0.6272
 4654TIP3    H213908   3.200   4.028   5.440 -1.1334 -0.7040  1.8706
 4655TIP3   OH213909   2.628   2.402   0.245  0.2614  0.5934  0.2908
 4655TIP3    H113910   2.539   2.383   0.216  0.1035  0.1909  1.0178
 4655TIP3    H213911   2.646   2.489   0.211 -1.0059  1.3578  1.4812
 4656TIP3   OH213912   7.237   3.764   3.357  0.2210 -0.5097 -0.0118
 4656TIP3    H113913   7.199   3.815   3.285  0.6283  2.0672  1.4752
 4656TIP3    H213914   7.328   3.793   3.362  0.4265 -1.2679  1.0223
 4657TIP3   OH213915   3.929   5.578   2.277  0.2123  0.0966 -0.4190
 4657TIP3    H113916   3.834   5.569   2.278  0.2414 -0.1866  0.7020
 4657TIP3    H213917   3.945   5.657   2.225 -0.6888  0.7228  0.2250
 4658TIP3   OH213918   2.183   3.429   1.537 -0.0831  0.0158  0.2932
 4658TIP3    H113919   2.271   3.424   1.500  0.7225 -1.7074  2.2527
 4658TIP3    H213920   2.181   3.512   1.584  0.6824 -0.1544  0.6408
 4659TIP3   OH213921   6.181   3.154   1.721 -0.8163 -0.3182 -0.2786
 4659TIP3    H113922   6.182   3.236   1.771 -1.8059 -0.3538 -0.1673
 4659TIP3    H213923   6.110   3.166   1.658 -0.7978 -0.9873 -0.4361
 4660TIP3   OH213924   2.939   4.328   1.426 -0.5243 -0.0369  0.1518
 4660TIP3    H113925   2.993   4.308   1.350 -1.0095 -0.7004 -0.0245
 4660TIP3    H213926   2.956   4.257   1.488  0.5181  0.9403  1.0321
 4661TIP3   OH213927   7.588   6.420   3.649 -0.4977  0.2536  0.0613
 4661TIP3    H113928   7.647   6.384   3.715 -0.8467  0.3715  0.4480
 4661TIP3    H213929   7.546   6.494   3.692 -0.3171  0.6835 -0.4892
 4662TIP3   OH213930   7.238   6.149   1.340  0.6117  0.2602  0.6803
 4662TIP3    H113931   7.306   6.103   1.290  1.0945  2.0474 -0.3896
 4662TIP3    H213932   7.263   6.136   1.432  2.1216  0.4408  0.3255
 4663TIP3   OH213933   3.965   5.053   4.136  0.1152 -0.7927  0.6537
 4663TIP3    H113934   3.877   5.053   4.098 -0.0855 -0.1915  1.1086
 4663TIP3    H213935   3.965   5.127   4.197  1.6867  0.7428 -1.0911
 4664TIP3   OH213936   2.963   4.074   4.792  0.4315  0.0194  0.2181
 4664TIP3    H113937   2.949   4.133   4.866  0.4494  0.0782  0.1746
 4664TIP3    H213938   2.991   4.132   4.721  0.8234 -0.0877  0.2827
 4665TIP3   OH213939   3.424   0.820   4.790  0.2256 -0.1798 -0.1649
 4665TIP3    H113940   3.520   0.823   4.786  0.3755 -0.6235  1.8591
 4665TIP3    H213941   3.396   0.900   4.745  1.5785  0.2337 -0.3235
 4666TIP3   OH213942   2.737   3.949   3.987 -0.3798 -0.1247 -0.0097
 4666TIP3    H113943   2.652   3.945   3.942 -1.2622  2.2131  1.2390
 4666TIP3    H213944   2.714   3.946   4.080  0.9008  0.6767  0.3475
 4667TIP3   OH213945   0.180   5.643   6.201  0.0386  0.5225  0.0864
 4667TIP3    H113946   0.094   5.612   6.230 -0.1071  0.2381 -0.6278
 4667TIP3    H213947   0.183   5.734   6.231  0.2743  0.0008  1.7604
 4668TIP3   OH213948   0.808   3.475   6.273 -0.4448  0.1686 -0.1397
 4668TIP3    H113949   0.850   3.423   6.204  0.8496  1.8284 -0.6805
 4668TIP3    H213950   0.863   3.461   6.350 -0.3799  0.3482 -0.1537
 4669TIP3   OH213951   7.027   7.026   2.944  0.3332  0.6193 -0.1883
 4669TIP3    H113952   6.947   6.981   2.969  0.4305  1.0983  1.0862
 4669TIP3    H213953   7.088   6.957   2.919  0.0925  0.1237  0.5718
 4670TIP3   OH213954   6.791   2.838   4.472  0.5212  0.4248  0.2062
 4670TIP3    H113955   6.803   2.768   4.537  0.8730 -1.3787 -1.6854
 4670TIP3    H213956   6.700   2.864   4.481  0.5708  0.2482  1.4259
 4671TIP3   OH213957   3.552   5.857   1.007 -0.1760 -0.7033 -0.0453
 4671TIP3    H113958   3.643   5.886   1.001 -0.1313 -0.9597 -0.7595
 4671TIP3    H213959   3.543   5.794   0.935 -0.6974 -1.2875  0.5179
 4672TIP3   OH213960   2.800   2.135   3.929 -0.2113 -0.2828 -0.1660
 4672TIP3    H113961   2.834   2.091   3.851 -0.9241 -1.1752  0.0100
 4672TIP3    H213962   2.867   2.120   3.996  0.0243 -0.2167 -0.3843
 4673TIP3   OH213963   7.921   1.680   6.588 -0.3011 -0.0440  0.5067
 4673TIP3    H113964   7.997   1.623   6.574  0.9579  1.2505  1.8136
 4673TIP3    H213965   7.876   1.641   6.663 -1.0079 -0.8576 -0.3180
 4674TIP3   OH213966   5.937   4.857   1.284 -0.8979  0.1021 -0.5366
 4674TIP3    H113967   5.872   4.911   1.240 -0.6054  1.8131  1.0354
 4674TIP3    H213968   6.019   4.903   1.272 -0.7342  0.3888  1.3513
 4675TIP3   OH213969   3.466   1.600   2.611 -0.4352 -0.1762  0.1069
 4675TIP3    H113970   3.435   1.510   2.601  1.2687 -0.7800 -0.0044
 4675TIP3    H213971   3.439   1.644   2.530 -0.9843 -0.6669  0.0153
 4676TIP3   OH213972   7.227   5.081   3.843 -0.5030  0.0650  0.1556
 4676TIP3    H113973   7.189   5.112   3.925  0.2629  1.2002  0.1164
 4676TIP3    H213974   7.294   5.147   3.821 -0.5745 -0.2990 -1.2914
 4677TIP3   OH213975   0.407   7.690   3.084  0.5082 -0.8048 -0.0380
 4677TIP3    H113976   0.333   7.653   3.036  0.8405 -0.6824 -0.6703
 4677TIP3    H213977   0.374   7.704   3.173 -0.6015  0.3112 -0.5793
 4678TIP3   OH213978   4.210   7.598   5.678 -0.3549 -0.7780 -0.4854
 4678TIP3    H113979   4.296   7.612   5.639 -0.2374 -0.5130 -0.1400
 4678TIP3    H213980   4.217   7.514   5.724  0.2208 -0.0373  0.8544
 4679TIP3   OH213981   5.761   7.548   0.482  0.4025  0.4269 -0.0523
 4679TIP3    H113982   5.729   7.617   0.540 -2.6517 -1.7598  1.1243
 4679TIP3    H213983   5.802   7.484   0.541 -1.9802 -1.4192 -0.2167
 4680TIP3   OH213984   2.602   0.156   4.802  0.0336 -0.3728 -0.0982
 4680TIP3    H113985   2.614   0.062   4.814 -0.7486 -0.3418  1.0290
 4680TIP3    H213986   2.515   0.164   4.762  0.1255 -0.1296 -0.2548
 4681TIP3   OH213987   4.304   0.998   3.281  0.1052  0.4981 -0.6208
 4681TIP3    H113988   4.381   0.961   3.239  0.4222  1.7344 -1.1769
 4681TIP3    H213989   4.264   1.053   3.213 -0.2469  1.3000  0.2118
 4682TIP3   OH213990   0.236   1.272   4.154 -0.0434  0.6880 -0.2596
 4682TIP3    H113991   0.217   1.183   4.185 -0.9995  1.2875  0.9565
 4682TIP3    H213992   0.282   1.313   4.227  0.3739  1.2129 -0.8084
 4683TIP3   OH213993   7.084   7.155   0.461  0.5787 -0.5535  0.3998
 4683TIP3    H113994   7.064   7.245   0.434 -0.7685 -0.9867 -0.1548
 4683TIP3    H213995   7.083   7.158   0.556  0.9516  0.1007  0.3883
 4684TIP3   OH213996   0.238   0.536   4.817  0.0713 -0.4291 -0.1024
 4684TIP3    H113997   0.151   0.502   4.795 -0.2894  0.5008 -0.1364
 4684TIP3    H213998   0.277   0.467   4.871 -0.7885 -0.7443  0.1408
 4685TIP3   OH213999   4.268   0.255   2.770 -0.2135  0.6949 -0.0723
 4685TIP3    H114000   4.331   0.328   2.777 -0.4883  0.8113  5.0071
 4685TIP3    H214001   4.198   0.289   2.714 -0.2435  4.4218  1.9074
 4686TIP3   OH214002   0.933   5.043   2.167  0.8474 -0.4472 -1.0229
 4686TIP3    H114003   1.009   5.007   2.121  0.8977 -0.3880 -0.9861
 4686TIP3    H214004   0.958   5.044   2.259  1.3327  0.8379 -1.1408
 4687TIP3   OH214005   6.844   6.014   4.683  0.6762 -0.4787 -0.5585
 4687TIP3    H114006   6.838   6.011   4.778  0.5248 -0.7221 -0.5764
 4687TIP3    H214007   6.902   5.942   4.659  0.5741 -0.5270 -0.6635
 4688TIP3   OH214008   4.052   5.810   5.523 -0.2046  0.3377  0.3545
 4688TIP3    H114009   3.978   5.856   5.483 -0.4897 -1.2626 -1.0475
 4688TIP3    H214010   4.064   5.732   5.470  1.1366 -0.5453  1.8536
 4689TIP3   OH214011   3.471   0.975   1.866 -0.4135  0.0709  0.0057
 4689TIP3    H114012   3.429   1.058   1.889  0.1886 -0.0310  1.5665
 4689TIP3    H214013   3.402   0.923   1.825 -0.5687  1.6787 -1.9139
 4690TIP3   OH214014   6.542   0.656   0.657  0.3019  0.0317  0.4475
 4690TIP3    H114015   6.506   0.722   0.715 -1.5675 -1.0736  0.6043
 4690TIP3    H214016   6.535   0.573   0.705 -0.2238 -0.7356 -0.8822
 4691TIP3   OH214017   5.140   0.207   6.533 -0.1060 -0.4797  0.4359
 4691TIP3    H114018   5.222   0.235   6.491 -1.6521  2.0101 -1.1858
 4691TIP3    H214019   5.123   0.120   6.496 -0.8230  1.1372 -3.4641
 4692TIP3   OH214020   6.120   1.629   3.405 -0.0670  0.2168  0.3892
 4692TIP3    H114021   6.143   1.629   3.498 -2.1381  1.2396  0.9598
 4692TIP3    H214022   6.100   1.720   3.385  0.8037  0.0955 -1.2246
 4693TIP3   OH214023   8.007   0.219   6.449 -0.0963  0.1965 -1.0194
 4693TIP3    H114024   7.917   0.248   6.467 -1.1519 -1.9058 -2.4891
 4693TIP3    H214025   8.039   0.186   6.533 -0.4209  1.5614 -0.3277
 4694TIP3   OH214026   0.636   2.047   2.760  0.5880  0.3215  0.0140
 4694TIP3    H114027   0.730   2.047   2.741  0.9796  0.2058  1.7562
 4694TIP3    H214028   0.631   2.064   2.854 -1.0385 -1.6605  0.3482
 4695TIP3   OH214029   7.491   1.155   4.702  0.1645  0.1447  0.8569
 4695TIP3    H114030   7.586   1.162   4.697  0.2229 -0.1113  1.5431
 4695TIP3    H214031   7.460   1.193   4.620  0.7699  2.1445  1.4856
 4696TIP3   OH214032   1.206   4.248   6.455  0.1582 -0.6366 -0.4367
 4696TIP3    H114033   1.272   4.305   6.494 -1.6305  1.5562 -0.4274
 4696TIP3    H214034   1.200   4.174   6.515 -0.4896  1.2643  1.9910
 4697TIP3   OH214035   1.479   4.923   3.408  0.6817  0.6126 -0.2724
 4697TIP3    H114036   1.530   4.928   3.488 -0.4773  0.8153  0.4787
 4697TIP3    H214037   1.532   4.870   3.348  0.9797 -0.6866  1.0884
 4698TIP3   OH214038   0.553   3.336   0.318 -0.5375  0.0603 -0.5139
 4698TIP3    H114039   0.480   3.307   0.263  1.2063  0.3896 -3.2125
 4698TIP3    H214040   0.630   3.296   0.278  0.9576  0.9968  1.2653
 4699TIP3   OH214041   2.394   3.094   1.957  0.3641  0.1038  0.0216
 4699TIP3    H114042   2.420   3.061   2.043  0.9960 -2.0331 -0.9212
 4699TIP3    H214043   2.371   3.015   1.908  1.9270  1.0676 -2.4040
 4700TIP3   OH214044   4.167   4.576   3.268  0.2104  0.3014 -0.2386
 4700TIP3    H114045   4.074   4.581   3.293  0.3658  0.6517  0.2960
 4700TIP3    H214046   4.199   4.498   3.314  0.2883  0.4427 -0.0526
 4701TIP3   OH214047   2.536   2.008   3.699  0.1864  0.1906 -0.0677
 4701TIP3    H114048   2.623   2.020   3.662  1.1797 -2.8730  0.9047
 4701TIP3    H214049   2.543   2.040   3.788 -0.0290  0.8880 -0.2926
 4702TIP3   OH214050   2.095   4.330   5.130 -0.1302 -0.0303 -0.5861
 4702TIP3    H114051   2.165   4.387   5.098 -0.6049  0.7209 -0.3270
 4702TIP3    H214052   2.064   4.373   5.210  0.7699 -1.6623  0.6849
 4703TIP3   OH214053   3.829   0.962   1.223  0.3664 -0.0711  0.2872
 4703TIP3    H114054   3.918   0.940   1.249  0.3938 -1.3637 -0.7878
 4703TIP3    H214055   3.784   0.982   1.306  1.5829  0.4076  0.8527
 4704TIP3   OH214056   1.358   6.808   6.651  0.1717  0.3950  0.5915
 4704TIP3    H114057   1.347   6.899   6.680  2.5150  0.3867  1.7297
 4704TIP3    H214058   1.400   6.764   6.725  0.2434 -1.3207 -0.4197
 4705TIP3   OH214059   6.372   6.683   6.159 -0.1076  0.3732  0.2373
 4705TIP3    H114060   6.285   6.661   6.190 -0.6339 -0.3990 -1.6609
 4705TIP3    H214061   6.425   6.606   6.179 -1.0776 -1.3496 -2.9741
 4706TIP3   OH214062   1.483   5.968   3.027 -0.1054  0.4279 -1.0112
 4706TIP3    H114063   1.508   5.973   3.120 -1.8390 -1.4116 -0.3624
 4706TIP3    H214064   1.563   5.992   2.980  1.1782  0.2787  0.9443
 4707TIP3   OH214065   3.090   3.554   3.445 -0.1467 -0.5008  0.5199
 4707TIP3    H114066   3.130   3.470   3.468 -0.5598 -0.9082 -0.1772
 4707TIP3    H214067   3.164   3.610   3.421  0.1330 -0.6672  0.9810
 4708TIP3   OH214068   6.708   5.442   3.765 -0.1368 -0.0980  0.6930
 4708TIP3    H114069   6.789   5.492   3.757  0.0502 -0.4855  0.1503
 4708TIP3    H214070   6.641   5.507   3.786  0.0501  0.4187 -0.2957
 4709TIP3   OH214071   5.676   0.725   2.369 -0.1579 -0.0374  0.0658
 4709TIP3    H114072   5.768   0.707   2.385  0.1839  1.2403 -0.4049
 4709TIP3    H214073   5.631   0.647   2.403  1.1693 -1.3774 -1.0723
 4710TIP3   OH214074   5.281   4.293   5.321  0.3318  0.6712 -0.2253
 4710TIP3    H114075   5.192   4.264   5.299 -0.2492  2.1705  0.0147
 4710TIP3    H214076   5.304   4.355   5.251  1.8449 -0.8647 -1.1556
 4711TIP3   OH214077   7.854   0.086   5.195 -0.1412 -0.2173  0.0228
 4711TIP3    H114078   7.845   0.132   5.278 -0.1324  1.1004 -0.6911
 4711TIP3    H214079   7.916   0.015   5.215  1.3502  1.2160  0.6958
 4712TIP3   OH214080   4.828   2.045   3.740  0.1245  0.0631 -0.1680
 4712TIP3    H114081   4.743   2.084   3.757 -1.1797 -2.2029 -1.0436
 4712TIP3    H214082   4.859   2.016   3.826  0.6542  1.9768  0.3357
 4713TIP3   OH214083   6.545   5.696   4.745 -0.0942 -0.4165 -0.0104
 4713TIP3    H114084   6.509   5.693   4.656  1.7412 -1.1423 -0.7863
 4713TIP3    H214085   6.639   5.683   4.732 -0.0668 -3.3449  2.2445
 4714TIP3   OH214086   1.518   3.627   3.323 -0.2784 -0.0079  0.1844
 4714TIP3    H114087   1.498   3.646   3.415  0.6177  0.3574  0.3170
 4714TIP3    H214088   1.557   3.540   3.326 -0.0148  0.1090  0.1877
 4715TIP3   OH214089   0.048   5.109   4.037  0.1183  0.6509  0.4125
 4715TIP3    H114090  -0.033   5.137   4.081 -0.2274  1.3729 -0.6323
 4715TIP3    H214091   0.071   5.184   3.981  0.6397 -0.1594 -0.4791
 4716TIP3   OH214092   3.604   3.342   5.953  0.3563 -0.2752  0.4628
 4716TIP3    H114093   3.679   3.388   5.991 -0.0659  0.2847  0.6324
 4716TIP3    H214094   3.608   3.254   5.992  1.4583 -0.5585 -0.2461
 4717TIP3   OH214095   4.256   2.284   4.972 -0.2088 -0.3603 -0.0216
 4717TIP3    H114096   4.265   2.373   4.938 -0.8889  0.7720  2.4921
 4717TIP3    H214097   4.181   2.247   4.925 -0.1029  0.5046 -0.8893
 4718TIP3   OH214098   1.590   0.392   2.966 -0.1942  0.2555  0.0366
 4718TIP3    H114099   1.551   0.312   3.002  0.2013 -0.7432 -1.6341
 4718TIP3    H214100   1.675   0.364   2.931  0.6031  1.7230  0.7212
 4719TIP3   OH214101   7.911   6.509   3.093 -0.2774 -0.2563  0.2624
 4719TIP3    H114102   7.933   6.600   3.111 -1.4877  0.1195 -0.1190
 4719TIP3    H214103   7.949   6.460   3.166  1.3436  0.4137 -0.0912
 4720TIP3   OH214104   0.651   7.041   0.117  0.1492 -0.4334 -0.0446
 4720TIP3    H114105   0.601   7.122   0.113  0.4153 -0.2810 -0.3399
 4720TIP3    H214106   0.663   7.024   0.210  0.1171 -0.1221  0.0169
 4721TIP3   OH214107   5.506   5.412   5.672  0.2724 -0.5451  0.6249
 4721TIP3    H114108   5.472   5.490   5.714 -0.0115 -0.0773 -0.4370
 4721TIP3    H214109   5.499   5.430   5.578  0.1448 -1.8689  0.3595
 4722TIP3   OH214110   6.244   0.404   2.776  0.3236  0.3656  0.5407
 4722TIP3    H114111   6.163   0.422   2.728  0.6156  0.1519 -0.0433
 4722TIP3    H214112   6.297   0.483   2.763  0.4330  0.2768  0.4518
 4723TIP3   OH214113   4.941   2.571   6.322  0.5593 -0.1522 -0.0906
 4723TIP3    H114114   4.954   2.494   6.378  1.2196  0.4859  0.6534
 4723TIP3    H214115   4.961   2.540   6.234  3.1467 -0.2798  0.4694
 4724TIP3   OH214116   5.188   5.209   6.478 -0.1121 -0.1549  0.6108
 4724TIP3    H114117   5.132   5.170   6.411  1.5276 -0.3793 -0.7159
 4724TIP3    H214118   5.201   5.139   6.542 -0.1748 -0.5805  0.1670
 4725TIP3   OH214119   1.283   7.312   2.507 -0.2764 -0.5571  0.0013
 4725TIP3    H114120   1.229   7.381   2.545 -0.0686  0.7337 -1.8854
 4725TIP3    H214121   1.237   7.288   2.426 -0.0175 -2.2246  0.3110
 4726TIP3   OH214122   1.350   5.888   4.661  0.0661  0.7989  0.2253
 4726TIP3    H114123   1.396   5.852   4.585 -2.4525 -0.4637 -0.8329
 4726TIP3    H214124   1.394   5.850   4.737  2.2619  1.6155 -0.5680
 4727TIP3   OH214125   2.396   2.526   5.481 -0.5243  0.0020 -0.2217
 4727TIP3    H114126   2.320   2.492   5.433 -1.0709  1.9110 -0.8182
 4727TIP3    H214127   2.374   2.618   5.497  0.8835  0.1196  1.2456
 4728TIP3   OH214128   2.001   3.283   6.567  0.4702 -0.1832 -0.5164
 4728TIP3    H114129   1.921   3.274   6.618  0.9407  0.4360  0.3704
 4728TIP3    H214130   1.986   3.231   6.488  0.6781 -3.4167  1.3685
 4729TIP3   OH214131   5.737   3.081   0.949 -0.0038 -0.0368  0.2766
 4729TIP3    H114132   5.798   3.152   0.934  0.8808 -0.8114  0.1381
 4729TIP3    H214133   5.726   3.039   0.863 -0.8432  0.1719  0.2674
 4730TIP3   OH214134   6.734   2.672   0.227 -0.8494 -0.4847 -0.7811
 4730TIP3    H114135   6.769   2.594   0.269 -0.6301  0.5879  1.1149
 4730TIP3    H214136   6.759   2.663   0.135 -2.3838 -3.4929 -1.0289
 4731TIP3   OH214137   3.618   2.685   1.369 -0.0328 -0.3875  0.6878
 4731TIP3    H114138   3.617   2.776   1.338  2.6143 -0.5459 -0.0426
 4731TIP3    H214139   3.616   2.693   1.464  1.4482  0.5366  0.6790
 4732TIP3   OH214140   8.133   4.817   3.817  0.1579  0.2615  0.7827
 4732TIP3    H114141   8.171   4.858   3.739 -1.2443 -1.0150 -0.6476
 4732TIP3    H214142   8.204   4.766   3.855  0.9142  1.0619  0.4860
 4733TIP3   OH214143   7.206   1.256   4.336 -0.1969 -0.3244 -0.5505
 4733TIP3    H114144   7.213   1.186   4.402 -1.2820  0.3381  0.3076
 4733TIP3    H214145   7.149   1.321   4.377 -0.1965  0.5046 -1.8258
 4734TIP3   OH214146   3.223   4.008   2.804 -0.2142 -0.1622 -0.0013
 4734TIP3    H114147   3.238   4.044   2.716 -1.3070  0.6108  0.1051
 4734TIP3    H214148   3.295   4.042   2.857 -0.0626  0.1261 -0.3917
 4735TIP3   OH214149   3.385   3.279   5.122  0.0764  0.2118  0.4724
 4735TIP3    H114150   3.447   3.248   5.188 -0.2521 -0.8943  0.2803
 4735TIP3    H214151   3.441   3.308   5.049  0.5771  3.6341  2.0234
 4736TIP3   OH214152   0.641   4.727   4.571 -0.4605 -0.0302  0.4087
 4736TIP3    H114153   0.554   4.748   4.606 -1.0088 -1.0059 -0.3014
 4736TIP3    H214154   0.627   4.718   4.476  0.3842 -0.3269  0.3040
 4737TIP3   OH214155   2.146   2.513   4.570 -0.4311 -0.1988 -0.1403
 4737TIP3    H114156   2.084   2.447   4.601  0.3620  0.9099  4.4007
 4737TIP3    H214157   2.094   2.592   4.556 -0.6777 -0.5201 -1.1733
 4738TIP3   OH214158   7.365   3.584   3.570  0.3780 -0.0826 -0.1654
 4738TIP3    H114159   7.285   3.532   3.575  0.3626 -0.0909 -0.4748
 4738TIP3    H214160   7.344   3.664   3.618  0.0522  0.0786 -0.5693
 4739TIP3   OH214161   0.895   0.663   4.430  0.0415  0.2483  0.2769
 4739TIP3    H114162   0.931   0.665   4.342  0.9200 -1.7616  0.5189
 4739TIP3    H214163   0.802   0.685   4.419  0.1583  0.1203 -1.1291
 4740TIP3   OH214164   2.853   4.525   4.805 -0.3135 -0.0567 -0.3159
 4740TIP3    H114165   2.842   4.440   4.848 -0.2078  0.9642  1.8476
 4740TIP3    H214166   2.902   4.577   4.867 -1.6225  2.0659 -0.9494
 4741TIP3   OH214167   3.296   4.545   5.754 -0.1959 -0.3016 -0.1986
 4741TIP3    H114168   3.307   4.607   5.826 -1.3438 -0.9803  0.5823
 4741TIP3    H214169   3.336   4.464   5.786  2.6130  0.3339 -1.7547
 4742TIP3   OH214170   2.568   1.255   5.772 -0.4541 -0.2098 -0.3313
 4742TIP3    H114171   2.578   1.327   5.834  0.3205 -0.7071  0.1393
 4742TIP3    H214172   2.581   1.295   5.686  0.2219  0.1719 -0.0622
 4743TIP3   OH214173   3.805   2.883   0.702  0.1837 -0.3271 -0.6272
 4743TIP3    H114174   3.718   2.900   0.667 -0.6003  0.4727  1.5225
 4743TIP3    H214175   3.799   2.796   0.741  0.0522  0.0543  0.2437
 4744TIP3   OH214176   5.995   5.284   5.688 -0.3339 -0.4970 -0.5151
 4744TIP3    H114177   5.934   5.321   5.625 -0.8025 -1.0675 -0.3950
 4744TIP3    H214178   6.035   5.361   5.730 -0.7564 -0.1229 -0.7902
 4745TIP3   OH214179   2.879   5.890   3.324  0.3608 -0.3582 -0.3868
 4745TIP3    H114180   2.927   5.970   3.342 -0.3528  0.3051 -1.3494
 4745TIP3    H214181   2.939   5.837   3.272  0.9067 -0.5648  0.4177
 4746TIP3   OH214182   4.355   2.066   2.147 -0.4638  0.1458 -0.1323
 4746TIP3    H114183   4.280   2.113   2.183 -0.2208  0.2026  0.3078
 4746TIP3    H214184   4.319   1.983   2.115 -0.5497 -0.2512  0.9831
 4747TIP3   OH214185   3.053   3.164   6.667  0.2053 -0.3099  0.1360
 4747TIP3    H114186   3.093   3.124   6.590 -1.1036  1.2345 -1.4466
 4747TIP3    H214187   3.033   3.253   6.639 -1.6941 -0.1638  1.7654
 4748TIP3   OH214188   1.279   4.063   1.870 -0.6634 -0.2030 -0.1616
 4748TIP3    H114189   1.302   4.132   1.808  0.8162 -0.4771  0.0392
 4748TIP3    H214190   1.204   4.098   1.918  0.0100  1.2446 -0.1019
 4749TIP3   OH214191   0.630   1.034   1.062 -0.1144 -0.0243  0.5284
 4749TIP3    H114192   0.575   0.978   1.006 -0.6508 -0.9729  1.9203
 4749TIP3    H214193   0.719   1.018   1.032 -0.4913  0.7797 -1.1300
 4750TIP3   OH214194   7.584   6.187   4.421 -0.3074 -0.0270 -0.3198
 4750TIP3    H114195   7.496   6.195   4.457 -0.0426 -1.4805  0.6951
 4750TIP3    H214196   7.624   6.116   4.469  1.3521  0.4247 -0.9563
 4751TIP3   OH214197   5.304   3.202   3.229 -1.2154  0.0763 -0.2125
 4751TIP3    H114198   5.275   3.154   3.306  0.2699  1.7297  1.4573
 4751TIP3    H214199   5.243   3.275   3.222 -0.4404  0.8018  0.3736
 4752TIP3   OH214200   8.038   3.285   4.538  0.2238  0.3281 -0.2025
 4752TIP3    H114201   8.111   3.295   4.599  0.1992 -3.6542  0.7321
 4752TIP3    H214202   7.963   3.321   4.586  0.7405  0.0173  0.8761
 4753TIP3   OH214203   7.318   2.720   2.699  0.0639  0.0694 -0.2228
 4753TIP3    H114204   7.265   2.720   2.778  0.2355 -0.3107 -0.1065
 4753TIP3    H214205   7.267   2.667   2.636 -0.1222  0.4567 -0.4021
 4754TIP3   OH214206   4.269   1.007   0.821  0.4279  0.1385 -0.0201
 4754TIP3    H114207   4.306   0.922   0.800  0.8079  0.2838  0.0601
 4754TIP3    H214208   4.230   1.037   0.738 -0.6855 -0.5967  0.2215
 4755TIP3   OH214209   4.081   7.486   1.004 -0.0855 -0.0807 -0.0335
 4755TIP3    H114210   3.989   7.461   1.014 -0.8235  2.2357 -0.3634
 4755TIP3    H214211   4.101   7.537   1.083  0.8403 -0.2992 -0.1127
 4756TIP3   OH214212   1.229   6.585   5.974 -0.2668 -0.2882 -0.1898
 4756TIP3    H114213   1.238   6.680   5.978 -0.3811 -0.2901  0.1000
 4756TIP3    H214214   1.224   6.557   6.065 -1.4270 -0.4630 -0.2953
 4757TIP3   OH214215   2.959   0.255   4.074  0.0693 -0.3279  0.6895
 4757TIP3    H114216   2.864   0.261   4.063  0.3853  3.2957 -1.4964
 4757TIP3    H214217   2.978   0.162   4.060 -2.8219 -0.6262 -3.0689
 4758TIP3   OH214218   7.894   7.198   0.197  1.0291  0.1239  0.5675
 4758TIP3    H114219   7.928   7.192   0.108 -1.3545 -0.1218 -0.4076
 4758TIP3    H214220   7.879   7.291   0.211  0.2182  0.0517  0.2113
 4759TIP3   OH214221   7.736   2.296   2.889  0.0880  0.8629 -0.5564
 4759TIP3    H114222   7.709   2.228   2.949  0.5838  0.1772 -1.0909
 4759TIP3    H214223   7.832   2.297   2.896  0.2095  0.2367 -1.8889
 4760TIP3   OH214224   2.710   2.572   4.571  0.0780 -0.3119  0.4656
 4760TIP3    H114225   2.777   2.583   4.638  0.9039 -0.3348 -0.3438
 4760TIP3    H214226   2.627   2.574   4.620  0.6720 -0.8103  1.5441
 4761TIP3   OH214227   3.803   3.312   4.887 -0.3931 -0.5757  0.3340
 4761TIP3    H114228   3.828   3.368   4.813 -0.1934 -0.6787  0.3243
 4761TIP3    H214229   3.747   3.244   4.847 -2.9044  1.1139  0.7168
 4762TIP3   OH214230   0.721   4.003   0.019 -0.2604 -0.2734  0.5165
 4762TIP3    H114231   0.626   4.009   0.025 -0.2837  0.2021 -0.2467
 4762TIP3    H214232   0.748   4.086  -0.021  0.5444 -0.0759  1.4316
 4763TIP3   OH214233   2.626   6.031   4.728  0.1433  0.3305 -0.2445
 4763TIP3    H114234   2.536   6.018   4.758 -0.4784  0.9951 -1.7203
 4763TIP3    H214235   2.634   5.974   4.651  1.2995 -0.4259  0.4104
 4764TIP3   OH214236   5.517   5.874   2.055 -0.0442  0.4663  0.2013
 4764TIP3    H114237   5.602   5.859   2.011 -0.4741  1.9805 -1.2431
 4764TIP3    H214238   5.501   5.793   2.103  0.3348 -1.4984 -2.7364
 4765TIP3   OH214239   7.433   7.268   2.109 -0.0281 -0.7055  0.0212
 4765TIP3    H114240   7.517   7.234   2.142  1.1202  0.9356 -1.0702
 4765TIP3    H214241   7.398   7.319   2.182  2.1837  2.3595 -0.8641
 4766TIP3   OH214242   8.252   0.303   6.346 -0.2232  0.0654  0.0750
 4766TIP3    H114243   8.177   0.277   6.400  0.0855 -0.1430  0.4134
 4766TIP3    H214244   8.221   0.377   6.294 -0.8121 -0.3352 -0.1481
 4767TIP3   OH214245   4.770   7.294   3.334 -0.3838 -0.0596 -0.0518
 4767TIP3    H114246   4.678   7.266   3.333 -0.4570  0.1391  0.6455
 4767TIP3    H214247   4.821   7.213   3.331 -0.5665 -0.1529 -1.2347
 4768TIP3   OH214248   4.818   5.837   3.770 -0.3155  0.2997 -0.1898
 4768TIP3    H114249   4.727   5.836   3.741 -0.8170  3.5764  0.8062
 4768TIP3    H214250   4.813   5.810   3.862 -0.4286  1.3038  0.1061
 4769TIP3   OH214251   1.471   4.419   4.299  0.8709 -0.8551  0.1740
 4769TIP3    H114252   1.467   4.513   4.286  1.6335 -0.6928  1.0439
 4769TIP3    H214253   1.424   4.382   4.224 -0.9747  0.2519  0.7413
 4770TIP3   OH214254   1.574   4.023   5.954  0.1234 -0.2475 -0.3443
 4770TIP3    H114255   1.558   3.929   5.948  1.1017 -0.5316  1.0381
 4770TIP3    H214256   1.631   4.043   5.880  2.2858 -1.3294  0.9365
 4771TIP3   OH214257   1.982   1.464   2.003 -0.4076 -0.2145  0.2476
 4771TIP3    H114258   1.984   1.524   2.077  1.8299  0.2515 -0.1138
 4771TIP3    H214259   1.895   1.477   1.964 -0.9276  0.8871  1.6764
 4772TIP3   OH214260   2.198   3.623   5.786  0.4968 -0.2193 -0.4739
 4772TIP3    H114261   2.144   3.544   5.775 -0.3922  0.0363  1.5798
 4772TIP3    H214262   2.287   3.594   5.765  0.1863 -1.7696  0.2011
 4773TIP3   OH214263   6.318   2.821   1.449 -0.0192 -0.7092  0.2710
 4773TIP3    H114264   6.364   2.806   1.367  1.2076  1.5933  0.4351
 4773TIP3    H214265   6.247   2.881   1.427  1.2120  1.1308  1.0321
 4774TIP3   OH214266   3.249   6.054   5.747 -0.4060  0.3951  0.5142
 4774TIP3    H114267   3.212   5.984   5.693  0.3679  0.4437 -0.0972
 4774TIP3    H214268   3.175   6.088   5.797 -0.9046 -0.4504  0.3654
 4775TIP3   OH214269   0.245   0.761   2.798  0.2147 -0.4976 -0.1609
 4775TIP3    H114270   0.187   0.756   2.721  0.6039 -1.0387 -0.4224
 4775TIP3    H214271   0.260   0.855   2.810  0.4861 -0.4244 -1.0055
 4776TIP3   OH214272   7.704   6.317   1.807 -0.4332  0.4564 -0.2781
 4776TIP3    H114273   7.758   6.290   1.733  0.7302  1.0703  0.3162
 4776TIP3    H214274   7.659   6.395   1.776  0.2502  0.8638 -0.2633
 4777TIP3   OH214275   5.642   3.718   0.813  0.5303 -0.1915  0.1348
 4777TIP3    H114276   5.682   3.635   0.788 -1.3563 -0.7388 -1.3058
 4777TIP3    H214277   5.661   3.727   0.906  0.9592 -2.1463  0.2728
 4778TIP3   OH214278   7.114   7.328   1.976  0.0405 -0.0607 -0.1683
 4778TIP3    H114279   7.054   7.403   1.977  0.5550  0.3772 -1.2949
 4778TIP3    H214280   7.201   7.367   1.969  0.4189 -0.7250  0.6385
 4779TIP3   OH214281   3.684   6.519   1.649  0.9247 -0.4220 -0.0037
 4779TIP3    H114282   3.751   6.579   1.617  0.3016  0.2050 -0.1633
 4779TIP3    H214283   3.679   6.451   1.583  1.5753 -0.6130  0.1343
 4780TIP3   OH214284   0.538   0.628   2.489  0.3867 -0.6627 -0.7682
 4780TIP3    H114285   0.584   0.545   2.483  1.6914  0.0185 -0.4829
 4780TIP3    H214286   0.447   0.606   2.468  0.1575 -2.5993  1.7801
 4781TIP3   OH214287   0.051   6.342   1.077  0.7626 -0.4332  0.4376
 4781TIP3    H114288  -0.016   6.274   1.081  1.9329 -1.6392  0.4537
 4781TIP3    H214289   0.115   6.308   1.014  1.0477  0.9749 -0.0632
 4782TIP3   OH214290   1.990   7.185   6.595  0.0107  0.5199  0.7132
 4782TIP3    H114291   1.965   7.214   6.683 -1.0019 -0.0810  0.6380
 4782TIP3    H214292   1.945   7.102   6.584  0.8702  0.1417 -0.0336
 4783TIP3   OH214293   1.521   5.495   3.560  0.3256  0.2975  0.0328
 4783TIP3    H114294   1.614   5.480   3.577  0.5104  0.7565 -0.5615
 4783TIP3    H214295   1.490   5.413   3.521  0.7163  0.4974 -0.7147
 4784TIP3   OH214296   1.431   1.709   4.101  0.6718 -0.5178 -0.6621
 4784TIP3    H114297   1.373   1.664   4.163  1.9308  0.4293  1.3174
 4784TIP3    H214298   1.377   1.776   4.061  0.3677  0.4244  1.2281
 4785TIP3   OH214299   6.613   1.710   5.571  0.2467 -0.1686 -0.0273
 4785TIP3    H114300   6.635   1.722   5.663  0.0698 -0.1809  0.0160
 4785TIP3    H214301   6.582   1.620   5.565 -0.4502  0.0587  0.0423
 4786TIP3   OH214302   1.119   4.637   0.819  0.5929  0.2474  0.0651
 4786TIP3    H114303   1.212   4.648   0.836  1.0831 -2.8365 -0.1342
 4786TIP3    H214304   1.076   4.680   0.893  2.3064 -1.3737  2.1318
 4787TIP3   OH214305   4.884   0.790   2.766  0.0279  0.4489 -0.2032
 4787TIP3    H114306   4.842   0.798   2.851 -2.2904 -0.9337 -1.1312
 4787TIP3    H214307   4.896   0.880   2.737 -1.4658  0.9159  0.5288
 4788TIP3   OH214308   4.439   2.249   1.252  0.5753 -0.1908  0.2700
 4788TIP3    H114309   4.475   2.309   1.316 -0.6288  1.3807 -0.4641
 4788TIP3    H214310   4.498   2.256   1.176  1.3499 -1.1993  0.7454
 4789TIP3   OH214311   5.388   0.272   6.492  0.2523  0.4831  0.0320
 4789TIP3    H114312   5.472   0.247   6.456  0.6653  1.5217  0.2388
 4789TIP3    H214313   5.354   0.338   6.432 -0.5329 -0.0798 -0.1712
 4790TIP3   OH214314   0.931   4.845   0.280  0.3422  0.0459 -0.0852
 4790TIP3    H114315   0.919   4.826   0.373 -2.2195 -1.5055 -0.6296
 4790TIP3    H214316   0.991   4.777   0.249  0.4631 -0.0022  0.2483
 4791TIP3   OH214317   6.838   6.636   5.262 -0.4726  0.1056  0.0568
 4791TIP3    H114318   6.796   6.669   5.183 -0.0149  0.6973  0.0535
 4791TIP3    H214319   6.890   6.562   5.232 -0.3662  0.2760 -0.1839
 4792TIP3   OH214320   2.183   4.477   5.571 -0.0449  0.4569 -0.1943
 4792TIP3    H114321   2.182   4.381   5.576  0.1083  0.4375 -0.4817
 4792TIP3    H214322   2.122   4.505   5.639  0.0165  0.1596 -0.0106
 4793TIP3   OH214323   8.197   7.330   6.113  0.1501 -0.1829  0.2439
 4793TIP3    H114324   8.173   7.415   6.149 -0.0820  0.5234 -1.4820
 4793TIP3    H214325   8.124   7.272   6.135 -0.8479  0.6983 -0.6601
 4794TIP3   OH214326   7.813   3.432   0.375  0.4706  0.1300 -0.1603
 4794TIP3    H114327   7.897   3.470   0.399  0.2499  0.4744  0.0662
 4794TIP3    H214328   7.824   3.338   0.390  0.3576  0.3180  1.2277
 4795TIP3   OH214329   4.870   3.336   4.090  0.1275  0.4549 -0.3832
 4795TIP3    H114330   4.879   3.389   4.169  2.3388 -1.5187  0.8133
 4795TIP3    H214331   4.799   3.275   4.110  1.1906 -0.5583  0.4907
 4796TIP3   OH214332   3.490   3.553   6.074 -0.5654 -0.4910  0.4583
 4796TIP3    H114333   3.506   3.475   6.021  0.2503  0.6060 -0.9932
 4796TIP3    H214334   3.399   3.545   6.102 -0.6840 -1.6493 -0.1907
 4797TIP3   OH214335   3.774   6.594   0.643 -0.6201  0.1591  0.3320
 4797TIP3    H114336   3.869   6.588   0.652 -0.4488  1.4485 -0.3788
 4797TIP3    H214337   3.755   6.557   0.557 -0.6194  0.9671 -0.0224
 4798TIP3   OH214338   5.445   7.719   2.098 -0.0494 -0.1654 -0.1615
 4798TIP3    H114339   5.518   7.761   2.054 -1.6218  0.4112 -2.3913
 4798TIP3    H214340   5.381   7.703   2.029 -2.2670 -0.1436  1.7433
 4799TIP3   OH214341   1.767   6.293   1.415  0.0040  0.4222 -0.6919
 4799TIP3    H114342   1.701   6.303   1.483  1.3548  1.4368  0.5258
 4799TIP3    H214343   1.766   6.199   1.394 -1.1031  0.2576  0.0229
 4800TIP3   OH214344   8.075   1.093   3.174 -0.2909 -0.0032  0.1607
 4800TIP3    H114345   8.122   1.174   3.152 -1.6162  0.4064 -1.3273
 4800TIP3    H214346   8.068   1.095   3.269  2.5072 -0.0029  0.4472
 4801TIP3   OH214347   1.585   7.046   5.014 -0.8547 -0.5388 -0.9228
 4801TIP3    H114348   1.624   6.970   5.058 -0.7378 -0.0690 -0.1926
 4801TIP3    H214349   1.552   7.012   4.931  1.6502 -0.8613 -1.8638
 4802TIP3   OH214350   3.820   2.579   3.022  0.2915  0.0417 -0.1152
 4802TIP3    H114351   3.794   2.610   2.935  1.3469 -0.1067 -0.4953
 4802TIP3    H214352   3.873   2.651   3.057  0.2344 -0.0861  0.2325
 4803TIP3   OH214353   0.005   1.366   6.725 -0.8948 -0.0916  0.2103
 4803TIP3    H114354   0.087   1.333   6.688 -0.8034 -1.5103  1.5932
 4803TIP3    H214355  -0.057   1.364   6.651  0.1678  0.5415 -0.7289
 4804TIP3   OH214356   8.041   1.764   4.711 -0.3435 -0.2676 -0.1467
 4804TIP3    H114357   8.081   1.699   4.769  0.3684  0.0211 -0.2957
 4804TIP3    H214358   8.096   1.763   4.633  1.2925  2.3217  0.8411
 4805TIP3   OH214359   1.449   4.038   1.325  0.0842 -0.5169 -0.5724
 4805TIP3    H114360   1.536   4.009   1.349  0.4460  1.0694  0.1705
 4805TIP3    H214361   1.463   4.103   1.256 -0.2239  1.8127  1.4281
 4806TIP3   OH214362   3.129   0.026   2.831  0.4053  0.1505 -0.3852
 4806TIP3    H114363   3.172   0.112   2.840 -0.9372  0.8641 -0.5829
 4806TIP3    H214364   3.093   0.008   2.917 -0.7275  0.5744 -0.7544
 4807TIP3   OH214365   8.222   3.573   1.247 -0.2992  0.0099 -0.3372
 4807TIP3    H114366   8.208   3.479   1.238 -0.5698  0.1299 -1.2508
 4807TIP3    H214367   8.215   3.589   1.341  0.2749 -0.9599 -0.1086
 4808TIP3   OH214368   8.190   6.881   2.990 -0.0670  0.4439  0.1529
 4808TIP3    H114369   8.111   6.842   2.953  0.5928 -1.3993  0.5803
 4808TIP3    H214370   8.223   6.939   2.921  0.7074 -2.2883 -1.9182
 4809TIP3   OH214371   3.298   2.857   4.145  0.1073 -0.0855  0.0082
 4809TIP3    H114372   3.345   2.936   4.121 -0.9369  0.6506  0.3332
 4809TIP3    H214373   3.206   2.878   4.132 -0.2022 -1.1596  0.3387
 4810TIP3   OH214374   1.242   4.520   1.160 -0.2541  0.1214 -0.1047
 4810TIP3    H114375   1.299   4.541   1.086  0.5576  0.5635  0.6140
 4810TIP3    H214376   1.294   4.458   1.213 -0.5941  0.2359  0.3682
 4811TIP3   OH214377   6.706   0.876   1.590  0.5988 -0.5071 -0.2262
 4811TIP3    H114378   6.691   0.917   1.675  0.9689 -0.1050 -0.3521
 4811TIP3    H214379   6.641   0.806   1.585 -0.0647  0.0809 -0.0259
 4812TIP3   OH214380   4.630   1.732   5.198  0.3087 -0.7543  0.2918
 4812TIP3    H114381   4.565   1.707   5.132 -2.4315 -0.0483  2.5027
 4812TIP3    H214382   4.712   1.739   5.150 -1.2909 -1.3650 -2.7866
 4813TIP3   OH214383   1.089   0.751   1.024 -0.2710  0.6850  0.0533
 4813TIP3    H114384   1.087   0.665   1.067 -0.3082 -0.3315 -1.8983
 4813TIP3    H214385   1.023   0.802   1.072 -1.2990 -0.8423  0.3565
 4814TIP3   OH214386   4.275   7.530   3.050  0.2227 -0.2480  0.5528
 4814TIP3    H114387   4.349   7.505   2.995 -0.9568 -0.1833 -1.1427
 4814TIP3    H214388   4.200   7.529   2.991 -0.8453  1.4738  1.7777
 4815TIP3   OH214389   1.708   7.791   5.503 -0.4654  0.4362  0.0825
 4815TIP3    H114390   1.692   7.701   5.476  0.3782  0.5826 -0.9531
 4815TIP3    H214391   1.797   7.790   5.540 -0.4018  0.8667 -0.0543
 4816TIP3   OH214392   2.732   2.654   2.486  0.3103 -0.7001 -0.6153
 4816TIP3    H114393   2.729   2.749   2.497  1.2613 -0.8398  1.2984
 4816TIP3    H214394   2.817   2.628   2.521 -0.4067 -2.3834  0.0223
 4817TIP3   OH214395   5.386   1.150   3.016  0.3705  0.0634  0.6024
 4817TIP3    H114396   5.432   1.079   3.061  0.0682 -0.3904  0.2194
 4817TIP3    H214397   5.362   1.112   2.931 -1.3658  0.0159  1.0697
 4818TIP3   OH214398   5.312   4.068   3.669  0.3090  0.0814 -0.2839
 4818TIP3    H114399   5.374   4.133   3.703 -0.5801  0.9592 -0.3049
 4818TIP3    H214400   5.336   4.059   3.576 -0.3552  1.3676 -0.6155
 4819TIP3   OH214401   5.160   0.278   0.179  0.4739 -0.0423  0.1721
 4819TIP3    H114402   5.183   0.243   0.093  0.3558 -0.6673  0.3879
 4819TIP3    H214403   5.066   0.260   0.187 -0.2988  2.9948 -0.9500
 4820TIP3   OH214404   0.059   3.965   5.503  0.0143  0.3526  0.3577
 4820TIP3    H114405   0.093   4.052   5.522  1.8146 -0.2376  0.0257
 4820TIP3    H214406   0.117   3.905   5.549 -0.1171 -0.7452 -0.8212
 4821TIP3   OH214407   7.656   0.361   1.834 -0.1860  0.2213 -0.0800
 4821TIP3    H114408   7.604   0.429   1.792  0.5055  0.6715 -0.2219
 4821TIP3    H214409   7.727   0.408   1.877  2.3465 -0.6150 -3.0582
 4822TIP3   OH214410   4.845   0.425   0.871 -0.1173 -0.3135  0.3575
 4822TIP3    H114411   4.847   0.380   0.787  2.4422  2.5348 -1.2630
 4822TIP3    H214412   4.757   0.462   0.877  0.0037  0.3665 -1.6317
 4823TIP3   OH214413   5.909   6.842   3.711 -0.2325 -0.5023  0.4976
 4823TIP3    H114414   5.947   6.915   3.760 -2.0350  0.6378  0.2779
 4823TIP3    H214415   5.869   6.786   3.778  0.7437 -1.0628  0.6264
 4824TIP3   OH214416   5.874   5.155   6.572 -0.1238 -0.3698  0.0155
 4824TIP3    H114417   5.892   5.236   6.620 -0.8486 -0.4908  0.5087
 4824TIP3    H214418   5.909   5.171   6.485 -1.6750  1.0985 -0.3758
 4825TIP3   OH214419   8.140   6.947   3.486 -0.4482  0.3459 -0.1680
 4825TIP3    H114420   8.180   6.967   3.401 -0.6184  0.3763 -0.2409
 4825TIP3    H214421   8.184   6.867   3.515  0.5166  1.0070  0.3006
 4826TIP3   OH214422   5.374   3.883   0.282  0.4365 -0.6253 -0.2801
 4826TIP3    H114423   5.409   3.899   0.370 -0.1373 -1.0264  0.0292
 4826TIP3    H214424   5.374   3.969   0.240 -0.3211 -0.2311  0.4991
 4827TIP3   OH214425   5.098   2.466   4.652 -0.2964 -0.0177 -0.0536
 4827TIP3    H114426   5.110   2.374   4.630  0.0013  0.1080 -0.4278
 4827TIP3    H214427   5.035   2.498   4.587  0.3386  0.2764 -0.5318
 4828TIP3   OH214428   7.714   5.663   0.664  0.2792  0.3423 -0.1372
 4828TIP3    H114429   7.748   5.627   0.582  0.8922  0.9560 -0.1586
 4828TIP3    H214430   7.706   5.586   0.721  2.3572  0.2347  0.0923
 4829TIP3   OH214431   3.794   6.903   5.017  0.3068 -0.4372  0.2301
 4829TIP3    H114432   3.728   6.970   5.033  1.6137  0.8813  0.3152
 4829TIP3    H214433   3.772   6.868   4.930 -0.1786  0.3666  0.0202
 4830TIP3   OH214434   7.834   1.099   3.051 -0.2211 -0.2522  0.2898
 4830TIP3    H114435   7.854   1.035   2.983 -0.4657  1.0799 -1.0857
 4830TIP3    H214436   7.914   1.104   3.104  1.3398  1.1775 -1.9970
 4831TIP3   OH214437   0.395   1.427   0.097 -0.0914 -0.1793 -0.0899
 4831TIP3    H114438   0.391   1.332   0.091  1.8207 -0.3254  0.3070
 4831TIP3    H214439   0.365   1.458   0.012  0.2592 -1.1847 -0.5947
 4832TIP3   OH214440   5.902   0.447   6.595  0.1520 -0.0523 -0.2314
 4832TIP3    H114441   5.990   0.411   6.604  0.0574 -0.4175 -0.7462
 4832TIP3    H214442   5.873   0.419   6.509 -1.0535 -1.2248  0.5134
 4833TIP3   OH214443   4.321   6.982   5.057 -0.1888  0.3916 -0.2892
 4833TIP3    H114444   4.404   6.968   5.011  0.0144  0.3022  0.0987
 4833TIP3    H214445   4.311   6.903   5.110 -0.1011  0.7769  0.3047
 4834TIP3   OH214446   3.187   6.815   0.316  0.4689  0.1329  0.2963
 4834TIP3    H114447   3.248   6.757   0.362  1.1036 -1.1066 -1.9621
 4834TIP3    H214448   3.225   6.902   0.326  0.1594  0.0485  2.7022
 4835TIP3   OH214449   3.259   7.076   1.914 -0.0214 -0.0793 -0.2854
 4835TIP3    H114450   3.215   7.001   1.955 -0.0174 -0.5653 -1.1309
 4835TIP3    H214451   3.236   7.069   1.821  2.3361 -0.7612 -0.9123
 4836TIP3   OH214452   2.761   3.537   4.952 -0.3354 -0.6091 -0.1206
 4836TIP3    H114453   2.700   3.464   4.967 -0.4651 -0.4406  0.1756
 4836TIP3    H214454   2.847   3.495   4.945  0.0764 -0.5431  3.2098
 4837TIP3   OH214455   3.834   0.440   1.986  0.3775 -0.3311  0.4358
 4837TIP3    H114456   3.883   0.515   2.019  0.7213 -0.6071  0.5674
 4837TIP3    H214457   3.768   0.423   2.053  0.4822 -0.3222  0.5417
 4838TIP3   OH214458   6.880   2.828   5.259 -0.3273  0.9630  0.3651
 4838TIP3    H114459   6.817   2.871   5.317 -0.5820  0.3876  0.5207
 4838TIP3    H214460   6.894   2.891   5.189 -0.9289  1.1829  0.4346
 4839TIP3   OH214461   0.866   4.477   5.869 -0.3834  0.1399  0.1641
 4839TIP3    H114462   0.836   4.408   5.810 -2.1734 -0.1593  1.3585
 4839TIP3    H214463   0.845   4.445   5.957 -0.1375  1.6822  0.8134
 4840TIP3   OH214464   6.520   4.812   5.472 -0.0930 -0.0139  0.3236
 4840TIP3    H114465   6.452   4.785   5.410 -0.6365  0.9821  0.4590
 4840TIP3    H214466   6.602   4.804   5.423 -0.3844 -0.4791 -0.0964
 4841TIP3   OH214467   7.884   0.931   3.353  0.4336  0.1395 -0.3741
 4841TIP3    H114468   7.858   0.839   3.358 -0.4650  0.3624 -0.6922
 4841TIP3    H214469   7.920   0.940   3.265  1.7702 -0.2068  0.1228
 4842TIP3   OH214470   7.073   3.199   2.412 -0.1796  0.0612 -0.2005
 4842TIP3    H114471   7.139   3.135   2.385  0.3001 -0.0876  1.1998
 4842TIP3    H214472   7.116   3.250   2.481 -0.8902  1.2497 -0.6019
 4843TIP3   OH214473   3.605   0.314   6.080 -0.1886 -0.1353  0.1316
 4843TIP3    H114474   3.630   0.225   6.105  1.1028 -0.1898 -1.2510
 4843TIP3    H214475   3.530   0.334   6.137 -0.4639 -2.0633  0.5261
 4844TIP3   OH214476   6.217   1.871   5.743  0.3977 -0.2546  0.3740
 4844TIP3    H114477   6.223   1.848   5.836  0.9778  1.1357  0.7068
 4844TIP3    H214478   6.303   1.850   5.707 -0.0036 -1.3326 -0.0051
 4845TIP3   OH214479   4.541   4.494   0.172  0.1080  0.0882 -0.0717
 4845TIP3    H114480   4.596   4.418   0.189  1.9593  1.2233 -0.6248
 4845TIP3    H214481   4.590   4.567   0.211 -0.5397  1.2742 -1.3964
 4846TIP3   OH214482   6.915   0.581   4.275  0.1733  0.0268  0.3252
 4846TIP3    H114483   6.948   0.491   4.275 -0.6631 -0.4027 -2.4936
 4846TIP3    H214484   6.993   0.635   4.260  0.4763 -0.3657  0.4689
 4847TIP3   OH214485   6.679   7.094   4.366  0.3712  0.3957 -0.2576
 4847TIP3    H114486   6.595   7.128   4.396  0.0227  1.3018 -2.1161
 4847TIP3    H214487   6.741   7.116   4.436 -0.8169  0.1585  0.9109
 4848TIP3   OH214488   5.291   3.527   5.268 -0.3722  0.1690 -0.2187
 4848TIP3    H114489   5.208   3.571   5.248 -1.2612 -1.2730  0.1521
 4848TIP3    H214490   5.274   3.480   5.350  1.1372  0.6280  0.3977
 4849TIP3   OH214491   5.965   5.579   4.245 -0.1219  0.0171 -0.5478
 4849TIP3    H114492   5.931   5.499   4.203 -1.4688 -0.3393  1.0764
 4849TIP3    H214493   5.914   5.586   4.326 -0.6936  3.0339 -1.0393
 4850TIP3   OH214494   6.828   3.292   1.235  0.2384 -0.3282 -0.2195
 4850TIP3    H114495   6.894   3.343   1.282  0.6695  0.5338 -1.6867
 4850TIP3    H214496   6.760   3.275   1.300 -0.3960  2.9513  0.1817
 4851TIP3   OH214497   7.863   7.751   4.050  0.1051 -0.4630 -0.1228
 4851TIP3    H114498   7.773   7.778   4.034  0.0782 -0.5951 -0.1966
 4851TIP3    H214499   7.885   7.696   3.974  0.5303  0.2654 -0.5400
 4852TIP3   OH214500   6.045   5.856   3.286  0.1969 -0.5135  0.2426
 4852TIP3    H114501   6.137   5.851   3.313 -0.3653  0.8204  2.8139
 4852TIP3    H214502   6.048   5.894   3.198  2.1319 -2.4378 -0.6179
 4853TIP3   OH214503   0.417   1.430   2.309  0.5777 -0.0293  0.2263
 4853TIP3    H114504   0.386   1.368   2.243  0.8986  2.0543 -1.9949
 4853TIP3    H214505   0.510   1.440   2.291  0.7554  0.2718  1.2684
 4854TIP3   OH214506   0.702   5.302   4.670  0.1525 -0.0305  0.0523
 4854TIP3    H114507   0.648   5.376   4.695 -0.2029 -0.5622  0.9285
 4854TIP3    H214508   0.730   5.264   4.753  0.7955 -0.5446 -0.3837
 4855TIP3   OH214509   0.555   4.159   2.256 -0.3905 -0.5107  0.2919
 4855TIP3    H114510   0.621   4.139   2.322 -1.0851 -0.9786  0.8647
 4855TIP3    H214511   0.517   4.243   2.284 -1.2605 -1.1119  0.9785
 4856TIP3   OH214512   0.160   3.862   4.736  0.4006  0.4784  0.0128
 4856TIP3    H114513   0.231   3.923   4.759  2.1644 -0.5198 -2.4229
 4856TIP3    H214514   0.092   3.918   4.697 -0.2328  1.4349  2.3054
 4857TIP3   OH214515   7.484   4.381   6.153  0.6447 -0.1034 -0.0814
 4857TIP3    H114516   7.579   4.381   6.140  0.6751  0.2954  0.1029
 4857TIP3    H214517   7.469   4.316   6.221  0.6777 -0.8766 -0.7907
 4858TIP3   OH214518   7.311   3.028   2.742 -0.1328  0.0180  0.2833
 4858TIP3    H114519   7.393   3.063   2.776  0.7602  1.4808 -2.9530
 4858TIP3    H214520   7.320   2.933   2.749  0.5832  0.2027  2.4776
 4859TIP3   OH214521   4.868   5.652   5.155  0.0403 -0.2776 -0.3247
 4859TIP3    H114522   4.857   5.578   5.096 -1.6427 -0.3128 -0.0267
 4859TIP3    H214523   4.797   5.644   5.218  0.1780  1.2507  0.0863
 4860TIP3   OH214524   0.307   6.025   6.730  0.3555 -0.2826 -0.4004
 4860TIP3    H114525   0.213   6.040   6.716  0.1372  0.3431  1.4973
 4860TIP3    H214526   0.311   5.935   6.764  0.3739 -0.1134  0.0508
 4861TIP3   OH214527   2.014   2.271   0.167 -0.3055  0.0219 -0.0910
 4861TIP3    H114528   1.998   2.210   0.094 -2.2667  2.3016 -1.6997
 4861TIP3    H214529   2.092   2.236   0.210 -1.4198 -3.7359 -0.7386
 4862TIP3   OH214530   2.133   0.789   4.884  0.0443  0.0673 -0.2674
 4862TIP3    H114531   2.178   0.706   4.867 -1.7542 -0.9180 -0.3775
 4862TIP3    H214532   2.040   0.766   4.888 -0.5696  2.1895 -1.0117
 4863TIP3   OH214533   2.374   0.247   2.367  0.0003  0.4988  0.3966
 4863TIP3    H114534   2.291   0.245   2.413  0.9193 -0.7056  2.1021
 4863TIP3    H214535   2.436   0.285   2.429  1.1939 -0.8005  0.0692
 4864TIP3   OH214536   0.433   0.891   0.906  0.2736 -0.3077  0.2874
 4864TIP3    H114537   0.369   0.961   0.922 -0.5587 -0.6799 -1.2523
 4864TIP3    H214538   0.433   0.880   0.811  0.8259 -2.0065  0.4571
 4865TIP3   OH214539   2.815   7.471   4.043 -0.4919  0.2823  0.1125
 4865TIP3    H114540   2.781   7.531   4.109 -2.1021  0.7818 -1.1066
 4865TIP3    H214541   2.741   7.413   4.023 -0.2786  0.5928 -1.7433
 4866TIP3   OH214542   3.670   2.723   1.830  0.1954  0.0832  0.0924
 4866TIP3    H114543   3.623   2.718   1.748  0.7283 -0.0691 -0.2105
 4866TIP3    H214544   3.634   2.652   1.883  0.9573 -0.8473 -0.6025
 4867TIP3   OH214545   7.937   5.169   0.721 -0.0813  0.2269 -0.1197
 4867TIP3    H114546   7.844   5.178   0.697 -0.1256  0.2266  0.0488
 4867TIP3    H214547   7.947   5.225   0.798 -0.1119 -0.3390  0.3005
 4868TIP3   OH214548   2.896   5.435   0.536  0.0236  0.4218  0.6492
 4868TIP3    H114549   2.911   5.530   0.537  0.4854  0.3857 -0.8176
 4868TIP3    H214550   2.814   5.424   0.487  0.8836 -0.0116 -0.7552
 4869TIP3   OH214551   0.344   7.655   0.501  0.1068 -0.2127 -0.3324
 4869TIP3    H114552   0.266   7.601   0.493 -1.3462  1.6696  0.3159
 4869TIP3    H214553   0.319   7.740   0.463  1.5914  0.6527  0.5039
 4870TIP3   OH214554   2.825   4.513   3.378 -0.0693  0.3539 -0.3573
 4870TIP3    H114555   2.907   4.533   3.424  0.3429 -1.6809 -0.1513
 4870TIP3    H214556   2.813   4.419   3.390 -1.9163  0.4442 -1.2644
 4871TIP3   OH214557   4.924   1.503   1.512 -0.1893  0.5334 -0.5329
 4871TIP3    H114558   4.860   1.573   1.501 -2.3094 -1.0872  0.7192
 4871TIP3    H214559   5.001   1.547   1.548 -1.3855  2.2498  0.0632
 4872TIP3   OH214560   0.877   1.433   2.905  0.0091 -0.3389 -0.0268
 4872TIP3    H114561   0.789   1.397   2.921  0.0370 -0.7570 -0.7795
 4872TIP3    H214562   0.864   1.527   2.899 -0.8890 -0.5614 -3.0691
 4873TIP3   OH214563   3.347   4.062   1.987 -0.0286 -0.1336  0.1570
 4873TIP3    H114564   3.415   4.056   2.054 -0.6115  0.8411  0.8647
 4873TIP3    H214565   3.388   4.110   1.915 -0.1196  0.9406  0.8049
 4874TIP3   OH214566   0.119   6.605   6.306 -0.2808 -0.0799  0.1089
 4874TIP3    H114567   0.123   6.679   6.244  1.4048 -0.1510  0.0841
 4874TIP3    H214568   0.097   6.530   6.251 -0.1270  0.0882 -0.1904
 4875TIP3   OH214569   4.049   6.123   3.776  0.2783 -0.2193  0.1433
 4875TIP3    H114570   4.094   6.171   3.845 -1.0430  2.1501 -0.4860
 4875TIP3    H214571   4.117   6.070   3.734  1.8831  1.1572  0.8887
 4876TIP3   OH214572   3.335   0.399   6.538  0.0883  0.0727  0.2256
 4876TIP3    H114573   3.423   0.367   6.523  0.5027  0.5626  1.4821
 4876TIP3    H214574   3.346   0.472   6.599 -1.1956  0.0504  0.5130
 4877TIP3   OH214575   5.705   6.272   3.037 -0.5064  0.1155  0.4512
 4877TIP3    H114576   5.665   6.353   3.004  0.1497  0.9905  1.6955
 4877TIP3    H214577   5.791   6.268   2.994 -0.9912 -0.5533 -0.4866
 4878TIP3   OH214578   5.991   3.784   3.889 -0.1607 -0.4014  0.3676
 4878TIP3    H114579   5.992   3.743   3.975  1.6699 -3.0009 -0.7611
 4878TIP3    H214580   6.074   3.758   3.849 -0.5527  1.4685 -1.8697
 4879TIP3   OH214581   0.851   4.675   4.802  0.2965  0.7300  0.2421
 4879TIP3    H114582   0.817   4.662   4.890  0.2213 -0.9238 -0.0108
 4879TIP3    H214583   0.930   4.622   4.798  0.9092  1.6578 -0.3506
 4880TIP3   OH214584   4.186   4.059   5.644  0.7296  0.0188 -0.2567
 4880TIP3    H114585   4.249   4.004   5.596  0.0735 -0.3396 -0.7347
 4880TIP3    H214586   4.113   4.000   5.663  0.6456  0.3635  0.5184
 4881TIP3   OH214587   2.402   7.094   3.816 -0.0186 -0.6299 -0.2641
 4881TIP3    H114588   2.322   7.086   3.869 -1.7604  0.0694 -2.6209
 4881TIP3    H214589   2.416   7.007   3.781 -1.4987 -0.2086 -2.0916
 4882TIP3   OH214590   1.276   3.797   5.874 -0.0078 -0.5185  0.0385
 4882TIP3    H114591   1.195   3.757   5.905  0.1401 -0.9015 -0.0617
 4882TIP3    H214592   1.254   3.889   5.860 -0.3994 -0.6029  0.0957
 4883TIP3   OH214593   2.158   0.602   1.672  0.3164  0.2807 -0.5264
 4883TIP3    H114594   2.205   0.670   1.721 -2.2323  1.2858  0.6987
 4883TIP3    H214595   2.168   0.627   1.580 -0.6640  2.4562 -0.1005
 4884TIP3   OH214596   6.462   4.887   4.097  0.4264 -0.0188 -0.0517
 4884TIP3    H114597   6.493   4.844   4.017  1.0068  1.0688 -0.4214
 4884TIP3    H214598   6.408   4.960   4.066  0.1658  0.0579  0.5620
 4885TIP3   OH214599   1.013   1.903   5.295  0.2257  0.0057 -0.1789
 4885TIP3    H114600   0.940   1.899   5.357 -0.9007 -0.3016 -1.4611
 4885TIP3    H214601   1.091   1.892   5.349 -0.6064  1.1720  1.3452
 4886TIP3   OH214602   5.661   0.111   3.860 -0.6844  0.1106 -0.9455
 4886TIP3    H114603   5.708   0.046   3.914 -1.2977 -0.7564 -1.4304
 4886TIP3    H214604   5.726   0.140   3.796  0.1035  1.2798  0.3496
 4887TIP3   OH214605   3.011   3.493   2.781 -0.3718  0.3418 -0.0456
 4887TIP3    H114606   3.047   3.578   2.805  1.1160  0.1419 -1.3346
 4887TIP3    H214607   3.021   3.489   2.686  0.6942 -1.7130  0.0855
 4888TIP3   OH214608   0.251   4.326   2.786  0.0213 -0.3818 -0.1006
 4888TIP3    H114609   0.287   4.372   2.861  1.9639  0.9654 -1.7474
 4888TIP3    H214610   0.261   4.233   2.807 -0.7695 -0.0671  1.8401
 4889TIP3   OH214611   2.889   0.339   0.454 -0.4552  0.3328  0.2010
 4889TIP3    H114612   2.853   0.372   0.372 -1.2311 -0.9779 -0.0184
 4889TIP3    H214613   2.982   0.363   0.452 -0.1535 -0.8898 -1.6927
 4890TIP3   OH214614   1.683   2.732   2.207  0.4175  0.0618 -0.1430
 4890TIP3    H114615   1.730   2.681   2.272 -0.5258 -0.9743 -0.2414
 4890TIP3    H214616   1.598   2.751   2.247 -0.3180 -0.9007 -1.1630
 4891TIP3   OH214617   0.793   4.739   0.861 -0.3698 -0.0915 -0.3353
 4891TIP3    H114618   0.746   4.675   0.807 -0.7628 -0.0838 -0.0087
 4891TIP3    H214619   0.730   4.809   0.875  0.1153  0.4639 -0.8359
 4892TIP3   OH214620   3.388   3.370   1.971 -0.4148  0.3947 -0.0051
 4892TIP3    H114621   3.457   3.335   1.915 -0.8968 -1.7161  0.6151
 4892TIP3    H214622   3.430   3.380   2.057 -0.7424 -0.4363  0.2581
 4893TIP3   OH214623   1.568   5.568   5.601 -0.4100  0.4148  0.3683
 4893TIP3    H114624   1.478   5.561   5.633 -0.5720 -0.0373 -0.1603
 4893TIP3    H214625   1.566   5.642   5.541 -0.8178 -0.5474 -0.8504
 4894TIP3   OH214626   2.376   4.311   1.630  0.2225  0.2748  0.6076
 4894TIP3    H114627   2.439   4.381   1.612 -0.6667  1.1927  0.9464
 4894TIP3    H214628   2.337   4.291   1.545 -1.0898  1.7682  0.8116
 4895TIP3   OH214629   5.402   5.962   4.411 -0.6711  0.2072  0.0926
 4895TIP3    H114630   5.331   5.989   4.353  0.0319  1.1522 -0.3670
 4895TIP3    H214631   5.462   5.914   4.355  1.0256  2.8480 -0.5394
 4896TIP3   OH214632   5.429   5.072   0.132  0.0308 -0.5054  0.2775
 4896TIP3    H114633   5.451   5.165   0.138 -0.2329 -0.4609  0.6159
 4896TIP3    H214634   5.470   5.043   0.051 -1.9753  0.4812 -1.1762
 4897TIP3   OH214635   0.782   0.530   3.912  0.8592  0.0354  0.6876
 4897TIP3    H114636   0.788   0.624   3.931  0.8625  0.1060  0.3434
 4897TIP3    H214637   0.807   0.523   3.820  0.9794 -0.3183  0.7463
 4898TIP3   OH214638   4.057   2.412   6.645 -0.3603 -0.0384 -0.1704
 4898TIP3    H114639   4.072   2.322   6.673 -2.0730 -0.7900 -1.4435
 4898TIP3    H214640   4.057   2.463   6.727  0.1105 -1.2666  0.6226
 4899TIP3   OH214641   4.216   3.596   6.294 -0.6630 -0.0726  0.1036
 4899TIP3    H114642   4.153   3.609   6.364 -1.1454  0.2610 -0.3830
 4899TIP3    H214643   4.244   3.505   6.303 -2.0119 -0.5435 -0.3249
 4900TIP3   OH214644   4.197   1.670   5.853  0.0957  0.2004 -0.2689
 4900TIP3    H114645   4.272   1.615   5.829 -0.1346 -0.6596  0.8954
 4900TIP3    H214646   4.235   1.757   5.867  0.7163 -0.0045 -0.6218
 4901TIP3   OH214647   0.166   2.935   2.534 -0.4273 -0.1945  0.5498
 4901TIP3    H114648   0.094   2.992   2.561 -0.4734  0.8654 -1.5866
 4901TIP3    H214649   0.123   2.861   2.491 -0.2943 -0.8366  1.4936
 4902TIP3   OH214650   5.346   5.899   1.791  0.3905 -0.2099 -0.3178
 4902TIP3    H114651   5.435   5.863   1.786  0.4643 -0.3185  1.1552
 4902TIP3    H214652   5.290   5.822   1.802  0.4355 -0.0183  1.6711
 4903TIP3   OH214653   7.558   0.681   2.761  0.6419  0.2522  0.0815
 4903TIP3    H114654   7.638   0.720   2.726  1.5564 -0.5868  1.1632
 4903TIP3    H214655   7.537   0.733   2.838  0.1890  0.4014 -0.1360
 4904TIP3   OH214656   4.024   3.526   4.377  0.6761 -0.0772 -0.0693
 4904TIP3    H114657   4.088   3.496   4.312 -0.1217 -1.5864 -0.1994
 4904TIP3    H214658   3.962   3.454   4.384  0.0148  0.6051  1.4176
 4905TIP3   OH214659   0.309   3.744   0.941 -0.9746  0.2063  0.3331
 4905TIP3    H114660   0.230   3.730   0.890 -0.6054  1.1150 -0.5142
 4905TIP3    H214661   0.360   3.664   0.930 -0.1876  0.9687 -2.0373
 4906TIP3   OH214662   5.135   2.241   6.148 -0.1137 -0.5331 -0.4097
 4906TIP3    H114663   5.160   2.292   6.071 -1.0327  0.4488 -0.0792
 4906TIP3    H214664   5.091   2.164   6.112  0.2962 -0.5461 -0.8866
 4907TIP3   OH214665   2.043   6.839   2.045  0.9845  0.3140  0.4242
 4907TIP3    H114666   1.985   6.841   1.968  0.2209 -0.3131  0.9630
 4907TIP3    H214667   2.129   6.818   2.009  0.4457 -0.9804 -0.1729
 4908TIP3   OH214668   0.429   4.046   0.008 -0.2612  0.4522 -0.6149
 4908TIP3    H114669   0.458   4.137   0.008  0.9180  0.1494  1.2916
 4908TIP3    H214670   0.347   4.047   0.058 -0.2593  0.4798 -0.6121
 4909TIP3   OH214671   3.360   4.865   2.309 -0.0957  0.0241 -0.0384
 4909TIP3    H114672   3.385   4.776   2.333 -0.7693 -0.5471 -1.3833
 4909TIP3    H214673   3.395   4.919   2.381  1.9484 -1.0942 -0.1019
 4910TIP3   OH214674   4.298   2.870   3.083  0.2854 -0.2217  0.0865
 4910TIP3    H114675   4.327   2.899   2.996 -0.0665  1.2192  0.4330
 4910TIP3    H214676   4.253   2.787   3.066  0.9251 -0.3607 -1.0053
 4911TIP3   OH214677   3.478   2.213   5.668  0.6940 -0.4520  0.1700
 4911TIP3    H114678   3.475   2.299   5.628 -2.9411 -0.8999 -0.8446
 4911TIP3    H214679   3.545   2.220   5.735  2.7517  2.1493 -1.9344
 4912TIP3   OH214680   1.721   4.323   0.386  0.2285 -0.1536  0.1850
 4912TIP3    H114681   1.763   4.404   0.359  1.2705 -0.1107  1.8153
 4912TIP3    H214682   1.692   4.282   0.304  1.9813  0.6205 -0.8624
 4913TIP3   OH214683   0.625   7.576   5.585  0.1499  0.3070  0.0055
 4913TIP3    H114684   0.646   7.607   5.674  1.4990  0.9240 -0.4921
 4913TIP3    H214685   0.560   7.507   5.598  0.3993  0.3191  1.4818
 4914TIP3   OH214686   3.858   1.278   3.755 -0.0920 -0.0648  0.3141
 4914TIP3    H114687   3.953   1.276   3.747 -0.0007  0.3869  1.1917
 4914TIP3    H214688   3.842   1.314   3.842 -1.0686 -0.0525  0.1390
 4915TIP3   OH214689   2.411   0.369   1.339  0.4122  0.0168 -0.4678
 4915TIP3    H114690   2.337   0.429   1.346 -1.1300 -1.7730 -0.8157
 4915TIP3    H214691   2.486   0.421   1.367 -0.9835  1.8384  0.0851
 4916TIP3   OH214692   3.975   2.661   5.699  0.2306 -0.0862  0.0982
 4916TIP3    H114693   3.935   2.699   5.622  2.9055  0.9272 -0.8966
 4916TIP3    H214694   4.023   2.733   5.740  0.8878 -1.1607  1.3035
 4917TIP3   OH214695   5.933   3.721   2.620  0.2325  0.0196 -0.0040
 4917TIP3    H114696   5.998   3.747   2.554  0.0564 -0.2592 -0.2886
 4917TIP3    H214697   5.889   3.645   2.581 -0.5433  0.4562  0.0162
 4918TIP3   OH214698   2.944   5.087   0.877 -0.1367 -0.5218  0.2026
 4918TIP3    H114699   2.899   5.171   0.881 -0.4153 -0.5879 -0.9642
 4918TIP3    H214700   2.893   5.029   0.933 -1.2711 -0.4751 -0.7453
 4919TIP3   OH214701   5.483   6.811   5.750 -1.0270 -0.1295  0.2547
 4919TIP3    H114702   5.518   6.724   5.769 -1.2804 -0.2743  0.0616
 4919TIP3    H214703   5.541   6.847   5.683  1.1263  1.2034  2.6698
 4920TIP3   OH214704   7.919   2.077   4.108  0.4141  0.1630 -0.1548
 4920TIP3    H114705   7.999   2.040   4.146  0.6549 -0.2068 -0.9995
 4920TIP3    H214706   7.899   2.152   4.163  2.5619  1.5853 -1.1418
 4921TIP3   OH214707   5.574   2.739   5.232  0.5632  0.2018  0.4554
 4921TIP3    H114708   5.551   2.653   5.268  2.0562 -0.4170 -0.0021
 4921TIP3    H214709   5.619   2.784   5.304 -0.0201  0.5282  0.6228
 4922TIP3   OH214710   0.492   0.970   5.536 -0.2231 -0.4008 -0.0512
 4922TIP3    H114711   0.580   1.005   5.524 -0.0853 -0.3984  0.8868
 4922TIP3    H214712   0.434   1.037   5.500  0.1777 -0.9679 -1.8850
 4923TIP3   OH214713   3.571   3.286   4.583  0.0073 -0.0458 -0.0323
 4923TIP3    H114714   3.477   3.271   4.591 -0.0942  0.8836  0.7495
 4923TIP3    H214715   3.610   3.228   4.648 -0.1095  0.3002  0.3546
 4924TIP3   OH214716   4.733   6.849   4.586 -0.4116  0.3246  0.6546
 4924TIP3    H114717   4.659   6.856   4.526  0.2524  0.1965 -0.1886
 4924TIP3    H214718   4.768   6.762   4.571 -0.1256  0.3556  1.1151
 4925TIP3   OH214719   2.883   3.297   4.394 -0.1796  0.2699 -0.0964
 4925TIP3    H114720   2.812   3.236   4.414  0.2099 -0.3157 -0.4712
 4925TIP3    H214721   2.842   3.383   4.397 -0.6822  0.0180  0.7039
 4926TIP3   OH214722   8.275   1.956   3.967  0.2830  0.6095 -0.0946
 4926TIP3    H114723   8.236   1.938   4.052  0.3926  0.7766 -0.0079
 4926TIP3    H214724   8.318   2.041   3.978  0.4906  0.5251 -0.2511
 4927TIP3   OH214725   4.461   4.584   3.608  0.0737 -0.4012  0.2134
 4927TIP3    H114726   4.552   4.600   3.631  0.8632  0.3524 -2.9078
 4927TIP3    H214727   4.458   4.492   3.583 -0.3369 -0.7367  1.4420
 4928TIP3   OH214728   5.630   7.435   5.341 -0.3024 -0.2013 -0.1105
 4928TIP3    H114729   5.581   7.382   5.403  2.0801 -2.0765  0.3287
 4928TIP3    H214730   5.708   7.384   5.322  0.8470  1.9855 -1.8087
 4929TIP3   OH214731   1.187   4.828   4.405  0.1324 -0.3407  0.4119
 4929TIP3    H114732   1.258   4.764   4.405  0.2476 -0.2248  1.2163
 4929TIP3    H214733   1.194   4.871   4.319  1.1451 -0.2152  0.5385
 4930TIP3   OH214734   7.562   3.963   3.162  0.0950  0.0148  0.3622
 4930TIP3    H114735   7.527   4.051   3.178  2.4121  1.0358  0.2094
 4930TIP3    H214736   7.558   3.920   3.248 -2.7086 -0.4663  0.1015
 4931TIP3   OH214737   7.681   1.545   2.563  0.3075  0.0684 -0.2350
 4931TIP3    H114738   7.642   1.561   2.477  0.4957 -0.9577 -0.5223
 4931TIP3    H214739   7.613   1.497   2.611  0.2130  0.6157  0.1773
 4932TIP3   OH214740   5.109   4.421   3.888 -0.2089  0.0702  0.3448
 4932TIP3    H114741   5.100   4.514   3.909 -2.3283  0.2655 -1.1577
 4932TIP3    H214742   5.025   4.383   3.913  0.4838 -1.3864  0.5522
 4933TIP3   OH214743   2.608   2.250   1.567  0.2394  0.0947  0.4785
 4933TIP3    H114744   2.685   2.194   1.561 -0.2560 -0.6872  1.0573
 4933TIP3    H214745   2.576   2.236   1.657 -0.2341  0.8479  0.4330
 4934TIP3   OH214746   3.859   3.440   2.894 -0.2162 -0.7399  0.6537
 4934TIP3    H114747   3.844   3.509   2.830  0.4904 -0.5186  0.7224
 4934TIP3    H214748   3.879   3.362   2.842 -3.6955 -1.6495  0.4433
 4935TIP3   OH214749   2.393   7.092   0.057  0.2093 -0.1364  0.1822
 4935TIP3    H114750   2.349   7.069   0.139  1.1228 -1.7254  0.2763
 4935TIP3    H214751   2.486   7.080   0.076  0.5060  0.5386 -0.7757
 4936TIP3   OH214752   4.896   7.238   6.459  0.0257  0.0888  0.0120
 4936TIP3    H114753   4.824   7.198   6.410 -0.4073 -1.4986  1.8082
 4936TIP3    H214754   4.930   7.167   6.514  0.6891  1.6565  1.7419
 4937TIP3   OH214755   0.588   4.868   3.934  0.1029 -0.0900  0.3673
 4937TIP3    H114756   0.498   4.837   3.946 -0.3451  1.0845  0.1799
 4937TIP3    H214757   0.579   4.963   3.923  1.4650  0.1978  1.5124
 4938TIP3   OH214758   5.804   5.390   4.119 -0.2527  0.0944 -0.6583
 4938TIP3    H114759   5.755   5.349   4.190  0.7771  0.2091  0.1338
 4938TIP3    H214760   5.739   5.445   4.073 -1.3249 -1.3011 -0.8847
 4939TIP3   OH214761   3.579   3.961   3.242  0.5164  0.4835  0.2387
 4939TIP3    H114762   3.648   3.960   3.176 -1.0316 -0.5513 -1.4864
 4939TIP3    H214763   3.622   3.934   3.323  2.2645  0.6405 -0.5995
 4940TIP3   OH214764   1.332   6.049   4.072  0.8054 -0.1101 -0.1450
 4940TIP3    H114765   1.374   6.067   3.988 -0.5133 -0.0402 -0.8102
 4940TIP3    H214766   1.240   6.072   4.059  0.5450 -0.2407  1.2738
 4941TIP3   OH214767   1.627   3.020   4.011 -0.2536 -0.0592  0.0763
 4941TIP3    H114768   1.550   2.996   3.960  0.5677 -0.0636 -1.1830
 4941TIP3    H214769   1.591   3.067   4.087 -1.4846  0.0167 -0.5237
 4942TIP3   OH214770   6.313   0.109   1.798  0.1605 -0.8248 -0.0315
 4942TIP3    H114771   6.226   0.122   1.760  0.6513 -0.4586 -1.1039
 4942TIP3    H214772   6.314   0.164   1.876 -0.5837 -0.8606  0.0046
 4943TIP3   OH214773   2.714   3.061   4.888 -0.5931  0.3740  0.1342
 4943TIP3    H114774   2.642   3.110   4.929 -2.0577 -0.0863 -1.7549
 4943TIP3    H214775   2.733   3.109   4.807 -0.6799 -1.0113 -0.7466
 4944TIP3   OH214776   8.015   1.595   0.027 -0.2273 -0.3791  0.2735
 4944TIP3    H114777   8.091   1.566   0.078 -0.0561 -0.8398 -0.2334
 4944TIP3    H214778   8.039   1.576  -0.064 -0.7893 -0.1555  0.0765
 4945TIP3   OH214779   3.567   6.692   3.585 -0.5102  0.6176  0.2970
 4945TIP3    H114780   3.631   6.749   3.626  1.0199 -0.1229 -0.9651
 4945TIP3    H214781   3.486   6.744   3.584  0.2694  1.9067  1.1339
 4946TIP3   OH214782   1.638   5.495   2.850  0.1748 -0.1643  0.3526
 4946TIP3    H114783   1.705   5.541   2.800  0.8425  0.4538  1.7444
 4946TIP3    H214784   1.653   5.402   2.831 -0.4984  0.0877 -1.6458
 4947TIP3   OH214785   0.304   0.564   1.580  0.4494  0.6443  0.0729
 4947TIP3    H114786   0.254   0.487   1.553  0.2364  0.9224 -0.3415
 4947TIP3    H214787   0.266   0.636   1.530 -0.7309  1.4080  1.9555
 4948TIP3   OH214788   6.674   4.904   0.899  0.1971 -0.3266 -0.3200
 4948TIP3    H114789   6.649   4.873   0.812  1.2203 -2.5771  0.1349
 4948TIP3    H214790   6.611   4.864   0.959 -1.3930  2.3357 -0.0579
 4949TIP3   OH214791   5.168   2.944   1.251  0.1746  0.0116 -0.4336
 4949TIP3    H114792   5.218   2.890   1.190  1.8483  1.4091 -0.3660
 4949TIP3    H214793   5.182   2.902   1.336 -1.1531 -1.2200 -0.7746
 4950TIP3   OH214794   0.536   1.504   4.677  0.3676 -0.4421  0.6325
 4950TIP3    H114795   0.521   1.594   4.648  1.1311 -0.4681  0.1328
 4950TIP3    H214796   0.598   1.512   4.749 -1.1287 -0.4228  1.9976
 4951TIP3   OH214797   0.698   7.100   0.477 -0.2243  0.1737  0.1873
 4951TIP3    H114798   0.624   7.082   0.419  0.0526  0.4059 -0.2363
 4951TIP3    H214799   0.724   7.190   0.457  0.1981  0.0808  0.3072
 4952TIP3   OH214800   4.668   4.688   5.244  0.5155  0.0168  0.1106
 4952TIP3    H114801   4.617   4.628   5.190  2.3736 -0.5422 -1.1435
 4952TIP3    H214802   4.604   4.729   5.303 -1.0875 -1.7863 -0.2875
 4953TIP3   OH214803   3.535   2.773   4.727 -0.3486 -0.7574 -0.1502
 4953TIP3    H114804   3.498   2.818   4.804  0.4802  1.4475 -0.9631
 4953TIP3    H214805   3.461   2.764   4.668 -0.6926 -1.2127  0.3343
 4954TIP3   OH214806   5.391   2.969   6.702 -0.1699 -0.0497 -0.0484
 4954TIP3    H114807   5.398   3.031   6.629 -1.1962  1.5164  1.1386
 4954TIP3    H214808   5.481   2.960   6.734 -0.1634  1.9654  0.6327
 4955TIP3   OH214809   2.521   2.334   1.120 -0.3276  0.3959  0.6725
 4955TIP3    H114810   2.581   2.260   1.132 -2.1773 -1.1988  0.7070
 4955TIP3    H214811   2.477   2.343   1.205 -0.5326  1.1641  0.4929
 4956TIP3   OH214812   3.495   1.863   3.307 -0.1967 -0.3024 -0.0132
 4956TIP3    H114813   3.531   1.883   3.221 -0.3187  1.4668  0.3000
 4956TIP3    H214814   3.407   1.829   3.290  0.1373 -0.8846 -0.6090
 4957TIP3   OH214815   7.966   5.663   3.741  0.1860  0.6149 -0.1278
 4957TIP3    H114816   7.989   5.666   3.834 -1.2219  0.5235  0.2473
 4957TIP3    H214817   7.935   5.752   3.722  0.1823  0.5481 -0.4340
 4958TIP3   OH214818   6.318   1.814   0.560 -0.3598 -0.0028 -0.3804
 4958TIP3    H114819   6.384   1.834   0.494  1.1888 -0.2730  1.0225
 4958TIP3    H214820   6.314   1.718   0.563 -1.3110  0.0083 -0.9069
 4959TIP3   OH214821   4.223   3.185   4.728 -0.2476  0.7050 -0.3128
 4959TIP3    H114822   4.219   3.190   4.633  0.7879 -0.0646 -0.4214
 4959TIP3    H214823   4.262   3.268   4.755  0.3673  0.5379 -0.6543
 4960TIP3   OH214824   7.252   4.524   2.387  0.2056  0.6135  0.4069
 4960TIP3    H114825   7.261   4.571   2.470  0.1751 -0.8939  1.2890
 4960TIP3    H214826   7.319   4.456   2.390 -0.8820 -0.5191 -0.0617
 4961TIP3   OH214827   2.791   1.154   1.812  0.3591  0.3155  0.4243
 4961TIP3    H114828   2.820   1.244   1.822 -1.1046  1.0778 -1.4288
 4961TIP3    H214829   2.843   1.120   1.739 -0.1863  0.2144  0.0690
 4962TIP3   OH214830   2.083   0.290   5.283  0.1537  0.5176 -0.6287
 4962TIP3    H114831   2.036   0.212   5.312 -0.5586 -0.0858 -3.1132
 4962TIP3    H214832   2.018   0.359   5.282 -0.0642  0.3130 -1.5781
 4963TIP3   OH214833   5.066   5.099   1.449  0.2553  0.5643 -0.4860
 4963TIP3    H114834   5.157   5.072   1.436  0.2966  0.9046 -0.9222
 4963TIP3    H214835   5.072   5.177   1.505  0.0555 -1.1522  2.0758
 4964TIP3   OH214836   2.710   2.313   6.684 -0.0183  0.8908 -0.0682
 4964TIP3    H114837   2.619   2.321   6.656 -0.7066  1.2615  2.0783
 4964TIP3    H214838   2.757   2.377   6.630 -1.1108  1.1133 -0.7993
 4965TIP3   OH214839   2.211   5.688   4.262 -0.1590  0.1588  0.3952
 4965TIP3    H114840   2.131   5.640   4.281  1.2839 -2.7822 -0.4063
 4965TIP3    H214841   2.246   5.713   4.347 -1.6995  1.2513  0.7621
 4966TIP3   OH214842   4.059   2.820   3.761  1.1244 -0.0754 -0.2634
 4966TIP3    H114843   4.130   2.879   3.789  0.8567  0.6107 -0.9879
 4966TIP3    H214844   4.014   2.797   3.843  2.1642 -0.5068  0.2000
 4967TIP3   OH214845   5.203   2.317   1.845  0.6981  0.4705 -0.0396
 4967TIP3    H114846   5.159   2.355   1.769  1.0403 -0.4455 -0.7087
 4967TIP3    H214847   5.291   2.296   1.815  1.5311  1.9841  1.1989
 4968TIP3   OH214848   5.971   0.054   0.948 -0.2507  0.4145  0.4812
 4968TIP3    H114849   5.912  -0.016   0.918  1.4211 -0.0026 -2.1287
 4968TIP3    H214850   5.935   0.133   0.907 -0.3028  0.5478  0.7851
 4969TIP3   OH214851   6.017   1.173   3.800 -0.2646 -0.1432  0.3337
 4969TIP3    H114852   6.088   1.234   3.780 -0.7345 -0.1802 -1.5835
 4969TIP3    H214853   5.937   1.223   3.784 -0.6582 -1.1450 -1.0143
 4970TIP3   OH214854   4.069   4.703   6.613 -0.3302  0.1003 -0.6316
 4970TIP3    H114855   4.134   4.637   6.589  1.4551  1.9892 -1.2901
 4970TIP3    H214856   3.991   4.679   6.563  0.5799 -0.9498 -1.6020
 4971TIP3   OH214857   7.439   5.952   3.559  0.3666 -0.0381  0.0628
 4971TIP3    H114858   7.448   6.039   3.520 -0.3956  0.3387  0.7154
 4971TIP3    H214859   7.346   5.943   3.578  0.1940 -1.5715 -1.2694
 4972TIP3   OH214860   1.062   7.276   2.280 -0.5956  0.5065  0.4758
 4972TIP3    H114861   1.011   7.195   2.274  0.8312 -0.5412  1.8746
 4972TIP3    H214862   1.129   7.267   2.213  1.2668 -0.7951  2.4088
 4973TIP3   OH214863   4.753   4.119   5.909  0.2447  0.1538 -0.3759
 4973TIP3    H114864   4.769   4.192   5.969  3.3475 -1.1003  0.5191
 4973TIP3    H214865   4.725   4.047   5.966  1.2340 -0.4822 -0.6744
 4974TIP3   OH214866   3.402   0.309   0.891  0.4667 -0.5096 -0.1742
 4974TIP3    H114867   3.407   0.295   0.796  0.1832  0.3110 -0.3153
 4974TIP3    H214868   3.355   0.392   0.901  1.5322  0.0312  0.6377
 4975TIP3   OH214869   2.568   0.318   3.212 -0.0309  0.0381  0.1414
 4975TIP3    H114870   2.624   0.308   3.289 -0.0631 -0.4207  0.1084
 4975TIP3    H214871   2.578   0.236   3.164  1.7665  1.1636 -1.5462
 4976TIP3   OH214872   1.498   5.471   0.429 -0.3485  0.1961 -0.1989
 4976TIP3    H114873   1.522   5.466   0.521 -1.9925 -1.4084  0.2061
 4976TIP3    H214874   1.484   5.380   0.403 -2.8144  0.7815 -1.1776
 4977TIP3   OH214875   3.167   1.797   6.351  0.1727  0.0269  0.2121
 4977TIP3    H114876   3.105   1.839   6.291 -1.0227 -1.9555 -0.0615
 4977TIP3    H214877   3.114   1.774   6.427  1.6229  2.3232  2.0272
 4978TIP3   OH214878   6.040   3.640   0.279  0.7813  0.7614  0.1483
 4978TIP3    H114879   5.983   3.676   0.347 -0.2817 -2.1707  0.9201
 4978TIP3    H214880   5.981   3.593   0.220  2.2324 -1.3059  0.2663
 4979TIP3   OH214881   8.068   2.478   6.393 -0.3589 -0.4442 -0.3351
 4979TIP3    H114882   7.990   2.502   6.443  0.6522 -1.6346  1.9597
 4979TIP3    H214883   8.042   2.401   6.343 -1.2134  0.4106 -1.2603
 4980TIP3   OH214884   4.181   6.148   5.034  0.1156  0.0804  0.2777
 4980TIP3    H114885   4.115   6.083   5.060  0.7272 -0.8371 -0.4066
 4980TIP3    H214886   4.131   6.228   5.019 -0.6682 -0.2413  1.0462
 4981TIP3   OH214887   7.244   3.343   0.940 -0.1173  0.1079  0.3765
 4981TIP3    H114888   7.315   3.307   0.993 -0.1763 -0.6391 -0.0492
 4981TIP3    H214889   7.166   3.296   0.968 -0.2964  0.3063  0.2184
 4982TIP3   OH214890   8.178   1.274   5.297 -0.6894 -0.1257 -0.5733
 4982TIP3    H114891   8.203   1.290   5.389 -1.1208 -0.0081 -0.4744
 4982TIP3    H214892   8.161   1.180   5.293 -1.6697  0.0283 -0.2793
 4983TIP3   OH214893   0.120   5.686   5.937 -0.1049 -0.0825 -0.4185
 4983TIP3    H114894   0.159   5.675   6.024  0.4957 -1.3667 -0.8144
 4983TIP3    H214895   0.191   5.661   5.877 -1.3348 -1.9467 -1.1772
 4984TIP3   OH214896   7.461   4.071   1.554  0.0899  0.0289  0.0091
 4984TIP3    H114897   7.450   4.008   1.626 -0.6811 -0.3135 -0.3863
 4984TIP3    H214898   7.376   4.071   1.510  0.9128 -0.7213 -1.6650
 4985TIP3   OH214899   7.809   6.407   0.337  0.0941 -0.0072  0.9195
 4985TIP3    H114900   7.876   6.346   0.369  0.4603  0.3865  0.9005
 4985TIP3    H214901   7.829   6.419   0.244  0.0634  0.1962  0.9392
 4986TIP3   OH214902   1.339   1.459   6.614 -0.3330 -0.6563  0.9427
 4986TIP3    H114903   1.361   1.366   6.612 -0.9457 -0.8138  1.2970
 4986TIP3    H214904   1.364   1.492   6.528  0.9493 -0.9003  1.2066
 4987TIP3   OH214905   4.473   7.144   1.113 -0.1887  0.3270  0.2688
 4987TIP3    H114906   4.464   7.102   1.028 -1.4327  1.7970 -0.3570
 4987TIP3    H214907   4.492   7.071   1.173 -1.7873 -1.0756 -0.8384
 4988TIP3   OH214908   6.102   1.181   3.396 -0.3937  0.0591  0.0306
 4988TIP3    H114909   6.136   1.212   3.312  0.3283 -1.4135 -0.2688
 4988TIP3    H214910   6.020   1.137   3.373 -0.5049  0.1875  0.1845
 4989TIP3   OH214911   4.859   0.943   4.184 -0.5619 -0.1502 -0.3081
 4989TIP3    H114912   4.907   0.871   4.142 -1.1061 -0.9036  0.3230
 4989TIP3    H214913   4.925   1.010   4.199 -0.2361 -0.0980 -1.8192
 4990TIP3   OH214914   0.358   4.924   1.784  0.9483 -0.0442 -0.5738
 4990TIP3    H114915   0.276   4.927   1.834  0.0974  1.7174 -1.9368
 4990TIP3    H214916   0.423   4.964   1.841  0.0991  1.5208 -0.6496
 4991TIP3   OH214917   6.280   6.988   2.902  0.1038 -0.5498  0.0368
 4991TIP3    H114918   6.254   7.046   2.974  0.6251 -0.8560  0.4828
 4991TIP3    H214919   6.226   6.910   2.914  1.3234 -1.2706  1.0864
 4992TIP3   OH214920   2.159   2.422   5.383  0.4130 -0.0439  0.1776
 4992TIP3    H114921   2.166   2.344   5.438  0.5213  1.0397  1.7643
 4992TIP3    H214922   2.077   2.411   5.336  0.9007 -1.5591 -0.3883
 4993TIP3   OH214923   1.557   4.305   0.126  0.3640 -0.8345 -0.1510
 4993TIP3    H114924   1.520   4.373   0.071 -1.0118 -1.0887  0.4115
 4993TIP3    H214925   1.642   4.286   0.087  1.3072  1.9617  0.3277
 4994TIP3   OH214926   4.442   5.056   3.796 -0.5958 -0.9442  0.2729
 4994TIP3    H114927   4.407   5.040   3.883 -0.6512 -0.6817  0.3015
 4994TIP3    H214928   4.536   5.068   3.810 -0.2407 -3.1344  0.0037
 4995TIP3   OH214929   4.022   0.812   2.484 -0.5327  0.6305 -0.1079
 4995TIP3    H114930   3.962   0.885   2.495 -0.7263  0.5500 -0.5877
 4995TIP3    H214931   4.108   0.853   2.471 -0.0373  0.7296  2.7772
 4996TIP3   OH214932   5.755   2.689   4.478 -0.3801  0.0898  0.1988
 4996TIP3    H114933   5.786   2.771   4.517 -1.3580  0.9064 -0.6719
 4996TIP3    H214934   5.834   2.647   4.444 -0.0998  1.7650 -1.3430
 4997TIP3   OH214935   1.877   7.466   5.960 -0.0812  0.1460  0.4242
 4997TIP3    H114936   1.825   7.543   5.935 -1.7743 -0.3988  2.0387
 4997TIP3    H214937   1.870   7.407   5.885  0.6522  1.2523 -0.5421
 4998TIP3   OH214938   1.133   4.057   0.581 -0.1079 -0.0232  0.1358
 4998TIP3    H114939   1.223   4.086   0.593 -0.6280  1.7932 -0.0555
 4998TIP3    H214940   1.137   3.997   0.507  0.6472  1.8233 -1.3959
 4999TIP3   OH214941   4.305   2.318   3.501  0.2085  0.1835  0.3131
 4999TIP3    H114942   4.215   2.334   3.473 -1.0467 -0.8701  3.3300
 4999TIP3    H214943   4.344   2.405   3.505 -0.7494  0.6937 -0.7825
 5000TIP3   OH214944   5.966   6.432   6.366 -0.4057 -0.3017  0.6574
 5000TIP3    H114945   5.939   6.351   6.322  1.9880 -1.3918  1.0249
 5000TIP3    H214946   5.970   6.409   6.459  2.5404 -0.5809  0.5629
 5001TIP3   OH214947   8.162   0.519   6.216 -0.3968  0.7175 -0.3895
 5001TIP3    H114948   8.099   0.527   6.288 -1.1755  1.5173 -1.1328
 5001TIP3    H214949   8.136   0.587   6.153  1.7287  1.6450 -0.3485
 5002TIP3   OH214950   2.773   5.907   0.473  0.2810 -0.4257 -0.3416
 5002TIP3    H114951   2.701   5.942   0.420  1.3465  0.4446 -1.2826
 5002TIP3    H214952   2.731   5.854   0.540 -1.2713  0.5639 -0.4949
 5003TIP3   OH214953   5.325   6.610   4.378  0.4832 -0.2771 -0.3999
 5003TIP3    H114954   5.372   6.675   4.430  3.0763 -0.6529 -2.1178
 5003TIP3    H214955   5.372   6.528   4.393 -0.9868 -1.1867 -0.5118
 5004TIP3   OH214956   3.986   7.508   6.086 -0.1338  0.7390  0.8462
 5004TIP3    H114957   4.033   7.441   6.037 -0.4237  2.4852 -2.0837
 5004TIP3    H214958   3.895   7.478   6.087 -0.4684  1.4980 -1.4294
 5005TIP3   OH214959   4.162   6.057   6.040 -0.1177 -0.5046 -0.2661
 5005TIP3    H114960   4.077   6.088   6.071 -0.5004 -0.7952 -0.9949
 5005TIP3    H214961   4.141   6.008   5.960  0.5960 -1.5920  0.1934
 5006TIP3   OH214962   4.680   2.755   0.935  0.2161  0.1571  0.2971
 5006TIP3    H114963   4.629   2.680   0.965  0.4832 -0.8802 -1.7094
 5006TIP3    H214964   4.763   2.717   0.905  0.2428  1.2038 -1.0338
 5007TIP3   OH214965   7.011   3.091   5.582 -0.5284 -0.3502  0.2096
 5007TIP3    H114966   7.047   3.114   5.668  0.5692 -0.3538 -0.2354
 5007TIP3    H214967   7.020   2.996   5.576 -0.4452 -0.3315  0.0258
 5008TIP3   OH214968   5.117   1.322   3.777 -0.3071  0.3386 -0.2129
 5008TIP3    H114969   5.149   1.238   3.810 -2.5159 -0.8781 -1.0071
 5008TIP3    H214970   5.028   1.305   3.748 -0.2965  2.5864 -1.8931
 5009TIP3   OH214971   7.681   7.221   0.912  0.6695  0.0041  0.1342
 5009TIP3    H114972   7.713   7.196   0.826  0.2401 -1.3064  0.3333
 5009TIP3    H214973   7.695   7.144   0.967 -0.4170  0.2884  0.8579
 5010TIP3   OH214974   4.467   7.614   0.936  0.0964 -0.5205 -0.6145
 5010TIP3    H114975   4.560   7.600   0.917  0.2541 -0.2765 -0.0401
 5010TIP3    H214976   4.430   7.526   0.942  0.1302 -0.6097 -1.5992
 5011TIP3   OH214977   1.393   4.737   5.475 -0.0385 -0.4146  0.0034
 5011TIP3    H114978   1.400   4.641   5.478  2.1654 -0.3218 -0.5765
 5011TIP3    H214979   1.449   4.768   5.546  1.3405  0.4601 -1.4067
 5012TIP3   OH214980   5.667   3.658   5.671  0.3258 -0.4403 -0.3076
 5012TIP3    H114981   5.631   3.619   5.591  1.4072  1.8174 -2.0182
 5012TIP3    H214982   5.594   3.656   5.733 -0.9195 -1.2467 -1.7189
 5013TIP3   OH214983   3.908   2.602   0.144 -0.5052 -0.3700  0.0178
 5013TIP3    H114984   3.950   2.623   0.227  0.9662  1.3328 -1.0745
 5013TIP3    H214985   3.828   2.655   0.144  0.7952  1.7306 -0.6781
 5014TIP3   OH214986   0.829   3.451   5.586  0.0447 -0.3206  0.0715
 5014TIP3    H114987   0.801   3.502   5.510 -1.3448 -0.8452  0.2123
 5014TIP3    H214988   0.914   3.489   5.610 -0.7223  1.5990 -0.1117
 5015TIP3   OH214989   3.150   6.490   1.386 -0.4753 -0.3856  0.0821
 5015TIP3    H114990   3.190   6.576   1.398  0.1523 -0.7272  0.5044
 5015TIP3    H214991   3.193   6.455   1.308 -0.6654 -0.3501 -0.0378
 5016TIP3   OH214992   4.752   1.866   0.659 -0.2357 -0.2009 -0.1472
 5016TIP3    H114993   4.764   1.942   0.715 -1.8639  0.0151 -0.0506
 5016TIP3    H214994   4.701   1.805   0.712  0.0218 -0.8638 -0.6487
 5017TIP3   OH214995   7.835   5.785   6.762 -0.2561  0.5543 -0.2331
 5017TIP3    H114996   7.846   5.728   6.686  0.3146  1.0032 -0.4921
 5017TIP3    H214997   7.822   5.873   6.725 -0.0812  0.7598  0.1823
 5018TIP3   OH214998   1.012   1.303   5.595 -0.0939 -0.2374 -0.1461
 5018TIP3    H114999   1.069   1.271   5.525 -0.5097 -0.6520 -0.3033
 5018TIP3    H215000   1.041   1.254   5.673  0.9349  0.8413  0.1745
 5019TIP3   OH215001   4.885   0.293   0.269 -1.0738  0.6176  0.3746
 5019TIP3    H115002   4.801   0.255   0.244 -0.7330  0.6337 -0.8132
 5019TIP3    H215003   4.880   0.384   0.239 -0.2715  0.3619 -0.5738
 5020TIP3   OH215004   7.782   6.103   1.666  0.1656 -0.1602  0.5253
 5020TIP3    H115005   7.875   6.102   1.689  0.0608  0.7547  1.0310
 5020TIP3    H215006   7.767   6.019   1.623  1.3849 -0.0300 -0.2011
 5021TIP3   OH215007   6.861   5.445   5.249 -0.0338 -0.1836 -0.2400
 5021TIP3    H115008   6.775   5.432   5.208 -0.4466 -2.5723  1.1690
 5021TIP3    H215009   6.908   5.503   5.189 -2.0472 -0.1460 -1.8859
 5022TIP3   OH215010   4.560   7.257   1.722  0.1273 -0.1953  0.5613
 5022TIP3    H115011   4.556   7.196   1.648 -0.4446  1.2345 -0.6347
 5022TIP3    H215012   4.531   7.206   1.798 -1.8530 -1.0144 -0.6791
 5023TIP3   OH215013   0.379   0.244   3.741  0.3128 -0.2542  0.0095
 5023TIP3    H115014   0.296   0.196   3.740 -0.2491  0.0493  5.0787
 5023TIP3    H215015   0.353   0.336   3.735  0.1615 -0.1511  1.7527
 5024TIP3   OH215016   6.154   2.763   6.106 -0.4336 -0.3473  0.4527
 5024TIP3    H115017   6.155   2.668   6.106 -1.2402 -0.4511 -2.6356
 5024TIP3    H215018   6.084   2.787   6.045  1.8049  2.1420 -1.3667
 5025TIP3   OH215019   7.016   2.423   6.189 -0.1420  0.3628 -0.4085
 5025TIP3    H115020   7.093   2.424   6.246  0.7498  1.3271 -1.5591
 5025TIP3    H215021   7.050   2.448   6.103 -1.5666 -0.3086 -1.2017
 5026TIP3   OH215022   6.177   2.048   2.412  0.0958  0.1834 -0.5679
 5026TIP3    H115023   6.101   2.056   2.469  0.1395  0.6627 -0.5739
 5026TIP3    H215024   6.251   2.042   2.472 -0.0055 -1.0378 -0.5473
 5027TIP3   OH215025   0.908   5.349   3.588 -0.2104  0.5134 -0.2599
 5027TIP3    H115026   0.879   5.414   3.652 -2.7429  1.3237 -2.0704
 5027TIP3    H215027   0.915   5.397   3.506 -0.9010 -1.2201 -1.3961
 5028TIP3   OH215028   3.508   5.951   4.847 -0.5688 -0.4275 -0.2737
 5028TIP3    H115029   3.425   5.967   4.801  0.8171  2.8368 -1.9843
 5028TIP3    H215030   3.572   5.938   4.776  0.8644  0.0615  0.8852
 5029TIP3   OH215031   6.461   5.227   5.895 -0.1262 -0.8719 -0.0719
 5029TIP3    H115032   6.366   5.237   5.898  0.0779  1.8792 -0.3347
 5029TIP3    H215033   6.476   5.164   5.825 -1.7522 -1.2585 -0.1028
 5030TIP3   OH215034   0.984   3.376   2.923  0.1503 -0.0571 -0.4515
 5030TIP3    H115035   0.926   3.420   2.860 -1.0681 -0.0168  0.6565
 5030TIP3    H215036   0.926   3.320   2.974  1.0894 -0.0050  0.7126
 5031TIP3   OH215037   1.795   3.452   4.349  0.0789  0.1287 -0.0543
 5031TIP3    H115038   1.728   3.481   4.287 -2.2529 -1.3612  1.6021
 5031TIP3    H215039   1.755   3.377   4.394  2.4556 -0.1385  1.7975
 5032TIP3   OH215040   7.908   6.702   4.047  0.3483 -0.1989  0.0299
 5032TIP3    H115041   7.925   6.680   4.139 -0.4048  1.1593  0.5252
 5032TIP3    H215042   7.903   6.798   4.046 -0.4326 -0.2343 -1.2945
 5033TIP3   OH215043   5.486   0.898   0.252 -0.0404  0.1341  0.4815
 5033TIP3    H115044   5.461   0.843   0.326 -1.0286 -0.6730 -0.4115
 5033TIP3    H215045   5.438   0.980   0.265  0.7769  0.4855  1.3743
 5034TIP3   OH215046   1.949   4.600   0.829  0.6815 -0.5387  0.0157
 5034TIP3    H115047   1.878   4.664   0.834  1.3201  0.2261 -0.5544
 5034TIP3    H215048   1.906   4.520   0.798  0.2537  0.2577 -1.5611
 5035TIP3   OH215049   7.915   2.279   3.943  0.5312  0.6979 -0.0604
 5035TIP3    H115050   7.998   2.303   3.903 -0.2155  1.5946 -1.1318
 5035TIP3    H215051   7.938   2.212   4.008  2.0022  0.5245 -0.7227
 5036TIP3   OH215052   3.375   0.634   0.342  0.6800 -0.2941  1.1112
 5036TIP3    H115053   3.401   0.546   0.369  2.3460 -0.0758  0.3307
 5036TIP3    H215054   3.383   0.687   0.422  0.5509 -0.6555  1.3690
 5037TIP3   OH215055   1.916   2.591   1.578  0.1630  0.1779 -0.0629
 5037TIP3    H115056   1.865   2.660   1.618  2.5440  1.9566  0.1145
 5037TIP3    H215057   1.958   2.633   1.502  1.7597 -1.0078  0.1113
 5038TIP3   OH215058   3.106   4.982   1.682  0.2128 -0.9052  0.1184
 5038TIP3    H115059   3.126   5.037   1.757  1.1373 -1.2518  0.1311
 5038TIP3    H215060   3.011   4.990   1.672  0.4355  1.7071 -0.6824
 5039TIP3   OH215061   0.698   0.257   5.394  0.5489  0.1799  0.2342
 5039TIP3    H115062   0.657   0.306   5.322  1.1027 -1.2879 -1.1423
 5039TIP3    H215063   0.645   0.278   5.471 -1.6339 -0.1426 -1.0864
 5040TIP3   OH215064   0.704   4.769   2.842  0.3672 -0.0241 -0.1313
 5040TIP3    H115065   0.795   4.797   2.852  0.3104 -0.1652  0.9546
 5040TIP3    H215066   0.690   4.706   2.913 -1.4293  2.2746  1.7688
 5041TIP3   OH215067   5.834   1.348   3.786  0.0248  0.1649  0.2873
 5041TIP3    H115068   5.800   1.378   3.870  2.5359  0.2223  1.3490
 5041TIP3    H215069   5.761   1.362   3.725 -1.3734  1.4880  2.1373
 5042TIP3   OH215070   0.833   0.250   1.399  0.2420  0.3450 -0.2047
 5042TIP3    H115071   0.883   0.236   1.318 -0.2044 -0.4956 -0.3394
 5042TIP3    H215072   0.745   0.272   1.369  0.2397  0.6998  0.0511
 5043TIP3   OH215073   3.058   1.959   5.295  0.4039 -0.3132 -0.8482
 5043TIP3    H115074   2.976   1.931   5.338  1.4638 -2.1879  0.0645
 5043TIP3    H215075   3.125   1.946   5.362  1.7896 -1.0480 -2.3255
 5044TIP3   OH215076   7.004   2.260   4.116  0.7203 -0.0276  0.3015
 5044TIP3    H115077   7.005   2.344   4.070 -1.6503  2.0543  3.6972
 5044TIP3    H215078   6.920   2.221   4.093  0.0262  0.4948  1.8436
 5045TIP3   OH215079   8.288   6.392   3.049 -0.2800 -0.5299 -0.4204
 5045TIP3    H115080   8.318   6.339   2.975  0.8952  2.5039 -2.3006
 5045TIP3    H215081   8.308   6.482   3.024 -1.2527  0.7949  2.9888
 5046TIP3   OH215082   4.260   7.457   1.305  0.0417  0.2594 -0.0977
 5046TIP3    H115083   4.304   7.531   1.261 -1.2774  0.9303 -0.3414
 5046TIP3    H215084   4.203   7.498   1.370 -2.4190 -0.3303 -1.7285
 5047TIP3   OH215085   1.969   0.878   0.834 -0.1139 -0.0157  0.2993
 5047TIP3    H115086   1.923   0.961   0.824 -1.5982 -0.9580 -1.0670
 5047TIP3    H215087   1.922   0.816   0.777  1.8401 -1.4442  0.1126
 5048TIP3   OH215088   7.224   2.653   3.388  0.1356  0.2555  0.0123
 5048TIP3    H115089   7.315   2.650   3.419  0.3893  0.2143 -0.7278
 5048TIP3    H215090   7.218   2.734   3.339 -0.6829  1.0741  1.4012
 5049TIP3   OH215091   2.100   5.776   2.740  0.1503 -0.5238  0.3774
 5049TIP3    H115092   2.127   5.710   2.677 -2.1584 -2.7274  1.4986
 5049TIP3    H215093   2.171   5.780   2.804  2.3027  1.4033 -1.9594
 5050TIP3   OH215094   6.753   7.611   6.800  0.2463  0.8032  0.1295
 5050TIP3    H115095   6.781   7.552   6.730 -1.2208 -0.4402  0.5241
 5050TIP3    H215096   6.671   7.649   6.768 -0.3031  0.4224  1.0356
 5051TIP3   OH215097   3.371   4.412   1.590  0.1115  0.4597  0.2395
 5051TIP3    H115098   3.350   4.408   1.497 -1.4786  0.2275  0.5751
 5051TIP3    H215099   3.294   4.374   1.633  0.3386  1.5823  1.7037
 5052TIP3   OH215100   3.629   4.878   6.517 -0.2981  0.4681  0.4273
 5052TIP3    H115101   3.674   4.806   6.560 -2.5390 -0.9010  0.6620
 5052TIP3    H215102   3.645   4.954   6.573  1.5955  0.0545  0.5054
 5053TIP3   OH215103   7.720   1.222   0.802  0.1029  0.4188  0.1336
 5053TIP3    H115104   7.757   1.151   0.750 -0.3055  1.6930 -1.9941
 5053TIP3    H215105   7.791   1.285   0.811 -0.4413  1.1831 -0.7725
 5054TIP3   OH215106   7.357   4.192   6.343  0.2742 -0.5247  0.2034
 5054TIP3    H115107   7.384   4.113   6.296  2.0348 -0.9879  1.8810
 5054TIP3    H215108   7.298   4.160   6.411 -2.1855  0.1317 -1.4981
 5055TIP3   OH215109   0.103   1.743   4.317 -0.6533  0.1875  0.1900
 5055TIP3    H115110   0.038   1.713   4.254 -0.4604 -0.4695  0.2935
 5055TIP3    H215111   0.084   1.693   4.396  0.3669 -0.4880  0.0302
 5056TIP3   OH215112   8.025   4.123   0.474  0.5385 -0.3659 -0.1719
 5056TIP3    H115113   8.102   4.180   0.468  0.0944  0.2333 -0.2998
 5056TIP3    H215114   7.954   4.176   0.439 -0.1705 -0.4812  1.0400
 5057TIP3   OH215115   0.945   0.547   0.545  0.5103  1.3073  0.6904
 5057TIP3    H115116   1.004   0.601   0.598 -0.4519  2.3647  0.7118
 5057TIP3    H215117   0.859   0.587   0.555 -0.0716  0.3045 -0.0399
 5058TIP3   OH215118   4.350   2.603   5.962  0.0564 -0.1574 -0.0062
 5058TIP3    H115119   4.310   2.621   5.877 -1.5505 -0.3084  0.6778
 5058TIP3    H215120   4.358   2.689   6.003 -1.6992 -0.2893  0.7245
 5059TIP3   OH215121   6.957   1.467   1.826  0.2358 -0.0337 -0.2135
 5059TIP3    H115122   6.911   1.385   1.811  0.8163 -0.0874 -1.9299
 5059TIP3    H215123   6.909   1.509   1.897 -0.1979 -1.7446  0.5512
 5060TIP3   OH215124   4.183   4.252   1.608  0.4072 -0.0033 -0.2885
 5060TIP3    H115125   4.159   4.271   1.698  0.1298 -1.0907 -0.1185
 5060TIP3    H215126   4.100   4.253   1.560  0.7859  3.0357 -1.0510
 5061TIP3   OH215127   4.287   4.657   0.141  0.6659 -0.2193 -0.1465
 5061TIP3    H115128   4.367   4.639   0.191  0.2230 -2.3536 -0.1039
 5061TIP3    H215129   4.317   4.668   0.051  0.8684 -3.7956 -0.6473
 5062TIP3   OH215130   0.856   4.592   2.239  0.1769 -0.2353  0.4568
 5062TIP3    H115131   0.792   4.630   2.300  1.2097  0.2946  1.2437
 5062TIP3    H215132   0.810   4.518   2.200 -2.4977  2.4921 -2.1900
 5063TIP3   OH215133   0.606   3.494   3.319  0.6214  0.9551  0.2365
 5063TIP3    H115134   0.594   3.534   3.405 -0.5931 -0.9900  1.0456
 5063TIP3    H215135   0.683   3.439   3.329  1.0003  1.3977 -0.2046
 5064TIP3   OH215136   7.973   4.065   3.338 -0.0368  0.2983 -0.3622
 5064TIP3    H115137   7.950   4.134   3.276  1.9518 -0.2884 -1.8853
 5064TIP3    H215138   8.031   4.108   3.400 -2.5309  1.0401  1.5965
 5065TIP3   OH215139   2.572   0.637   3.235 -0.0710  0.3630  0.1936
 5065TIP3    H115140   2.519   0.558   3.224  0.4985 -0.0339  0.2409
 5065TIP3    H215141   2.659   0.612   3.204  0.1332  0.9499  0.2849
 5066TIP3   OH215142   5.138   5.045   6.705 -0.2525 -0.1598 -0.3141
 5066TIP3    H115143   5.126   5.066   6.797 -2.7928 -0.5290 -0.4969
 5066TIP3    H215144   5.147   4.950   6.703 -0.0956 -0.1432 -0.4486
 5067TIP3   OH215145   0.489   0.942   3.342  0.1355 -0.4175  0.7150
 5067TIP3    H115146   0.541   0.912   3.268 -1.5196  0.4742 -0.8960
 5067TIP3    H215147   0.527   1.026   3.367  0.5299 -0.5909  0.7013
 5068TIP3   OH215148   0.295   4.821   3.975 -0.0071  0.1496 -0.2267
 5068TIP3    H115149   0.299   4.808   4.070 -0.1015  0.1199 -0.2258
 5068TIP3    H215150   0.202   4.806   3.954 -0.1779  1.1000 -0.1919
 5069TIP3   OH215151   5.354   6.373   3.534  0.1835 -0.0091 -0.1049
 5069TIP3    H115152   5.276   6.425   3.550 -0.8347 -0.9473 -1.7658
 5069TIP3    H215153   5.342   6.338   3.445  2.3562 -0.4066 -0.3032
 5070TIP3   OH215154   6.359   0.317   5.277  0.1247 -0.4135 -0.2868
 5070TIP3    H115155   6.345   0.239   5.224 -0.2821  0.5711 -1.6694
 5070TIP3    H215156   6.271   0.353   5.292  0.1327 -1.1271  1.8185
 5071TIP3   OH215157   7.059   3.090   4.460  0.5387 -0.0292 -0.1558
 5071TIP3    H115158   6.992   3.038   4.415 -1.5684  1.5364  0.9418
 5071TIP3    H215159   7.106   3.134   4.390  0.3083 -1.0359 -0.9704
 5072TIP3   OH215160   1.907   6.188   5.909 -0.2403 -0.1391 -0.1037
 5072TIP3    H115161   1.938   6.268   5.867  2.6388 -0.9244  0.3219
 5072TIP3    H215162   1.899   6.210   6.001 -0.5537 -0.0496 -0.1513
 5073TIP3   OH215163   7.225   5.811   2.464  0.0223  0.1821 -0.6717
 5073TIP3    H115164   7.239   5.739   2.402  0.8789 -0.2240 -0.0349
 5073TIP3    H215165   7.310   5.823   2.505 -0.2468  1.2287 -0.4046
 5074TIP3   OH215166   2.854   1.056   2.928 -0.5545 -0.2708 -0.0591
 5074TIP3    H115167   2.837   1.142   2.890 -1.3896 -0.9309 -1.2410
 5074TIP3    H215168   2.939   1.030   2.894 -0.8011 -0.3796 -0.5993
 5075TIP3   OH215169   5.636   1.891   2.770  0.0154 -1.0650 -0.4882
 5075TIP3    H115170   5.624   1.800   2.798 -1.4026 -1.2829 -1.6928
 5075TIP3    H215171   5.650   1.885   2.676  1.5222 -0.1256 -0.3530
 5076TIP3   OH215172   7.726   5.815   5.485  0.1608  0.1437 -0.2096
 5076TIP3    H115173   7.682   5.857   5.559  2.3872  0.5174  0.9997
 5076TIP3    H215174   7.659   5.761   5.445 -1.2717  0.3319  1.7731
 5077TIP3   OH215175   0.646   2.786   2.365 -0.0483 -0.4510  0.2528
 5077TIP3    H115176   0.611   2.729   2.296 -1.0437  0.1566  0.2420
 5077TIP3    H215177   0.579   2.853   2.377  0.1300 -0.5152  1.7718
 5078TIP3   OH215178   5.219   2.601   5.142  0.1292  0.3490  0.3891
 5078TIP3    H115179   5.133   2.617   5.181 -0.6703  0.9192 -1.4750
 5078TIP3    H215180   5.264   2.685   5.149 -1.1394  1.3828 -2.4321
 5079TIP3   OH215181   0.960   4.691   1.085  0.1774  0.0070  0.3616
 5079TIP3    H115182   0.898   4.730   1.023  1.2604  0.8936 -0.1851
 5079TIP3    H215183   0.962   4.598   1.061  1.4079  0.5108 -1.7149
 5080TIP3   OH215184   3.517   5.432   3.338  0.4191 -0.0887  0.4450
 5080TIP3    H115185   3.465   5.493   3.286  0.5976  1.2201  1.7372
 5080TIP3    H215186   3.583   5.399   3.277 -0.2540  0.2824 -0.5203
 5081TIP3   OH215187   4.659   1.974   3.383 -0.2525  0.3075  0.0852
 5081TIP3    H115188   4.703   2.058   3.396 -0.0062  0.4852 -1.6081
 5081TIP3    H215189   4.570   1.988   3.417  0.5664  0.3386  2.3624
 5082TIP3   OH215190   7.507   0.994   2.527 -0.0362 -0.3887 -0.5026
 5082TIP3    H115191   7.559   0.966   2.603  1.1525 -0.4406 -1.2995
 5082TIP3    H215192   7.517   0.922   2.464  0.5014  0.4370 -1.3926
 5083TIP3   OH215193   7.841   3.871   6.173  0.0666  0.8058 -0.0636
 5083TIP3    H115194   7.808   3.783   6.192 -0.6422  1.0495 -0.1433
 5083TIP3    H215195   7.933   3.858   6.150 -0.3101 -0.0334 -1.1460
 5084TIP3   OH215196   4.726   3.807   4.174  0.0562 -0.0452 -0.1836
 5084TIP3    H115197   4.786   3.773   4.240  1.2969  1.4561 -0.4615
 5084TIP3    H215198   4.771   3.792   4.090  0.4730  1.8016 -0.3387
 5085TIP3   OH215199   5.700   6.443   6.054 -0.2088 -0.1911  0.0205
 5085TIP3    H115200   5.713   6.488   6.138 -0.2843  0.3763 -0.2625
 5085TIP3    H215201   5.774   6.383   6.046 -0.5538 -0.7286  0.7962
 5086TIP3   OH215202   0.274   2.526   4.380 -0.0078 -0.0114  0.8911
 5086TIP3    H115203   0.246   2.570   4.300  1.4649  0.0486  0.3734
 5086TIP3    H215204   0.228   2.573   4.450 -1.5438 -0.2599  0.0871
 5087TIP3   OH215205   1.564   7.758   1.370  0.4340 -0.1023  0.6524
 5087TIP3    H115206   1.529   7.682   1.324 -0.3733  1.1460 -0.9028
 5087TIP3    H215207   1.508   7.830   1.342  0.9608  1.0099  2.3541
 5088TIP3   OH215208   1.597   6.210   1.022  0.0531  0.2579 -0.1169
 5088TIP3    H115209   1.671   6.259   1.058  0.9778 -0.6131 -0.7630
 5088TIP3    H215210   1.637   6.133   0.981 -1.2543 -0.4585 -0.1127
 5089TIP3   OH215211   4.719   0.628   4.282  0.0087  0.0265 -0.3349
 5089TIP3    H115212   4.811   0.648   4.267  0.1347  0.0148  0.4013
 5089TIP3    H215213   4.681   0.711   4.309  0.5410 -0.6345  2.7781
 5090TIP3   OH215214   6.865   1.562   3.956  0.9817 -0.1956  0.3564
 5090TIP3    H115215   6.788   1.582   4.011  0.5524 -1.7700  0.3844
 5090TIP3    H215216   6.927   1.632   3.977  0.1993  0.1805  1.6078
 5091TIP3   OH215217   7.501   2.868   3.209  0.2211  0.1487  0.4121
 5091TIP3    H115218   7.559   2.793   3.226 -0.6779 -1.0826 -1.6112
 5091TIP3    H215219   7.553   2.926   3.153 -0.3197 -0.8003 -1.1312
 5092TIP3   OH215220   1.385   0.139   1.895 -0.1054  0.4777  0.1673
 5092TIP3    H115221   1.432   0.198   1.837  1.2623 -1.5078 -0.8244
 5092TIP3    H215222   1.403   0.173   1.983 -0.0789  2.0104 -0.3989
 5093TIP3   OH215223   1.436   2.702   3.035 -0.9101 -0.3425  0.4919
 5093TIP3    H115224   1.368   2.684   3.100  0.2117  0.2889  1.8931
 5093TIP3    H215225   1.518   2.697   3.084 -0.1241  1.9872 -0.4618
 5094TIP3   OH215226   5.049   4.588   3.011  0.2390  0.1297  0.1750
 5094TIP3    H115227   5.061   4.681   2.994  1.6277  0.0285  0.4990
 5094TIP3    H215228   5.094   4.544   2.939 -0.9154 -0.3036 -0.3028
 5095TIP3   OH215229   3.678   1.644   0.981  0.7262  0.9952 -0.1775
 5095TIP3    H115230   3.653   1.552   0.982 -0.4058  1.2953  0.0933
 5095TIP3    H215231   3.677   1.669   0.889  1.1796  0.6997 -0.2618
 5096TIP3   OH215232   4.072   0.583   1.164  0.0623  1.1501 -0.1337
 5096TIP3    H115233   4.093   0.661   1.114 -1.7625  1.6904 -0.1407
 5096TIP3    H215234   4.052   0.616   1.252  0.4777  0.5389  0.1959
 5097TIP3   OH215235   7.091   5.994   4.442  0.6169 -0.2570 -0.7749
 5097TIP3    H115236   7.130   5.998   4.355 -0.9079 -1.4211 -1.5425
 5097TIP3    H215237   7.002   5.964   4.428  0.5956 -1.3464  1.2741
 5098TIP3   OH215238   0.179   1.487   3.327 -0.0068  0.4536  0.0425
 5098TIP3    H115239   0.172   1.411   3.384 -0.0762  1.2959  1.1821
 5098TIP3    H215240   0.089   1.515   3.313 -0.0672 -0.3380 -1.3297
 5099TIP3   OH215241   3.220   6.509   5.951  0.5872  0.0088 -0.0596
 5099TIP3    H115242   3.283   6.580   5.937 -1.3073  1.4326 -1.9311
 5099TIP3    H215243   3.225   6.457   5.870  0.0094 -0.4165  0.1709
 5100TIP3   OH215244   2.179   1.846   6.173  0.5149 -0.8252 -0.5011
 5100TIP3    H115245   2.091   1.853   6.136  0.7415  0.6629 -0.8330
 5100TIP3    H215246   2.167   1.858   6.267  0.6134  3.0338 -0.8025
 5101TIP3   OH215247   4.304   2.521   3.114  0.3530 -0.4681 -0.4176
 5101TIP3    H115248   4.371   2.533   3.181  0.0313  1.6418 -0.3968
 5101TIP3    H215249   4.350   2.481   3.040  1.8818  1.6030 -0.6778
 5102TIP3   OH215250   5.306   4.414   3.695  0.4940  0.0904  0.1502
 5102TIP3    H115251   5.243   4.380   3.758  1.2697  0.3453  1.0910
 5102TIP3    H215252   5.290   4.508   3.694 -1.0453 -0.1272 -1.7759
 5103TIP3   OH215253   6.947   2.182   6.775  0.0807 -0.0848  0.4106
 5103TIP3    H115254   6.883   2.113   6.794  1.0868 -1.6866 -1.6108
 5103TIP3    H215255   6.898   2.245   6.723 -0.0494 -1.0154 -0.6388
 5104TIP3   OH215256   4.936   6.065   5.276  0.0838 -0.2905 -0.3492
 5104TIP3    H115257   4.958   6.074   5.183  1.3897  0.4361  0.0072
 5104TIP3    H215258   4.851   6.021   5.276 -1.5102  2.4913 -1.9868
 5105TIP3   OH215259   4.581   1.833   3.901  0.2143 -0.1928 -0.1094
 5105TIP3    H115260   4.541   1.852   3.986  0.9869  1.5063 -0.0672
 5105TIP3    H215261   4.675   1.846   3.916  0.2759  1.0848 -1.4203
 5106TIP3   OH215262   2.337   2.873   4.122 -0.2448  0.2700 -0.0446
 5106TIP3    H115263   2.297   2.794   4.156 -0.8409 -0.0069 -1.3222
 5106TIP3    H215264   2.312   2.942   4.183  0.2558 -0.5111  1.0599
 5107TIP3   OH215265   3.603   1.512   1.538 -0.3215 -0.1000 -0.1955
 5107TIP3    H115266   3.652   1.587   1.572 -1.3681  0.4249  0.2046
 5107TIP3    H215267   3.555   1.548   1.463  0.7124 -0.8639 -1.2605
 5108TIP3   OH215268   3.940   6.506   5.667  0.5345 -0.0275  0.5823
 5108TIP3    H115269   4.004   6.472   5.729 -0.1065 -0.8897  0.7898
 5108TIP3    H215270   3.964   6.466   5.583  0.0999 -0.5758  0.7180
 5109TIP3   OH215271   7.125   5.193   4.112  0.6363  0.2109 -0.2767
 5109TIP3    H115272   7.092   5.235   4.191 -0.7832 -2.1863  0.5048
 5109TIP3    H215273   7.114   5.258   4.043 -2.6513  0.7449  0.6103
 5110TIP3   OH215274   7.178   6.495   1.928 -0.0500  0.5682  0.6684
 5110TIP3    H115275   7.181   6.509   1.833  1.9903  3.4875  1.0040
 5110TIP3    H215276   7.086   6.482   1.948 -0.7723  1.7789 -1.5294
 5111TIP3   OH215277   5.286   7.337   4.439 -0.1280 -0.1642  0.3763
 5111TIP3    H115278   5.274   7.334   4.345 -0.2331  1.0282  0.3431
 5111TIP3    H215279   5.208   7.294   4.475  1.1117 -3.0528 -0.0969
 5112TIP3   OH215280   5.850   0.708   2.714  0.3014 -0.2076  0.5617
 5112TIP3    H115281   5.858   0.711   2.809  1.4919 -0.7567  0.5009
 5112TIP3    H215282   5.868   0.797   2.685 -2.0568  0.4752  0.9292
 5113TIP3   OH215283   4.756   7.393   3.806 -0.4512  0.0744 -0.1482
 5113TIP3    H115284   4.771   7.459   3.873 -0.3765  0.5647 -0.6356
 5113TIP3    H215285   4.770   7.309   3.850 -1.7142  0.3257  0.7989
 5114TIP3   OH215286   5.288   4.360   2.106 -0.0176  0.0740  0.1107
 5114TIP3    H115287   5.212   4.413   2.131 -0.2157 -0.4103  0.5317
 5114TIP3    H215288   5.346   4.422   2.062 -1.0725  0.2549 -1.0735
 5115TIP3   OH215289   0.200   0.156   2.390 -0.5262 -0.0755 -0.0219
 5115TIP3    H115290   0.118   0.204   2.397  0.0484  1.2902 -1.8355
 5115TIP3    H215291   0.176   0.072   2.350 -1.0157  0.5230 -1.0359
 5116TIP3   OH215292   5.288   7.137   6.174  0.3196 -0.0167 -0.7120
 5116TIP3    H115293   5.303   7.230   6.192  0.2747  0.1667 -1.5641
 5116TIP3    H215294   5.368   7.108   6.130  1.2729 -0.9589  1.4801
 5117TIP3   OH215295   7.456   1.431   3.879 -0.2933  0.2805 -0.1058
 5117TIP3    H115296   7.391   1.498   3.854 -0.5097  1.2054  2.5782
 5117TIP3    H215297   7.404   1.365   3.926  0.4194  0.1180  0.4685
 5118TIP3   OH215298   2.657   6.897   1.304 -0.3127 -0.3909 -0.1095
 5118TIP3    H115299   2.730   6.844   1.271 -0.7189 -2.3640  1.9028
 5118TIP3    H215300   2.677   6.986   1.275  2.1256 -1.1031 -0.8859
 5119TIP3   OH215301   3.286   6.826   4.130  0.1745 -0.4140 -0.5206
 5119TIP3    H115302   3.234   6.790   4.201  0.4804 -1.5414 -0.8375
 5119TIP3    H215303   3.355   6.760   4.115  1.1064  0.5807 -0.7447
 5120TIP3   OH215304   6.768   4.902   1.267  0.0701  0.0655  0.1400
 5120TIP3    H115305   6.674   4.882   1.266  0.2107 -0.6641  0.3860
 5120TIP3    H215306   6.810   4.816   1.258  0.7183  0.5478 -1.9164
 5121TIP3   OH215307   5.732   5.776   2.701 -0.3509  0.1393  0.6487
 5121TIP3    H115308   5.711   5.869   2.712 -1.0388  0.0006  0.5287
 5121TIP3    H215309   5.648   5.734   2.682  0.0500 -0.4044  0.0010
 5122TIP3   OH215310   3.468   1.595   3.978 -0.7551 -0.0426 -0.7427
 5122TIP3    H115311   3.519   1.665   4.019  0.2770 -1.5488  0.7085
 5122TIP3    H215312   3.407   1.640   3.920  2.9469  1.9213 -3.5611
 5123TIP3   OH215313   6.193   4.976   6.338  0.4134 -0.0508  0.3176
 5123TIP3    H115314   6.238   4.898   6.305 -0.5291 -1.0049  1.2130
 5123TIP3    H215315   6.236   4.995   6.422  1.0402  0.7769 -0.1727
 5124TIP3   OH215316   4.920   0.574   4.529 -0.0673  0.0023  0.0498
 5124TIP3    H115317   4.930   0.532   4.444 -0.7054 -0.2036  0.0730
 5124TIP3    H215318   4.981   0.648   4.527  1.4374 -1.2009  0.1864
 5125TIP3   OH215319   3.829   1.021   1.877  0.0843  0.1031  0.1562
 5125TIP3    H115320   3.760   1.073   1.919 -2.9020 -2.2203 -1.4377
 5125TIP3    H215321   3.851   1.070   1.797 -1.5876 -0.2286 -0.5601
 5126TIP3   OH215322   4.604   7.235   5.957  0.2808  0.0768 -0.0480
 5126TIP3    H115323   4.635   7.306   6.013  0.3007  0.4242 -0.4889
 5126TIP3    H215324   4.681   7.183   5.938  0.6317  0.9450 -1.1518
 5127TIP3   OH215325   3.328   0.461   3.134 -0.7627  0.3156  0.3415
 5127TIP3    H115326   3.379   0.496   3.207 -3.0149 -0.5484  2.4835
 5127TIP3    H215327   3.269   0.533   3.110 -0.0419  0.5910 -0.6805
 5128TIP3   OH215328   3.009   0.402   0.978  0.3963 -0.2627  0.0640
 5128TIP3    H115329   2.987   0.438   0.892  1.9448  0.6246  0.0066
 5128TIP3    H215330   3.000   0.307   0.968 -0.0763 -0.1254 -0.8749
 5129TIP3   OH215331   1.177   5.581   4.014 -0.3332  0.4868  0.2398
 5129TIP3    H115332   1.177   5.523   4.090 -0.8620  1.4116  0.9709
 5129TIP3    H215333   1.246   5.644   4.033 -0.3568  0.6223 -0.1276
 5130TIP3   OH215334   6.342   3.214   0.606  0.2907 -0.0164  0.4706
 5130TIP3    H115335   6.384   3.209   0.520 -0.8849  0.9708 -0.2077
 5130TIP3    H215336   6.414   3.220   0.668  1.1592 -0.1642 -0.4931
 5131TIP3   OH215337   3.551   1.217   4.610 -0.0776  0.5492  0.3451
 5131TIP3    H115338   3.505   1.168   4.678 -0.4118  0.5635  0.1298
 5131TIP3    H215339   3.603   1.282   4.658 -1.3563  1.4669  0.5372
 5132TIP3   OH215340   0.064   1.323   2.713 -0.6048  0.0269  0.3743
 5132TIP3    H115341  -0.017   1.372   2.725  0.5856  1.5951  3.0799
 5132TIP3    H215342   0.123   1.383   2.668 -0.1258 -0.0662  0.8552
 5133TIP3   OH215343   1.211   2.856   0.818  0.7937 -0.0248  0.0711
 5133TIP3    H115344   1.160   2.779   0.790  1.4066  0.6947 -3.5648
 5133TIP3    H215345   1.153   2.901   0.879  0.8139 -3.7398  3.2555
 5134TIP3   OH215346   2.748   5.972   2.660 -0.2151 -0.0084  0.2794
 5134TIP3    H115347   2.717   5.921   2.585 -0.0150  0.6117 -0.2429
 5134TIP3    H215348   2.679   6.036   2.676  0.1477  0.4645  0.0135
 5135TIP3   OH215349   3.621   3.983   6.101 -0.3539 -0.5252 -0.6101
 5135TIP3    H115350   3.526   3.992   6.093 -0.7098 -1.6154  1.6475
 5135TIP3    H215351   3.655   4.021   6.020 -2.6107  1.5104 -0.7447
 5136TIP3   OH215352   2.053   0.856   1.108  0.1432 -0.3773  0.2328
 5136TIP3    H115353   2.145   0.880   1.092 -0.2572  0.9326 -0.2200
 5136TIP3    H215354   2.015   0.848   1.021 -0.4300  0.1343  0.4321
 5137TIP3   OH215355   5.572   4.699   2.393 -0.6082  0.1831  0.3400
 5137TIP3    H115356   5.551   4.610   2.364 -2.0983 -0.0834  2.0421
 5137TIP3    H215357   5.663   4.694   2.421 -1.0805 -1.2420  1.8000
 5138TIP3   OH215358   4.727   2.443   3.960 -0.1264 -0.1197  0.1757
 5138TIP3    H115359   4.675   2.523   3.956  1.7222  1.0977 -1.2100
 5138TIP3    H215360   4.791   2.460   4.029 -0.1326 -0.6785  0.3200
 5139TIP3   OH215361   7.135   0.036   6.077  0.2599  0.5918  0.4633
 5139TIP3    H115362   7.191   0.087   6.019 -0.6001  0.9654 -0.0533
 5139TIP3    H215363   7.087  -0.023   6.018 -0.8598  1.2011  0.7355
 5140TIP3   OH215364   6.071   7.814   6.542 -0.1567  0.2559  0.1130
 5140TIP3    H115365   6.114   7.828   6.626  0.3412  1.1814 -0.2868
 5140TIP3    H215366   6.134   7.763   6.490  0.7137  2.0290 -0.6449
 5141TIP3   OH215367   3.405   6.731   5.921 -0.5301  0.0487 -0.3309
 5141TIP3    H115368   3.381   6.775   6.003  1.4127  0.8179 -0.1132
 5141TIP3    H215369   3.403   6.800   5.855 -0.2340 -0.1490 -0.5506
 5142TIP3   OH215370   1.747   1.800   1.173  0.2329 -0.1860  0.6443
 5142TIP3    H115371   1.679   1.829   1.233 -0.1390 -1.2967  0.7731
 5142TIP3    H215372   1.728   1.847   1.091  1.7921  2.7586  1.7999
 5143TIP3   OH215373   1.664   2.410   5.667  0.4511  0.9184  0.1771
 5143TIP3    H115374   1.716   2.483   5.634  1.5700 -0.4477 -1.2919
 5143TIP3    H215375   1.600   2.393   5.598 -0.0756  0.7914  0.6962
 5144TIP3   OH215376   1.015   3.771   1.146 -0.5930 -0.0590 -0.4375
 5144TIP3    H115377   1.066   3.851   1.158 -1.3929  0.1970  1.6350
 5144TIP3    H215378   1.069   3.717   1.088  1.4006  0.7591  0.5361
 5145TIP3   OH215379   4.141   1.122   5.993 -0.3980  0.6051  0.2660
 5145TIP3    H115380   4.233   1.097   6.002 -0.4132  0.7668  0.9699
 5145TIP3    H215381   4.128   1.189   6.061 -0.6637  1.6603 -0.7966
 5146TIP3   OH215382   5.441   5.435   3.080  0.1083 -0.5663 -0.4952
 5146TIP3    H115383   5.463   5.462   2.991 -0.0201  1.9790  0.1731
 5146TIP3    H215384   5.497   5.487   3.136 -1.8038  0.0216  0.9880
 5147TIP3   OH215385   6.135   3.094   4.727  0.0223 -0.0619 -0.3124
 5147TIP3    H115386   6.122   3.008   4.688  0.1991 -0.4660  0.4960
 5147TIP3    H215387   6.136   3.078   4.822 -4.7731  1.3527  0.2678
 5148TIP3   OH215388   0.966   7.208   3.723  0.2580  0.3263 -0.6026
 5148TIP3    H115389   0.961   7.303   3.709 -0.7342  0.3779  0.0122
 5148TIP3    H215390   0.940   7.169   3.640  1.9599  0.5613 -1.2924
 5149TIP3   OH215391   0.858   7.436   3.378 -0.1167  0.5666 -0.8845
 5149TIP3    H115392   0.909   7.423   3.297 -0.0888  0.3461 -0.8313
 5149TIP3    H215393   0.814   7.352   3.392 -0.4063  0.7218 -0.8682
 5150TIP3   OH215394   4.050   4.082   4.586  0.2784 -0.0399  0.8557
 5150TIP3    H115395   3.955   4.070   4.576  0.3647 -0.7899  0.9177
 5150TIP3    H215396   4.074   4.144   4.517 -0.4465  1.0776  1.5751
 5151TIP3   OH215397   7.026   5.830   5.524 -0.3162 -0.3458 -0.0387
 5151TIP3    H115398   7.007   5.914   5.483 -0.9239  0.4610  1.7756
 5151TIP3    H215399   7.011   5.765   5.455 -2.9512  0.7966 -0.6606
 5152TIP3   OH215400   1.022   5.972   1.618  0.2063  0.0474  0.3874
 5152TIP3    H115401   0.939   5.957   1.663 -0.2258  0.1879 -0.3540
 5152TIP3    H215402   1.042   6.064   1.634 -0.2350  0.2426 -0.1843
 5153TIP3   OH215403   3.237   1.300   6.175  0.0594  0.6341 -0.2528
 5153TIP3    H115404   3.193   1.246   6.109  0.8361 -0.8327  0.3988
 5153TIP3    H215405   3.183   1.379   6.180 -0.3169  0.5542 -2.2406
 5154TIP3   OH215406   1.297   1.336   0.733 -0.0216 -0.2473 -0.4626
 5154TIP3    H115407   1.317   1.415   0.783  0.9763 -1.6301  1.4395
 5154TIP3    H215408   1.309   1.264   0.795 -2.7804 -1.8209 -1.5635
 5155TIP3   OH215409   4.612   3.405   0.738  0.1215  0.1704 -0.5449
 5155TIP3    H115410   4.536   3.366   0.781  0.0395 -0.4409 -1.2281
 5155TIP3    H215411   4.653   3.459   0.806 -0.6895  0.1912 -0.0546
 5156TIP3   OH215412   2.104   6.939   4.579 -0.4238  0.1004  0.4068
 5156TIP3    H115413   2.182   6.986   4.547 -0.3389 -0.7142 -0.6305
 5156TIP3    H215414   2.082   6.983   4.661  0.8306  0.6694  0.4632
 5157TIP3   OH215415   7.573   5.637   0.936  0.0363 -0.0745  0.4384
 5157TIP3    H115416   7.482   5.638   0.968  0.0673  0.0428  0.5226
 5157TIP3    H215417   7.591   5.545   0.920 -1.2650  0.0943 -2.9353
 5158TIP3   OH215418   6.154   5.250   5.296  0.3007 -0.0320 -0.1478
 5158TIP3    H115419   6.080   5.298   5.260 -1.5239 -2.4312  0.1837
 5158TIP3    H215420   6.191   5.309   5.362 -2.0643  0.7811  0.5332
 5159TIP3   OH215421   0.620   1.426   5.547 -0.0642 -0.5589 -0.5227
 5159TIP3    H115422   0.601   1.475   5.467  0.3897 -0.6991 -0.7193
 5159TIP3    H215423   0.712   1.445   5.565 -0.2507 -0.2757  0.1455
 5160TIP3   OH215424   7.800   2.706   0.398  0.8236  0.0210  0.5560
 5160TIP3    H115425   7.736   2.756   0.449  1.9591  1.9755  0.1771
 5160TIP3    H215426   7.881   2.756   0.407  1.9539 -1.6363 -0.1113
 5161TIP3   OH215427   3.694   7.282   0.825  0.0465 -0.3195  0.2298
 5161TIP3    H115428   3.686   7.285   0.729  1.2335 -2.4433  0.0049
 5161TIP3    H215429   3.738   7.199   0.843  0.5260  0.3734  2.5999
 5162TIP3   OH215430   5.941   0.268   3.998 -0.1343 -0.2897  0.0707
 5162TIP3    H115431   5.879   0.323   3.949 -0.1884 -0.8576 -0.5141
 5162TIP3    H215432   5.888   0.199   4.037  0.2989 -1.8134 -1.8823
 5163TIP3   OH215433   4.753   5.867   6.082 -0.7453  0.3360 -0.2607
 5163TIP3    H115434   4.836   5.820   6.085  0.1115  1.8585  1.2785
 5163TIP3    H215435   4.771   5.945   6.029 -0.3161  2.1070  2.2901
 5164TIP3   OH215436   4.583   3.462   4.378  0.5500  0.2644  0.1030
 5164TIP3    H115437   4.533   3.514   4.315 -0.5199  0.6909  1.2720
 5164TIP3    H215438   4.673   3.467   4.346  0.4638  2.6325  0.0210
 5165TIP3   OH215439   0.201   5.689   2.067  0.0457 -0.0773 -0.1388
 5165TIP3    H115440   0.215   5.634   2.145 -0.9079  0.1802  0.2305
 5165TIP3    H215441   0.215   5.629   1.993  1.2159 -0.2609  0.2092
 5166TIP3   OH215442   5.215   7.749   1.076  0.3697  0.0705 -0.4402
 5166TIP3    H115443   5.291   7.716   1.124 -0.9512  0.4174  2.1053
 5166TIP3    H215444   5.245   7.830   1.036  1.6881 -0.4921 -0.6451
 5167TIP3   OH215445   6.545   7.310   5.912 -0.0232  0.0344  0.1613
 5167TIP3    H115446   6.582   7.396   5.931 -1.0873  0.2132  1.5761
 5167TIP3    H215447   6.506   7.282   5.994 -1.6493 -0.8215 -0.8471
 5168TIP3   OH215448   5.814   3.846   1.265 -0.0476  0.4841  0.1571
 5168TIP3    H115449   5.845   3.788   1.334 -1.0523 -0.4003 -0.1043
 5168TIP3    H215450   5.854   3.931   1.284  1.8166 -0.3880  0.2988
 5169TIP3   OH215451   6.523   2.165   0.244  0.7209  0.4893 -0.4754
 5169TIP3    H115452   6.477   2.194   0.323  2.0151 -2.5361  1.5587
 5169TIP3    H215453   6.458   2.115   0.195  0.5757  0.2626 -0.0524
 5170TIP3   OH215454   2.613   4.349   5.936 -0.1984  0.5045 -0.0982
 5170TIP3    H115455   2.605   4.255   5.951  1.9389  0.1840 -0.5949
 5170TIP3    H215456   2.664   4.381   6.011  0.8166  0.8830 -0.9265
 5171TIP3   OH215457   8.024   7.047   2.071  0.4045 -0.2312 -0.3636
 5171TIP3    H115458   8.090   7.103   2.030 -0.4509  0.8121 -0.3613
 5171TIP3    H215459   7.976   7.009   1.998 -0.6197  1.0244 -0.3867
 5172TIP3   OH215460   6.258   0.272   4.358  0.3447  0.3949 -0.8850
 5172TIP3    H115461   6.249   0.338   4.427  2.3449 -0.7647  0.5766
 5172TIP3    H215462   6.274   0.323   4.279 -0.6551  1.7123 -0.2856
 5173TIP3   OH215463   2.082   0.866   2.026  0.2037 -0.0821 -0.0625
 5173TIP3    H115464   2.065   0.918   2.104  0.4083 -0.9726  0.5982
 5173TIP3    H215465   2.025   0.904   1.958  0.1361  0.7905  0.4723
 5174TIP3   OH215466   2.226   7.094   0.774 -0.5388 -0.2346 -0.1678
 5174TIP3    H115467   2.156   7.037   0.741 -1.0200  0.3160 -0.1122
 5174TIP3    H215468   2.304   7.066   0.727 -0.6316 -1.3836  0.3344
 5175TIP3   OH215469   7.605   2.083   5.048  0.0373  0.2511 -0.4751
 5175TIP3    H115470   7.545   2.075   5.122  0.1608  0.5599 -0.3377
 5175TIP3    H215471   7.549   2.106   4.974 -0.2111 -0.9678 -0.6955
 5176TIP3   OH215472   0.477   1.947   5.358  0.3899 -0.1985  0.3409
 5176TIP3    H115473   0.432   1.989   5.430 -0.1022 -0.0421 -0.0527
 5176TIP3    H215474   0.414   1.948   5.286  1.2930  0.7698 -0.4695
 5177TIP3   OH215475   1.845   3.083   0.050 -0.6440  0.7476 -0.3361
 5177TIP3    H115476   1.835   3.023  -0.024  0.0734  0.8588 -0.5272
 5177TIP3    H215477   1.821   3.030   0.126 -0.4360  0.3426 -0.5445
 5178TIP3   OH215478   4.662   0.253   4.740 -0.1452 -0.4896  0.0322
 5178TIP3    H115479   4.663   0.348   4.735 -1.0295 -0.5101 -1.3160
 5178TIP3    H215480   4.685   0.232   4.830 -1.6713  1.0564  0.8325
 5179TIP3   OH215481   1.082   7.800   4.883  0.0395  0.2782 -0.0259
 5179TIP3    H115482   1.177   7.804   4.884  0.0449  0.0969  0.2450
 5179TIP3    H215483   1.061   7.722   4.831  0.0564 -0.2015  0.6774
 5180TIP3   OH215484   6.700   2.146   0.533  0.3872  0.3791 -0.5242
 5180TIP3    H115485   6.676   2.189   0.615  1.7046 -0.2548  0.2411
 5180TIP3    H215486   6.720   2.218   0.473  0.8686  0.8643  0.1973
 5181TIP3   OH215487   5.562   2.303   2.878  0.5303 -0.1920  0.3166
 5181TIP3    H115488   5.513   2.336   2.953  3.2517  1.9454  1.3205
 5181TIP3    H215489   5.619   2.235   2.914 -0.3876 -1.4608 -0.5187
 5182TIP3   OH215490   0.426   1.310   0.854 -0.2200 -0.1130  0.0233
 5182TIP3    H115491   0.362   1.371   0.892  0.8151  0.9533  0.1123
 5182TIP3    H215492   0.388   1.223   0.869 -1.0207  0.4195  1.2490
 5183TIP3   OH215493   3.102   2.419   3.532  0.4765  0.2985  0.1764
 5183TIP3    H115494   3.058   2.496   3.570 -0.0067 -0.6199  1.5669
 5183TIP3    H215495   3.171   2.456   3.477  0.3332  1.7247  0.8988
 5184TIP3   OH215496   3.464   5.110   1.315  0.1006 -0.1317  0.0231
 5184TIP3    H115497   3.455   5.147   1.227 -1.5056 -0.5722 -0.0316
 5184TIP3    H215498   3.381   5.131   1.358  0.7477 -0.1766  1.3489
 5185TIP3   OH215499   1.343   6.936   1.503 -0.3862  0.4603  0.1049
 5185TIP3    H115500   1.354   6.879   1.426 -1.5372  1.1375 -0.5901
 5185TIP3    H215501   1.430   6.973   1.519 -0.0442 -0.0217 -0.6052
 5186TIP3   OH215502   3.135   6.640   2.390  0.1945 -0.3697 -0.8216
 5186TIP3    H115503   3.095   6.623   2.305 -0.8985 -1.6490 -0.0954
 5186TIP3    H215504   3.209   6.580   2.395 -0.1831 -0.8317 -0.6024
 5187TIP3   OH215505   7.721   4.221   5.531 -0.1747 -0.0850  0.1220
 5187TIP3    H115506   7.715   4.299   5.476  0.5386  0.0598  0.2441
 5187TIP3    H215507   7.665   4.157   5.487 -1.2745  0.6813  0.3606
 5188TIP3   OH215508   0.038   3.517   0.819  0.3605 -0.3998  0.1049
 5188TIP3    H115509  -0.022   3.537   0.891  1.2611  0.1758  0.7192
 5188TIP3    H215510   0.050   3.601   0.774  0.6789 -0.5205 -0.0407
 5189TIP3   OH215511   4.329   6.807   3.934  0.0947 -0.5860 -0.0962
 5189TIP3    H115512   4.369   6.783   3.851  1.5986 -1.4314  0.8190
 5189TIP3    H215513   4.235   6.793   3.922  0.4437 -2.1406 -1.1704
 5190TIP3   OH215514   1.413   4.898   4.018 -0.5898  0.1984  0.4854
 5190TIP3    H115515   1.421   4.959   4.091  1.3169  0.6493 -0.0354
 5190TIP3    H215516   1.348   4.938   3.960 -2.6907 -0.5420  2.2250
 5191TIP3   OH215517   5.439   5.439   5.405 -0.1719  0.1307  0.0388
 5191TIP3    H115518   5.487   5.519   5.428  2.3610 -1.3973  0.5050
 5191TIP3    H215519   5.349   5.457   5.431  0.5626  2.3393  1.4017
 5192TIP3   OH215520   2.146   1.771   2.959 -0.4121 -0.3154  0.6051
 5192TIP3    H115521   2.212   1.702   2.967  0.4043  0.2828 -0.5610
 5192TIP3    H215522   2.063   1.724   2.951  0.1036 -1.1688  0.0483
 5193TIP3   OH215523   2.296   2.590   4.911 -0.3214  0.1433 -0.0094
 5193TIP3    H115524   2.260   2.652   4.848 -0.7363 -0.3389 -0.2533
 5193TIP3    H215525   2.261   2.619   4.995 -1.7148 -0.6108 -0.3039
 5194TIP3   OH215526   2.167   5.724   5.443 -0.7422 -0.3261 -0.4132
 5194TIP3    H115527   2.080   5.742   5.479 -0.9276 -0.4971 -0.7646
 5194TIP3    H215528   2.151   5.713   5.349 -0.5575 -1.7742 -0.2923
 5195TIP3   OH215529   0.360   4.331   5.817 -0.4384 -0.1131 -0.1335
 5195TIP3    H115530   0.383   4.357   5.728 -1.6019  0.1289 -0.3780
 5195TIP3    H215531   0.303   4.401   5.849 -1.2770 -0.9455  0.2399
 5196TIP3   OH215532   1.925   0.078   3.592  0.4889 -0.0154  0.4289
 5196TIP3    H115533   1.863   0.092   3.663  0.1006 -2.1481  0.6037
 5196TIP3    H215534   1.871   0.045   3.519  1.0916  0.5535 -0.2892
 5197TIP3   OH215535   3.257   2.100   3.379 -0.1083  0.2872 -0.2365
 5197TIP3    H115536   3.321   2.171   3.375  1.9811 -1.4612  0.5123
 5197TIP3    H215537   3.253   2.067   3.289  1.4018 -0.6881  0.0245
 5198TIP3   OH215538   8.199   4.886   6.430  0.1181  0.0141 -0.3445
 5198TIP3    H115539   8.113   4.906   6.466 -0.8237 -0.5519 -2.1451
 5198TIP3    H215540   8.198   4.927   6.344  1.2615 -0.8578 -0.7925
 5199TIP3   OH215541   6.276   4.716   6.246  0.1018  0.3043 -1.2307
 5199TIP3    H115542   6.256   4.666   6.324 -0.1255  1.8233 -0.2703
 5199TIP3    H215543   6.202   4.699   6.187  0.9345 -1.9139 -1.7038
 5200TIP3   OH215544   0.795   1.560   1.177 -0.1605 -0.5095 -0.4000
 5200TIP3    H115545   0.735   1.487   1.192  1.0332 -1.6526 -0.9677
 5200TIP3    H215546   0.738   1.636   1.162 -1.4298 -1.3524  0.0364
 5201TIP3   OH215547   3.188   2.342   1.008 -0.7111 -0.4816 -0.4093
 5201TIP3    H115548   3.125   2.411   0.985  0.3296  0.7569  0.3402
 5201TIP3    H215549   3.163   2.317   1.097 -1.5054 -1.5953 -0.9165
 5202TIP3   OH215550   1.774   7.227   4.793 -0.3845  0.2790  0.2202
 5202TIP3    H115551   1.831   7.240   4.716  1.5983  0.9414  1.7058
 5202TIP3    H215552   1.805   7.146   4.832  0.4624  1.2887  1.7516
 5203TIP3   OH215553   4.989   4.508   2.501 -0.8289 -0.5381  0.4301
 5203TIP3    H115554   4.904   4.548   2.488 -0.6129 -0.3089 -0.3163
 5203TIP3    H215555   5.052   4.572   2.467 -0.3924 -0.9043  0.5310
 5204TIP3   OH215556   8.199   6.757   5.868  0.0093  0.2444  0.3241
 5204TIP3    H115557   8.149   6.832   5.900 -2.3085 -1.2638  0.4888
 5204TIP3    H215558   8.152   6.729   5.789  0.6842 -1.1521  0.3875
 5205TIP3   OH215559   3.236   5.579   2.709 -0.0855  0.0966  0.3090
 5205TIP3    H115560   3.145   5.563   2.681  0.3664 -2.4838  0.0512
 5205TIP3    H215561   3.243   5.534   2.793  1.1317 -0.3628 -0.0174
 5206TIP3   OH215562   0.430   3.006   0.530 -0.3379  0.0825  0.1505
 5206TIP3    H115563   0.515   2.977   0.497  0.0135  1.4881 -0.2460
 5206TIP3    H215564   0.367   2.971   0.468 -0.0269 -0.6625  0.2438
 5207TIP3   OH215565   3.537   3.817   2.363  0.3139 -0.6759 -0.4456
 5207TIP3    H115566   3.468   3.785   2.306 -0.5583 -0.7659  0.6253
 5207TIP3    H215567   3.501   3.809   2.451  0.9299  1.1124  0.0193
 5208TIP3   OH215568   7.264   2.399   0.318  0.1299 -0.0673 -0.6234
 5208TIP3    H115569   7.182   2.359   0.347  0.3669  0.5566  0.9969
 5208TIP3    H215570   7.240   2.491   0.301  0.5929  0.2393  0.3576
 5209TIP3   OH215571   7.927   4.127   4.785 -0.8170 -0.1036 -0.2560
 5209TIP3    H115572   7.931   4.181   4.706  0.8398  0.4712  0.1677
 5209TIP3    H215573   8.017   4.099   4.799 -1.2546 -1.0332  0.8770
 5210TIP3   OH215574   6.359   0.254   0.489 -0.1797  0.5439 -0.0190
 5210TIP3    H115575   6.308   0.329   0.519  0.6171  0.7767  0.7703
 5210TIP3    H215576   6.386   0.209   0.569 -0.1672 -0.2756 -0.4655
 5211TIP3   OH215577   3.971   5.906   4.253 -0.3681  0.5341 -0.4194
 5211TIP3    H115578   3.955   5.980   4.312 -0.8325  1.3667 -1.5582
 5211TIP3    H215579   3.988   5.946   4.168  2.1639 -0.5346 -0.5199
 5212TIP3   OH215580   7.227   6.895   1.129  0.2985  0.1806 -0.1367
 5212TIP3    H115581   7.165   6.823   1.118 -0.7284  1.0766 -0.4798
 5212TIP3    H215582   7.281   6.892   1.050  1.6411 -1.4377  0.7797
 5213TIP3   OH215583   3.927   5.492   4.052  0.2209  0.0596 -0.0549
 5213TIP3    H115584   3.979   5.453   4.122 -0.8844  1.0851  1.3908
 5213TIP3    H215585   3.971   5.575   4.034 -0.7880  0.8843  1.1033
 5214TIP3   OH215586   3.939   5.768   1.482  0.0445  0.0570  0.1486
 5214TIP3    H115587   3.943   5.857   1.447 -1.2961 -0.2581 -0.8741
 5214TIP3    H215588   4.005   5.720   1.431  0.1620  0.2673  0.0991
 5215TIP3   OH215589   1.682   3.069   3.152 -0.0196  0.2433  0.6724
 5215TIP3    H115590   1.646   3.012   3.084 -0.1350  0.8700  0.1916
 5215TIP3    H215591   1.773   3.082   3.126  0.2028 -0.2879  1.1714
 5216TIP3   OH215592   4.800   5.502   0.391 -0.4971  0.3175  0.1752
 5216TIP3    H115593   4.834   5.473   0.306  0.0922  2.4275 -0.3563
 5216TIP3    H215594   4.740   5.573   0.370 -0.3357  0.8899  1.5228
 5217TIP3   OH215595   6.190   3.302   0.876 -0.6130  0.0174 -0.0211
 5217TIP3    H115596   6.184   3.353   0.795 -1.4249  1.1548  0.7332
 5217TIP3    H215597   6.244   3.227   0.852 -0.2712  0.6738 -1.4451
 5218TIP3   OH215598   4.405   5.541   5.390 -0.3540  0.2108 -0.1182
 5218TIP3    H115599   4.364   5.596   5.457 -1.1698  1.3075 -1.4485
 5218TIP3    H215600   4.332   5.495   5.348  0.1809 -0.7602 -0.0037
 5219TIP3   OH215601   6.520   0.133   0.297  0.0649  0.0278  0.2151
 5219TIP3    H115602   6.466   0.159   0.372 -1.0103 -0.9222 -0.1817
 5219TIP3    H215603   6.591   0.196   0.295 -1.5148  1.9012  0.2378
 5220TIP3   OH215604   7.387   6.707   1.474 -0.0427 -0.4635 -0.5587
 5220TIP3    H115605   7.412   6.615   1.461  0.0057 -0.1980 -2.6745
 5220TIP3    H215606   7.466   6.756   1.453  0.1556  0.0800  1.2809
 5221TIP3   OH215607   4.068   6.606   3.335  0.0863 -0.6003  0.0269
 5221TIP3    H115608   4.067   6.670   3.407  1.3998 -0.9249  0.3631
 5221TIP3    H215609   4.155   6.616   3.297 -0.4807 -0.6717 -1.3200
 5222TIP3   OH215610   4.711   7.054   5.652  0.1736 -0.4378 -0.3990
 5222TIP3    H115611   4.729   7.005   5.733 -1.9330 -0.4820  0.1157
 5222TIP3    H215612   4.718   6.989   5.583 -1.3669 -1.2361  0.1496
 5223TIP3   OH215613   4.433   2.341   2.080 -0.5572  0.0188 -0.0062
 5223TIP3    H115614   4.425   2.405   2.150 -0.8322 -0.1654  0.1355
 5223TIP3    H215615   4.402   2.259   2.118 -2.4009  0.2722 -0.8209
 5224TIP3   OH215616   4.108   2.613   1.644  0.8221 -0.1713  0.3695
 5224TIP3    H115617   4.182   2.580   1.594  0.3179 -0.1756 -0.3963
 5224TIP3    H215618   4.033   2.563   1.612  0.3853  0.2735  0.6699
 5225TIP3   OH215619   4.688   3.009   3.948 -0.3688 -0.1070  0.1795
 5225TIP3    H115620   4.612   2.979   3.998  0.8646 -0.3370  1.9921
 5225TIP3    H215621   4.763   2.992   4.005  0.9473  1.1320 -1.0986
 5226TIP3   OH215622   2.173   4.848   6.032 -0.1348  0.3444 -0.1741
 5226TIP3    H115623   2.117   4.832   6.108  0.4267 -1.2513 -0.0535
 5226TIP3    H215624   2.241   4.781   6.038  0.7573  1.1137 -1.2964
 5227TIP3   OH215625   2.681   6.734   1.667 -0.1906 -0.0124  0.6323
 5227TIP3    H115626   2.673   6.643   1.693 -1.5366 -0.1683 -0.1896
 5227TIP3    H215627   2.640   6.737   1.580  0.0195  1.3219  0.5625
 5228TIP3   OH215628   6.912   0.536   3.503 -0.5411  0.3533  0.0556
 5228TIP3    H115629   6.958   0.474   3.560 -1.2426  0.1318  0.4002
 5228TIP3    H215630   6.890   0.609   3.560  0.2687  0.9263 -0.3478
 5229TIP3   OH215631   6.019   4.978   6.748  0.2791 -0.0070 -0.7017
 5229TIP3    H115632   6.043   5.038   6.677  1.5900  1.8218  1.1739
 5229TIP3    H215633   5.959   5.028   6.803  3.2384  0.6600  2.2236
 5230TIP3   OH215634   7.853   1.535   4.744  0.2660 -0.1493  0.6034
 5230TIP3    H115635   7.917   1.493   4.687 -1.0270 -0.5166 -0.6384
 5230TIP3    H215636   7.778   1.552   4.687 -1.7216 -1.9586  2.5226
 5231TIP3   OH215637   0.089   1.895   2.896  0.1781  0.5317 -0.2438
 5231TIP3    H115638   0.122   1.843   2.969  0.1043 -0.1332 -0.6716
 5231TIP3    H215639   0.129   1.981   2.908 -0.5810  0.7256  1.1119
 5232TIP3   OH215640   1.185   0.364   2.130  0.5169 -0.4328 -0.2780
 5232TIP3    H115641   1.186   0.390   2.038  2.0635  1.7405  0.2716
 5232TIP3    H215642   1.268   0.319   2.144 -0.2210 -1.8282 -0.1626
 5233TIP3   OH215643   7.455   5.744   3.785 -0.7775 -0.3939 -0.1534
 5233TIP3    H115644   7.511   5.668   3.768 -1.5832 -1.1458  0.4771
 5233TIP3    H215645   7.410   5.760   3.702  0.0827 -0.0084 -0.5604
 5234TIP3   OH215646   6.395   2.573   6.664 -1.0784  0.0400  0.5507
 5234TIP3    H115647   6.368   2.665   6.674 -0.8135  0.1686  0.1491
 5234TIP3    H215648   6.449   2.574   6.584  0.1125 -0.2006  1.3310
 5235TIP3   OH215649   8.001   5.737   4.604 -0.3707 -0.2815 -0.1064
 5235TIP3    H115650   7.913   5.704   4.622  0.0194 -0.4496  1.7195
 5235TIP3    H215651   8.057   5.692   4.668  1.3511 -1.3861 -2.2141
 5236TIP3   OH215652   7.354   2.252   6.336 -0.2057  0.0065  0.3228
 5236TIP3    H115653   7.355   2.267   6.242 -1.0826  1.9901  0.5722
 5236TIP3    H215654   7.262   2.258   6.361 -0.0095 -0.7007  1.2952
 5237TIP3   OH215655   5.774   4.498   4.599  0.1143  0.1847 -0.7084
 5237TIP3    H115656   5.863   4.470   4.619  0.1051  0.7259  0.1255
 5237TIP3    H215657   5.758   4.466   4.510  0.2027 -2.1707  0.0674
 5238TIP3   OH215658   4.041   2.979   4.784 -0.6012  0.2239 -0.4354
 5238TIP3    H115659   4.105   3.049   4.799 -0.6949 -0.1283  2.0754
 5238TIP3    H215660   3.993   3.007   4.706 -0.0869  2.5754 -0.0018
 5239TIP3   OH215661   0.628   0.383   3.611 -0.3711  1.1180 -0.8628
 5239TIP3    H115662   0.576   0.313   3.651  0.4524  0.5469 -0.7553
 5239TIP3    H215663   0.707   0.339   3.581  0.2689  2.0492 -0.5760
 5240TIP3   OH215664   7.087   5.431   2.390  0.3397  0.7441 -0.1128
 5240TIP3    H115665   7.137   5.426   2.472 -0.8879  1.3296  0.6939
 5240TIP3    H215666   6.997   5.414   2.415 -0.0597  0.9086 -1.3619
 5241TIP3   OH215667   3.747   1.712   1.786 -0.5615  0.4316  0.6251
 5241TIP3    H115668   3.671   1.692   1.840 -1.1261  1.0408  0.0796
 5241TIP3    H215669   3.725   1.795   1.743  0.6646  0.9457  0.9287
 5242TIP3   OH215670   4.842   1.926   1.247 -0.4640  0.0488 -0.5240
 5242TIP3    H115671   4.936   1.945   1.248  0.1235 -2.3544  1.7294
 5242TIP3    H215672   4.805   1.983   1.314 -0.2753 -0.3424 -0.0838
 5243TIP3   OH215673   4.678   7.073   1.449  0.1749 -0.4545 -0.0730
 5243TIP3    H115674   4.607   7.122   1.407  1.8710  0.2688 -2.3384
 5243TIP3    H215675   4.752   7.135   1.451  1.2623 -1.7099  0.5629
 5244TIP3   OH215676   8.318   6.408   5.865 -0.0217  0.1056  0.3122
 5244TIP3    H115677   8.311   6.316   5.891  1.5602  0.6301  2.8852
 5244TIP3    H215678   8.243   6.450   5.906 -0.7336  0.0033 -0.8487
 5245TIP3   OH215679   5.384   5.168   5.282  0.6281 -0.1399 -0.1815
 5245TIP3    H115680   5.422   5.185   5.196  1.9664 -0.2245  0.3622
 5245TIP3    H215681   5.436   5.221   5.342 -0.5150  0.1871  0.5433
 5246TIP3   OH215682   6.533   3.817   2.901 -0.1597  0.9670  0.1630
 5246TIP3    H115683   6.579   3.842   2.982 -2.0006  1.4270  1.1146
 5246TIP3    H215684   6.595   3.838   2.831  0.6635  2.6197  1.3120
 5247TIP3   OH215685   5.118   2.033   1.954  0.1737 -0.2206 -0.7546
 5247TIP3    H115686   5.210   2.055   1.965  0.0669 -0.1762  0.1150
 5247TIP3    H215687   5.074   2.117   1.942  0.2568 -0.2502 -1.2883
 5248TIP3   OH215688   6.308   3.566   5.319  0.1732 -0.2908  0.0651
 5248TIP3    H115689   6.297   3.637   5.256 -0.2067  0.0987  0.5664
 5248TIP3    H215690   6.219   3.540   5.342  0.3001  0.1214  1.0623
 5249TIP3   OH215691   2.294   0.944   6.759  0.2152 -0.3458  0.1572
 5249TIP3    H115692   2.282   0.874   6.695 -0.9294 -2.3723  2.4315
 5249TIP3    H215693   2.378   0.924   6.801  0.3585  0.2367  0.1545
 5250TIP3   OH215694   4.116   3.931   1.384  0.7031  0.0576  0.2740
 5250TIP3    H115695   4.159   4.002   1.430  2.1577 -0.2637 -0.5371
 5250TIP3    H215696   4.186   3.869   1.363 -0.1107 -0.4285 -1.1961
 5251TIP3   OH215697   2.811   4.046   3.175 -0.5182  0.1029  0.6837
 5251TIP3    H115698   2.832   4.031   3.268  0.1587  0.0611  0.5274
 5251TIP3    H215699   2.893   4.077   3.137 -0.5807 -0.6463 -0.0774
 5252TIP3   OH215700   6.932   1.668   2.600 -0.4705 -0.3533 -0.2606
 5252TIP3    H115701   6.886   1.722   2.664 -0.9967 -1.0961  0.0111
 5252TIP3    H215702   6.877   1.673   2.521  1.7900  3.2030 -1.8629
 5253TIP3   OH215703   6.116   3.635   2.118  0.7701 -0.7003  0.0208
 5253TIP3    H115704   6.208   3.621   2.097  1.0445  0.2452  0.5442
 5253TIP3    H215705   6.072   3.641   2.032  1.4592  0.4473 -0.2808
 5254TIP3   OH215706   0.980   6.088   1.917 -0.6593 -0.0470 -0.0285
 5254TIP3    H115707   0.940   6.166   1.956 -0.6212  0.4219 -0.8930
 5254TIP3    H215708   1.042   6.123   1.853 -0.8150 -0.7950 -0.5986
 5255TIP3   OH215709   3.763   2.120   4.561  0.6842 -0.0174 -0.1229
 5255TIP3    H115710   3.751   2.215   4.556 -1.5950  0.1740  4.3534
 5255TIP3    H215711   3.843   2.108   4.612 -0.1596 -0.4137  1.1268
 5256TIP3   OH215712   1.097   0.408   2.514  0.1643  0.5993 -0.0790
 5256TIP3    H115713   1.033   0.442   2.452  1.2975  0.0124 -1.6267
 5256TIP3    H215714   1.110   0.479   2.577 -2.6364  0.4130  0.8328
 5257TIP3   OH215715   7.296   7.496   5.877  0.5761 -0.3775 -0.2553
 5257TIP3    H115716   7.377   7.540   5.851  1.0875 -1.2144 -0.1415
 5257TIP3    H215717   7.226   7.550   5.841  1.1657  0.7251  0.2130
 5258TIP3   OH215718   5.973   3.271   0.373  0.0571 -0.0026  0.0958
 5258TIP3    H115719   5.887   3.304   0.400  0.0886 -0.4394  0.7428
 5258TIP3    H215720   5.959   3.238   0.284 -0.4014  0.0874  0.1309
 5259TIP3   OH215721   5.899   5.540   2.052 -0.1854  0.0994  0.7187
 5259TIP3    H115722   5.972   5.565   2.108  0.2817 -0.5525  0.4081
 5259TIP3    H215723   5.856   5.469   2.099  0.1637 -0.3980  0.2921
 5260TIP3   OH215724   2.024   0.822   0.553  0.1662 -0.0057  0.5469
 5260TIP3    H115725   1.984   0.895   0.505  0.8638 -0.9147 -1.5348
 5260TIP3    H215726   2.061   0.862   0.631 -1.4808  1.4730  0.6308
 5261TIP3   OH215727   1.057   1.657   0.018 -0.0517  0.1894  0.5108
 5261TIP3    H115728   1.005   1.607   0.082  3.0661 -1.6867  1.7991
 5261TIP3    H215729   1.009   1.739   0.008 -1.8996 -0.3432  3.5727
 5262TIP3   OH215730   3.013   3.768   0.967 -0.0240  0.0239  0.0480
 5262TIP3    H115731   3.070   3.693   0.950  0.2722 -0.3734  2.4463
 5262TIP3    H215732   3.053   3.811   1.043 -1.1450  1.6110 -0.2290
 5263TIP3   OH215733   2.278   4.689   0.466  0.0445  0.3280 -0.1532
 5263TIP3    H115734   2.253   4.670   0.556  0.9086 -0.3296 -0.0310
 5263TIP3    H215735   2.306   4.781   0.468  0.4289  0.2095  0.3465
 5264TIP3   OH215736   4.886   0.701   4.812 -0.1042  0.3041  0.4158
 5264TIP3    H115737   4.855   0.699   4.721 -0.8507  0.7628  0.6500
 5264TIP3    H215738   4.865   0.789   4.842  0.6755  0.3454  0.8606
 5265TIP3   OH215739   7.203   6.339   6.743  0.1733 -0.1428  0.1483
 5265TIP3    H115740   7.170   6.364   6.657  0.0368  1.1813  0.5609
 5265TIP3    H215741   7.196   6.419   6.796  3.7909  0.2194  0.3525
 5266TIP3   OH215742   6.352   1.831   1.133 -0.3757  0.2735 -0.1012
 5266TIP3    H115743   6.387   1.757   1.083  1.1652  2.1449 -1.9763
 5266TIP3    H215744   6.300   1.880   1.069  2.1981  3.1086 -0.2151
 5267TIP3   OH215745   2.540   0.605   5.315 -0.0477  0.4572  0.1328
 5267TIP3    H115746   2.550   0.512   5.294 -0.4269  0.7242 -1.2981
 5267TIP3    H215747   2.542   0.608   5.411  1.7233 -0.8224  0.1876
 5268TIP3   OH215748   5.972   5.800   6.258  0.8227  0.4257 -0.2745
 5268TIP3    H115749   5.951   5.728   6.316 -0.0454  0.8372 -0.0702
 5268TIP3    H215750   5.888   5.827   6.221  1.3835  0.0014 -1.9316
 5269TIP3   OH215751   1.887   3.499   5.287  0.0374  0.5821  0.3380
 5269TIP3    H115752   1.865   3.508   5.380 -0.7216 -1.1185  0.3689
 5269TIP3    H215753   1.931   3.414   5.281 -1.0687  0.0621 -1.0218
 5270TIP3   OH215754   4.553   0.179   3.376 -0.3657  0.1454 -0.0284
 5270TIP3    H115755   4.574   0.272   3.363 -1.7846  0.5595  0.4198
 5270TIP3    H215756   4.560   0.166   3.471  1.3358 -0.6331 -0.2159
 5271TIP3   OH215757   3.329   0.978   6.200  0.6928 -0.0927  0.3536
 5271TIP3    H115758   3.309   0.913   6.268  2.7715 -0.6487  0.5035
 5271TIP3    H215759   3.296   1.060   6.235 -1.3951 -0.8980  0.4600
 5272TIP3   OH215760   3.469   3.366   3.807  0.2491 -0.1948  0.6376
 5272TIP3    H115761   3.385   3.334   3.775  0.1247  0.3977  0.3602
 5272TIP3    H215762   3.465   3.352   3.902  0.7966 -2.3793  0.4094
 5273TIP3   OH215763   5.763   6.761   6.728 -0.3023  0.2133 -0.6109
 5273TIP3    H115764   5.850   6.728   6.709 -0.3459  0.8375 -1.9844
 5273TIP3    H215765   5.750   6.741   6.821  2.1148  1.9577  0.2027
 5274TIP3   OH215766   3.981   2.334   0.963 -0.2757 -0.1657 -0.0029
 5274TIP3    H115767   3.978   2.350   0.869  1.1710 -1.0258 -0.2268
 5274TIP3    H215768   4.061   2.283   0.976 -1.0293 -1.0256  1.5497
 5275TIP3   OH215769   3.682   5.655   3.460  0.4202  0.3524 -0.1914
 5275TIP3    H115770   3.749   5.712   3.423  1.3049  0.2234  1.1486
 5275TIP3    H215771   3.613   5.653   3.394  1.8457  0.2577 -1.7532
 5276TIP3   OH215772   5.702   5.933   2.312 -0.3840 -0.0848 -0.2525
 5276TIP3    H115773   5.790   5.935   2.274  0.7615  0.5717  2.2674
 5276TIP3    H215774   5.692   6.017   2.357 -2.2230 -0.2469 -0.2661
 5277TIP3   OH215775   2.528   7.179   5.574  1.0833 -0.1545 -0.5193
 5277TIP3    H115776   2.498   7.088   5.567  1.1473 -0.1932 -0.2733
 5277TIP3    H215777   2.525   7.211   5.484  0.2783 -0.1494 -0.4965
 5278TIP3   OH215778   3.279   5.978   3.883 -0.3099 -0.4276  0.3148
 5278TIP3    H115779   3.268   5.887   3.909 -1.8828 -1.4622 -3.3558
 5278TIP3    H215780   3.368   5.982   3.848 -0.6207 -0.8929 -0.5530
 5279TIP3   OH215781   3.034   7.605   1.504 -0.2706 -0.0311  0.1858
 5279TIP3    H115782   2.944   7.610   1.536  0.2849  1.6995  1.6861
 5279TIP3    H215783   3.033   7.655   1.422 -0.6058  0.3023  0.3884
 5280TIP3   OH215784   2.999   2.575   5.855  0.3096  0.2971 -0.0071
 5280TIP3    H115785   3.078   2.533   5.890 -0.4663 -0.6783  0.6325
 5280TIP3    H215786   2.979   2.645   5.916  0.1626 -0.0511  0.3514
 5281TIP3   OH215787   2.245   3.174   5.641 -0.1432  0.8039  0.4291
 5281TIP3    H115788   2.295   3.101   5.678 -1.4283 -0.0392  0.5611
 5281TIP3    H215789   2.283   3.187   5.554  0.3964  0.2650  0.5799
 5282TIP3   OH215790   7.096   3.480   2.113 -0.1578  0.7596 -0.0251
 5282TIP3    H115791   7.191   3.474   2.114 -0.0717  1.0754  3.0530
 5282TIP3    H215792   7.066   3.405   2.164 -1.6652  0.0880 -1.7787
 5283TIP3   OH215793   2.389   2.799   6.554  0.2340  0.2028  0.7858
 5283TIP3    H115794   2.451   2.757   6.494 -0.5275 -1.5599  1.1611
 5283TIP3    H215795   2.309   2.809   6.502  0.3098  0.8873  0.8012
 5284TIP3   OH215796   3.021   2.160   6.361 -0.0136  0.1680  0.2482
 5284TIP3    H115797   3.012   2.184   6.453  1.0760 -0.6608  0.5895
 5284TIP3    H215798   2.974   2.228   6.313  1.0213  1.6711  1.3052
 5285TIP3   OH215799   3.758   7.688   0.984  0.2862  0.1163  0.0485
 5285TIP3    H115800   3.816   7.618   1.012 -0.9331 -0.3311  1.5868
 5285TIP3    H215801   3.815   7.750   0.938  2.0253 -0.1749  1.7143
 5286TIP3   OH215802   7.719   5.100   1.327 -0.5342  0.1533 -0.8878
 5286TIP3    H115803   7.702   5.105   1.421 -0.7828 -1.0866 -0.8447
 5286TIP3    H215804   7.815   5.105   1.320 -0.5868  2.2907 -0.7550
 5287TIP3   OH215805   0.692   0.292   3.034 -0.1369 -0.2365 -0.4912
 5287TIP3    H115806   0.610   0.284   2.984 -0.5974 -0.2604  0.2589
 5287TIP3    H215807   0.755   0.327   2.971 -0.7664 -0.0688 -1.0358
 5288TIP3   OH215808   1.217   2.842   0.514  0.0009  0.1707  0.4936
 5288TIP3    H115809   1.137   2.797   0.539 -0.0232 -1.4905 -2.0899
 5288TIP3    H215810   1.195   2.935   0.516 -2.2261 -0.2557 -0.6932
 5289TIP3   OH215811   5.753   1.266   0.972 -0.0581 -0.0838 -0.3908
 5289TIP3    H115812   5.827   1.321   0.998  0.1047 -0.7710  0.6627
 5289TIP3    H215813   5.687   1.327   0.939  0.4783  0.6462 -0.1226
 5290TIP3   OH215814   8.242   1.572   1.322 -0.0149 -0.0207  0.1292
 5290TIP3    H115815   8.229   1.661   1.355 -0.5377 -0.1004  0.1479
 5290TIP3    H215816   8.226   1.515   1.397 -1.3790 -0.2124 -0.2809
 5291TIP3   OH215817   4.111   6.922   0.293  0.7377  0.4780  0.0025
 5291TIP3    H115818   4.074   6.890   0.210  0.5113 -1.0789  0.6779
 5291TIP3    H215819   4.179   6.983   0.266 -0.5371  1.3950 -1.3079
 5292TIP3   OH215820   0.080   4.456   1.577 -0.5679  0.4126  0.7885
 5292TIP3    H115821   0.118   4.514   1.643 -1.1658  2.7658 -0.8213
 5292TIP3    H215822  -0.001   4.500   1.550 -0.3418 -0.4645 -1.4873
 5293TIP3   OH215823   1.767   4.804   0.885  0.7076  0.2943  0.1705
 5293TIP3    H115824   1.728   4.790   0.798  1.5208  0.3599 -0.2187
 5293TIP3    H215825   1.720   4.879   0.921  0.8601  0.7356 -0.5272
 5294TIP3   OH215826   6.443   5.039   2.392 -0.2445  0.0900  0.6114
 5294TIP3    H115827   6.506   5.020   2.323 -0.9282 -0.2602  0.0653
 5294TIP3    H215828   6.358   5.041   2.347 -0.9801 -2.2307  1.7121
 5295TIP3   OH215829   6.502   0.410   0.741 -0.0976 -0.5242  0.2060
 5295TIP3    H115830   6.446   0.379   0.812 -0.4219 -3.4665 -1.2003
 5295TIP3    H215831   6.566   0.340   0.728  2.6820  1.8025  0.3319
 5296TIP3   OH215832   2.128   3.175   1.628 -0.2372 -0.9719  0.2515
 5296TIP3    H115833   2.182   3.115   1.576 -0.3648 -1.3424  0.5424
 5296TIP3    H215834   2.164   3.261   1.610 -1.2204 -0.8910 -1.6781
 5297TIP3   OH215835   1.734   4.612   0.647  0.2104 -0.3097  1.0032
 5297TIP3    H115836   1.775   4.641   0.566 -1.7882 -0.0264  0.0396
 5297TIP3    H215837   1.762   4.521   0.657 -0.7526 -0.8700 -0.8932
 5298TIP3   OH215838   7.799   0.880   4.441 -0.0360  0.2805  0.6289
 5298TIP3    H115839   7.818   0.934   4.364  0.0926 -3.1231 -1.9424
 5298TIP3    H215840   7.706   0.859   4.433  0.1144 -0.5859  1.0734
 5299TIP3   OH215841   2.002   3.041   3.413 -0.0231  0.1460 -0.0314
 5299TIP3    H115842   1.963   3.018   3.497  1.1103 -0.0813  0.4491
 5299TIP3    H215843   1.994   2.962   3.359  1.3795 -0.5090  0.6808
 5300TIP3   OH215844   1.054   5.397   2.165  0.7237 -0.3367  0.4301
 5300TIP3    H115845   1.128   5.340   2.143  1.4477  0.8920 -0.4683
 5300TIP3    H215846   1.093   5.484   2.172 -0.5329  0.2253  0.6525
 5301TIP3   OH215847   0.284   2.388   3.467 -0.1391  0.4441  0.6716
 5301TIP3    H115848   0.270   2.393   3.561  2.1883  0.2260  1.0956
 5301TIP3    H215849   0.333   2.306   3.454  1.7271  1.6507 -0.3627
 5302TIP3   OH215850   1.644   6.470   0.692  0.2089  0.3012  0.0780
 5302TIP3    H115851   1.582   6.466   0.764 -0.1723 -0.5029 -0.2834
 5302TIP3    H215852   1.656   6.379   0.665  0.0543  0.6182 -1.1105
 5303TIP3   OH215853   7.944   5.857   2.678  0.0223 -0.3168 -0.5593
 5303TIP3    H115854   7.899   5.873   2.595 -1.9854 -2.2871  0.0322
 5303TIP3    H215855   7.961   5.945   2.713 -0.9519  0.5419 -2.1101
 5304TIP3   OH215856   7.540   1.309   0.488  0.4575 -0.0969  0.4856
 5304TIP3    H115857   7.636   1.313   0.480  0.5423 -0.8106  1.0568
 5304TIP3    H215858   7.508   1.375   0.426  1.2679 -0.8638 -0.8107
 5305TIP3   OH215859   7.384   3.900   1.750  0.4493  0.1163  0.2841
 5305TIP3    H115860   7.298   3.930   1.778 -0.2523 -1.3056 -0.2367
 5305TIP3    H215861   7.429   3.876   1.831  0.3754  0.8886  0.5593
 5306TIP3   OH215862   3.552   3.216   3.026 -0.2409 -0.2582  0.5420
 5306TIP3    H115863   3.589   3.303   3.015  0.8937 -0.8222 -0.2759
 5306TIP3    H215864   3.570   3.194   3.118  0.0590  0.1030  0.5711
 5307TIP3   OH215865   1.325   0.141   0.347 -0.0551  0.2307  0.5113
 5307TIP3    H115866   1.252   0.086   0.377 -1.3291  0.0144 -2.5996
 5307TIP3    H215867   1.391   0.133   0.416 -2.2404 -1.0256  2.6042
 5308TIP3   OH215868   0.289   5.980   3.383  0.0162 -0.6410  0.4028
 5308TIP3    H115869   0.247   6.056   3.343 -0.7215 -0.4097  1.5875
 5308TIP3    H215870   0.362   6.017   3.433  2.9105 -1.1546 -3.0104
 5309TIP3   OH215871   1.750   4.567   2.382 -0.2069  0.3900  0.4341
 5309TIP3    H115872   1.712   4.638   2.434  0.4215  1.2295 -0.2342
 5309TIP3    H215873   1.772   4.607   2.298 -1.3023 -0.9694 -0.5473
 5310TIP3   OH215874   1.195  -0.023   2.716 -0.4777  0.3128 -0.0561
 5310TIP3    H115875   1.135   0.007   2.784 -1.2414  0.3112 -0.7224
 5310TIP3    H215876   1.169   0.027   2.638  0.1628  0.0584 -0.4360
 5311TIP3   OH215877   0.550   5.534   4.734 -0.5719  0.0360 -0.0532
 5311TIP3    H115878   0.508   5.614   4.765 -1.2650  0.5612 -2.1260
 5311TIP3    H215879   0.567   5.551   4.641 -0.3588 -2.0760 -0.4586
 5312TIP3   OH215880   6.183   1.920   4.311 -0.2901 -0.3795  0.0560
 5312TIP3    H115881   6.218   1.915   4.400 -0.9939  1.8742  0.5351
 5312TIP3    H215882   6.089   1.935   4.323 -0.7924 -2.2295 -1.1365
 5313TIP3   OH215883   0.751   6.788   5.903 -0.3602  0.8490  0.1845
 5313TIP3    H115884   0.665   6.753   5.881  0.2069 -0.5016  0.0388
 5313TIP3    H215885   0.752   6.875   5.863 -0.8736  0.0684 -1.6594
 5314TIP3   OH215886   3.811   4.159   2.113 -0.4905 -0.4496 -0.0472
 5314TIP3    H115887   3.802   4.242   2.160 -1.1206 -0.4123 -0.2209
 5314TIP3    H215888   3.889   4.118   2.150 -1.0006 -0.4370  1.0479
 5315TIP3   OH215889   5.940   4.394   2.144  0.0931  0.3698 -0.1720
 5315TIP3    H115890   5.915   4.346   2.065  0.1036  1.6190 -0.9678
 5315TIP3    H215891   5.902   4.344   2.216  1.0857 -1.4544 -0.8470
 5316TIP3   OH215892   6.038   0.493   1.456 -0.4805 -0.1037 -0.3426
 5316TIP3    H115893   5.960   0.501   1.511  0.8340 -0.6361  1.7076
 5316TIP3    H215894   6.075   0.581   1.455 -1.5063  0.3549 -2.0396
 5317TIP3   OH215895   2.749   7.550   5.701  0.1316 -0.5748 -0.2519
 5317TIP3    H115896   2.783   7.576   5.786  0.1909  0.3722 -0.5621
 5317TIP3    H215897   2.663   7.512   5.720  0.3792 -0.8822  0.2826
 5318TIP3   OH215898   3.655   6.369   5.991 -0.8504  0.0887  0.4402
 5318TIP3    H115899   3.605   6.448   6.012 -1.0677 -0.4956  2.3302
 5318TIP3    H215900   3.648   6.361   5.896 -1.4112  1.9371  0.2721
 5319TIP3   OH215901   1.724   2.482   3.623  0.5922  0.7046 -0.3524
 5319TIP3    H115902   1.750   2.554   3.681  0.7707  0.9730 -0.7587
 5319TIP3    H215903   1.715   2.407   3.681  0.2206  1.0978  0.1030
 5320TIP3   OH215904   7.616   4.877   0.525 -0.2976  0.3685  0.7260
 5320TIP3    H115905   7.650   4.963   0.500 -1.4366  0.5656 -0.2283
 5320TIP3    H215906   7.589   4.837   0.442 -2.0377  0.0800  1.3973
 5321TIP3   OH215907   3.106   0.407   1.605  0.0075  0.2669 -0.5270
 5321TIP3    H115908   3.112   0.453   1.689  0.2140 -0.6328 -0.0363
 5321TIP3    H215909   3.069   0.321   1.627  2.3871 -0.9473 -0.9613
 5322TIP3   OH215910   5.630   3.364   2.379 -0.1551  0.0534 -0.0303
 5322TIP3    H115911   5.620   3.279   2.423  1.4676 -1.4272 -2.2632
 5322TIP3    H215912   5.550   3.374   2.328 -1.1358  0.7806  1.5975
 5323TIP3   OH215913   7.774   7.075   5.206  0.2187  0.0554 -0.3330
 5323TIP3    H115914   7.800   7.158   5.247  1.5945 -0.4141 -0.1897
 5323TIP3    H215915   7.685   7.059   5.237  0.2660  1.0417  0.3475
 5324TIP3   OH215916   6.789   4.219   0.707 -0.2374 -0.4298 -0.5093
 5324TIP3    H115917   6.876   4.254   0.690 -0.1520  0.1654  0.9867
 5324TIP3    H215918   6.742   4.291   0.749 -1.5676 -0.6371 -1.5900
 5325TIP3   OH215919   1.219   2.121   3.902 -0.0510 -0.1847 -0.2348
 5325TIP3    H115920   1.127   2.094   3.903  0.0819 -0.6855 -0.7730
 5325TIP3    H215921   1.225   2.188   3.969 -0.2796 -1.9238  1.6093
 5326TIP3   OH215922   4.533   3.184   4.297 -0.0627 -0.7160 -0.3968
 5326TIP3    H115923   4.544   3.208   4.205 -1.8877 -2.2896 -1.1071
 5326TIP3    H215924   4.566   3.259   4.346 -0.9628  1.0710 -2.3577
 5327TIP3   OH215925   3.069   4.755   3.989  0.3290  0.1842  0.1680
 5327TIP3    H115926   2.985   4.742   3.944  0.4276  0.8768 -0.2454
 5327TIP3    H215927   3.103   4.667   4.003 -0.3833 -0.0961  0.1743
 5328TIP3   OH215928   1.539   5.576   5.889  0.7411  0.1530  0.7054
 5328TIP3    H115929   1.479   5.650   5.896 -0.6553 -0.6517 -1.5446
 5328TIP3    H215930   1.587   5.591   5.807 -0.0252 -1.6566 -0.1398
 5329TIP3   OH215931   4.190   1.919   2.701 -0.3933  0.3302  0.1778
 5329TIP3    H115932   4.211   1.875   2.619 -1.0336 -2.7378  1.5467
 5329TIP3    H215933   4.095   1.913   2.708 -0.3047  0.0917  1.3739
 5330TIP3   OH215934   6.497   1.158   6.278  0.1148 -0.6302  0.0919
 5330TIP3    H115935   6.452   1.172   6.194  0.1475  1.0322  0.3357
 5330TIP3    H215936   6.554   1.083   6.261  0.3477 -0.1400 -1.4840
 5331TIP3   OH215937   1.395   4.091   0.201 -0.3041  0.4074 -0.0858
 5331TIP3    H115938   1.454   4.154   0.161 -0.7178 -0.4422 -2.2048
 5331TIP3    H215939   1.311   4.106   0.157 -1.2141  0.3802  1.5595
 5332TIP3   OH215940   0.826   4.966   4.652 -0.4117 -0.1341 -0.6747
 5332TIP3    H115941   0.884   5.039   4.632  0.3497  0.3340  2.6103
 5332TIP3    H215942   0.741   5.006   4.669  0.1511  0.1789  1.7393
 5333TIP3   OH215943   0.997   5.013   0.852  0.0343  0.3073  0.7141
 5333TIP3    H115944   0.916   4.981   0.891 -0.2602  0.1732 -0.0003
 5333TIP3    H215945   0.981   5.106   0.836 -0.9996 -0.2333 -1.8883
 5334TIP3   OH215946   4.149   1.130   1.723  0.7091 -0.6083  0.2473
 5334TIP3    H115947   4.117   1.121   1.813  1.0439 -1.2050  0.3167
 5334TIP3    H215948   4.195   1.048   1.706  1.8060  0.0479 -0.0102
 5335TIP3   OH215949   4.243   2.212   6.546  0.0670  0.4540 -0.3984
 5335TIP3    H115950   4.194   2.196   6.628 -0.8923  0.3964 -0.9641
 5335TIP3    H215951   4.182   2.187   6.477  0.1425  2.3240 -1.2068
 5336TIP3   OH215952   7.289   2.467   4.704 -0.4262  0.1397 -0.3511
 5336TIP3    H115953   7.332   2.530   4.763 -0.2661 -0.7014  0.4467
 5336TIP3    H215954   7.362   2.423   4.660 -0.4691 -0.8835  0.5760
 5337TIP3   OH215955   0.420   2.973   2.377 -0.0531 -0.2089  0.4516
 5337TIP3    H115956   0.466   3.056   2.384  0.8104 -0.3637 -2.2121
 5337TIP3    H215957   0.343   2.983   2.433  1.7963  1.0232  2.9666
 5338TIP3   OH215958   4.165   6.991   4.502  0.6209  0.4442  0.2594
 5338TIP3    H115959   4.099   6.975   4.569  0.7341  2.1959  0.8139
 5338TIP3    H215960   4.145   6.926   4.433 -0.8007  0.0384  1.0211
 5339TIP3   OH215961   8.046   2.555   1.346  0.2962 -0.1267 -0.3286
 5339TIP3    H115962   8.028   2.539   1.438  1.0197 -1.5200 -0.3933
 5339TIP3    H215963   8.115   2.621   1.346 -0.0185  0.2074  0.1058
 5340TIP3   OH215964   8.090   6.416   4.735 -0.2443 -0.4223  0.0375
 5340TIP3    H115965   8.133   6.471   4.800 -0.1691  0.9608 -1.1356
 5340TIP3    H215966   8.142   6.336   4.733  0.0138 -0.3102  1.3291
 5341TIP3   OH215967   0.628   1.776   6.701 -0.3398 -0.4781 -0.2127
 5341TIP3    H115968   0.666   1.721   6.770 -1.1824 -0.9907 -0.1370
 5341TIP3    H215969   0.553   1.818   6.743 -0.8208 -0.7424 -0.8008
 5342TIP3   OH215970   2.089   4.054   5.058 -0.3407  0.1576 -0.5160
 5342TIP3    H115971   2.032   4.078   4.985 -2.7329  1.4453  1.6376
 5342TIP3    H215972   2.136   4.135   5.080  1.4447 -0.5693 -1.4221
 5343TIP3   OH215973   7.358   0.106   1.131 -0.2972 -0.3137  0.2625
 5343TIP3    H115974   7.263   0.107   1.146 -0.5250 -0.3284 -1.1057
 5343TIP3    H215975   7.368   0.098   1.036  1.0874 -2.3184  0.5108
 5344TIP3   OH215976   0.283   0.289   4.512  0.2982 -0.1959  0.0409
 5344TIP3    H115977   0.246   0.362   4.562  0.6649  1.8276 -2.4169
 5344TIP3    H215978   0.362   0.265   4.559 -0.5702  0.0014  1.6789
 5345TIP3   OH215979   8.184   1.948   0.247 -0.3066 -0.3553 -0.2955
 5345TIP3    H115980   8.127   1.950   0.170  1.3059 -1.3305 -1.5972
 5345TIP3    H215981   8.236   1.868   0.235 -2.7604 -2.9370  3.9350
 5346TIP3   OH215982   6.344   6.588   0.206  0.0267  0.4372 -0.3065
 5346TIP3    H115983   6.430   6.573   0.166 -0.5472 -1.5540 -0.8915
 5346TIP3    H215984   6.342   6.682   0.222  1.9535  0.6755 -1.1076
 5347TIP3   OH215985   3.546   7.048   1.976  0.5305 -0.5848  0.6442
 5347TIP3    H115986   3.615   7.098   1.932  1.1552 -0.8930  1.2441
 5347TIP3    H215987   3.467   7.100   1.963  1.0513  0.2567  0.7395
 5348TIP3   OH215988   8.075   5.009   0.243 -0.2324  0.0198 -0.0604
 5348TIP3    H115989   8.151   5.064   0.221  0.1764 -0.2137  0.7439
 5348TIP3    H215990   8.067   4.949   0.169  0.2158  0.2095 -0.2697
 5349TIP3   OH215991   6.860   7.449   6.625  0.6059  0.7136  0.7058
 5349TIP3    H115992   6.923   7.475   6.557  0.6318  0.4163  0.6133
 5349TIP3    H215993   6.839   7.358   6.604 -1.6410  1.4566 -0.6702
 5350TIP3   OH215994   4.695   6.779   5.807 -0.0966 -0.0029  0.3159
 5350TIP3    H115995   4.680   6.784   5.901 -1.3200 -1.4190  0.2458
 5350TIP3    H215996   4.626   6.720   5.775 -0.4071  1.3168 -1.6262
 5351TIP3   OH215997   3.332   2.640   0.538 -0.4218  0.1326  0.3332
 5351TIP3    H115998   3.295   2.668   0.454  0.8896 -0.4504 -0.4722
 5351TIP3    H215999   3.318   2.545   0.539  1.3626 -0.1749 -0.1991
 5352TIP3   OH216000   1.282   1.121   0.504 -0.1916  0.3678 -0.7528
 5352TIP3    H116001   1.229   1.046   0.477 -0.3737 -0.5557  1.8888
 5352TIP3    H216002   1.230   1.163   0.573  1.1275  1.2681 -0.2763
 5353TIP3   OH216003   5.896   3.532   5.703 -0.7332  0.5026 -0.0855
 5353TIP3    H116004   5.921   3.549   5.793 -2.7481  0.0490  0.6099
 5353TIP3    H216005   5.813   3.577   5.692 -1.1349 -0.4702 -1.3351
 5354TIP3   OH216006   0.562   5.589   3.594  0.0140  0.1476 -0.6064
 5354TIP3    H116007   0.520   5.504   3.579  1.1037 -1.2569  3.2485
 5354TIP3    H216008   0.615   5.603   3.515 -0.7978 -2.3267 -1.7140
 5355TIP3   OH216009   5.765   1.944   2.115 -0.2063 -0.5965  0.1560
 5355TIP3    H116010   5.701   1.976   2.179 -0.2993  1.5825 -0.9668
 5355TIP3    H216011   5.719   1.873   2.069 -1.5580  0.4232 -0.1171
 5356TIP3   OH216012   4.166   4.552   0.506 -0.0239  0.0112  0.3336
 5356TIP3    H116013   4.253   4.585   0.526 -0.1266 -0.1468  1.0507
 5356TIP3    H216014   4.106   4.618   0.539 -0.1714  0.7514 -1.3199
 5357TIP3   OH216015   2.604   1.114   2.655 -0.0695  0.0555  0.0492
 5357TIP3    H116016   2.519   1.076   2.631 -0.0957  0.0462  0.1542
 5357TIP3    H216017   2.592   1.208   2.642 -0.4931  0.1889  1.2165
 5358TIP3   OH216018   5.656   1.903   5.056  0.4099  0.3886  0.0153
 5358TIP3    H116019   5.706   1.957   5.117 -0.0917  1.8089 -0.7831
 5358TIP3    H216020   5.597   1.964   5.012  0.3735 -0.6876 -1.5063
 5359TIP3   OH216021   6.816   3.773   4.754 -0.5589 -0.3455  1.1408
 5359TIP3    H116022   6.896   3.817   4.723 -0.4921 -0.8100  0.6390
 5359TIP3    H216023   6.837   3.680   4.749 -2.1617 -0.6871 -2.0534
 5360TIP3   OH216024   1.083   3.164   2.399  0.2866 -0.0556  0.0820
 5360TIP3    H116025   1.094   3.249   2.357 -1.2471  0.6580  1.0433
 5360TIP3    H216026   1.021   3.117   2.343  1.6727 -0.8622 -0.8396
 5361TIP3   OH216027   0.086   5.746   3.002  0.4348 -0.0789 -0.3491
 5361TIP3    H116028   0.014   5.742   2.939  0.7003 -2.2494 -0.5710
 5361TIP3    H216029   0.045   5.723   3.086  0.3824  1.3370  0.0466
 5362TIP3   OH216030   6.459   0.527   1.516 -0.6150  0.7799 -0.4600
 5362TIP3    H116031   6.478   0.523   1.610  2.7579  0.5852 -1.0306
 5362TIP3    H216032   6.401   0.453   1.500  1.1842 -1.0898  1.0439
 5363TIP3   OH216033   3.082   5.193   5.551  0.4469 -0.0410  0.0609
 5363TIP3    H116034   3.167   5.187   5.595 -0.1605  0.2283  1.3336
 5363TIP3    H216035   3.024   5.138   5.604 -0.9249  2.3839  1.2605
 5364TIP3   OH216036   1.029   3.706   4.998 -0.5578 -0.0192  0.2040
 5364TIP3    H116037   0.976   3.743   5.068  0.8356 -1.8267  2.3766
 5364TIP3    H216038   1.053   3.781   4.944 -1.9349  1.4150  1.4827
 5365TIP3   OH216039   5.085   4.144   4.045  0.1632 -0.1198  0.0169
 5365TIP3    H116040   5.079   4.239   4.033 -4.2270 -0.1175  0.5598
 5365TIP3    H216041   5.068   4.108   3.958 -1.4225 -0.2840  0.3535
 5366TIP3   OH216042   5.201   0.749   2.392  0.0480 -0.2275  0.1808
 5366TIP3    H116043   5.163   0.832   2.423  0.5207 -0.0744  0.3622
 5366TIP3    H216044   5.171   0.684   2.456 -0.0201 -0.1332  0.2472
 5367TIP3   OH216045   7.024   0.238   4.557  0.2367  0.3222 -0.7035
 5367TIP3    H116046   7.015   0.144   4.574  1.6187  0.5317  1.4094
 5367TIP3    H216047   6.957   0.279   4.612 -0.2952  0.6157 -1.5435
 5368TIP3   OH216048   0.600   4.210   0.607  0.5984 -0.3987  0.0013
 5368TIP3    H116049   0.573   4.182   0.695  1.9204  1.7979  1.2092
 5368TIP3    H216050   0.518   4.215   0.558 -0.3485 -0.4866  1.4995
 5369TIP3   OH216051   1.127   5.873   5.838 -0.1524 -0.0121  0.6445
 5369TIP3    H116052   1.176   5.791   5.843 -1.5865 -1.0137 -0.7633
 5369TIP3    H216053   1.151   5.921   5.917  1.8086 -1.1517  0.7898
 5370TIP3   OH216054   0.888   1.678   4.158 -0.8271  0.0563 -0.2327
 5370TIP3    H116055   0.953   1.747   4.168 -1.8274  1.0041 -0.1135
 5370TIP3    H216056   0.875   1.670   4.063  0.0220 -0.6782 -0.2928
 5371TIP3   OH216057   2.307   6.331   3.566 -0.2788 -0.5855  0.1564
 5371TIP3    H116058   2.362   6.334   3.644  0.1213  2.7885 -0.1292
 5371TIP3    H216059   2.293   6.237   3.550  0.4039 -1.4113  3.6595
 5372TIP3   OH216060   2.278   6.186   1.428 -0.3925 -0.6696 -0.1080
 5372TIP3    H116061   2.366   6.210   1.399 -0.7960 -0.1728 -0.9737
 5372TIP3    H216062   2.289   6.162   1.520  0.3463  1.1362  0.3215
 5373TIP3   OH216063   1.498   5.816   0.703  0.5118  0.2705 -0.0537
 5373TIP3    H116064   1.423   5.809   0.645  0.9353 -1.0690 -0.4844
 5373TIP3    H216065   1.477   5.759   0.777  0.9313  0.2020  0.0170
 5374TIP3   OH216066   5.744   2.527   2.497  0.5110 -0.3096  0.4795
 5374TIP3    H116067   5.695   2.457   2.455  0.8101 -0.4612  0.3832
 5374TIP3    H216068   5.833   2.518   2.463 -0.0542  1.9633 -1.9377
 5375TIP3   OH216069   1.545   4.817   6.244 -0.5185 -0.6621 -0.2770
 5375TIP3    H116070   1.560   4.730   6.207  1.1108 -0.6959  0.4015
 5375TIP3    H216071   1.514   4.869   6.170 -1.6556 -1.8246 -0.6677
 5376TIP3   OH216072   7.025   1.918   2.514  0.6747  0.1817 -0.0742
 5376TIP3    H116073   7.001   1.828   2.539 -1.1065  0.4608 -0.6033
 5376TIP3    H216074   7.099   1.907   2.455  0.5141 -0.9461 -0.1006
 5377TIP3   OH216075   1.612   0.880   5.030  0.4054 -0.1692 -0.5630
 5377TIP3    H116076   1.594   0.798   4.984 -2.5821 -0.2638  0.6008
 5377TIP3    H216077   1.666   0.930   4.968 -0.3247 -1.7511 -2.6036
 5378TIP3   OH216078   3.319   1.857   1.212  0.2365  0.0966 -0.1309
 5378TIP3    H116079   3.234   1.885   1.178 -0.5720  0.8900  2.3269
 5378TIP3    H216080   3.382   1.888   1.147 -1.1376  2.0494 -0.6373
 5379TIP3   OH216081   5.639   0.038   5.905 -0.0211 -0.4303  0.6219
 5379TIP3    H116082   5.544   0.044   5.915  0.0635  0.4864  0.9542
 5379TIP3    H216083   5.674   0.054   5.993  0.4678  0.3625  0.3004
 5380TIP3   OH216084   0.346   2.040   5.000 -0.0695  0.3746 -0.4424
 5380TIP3    H116085   0.291   2.029   5.077 -0.5292 -0.1889 -0.8359
 5380TIP3    H216086   0.382   1.953   4.984 -0.0804  0.4528 -0.9270
 5381TIP3   OH216087   4.221   5.271   2.738  0.3466  0.5796 -0.3304
 5381TIP3    H116088   4.175   5.347   2.701  1.5846  2.0924  1.0947
 5381TIP3    H216089   4.313   5.297   2.739  0.7166 -0.6689  0.8559
 5382TIP3   OH216090   0.146   6.347   5.315 -0.0976  0.2241  0.3530
 5382TIP3    H116091   0.063   6.386   5.342  0.5695  2.9952 -1.1390
 5382TIP3    H216092   0.173   6.399   5.239  1.8649 -2.1271 -0.7132
 5383TIP3   OH216093   5.334   2.512   3.259  0.1261 -0.1401 -0.1859
 5383TIP3    H116094   5.260   2.457   3.284 -0.9459  0.5661 -1.6878
 5383TIP3    H216095   5.360   2.556   3.340 -1.5603  0.1265  0.2428
 5384TIP3   OH216096   5.215   4.635   4.859 -0.5361  0.4965 -0.2022
 5384TIP3    H116097   5.248   4.548   4.883 -0.2312  0.4036 -0.9273
 5384TIP3    H216098   5.129   4.618   4.821 -0.3098  0.4638 -0.7095
 5385TIP3   OH216099   5.201   1.157   2.103 -0.3723  0.2098  0.0398
 5385TIP3    H116100   5.220   1.148   2.197  1.3642 -1.5643 -0.4375
 5385TIP3    H216101   5.108   1.133   2.096 -0.4835  0.2033  1.2834
 5386TIP3   OH216102   6.474   6.945   5.600  0.0226  0.0812  0.2074
 5386TIP3    H116103   6.397   6.998   5.577 -0.4537 -0.4430  0.5663
 5386TIP3    H216104   6.510   6.917   5.516  0.5967  1.3951 -0.0194
 5387TIP3   OH216105   0.694   6.960   1.885 -0.6932  0.0633  0.1867
 5387TIP3    H116106   0.611   6.955   1.838  0.1118 -0.9530 -1.2322
 5387TIP3    H216107   0.672   6.944   1.976 -2.1539  0.7406 -0.0222
 5388TIP3   OH216108   2.122   2.876   1.753  0.3515 -0.0318 -0.1249
 5388TIP3    H116109   2.034   2.844   1.733  0.0298  0.5369  0.3264
 5388TIP3    H216110   2.152   2.917   1.672  0.0799  0.0259 -0.1971
 5389TIP3   OH216111   1.387   0.427   3.571 -0.1089  0.2361 -0.2534
 5389TIP3    H116112   1.303   0.393   3.601  0.9015 -2.0246  0.3031
 5389TIP3    H216113   1.446   0.413   3.645  1.0087  0.6777 -1.0372
 5390TIP3   OH216114   6.171   2.620   6.423  0.0816 -0.6346  0.1112
 5390TIP3    H116115   6.237   2.553   6.407  0.5776 -0.3542  0.9459
 5390TIP3    H216116   6.211   2.701   6.393  0.0365 -0.4952  0.4267
 5391TIP3   OH216117   3.461   6.609   5.264  0.0797 -0.0041  0.7464
 5391TIP3    H116118   3.428   6.660   5.190 -1.5152 -1.5698  0.2989
 5391TIP3    H216119   3.508   6.672   5.318 -2.4995  2.1573  0.6807
 5392TIP3   OH216120   2.220   1.763   1.129  0.4264 -0.4486 -0.0690
 5392TIP3    H116121   2.290   1.813   1.171  0.8756 -0.9525 -0.1989
 5392TIP3    H216122   2.248   1.672   1.136  0.2835 -0.5798 -1.0365
 5393TIP3   OH216123   5.942   0.837   0.597 -0.5442  0.0271 -0.2188
 5393TIP3    H116124   6.017   0.852   0.655 -1.1903  0.0622  0.6300
 5393TIP3    H216125   5.901   0.923   0.589  0.7400  0.5244 -2.5121
 5394TIP3   OH216126   4.589   7.050   6.512  0.5070 -0.4802 -0.0174
 5394TIP3    H116127   4.569   7.089   6.427  0.7278  0.3839  0.3157
 5394TIP3    H216128   4.576   7.121   6.575  1.4670 -0.7768  0.5478
 5395TIP3   OH216129   1.158   5.430   2.812  0.7338 -0.1468 -0.3982
 5395TIP3    H116130   1.237   5.374   2.813  0.4234 -0.7598 -2.7624
 5395TIP3    H216131   1.189   5.514   2.844  1.7236 -1.0690  1.2332
 5396TIP3   OH216132   4.960   4.747   4.259 -0.2993  0.2047 -0.0674
 5396TIP3    H116133   4.937   4.840   4.258 -1.0454  0.0597  1.4791
 5396TIP3    H216134   4.878   4.702   4.236 -0.5634 -0.1472  1.4612
 5397TIP3   OH216135   5.051   6.986   2.933 -0.3933  0.1338 -0.0217
 5397TIP3    H116136   5.071   6.958   3.023 -0.0496 -1.2566 -0.4966
 5397TIP3    H216137   4.956   6.983   2.928 -0.5096  1.7229  0.7314
 5398TIP3   OH216138   0.088   6.908   5.572 -0.2547  0.0305  0.2814
 5398TIP3    H116139   0.111   6.817   5.591 -0.7108  0.0173  0.8341
 5398TIP3    H216140   0.062   6.943   5.657 -0.9707  0.4058 -0.0863
 5399TIP3   OH216141   6.979   3.505   4.331 -0.0114 -0.1302 -0.6828
 5399TIP3    H116142   7.051   3.502   4.394  1.0316 -0.2830 -1.8346
 5399TIP3    H216143   6.996   3.431   4.272 -0.6792  0.2909 -1.4279
 5400TIP3   OH216144   6.063   4.249   1.269  0.6445 -0.0485  0.3644
 5400TIP3    H116145   6.155   4.222   1.277  2.0900  4.2725  0.9390
 5400TIP3    H216146   6.058   4.290   1.183 -0.8733 -0.4002  0.2578
 5401TIP3   OH216147   7.223   0.332   1.654  0.7516  0.3953 -0.0207
 5401TIP3    H116148   7.269   0.249   1.667 -0.0571 -0.2471 -1.0480
 5401TIP3    H216149   7.277   0.380   1.592  0.4769 -0.0036 -0.5768
 5402TIP3   OH216150   6.657   7.644   4.516  0.0514 -0.5177  0.0349
 5402TIP3    H116151   6.637   7.554   4.492 -2.3369 -0.2777  0.8446
 5402TIP3    H216152   6.744   7.660   4.481  0.9844 -3.4523  0.7695
 5403TIP3   OH216153   1.390   2.937   5.599  0.1249 -0.4923 -0.0204
 5403TIP3    H116154   1.318   2.972   5.548 -0.5572 -0.4714  0.9334
 5403TIP3    H216155   1.383   2.842   5.589 -1.0686 -0.5910  1.3847
 5404TIP3   OH216156   6.220   5.765   2.578  0.2985  0.1200 -0.0511
 5404TIP3    H116157   6.276   5.834   2.542  1.0930 -0.7546 -0.5252
 5404TIP3    H216158   6.210   5.788   2.670  1.6425  0.1704  0.0957
 5405TIP3   OH216159   6.948   4.213   4.327  0.3458 -0.1848 -1.0700
 5405TIP3    H116160   6.928   4.297   4.286  0.8225  0.2881 -0.3580
 5405TIP3    H216161   7.027   4.230   4.378 -1.3014 -0.1993  1.6749
 5406TIP3   OH216162   7.121   4.445   2.692 -0.8017  0.5631  0.4830
 5406TIP3    H116163   7.054   4.479   2.751  0.1970  3.8810 -0.0520
 5406TIP3    H216164   7.170   4.381   2.744 -2.9594 -0.3145  1.5626
 5407TIP3   OH216165   1.881   5.657   6.788 -0.3775 -0.1031  0.0634
 5407TIP3    H116166   1.827   5.660   6.709  0.4978 -0.2867 -0.5660
 5407TIP3    H216167   1.923   5.743   6.792  0.4182 -0.4633 -0.2950
 5408TIP3   OH216168   5.846   3.387   6.100 -0.0746 -0.1691 -0.1128
 5408TIP3    H116169   5.771   3.437   6.134  0.6337  0.4534  0.5575
 5408TIP3    H216170   5.869   3.327   6.170 -0.1617 -0.6164 -0.4601
 5409TIP3   OH216171   7.993   3.163   5.498 -0.1258  0.1315 -0.3940
 5409TIP3    H116172   7.959   3.099   5.434 -0.4755  1.4269 -1.5597
 5409TIP3    H216173   7.976   3.248   5.457 -0.5782  1.0278  1.5538
 5410TIP3   OH216174   7.115   0.818   2.764  0.2565 -0.1229 -0.1760
 5410TIP3    H116175   7.179   0.757   2.729 -1.6824 -2.2380 -0.2336
 5410TIP3    H216176   7.051   0.829   2.694  0.3012  1.6490  0.0156
 5411TIP3   OH216177   7.831   4.515   2.240 -0.1699  0.6881 -0.7089
 5411TIP3    H116178   7.790   4.577   2.181  1.0391  0.7477 -1.5157
 5411TIP3    H216179   7.773   4.439   2.239 -0.2210  0.7331 -1.8783
 5412TIP3   OH216180   4.784   0.055   5.552  0.2282 -0.6483  0.4964
 5412TIP3    H116181   4.718   0.119   5.528 -0.2311 -1.8282 -1.6343
 5412TIP3    H216182   4.858   0.074   5.493 -0.1670 -2.4227 -0.6405
 5413TIP3   OH216183   0.443   3.391   3.784 -0.5633  0.1953 -0.1557
 5413TIP3    H116184   0.382   3.319   3.800 -0.3546  0.1609  0.5328
 5413TIP3    H216185   0.400   3.468   3.821  0.2669 -0.0225  1.3605
 5414TIP3   OH216186   5.675   7.010   3.260  0.1266 -0.3475  1.0412
 5414TIP3    H116187   5.754   6.958   3.244 -0.1919 -0.0937 -1.8313
 5414TIP3    H216188   5.706   7.100   3.258  0.0429 -0.2999  1.8309
 5415TIP3   OH216189   1.755   5.292   4.116  0.3539  0.5430 -0.1490
 5415TIP3    H116190   1.660   5.286   4.112  0.3553  0.3041  0.0985
 5415TIP3    H216191   1.786   5.244   4.039  0.2570  1.3479 -0.6968
 5416TIP3   OH216192   0.991   5.319   1.579  0.1088 -0.1894  0.6274
 5416TIP3    H116193   0.934   5.303   1.654  0.6791 -0.6633  0.9604
 5416TIP3    H216194   1.068   5.264   1.594  0.6484  0.4260  0.1670
 5417TIP3   OH216195   0.406   1.563   1.757 -0.0666 -0.2489 -0.0500
 5417TIP3    H116196   0.489   1.586   1.716  0.7512  1.6626  2.4112
 5417TIP3    H216197   0.426   1.555   1.850 -2.1421 -2.5823  0.3177
 5418TIP3   OH216198   4.505   6.402   1.554  0.7527 -0.1799 -0.1273
 5418TIP3    H116199   4.414   6.402   1.582  0.8839  0.5065  0.3359
 5418TIP3    H216200   4.552   6.443   1.626  1.4409 -0.5911 -0.3337
 5419TIP3   OH216201   1.855   5.327   6.062 -0.2749 -0.4927  0.5369
 5419TIP3    H116202   1.887   5.399   6.008  1.0150 -1.4698 -0.0443
 5419TIP3    H216203   1.849   5.253   6.002 -3.5372 -0.4558  0.6401
 5420TIP3   OH216204   4.994   4.454   1.529 -0.5113 -0.2413  0.0725
 5420TIP3    H116205   5.013   4.506   1.451  0.4540 -2.5321 -1.3046
 5420TIP3    H216206   5.076   4.410   1.549 -1.0378 -0.5218  1.7601
 5421TIP3   OH216207   8.149   1.073   4.488 -0.5067 -0.5506 -0.5587
 5421TIP3    H116208   8.211   1.143   4.511 -0.3992 -0.3320 -1.4541
 5421TIP3    H216209   8.106   1.050   4.570  0.4892 -0.4321  0.0152
 5422TIP3   OH216210   0.942   2.463   4.569  0.8357  0.0384 -0.2232
 5422TIP3    H116211   0.943   2.509   4.653  0.5250 -0.3220 -0.0178
 5422TIP3    H216212   0.849   2.442   4.555  0.8374  0.4018 -0.8259
 5423TIP3   OH216213   1.222   6.112   0.275 -0.5078 -0.1303  0.3587
 5423TIP3    H116214   1.213   6.106   0.370  0.7425  0.0641  0.5151
 5423TIP3    H216215   1.228   6.206   0.258 -0.2910 -0.1820  0.1447
 5424TIP3   OH216216   7.312   5.581   2.322  0.6370  0.0108 -0.2143
 5424TIP3    H116217   7.226   5.540   2.319  0.0399  1.1871  0.1720
 5424TIP3    H216218   7.371   5.511   2.351 -0.6235 -0.1846  2.0934
 5425TIP3   OH216219   6.465   6.382   0.479 -0.3859 -0.1421  0.1482
 5425TIP3    H116220   6.539   6.434   0.509 -2.5235  3.7846 -0.6774
 5425TIP3    H216221   6.389   6.421   0.523 -2.4000 -1.1530 -2.1970
 5426TIP3   OH216222   3.166   5.653   6.754 -0.1973 -0.4184  0.5190
 5426TIP3    H116223   3.257   5.633   6.776  0.3628  1.8048  0.4699
 5426TIP3    H216224   3.130   5.571   6.721  1.8361 -1.3002  0.3836
 5427TIP3   OH216225   6.736   2.615   1.776  0.3064  0.6625  0.0815
 5427TIP3    H116226   6.777   2.670   1.843  0.5413 -0.6680  1.0686
 5427TIP3    H216227   6.791   2.627   1.698  1.9048 -0.1662  1.0346
 5428TIP3   OH216228   7.818   3.829   1.895 -0.1476  0.7052 -0.2974
 5428TIP3    H116229   7.847   3.815   1.986  0.6720  0.2495 -0.6112
 5428TIP3    H216230   7.737   3.780   1.888  0.5361 -0.4778 -0.1988
 5429TIP3   OH216231   3.050   1.012   3.558 -0.1506  0.0716  0.4146
 5429TIP3    H116232   2.982   1.016   3.491 -0.4858  0.5538  0.7782
 5429TIP3    H216233   3.026   0.938   3.612 -0.4524  0.3070  0.6070
 5430TIP3   OH216234   5.250   2.884   0.856 -0.1254  0.0889  0.7138
 5430TIP3    H116235   5.307   2.880   0.933  2.5164 -0.2110 -1.1528
 5430TIP3    H216236   5.261   2.973   0.822 -1.4083  0.2776  0.7487
 5431TIP3   OH216237   6.488   1.188   3.662  0.0494  0.1013 -0.3736
 5431TIP3    H116238   6.483   1.247   3.587 -2.6748  0.7552  0.1922
 5431TIP3    H216239   6.482   1.246   3.738  0.6339 -0.7031  0.3066
 5432TIP3   OH216240   7.444   0.834   6.694 -0.5058  0.1204 -0.0189
 5432TIP3    H116241   7.380   0.847   6.623 -0.8584 -1.5756 -0.0513
 5432TIP3    H216242   7.423   0.903   6.757 -1.4974  0.4115 -0.6351
 5433TIP3   OH216243   4.030   4.516   4.289  0.0305  0.1449 -0.0759
 5433TIP3    H116244   3.955   4.546   4.237  0.9548  3.0880  0.1428
 5433TIP3    H216245   4.103   4.517   4.228  0.9440  2.7563  0.9157
 5434TIP3   OH216246   6.170   2.412   6.681 -0.0954 -0.2411 -0.0145
 5434TIP3    H116247   6.256   2.453   6.685 -0.0404 -0.4189  0.6615
 5434TIP3    H216248   6.109   2.480   6.710 -0.1169 -0.3226  0.1291
 5435TIP3   OH216249   6.231   4.400   4.186  0.2793  0.0137  0.5317
 5435TIP3    H116250   6.277   4.472   4.228  0.2595  0.4969 -0.2600
 5435TIP3    H216251   6.218   4.428   4.095  0.9531 -1.2902  0.0003
 5436TIP3   OH216252   2.333   5.153   4.548 -0.0090 -0.2538  0.1683
 5436TIP3    H116253   2.359   5.066   4.516 -0.5163  0.4637 -2.4249
 5436TIP3    H216254   2.414   5.191   4.582  0.4275 -1.3462  0.4012
 5437TIP3   OH216255   4.851   1.278   5.978  0.3712 -0.5405  0.0068
 5437TIP3    H116256   4.858   1.307   6.068  2.6793 -1.8316  0.3279
 5437TIP3    H216257   4.847   1.182   5.983  0.4620 -0.6326 -1.2489
 5438TIP3   OH216258   3.867   5.169   2.143  0.3934 -0.2509  0.2784
 5438TIP3    H116259   3.863   5.148   2.050  0.2722  1.1467 -0.0583
 5438TIP3    H216260   3.832   5.258   2.149 -0.9244 -0.8197  1.8442
 5439TIP3   OH216261   5.939   4.426   5.780  0.0295 -0.3284 -0.2191
 5439TIP3    H116262   5.974   4.477   5.707  1.3460 -1.3743 -0.3539
 5439TIP3    H216263   5.882   4.487   5.826 -0.9160  0.3149 -2.1657
 5440TIP3   OH216264   7.853   0.520   1.982 -0.7035  0.3163 -0.1589
 5440TIP3    H116265   7.908   0.525   1.904  1.2276 -1.1977  1.0385
 5440TIP3    H216266   7.861   0.606   2.023 -0.4851  0.6044 -0.7918
 5441TIP3   OH216267   0.754   5.854   1.606  0.3622 -0.0851  0.3482
 5441TIP3    H116268   0.691   5.838   1.676 -2.1259 -2.6087 -2.1944
 5441TIP3    H216269   0.721   5.934   1.563 -1.7949 -1.7983 -1.4319
 5442TIP3   OH216270   6.134   4.978   4.566  0.4702  0.1624 -0.5748
 5442TIP3    H116271   6.154   5.047   4.503 -0.8291  1.8944  0.7998
 5442TIP3    H216272   6.130   5.023   4.650 -2.0096 -1.2869  0.1788
 5443TIP3   OH216273   5.029   2.442   0.428 -0.6841 -0.4271  0.2383
 5443TIP3    H116274   4.968   2.516   0.428 -0.3687 -0.1530 -0.7635
 5443TIP3    H216275   5.033   2.414   0.336  1.0155 -0.1792  0.2199
 5444TIP3   OH216276   4.010   2.159   3.953  0.5054  0.7974 -0.1335
 5444TIP3    H116277   4.054   2.160   3.869 -0.3284  1.5259 -0.5781
 5444TIP3    H216278   3.986   2.251   3.969 -1.0224  0.3951 -0.0143
 5445TIP3   OH216279   5.063   4.418   4.647 -0.0691  0.3359  0.7240
 5445TIP3    H116280   5.002   4.480   4.688 -0.5898  0.7473 -0.6262
 5445TIP3    H216281   5.080   4.454   4.560  2.1207  0.2164  1.0426
 5446TIP3   OH216282   7.322   3.281   6.036 -0.7669 -0.6186  0.3866
 5446TIP3    H116283   7.395   3.296   6.096 -1.1239 -0.4327  0.7725
 5446TIP3    H216284   7.250   3.252   6.092 -0.3048 -3.2060 -0.2248
 5447TIP3   OH216285   0.338   7.146   5.510  0.0628  0.1529  0.0779
 5447TIP3    H116286   0.390   7.066   5.501 -0.1984 -0.3276  2.1995
 5447TIP3    H216287   0.250   7.121   5.482 -0.2963 -0.6903  1.8284
 5448TIP3   OH216288   7.686   3.222   1.991  0.0188  0.4533 -0.7035
 5448TIP3    H116289   7.627   3.150   2.011 -1.7424  1.7061 -1.0726
 5448TIP3    H216290   7.651   3.259   1.910  2.7227 -0.1431 -2.2728
 5449TIP3   OH216291   3.678   4.801   4.638 -0.5828  0.2921  0.3114
 5449TIP3    H116292   3.714   4.837   4.719 -0.5969  0.5624  0.1977
 5449TIP3    H216293   3.583   4.800   4.652 -0.5491 -0.2357  0.5344
 5450TIP3   OH216294   2.933   4.909   5.488  0.0395 -0.7630  0.3573
 5450TIP3    H116295   2.892   4.991   5.517  1.0177  0.0729 -0.5352
 5450TIP3    H216296   2.993   4.886   5.559  0.6434 -0.0513  0.0821
 5451TIP3   OH216297   7.340   0.779   1.377 -0.0184  0.0181 -0.3548
 5451TIP3    H116298   7.403   0.851   1.376 -2.0122  1.8776  0.6384
 5451TIP3    H216299   7.265   0.811   1.327 -1.0914 -1.2260  0.3704
 5452TIP3   OH216300   5.409   1.365   0.731 -0.2732  0.5553  0.3921
 5452TIP3    H116301   5.474   1.371   0.801  2.0260  1.0192 -1.6549
 5452TIP3    H216302   5.396   1.271   0.719  1.3509  0.3637 -0.2297
 5453TIP3   OH216303   1.515   7.555   1.193  0.1592  0.2136  0.1159
 5453TIP3    H116304   1.472   7.469   1.194  0.2674  0.1468 -0.7587
 5453TIP3    H216305   1.603   7.538   1.162  0.3068  0.5923  0.3167
 5454TIP3   OH216306   7.515   1.071   3.739 -0.0633 -0.3626 -0.0339
 5454TIP3    H116307   7.494   0.978   3.742  1.0260 -0.6109  2.1871
 5454TIP3    H216308   7.430   1.115   3.746 -1.0134 -0.9690 -4.5144
 5455TIP3   OH216309   6.661   6.363   2.166 -0.9016  0.2018  0.3407
 5455TIP3    H116310   6.754   6.349   2.184 -0.9924 -1.8272 -0.5161
 5455TIP3    H216311   6.642   6.450   2.201  1.8575  1.6820 -1.5038
 5456TIP3   OH216312   2.491   4.859   5.885 -0.0167  0.0471  0.2896
 5456TIP3    H116313   2.494   4.769   5.916 -0.4028 -0.1015 -0.0896
 5456TIP3    H216314   2.459   4.852   5.795  2.4924  0.3285 -0.7053
 5457TIP3   OH216315   5.549   0.570   3.224 -0.3570 -0.3060  0.2538
 5457TIP3    H116316   5.491   0.510   3.178 -0.4363 -0.3969  0.4689
 5457TIP3    H216317   5.559   0.645   3.165  1.5971 -1.5011 -1.0656
 5458TIP3   OH216318   2.438   1.420   6.284  0.1010  0.4200  0.5439
 5458TIP3    H116319   2.348   1.421   6.318  0.1212  1.3562  0.5978
 5458TIP3    H216320   2.430   1.383   6.196 -0.2370 -0.1266  0.7955
 5459TIP3   OH216321   0.152   7.712   5.100 -0.1445  0.3271  0.6193
 5459TIP3    H116322   0.105   7.767   5.163 -2.1395  1.4347 -1.6785
 5459TIP3    H216323   0.108   7.728   5.017  1.6793 -1.8934 -0.8907
 5460TIP3   OH216324   0.933   2.633   5.655  0.5084  0.6832  0.1730
 5460TIP3    H116325   0.941   2.718   5.698 -2.2318  0.3773  1.4705
 5460TIP3    H216326   0.971   2.571   5.717  1.1436  0.7624 -0.1232
 5461TIP3   OH216327   5.328   5.356   1.146 -0.0677  0.4755  0.0513
 5461TIP3    H116328   5.327   5.294   1.073  0.4530 -0.4194  0.7791
 5461TIP3    H216329   5.240   5.395   1.146  0.1991  1.1456 -1.5689
 5462TIP3   OH216330   4.057   4.910   6.319  0.8638  0.2728 -0.3670
 5462TIP3    H116331   4.070   4.995   6.360  1.8724 -0.2244  0.4201
 5462TIP3    H216332   4.145   4.884   6.291  1.1705 -1.8222  2.1579
 5463TIP3   OH216333   4.153   4.196   2.455  0.0352 -0.1503 -0.1553
 5463TIP3    H116334   4.092   4.270   2.452  0.1973  0.0339  0.8321
 5463TIP3    H216335   4.187   4.189   2.366 -1.3622 -0.2024 -0.7120
 5464TIP3   OH216336   0.695   7.320   6.347  0.0254  0.2727 -0.2797
 5464TIP3    H116337   0.727   7.355   6.264 -0.2743  1.1795 -0.0207
 5464TIP3    H216338   0.775   7.291   6.392  0.4332  1.8378  0.0531
 5465TIP3   OH216339   4.557   7.745   0.255 -0.4758  0.7767  0.4801
 5465TIP3    H116340   4.518   7.679   0.198 -0.2316 -0.1502  1.3323
 5465TIP3    H216341   4.575   7.820   0.198 -1.0730  0.2327 -0.4484
 5466TIP3   OH216342   7.944   1.407   0.823  0.1312  0.2960 -0.2294
 5466TIP3    H116343   7.982   1.493   0.806 -0.1777  0.8781  1.7798
 5466TIP3    H216344   8.016   1.355   0.859  0.2011 -0.1526 -0.9999
 5467TIP3   OH216345   6.358   5.428   2.185  0.0350  0.0053  0.7148
 5467TIP3    H116346   6.334   5.416   2.277 -1.2335  0.3432  0.4517
 5467TIP3    H216347   6.274   5.426   2.138  0.5644  0.8660 -0.3128
 5468TIP3   OH216348   4.801   3.874   1.945 -0.4567  0.0648  0.0256
 5468TIP3    H116349   4.767   3.874   2.035 -0.0996  1.6924  0.1958
 5468TIP3    H216350   4.891   3.842   1.953  0.0061  1.3968  0.4688
 5469TIP3   OH216351   2.768   1.868   1.219 -0.2818 -0.0559  0.2562
 5469TIP3    H116352   2.788   1.863   1.312 -0.5777 -0.4208  0.3029
 5469TIP3    H216353   2.741   1.779   1.195  0.5460 -0.1509 -0.3529
 5470TIP3   OH216354   5.846   4.282   3.965 -0.3298 -0.4563  0.2606
 5470TIP3    H116355   5.763   4.241   3.992  0.8598 -2.8069  0.6406
 5470TIP3    H216356   5.913   4.230   4.009  1.4104  0.4437 -1.2214
 5471TIP3   OH216357   5.480   2.660   3.858  0.1051 -0.1050 -0.2822
 5471TIP3    H116358   5.393   2.644   3.896 -0.7160  1.6705 -1.2958
 5471TIP3    H216359   5.534   2.685   3.933 -0.4895 -0.3418  0.2418
 5472TIP3   OH216360   6.160   1.306   4.024  0.3034  0.2137  0.2216
 5472TIP3    H116361   6.140   1.386   4.074  1.8945  0.7472  0.0622
 5472TIP3    H216362   6.188   1.338   3.938 -1.8431 -0.6706 -0.8935
 5473TIP3   OH216363   7.303   5.693   0.172 -0.3304  0.1109 -0.1566
 5473TIP3    H116364   7.317   5.775   0.219 -2.2483  0.3171  0.1530
 5473TIP3    H216365   7.220   5.660   0.206 -1.0065 -0.5308 -2.2661
 5474TIP3   OH216366   1.539   6.939   2.816  0.1251 -0.0072  0.6312
 5474TIP3    H116367   1.508   6.865   2.764  0.5744  1.2701 -1.6013
 5474TIP3    H216368   1.497   7.015   2.776  0.3329  1.0489  2.3210
 5475TIP3   OH216369   0.848   4.083   0.940 -0.4113  0.3342 -0.1079
 5475TIP3    H116370   0.798   4.162   0.922 -0.7073 -0.1514 -1.5595
 5475TIP3    H216371   0.888   4.099   1.025 -1.8776  1.3186  0.4402
 5476TIP3   OH216372   1.317   4.170   5.042  0.3197 -0.1303 -0.2334
 5476TIP3    H116373   1.329   4.083   5.005  1.2996 -0.0883 -0.0459
 5476TIP3    H216374   1.398   4.187   5.091 -0.7412 -0.0198  1.6008
 5477TIP3   OH216375   5.910   5.351   5.153 -0.2548  0.1963  0.0767
 5477TIP3    H116376   5.823   5.392   5.151 -0.8124 -0.8758  1.0488
 5477TIP3    H216377   5.923   5.318   5.064 -0.0934  1.8053 -0.5373
 5478TIP3   OH216378   7.741   0.337   2.163 -0.3386 -0.2598 -0.4498
 5478TIP3    H116379   7.781   0.401   2.104 -0.5550  0.0165 -0.3039
 5478TIP3    H216380   7.756   0.252   2.122 -2.1790  0.0479 -1.9176
 5479TIP3   OH216381   5.331   3.571   3.673  0.5051  0.1614 -0.3789
 5479TIP3    H116382   5.340   3.659   3.710 -1.0576  0.3445 -0.3787
 5479TIP3    H216383   5.391   3.570   3.598 -0.4340  1.6893 -1.1876
 5480TIP3   OH216384   5.941   0.292   5.166  0.2311  0.0140 -0.0575
 5480TIP3    H116385   5.866   0.348   5.147  0.1761 -0.5335 -1.5928
 5480TIP3    H216386   6.011   0.353   5.191 -0.0453  0.7208 -0.9579
 5481TIP3   OH216387   5.407   5.380   2.778  0.1090  0.3203 -0.3656
 5481TIP3    H116388   5.477   5.424   2.729 -0.1838 -0.0102 -1.0975
 5481TIP3    H216389   5.452   5.309   2.825  0.1995 -0.2248 -1.2532
 5482TIP3   OH216390   7.790   1.605   1.696 -0.1525  0.0169  0.4726
 5482TIP3    H116391   7.702   1.609   1.733 -0.7386 -0.2111 -0.8318
 5482TIP3    H216392   7.805   1.512   1.680 -0.7636  0.2416 -1.7239
 5483TIP3   OH216393   4.218   3.761   4.769  0.0492 -0.0352  0.0848
 5483TIP3    H116394   4.257   3.742   4.854  0.6436  0.7823  0.0025
 5483TIP3    H216395   4.260   3.842   4.740 -1.9245  1.0864  0.1413
 5484TIP3   OH216396   2.044   2.231   3.000  0.4446  0.2445  0.7628
 5484TIP3    H116397   1.955   2.202   3.018  0.2146  0.7013  0.3711
 5484TIP3    H216398   2.090   2.222   3.083  0.2833 -0.8985  0.7425
 5485TIP3   OH216399   7.267   1.995   1.966  0.0899 -0.3686 -0.1846
 5485TIP3    H116400   7.362   2.007   1.968  0.3463 -1.7067 -1.8001
 5485TIP3    H216401   7.231   2.083   1.980  1.5481  0.1619  0.4157
 5486TIP3   OH216402   8.042   2.846   0.342 -0.1843  0.4040  0.0112
 5486TIP3    H116403   8.101   2.882   0.408  0.3951 -1.6714  0.7000
 5486TIP3    H216404   8.098   2.831   0.266  0.2051 -1.4023  0.6070
 5487TIP3   OH216405   1.070   7.840   0.053  0.0665  0.0719  0.0856
 5487TIP3    H116406   1.149   7.819   0.003 -0.3458 -1.1282 -0.0985
 5487TIP3    H216407   1.055   7.762   0.107 -0.7162  0.4911  0.4848
 5488TIP3   OH216408   1.640   0.692   6.331 -0.0398  0.0489 -0.2672
 5488TIP3    H116409   1.555   0.666   6.367 -0.4831  0.3243 -1.0819
 5488TIP3    H216410   1.704   0.653   6.391 -0.7212 -0.9262 -0.1333
 5489TIP3   OH216411   1.025   4.214   2.913 -0.3825 -0.0248 -0.3468
 5489TIP3    H116412   0.986   4.221   3.000 -0.0418  1.1216 -0.2700
 5489TIP3    H216413   1.052   4.122   2.905  0.5172  0.0786  1.1704
 5490TIP3   OH216414   6.666   3.994   6.141  0.1216  0.4586  0.1623
 5490TIP3    H116415   6.581   3.967   6.176  0.4942  0.5246  1.1514
 5490TIP3    H216416   6.709   3.913   6.116 -0.4600  0.4603 -0.9403
 5491TIP3   OH216417   6.799   5.598   1.125  0.0080  0.2598 -0.0588
 5491TIP3    H116418   6.755   5.682   1.136  1.3341  0.7519  2.0217
 5491TIP3    H216419   6.833   5.577   1.212  1.1490 -1.6134 -0.8993
 5492TIP3   OH216420   2.665   7.521   2.399 -0.2297  0.3809  0.5627
 5492TIP3    H116421   2.594   7.461   2.425  0.5833 -1.4149 -1.1001
 5492TIP3    H216422   2.640   7.549   2.311 -0.0712  1.7230  0.9303
 5493TIP3   OH216423   4.307   7.192   0.543 -0.7568  0.1137 -0.0533
 5493TIP3    H116424   4.303   7.102   0.577  0.1392 -0.3202 -1.0462
 5493TIP3    H216425   4.373   7.235   0.598 -0.0357 -0.2983 -0.5860
 5494TIP3   OH216426   4.146   5.107   6.530 -0.0002 -0.2987  0.0087
 5494TIP3    H116427   4.062   5.149   6.517  0.5724  0.3466 -2.0892
 5494TIP3    H216428   4.160   5.108   6.625 -1.8929  0.4375  0.3168
 5495TIP3   OH216429   4.603   5.271   0.465  0.2343  0.2305 -0.3687
 5495TIP3    H116430   4.520   5.320   0.467 -0.3473 -0.5414 -2.4227
 5495TIP3    H216431   4.671   5.339   0.466 -0.4866  0.9791 -0.6997
 5496TIP3   OH216432   1.216   2.695   1.361  0.2740 -0.0119 -0.1674
 5496TIP3    H116433   1.169   2.754   1.302 -2.0426  1.7136  3.0757
 5496TIP3    H216434   1.146   2.651   1.410  2.0501 -1.1941  1.4160
 5497TIP3   OH216435   3.818   0.991   4.093  0.1340 -0.0394 -0.0151
 5497TIP3    H116436   3.832   1.070   4.144 -0.2138 -0.3925  0.6434
 5497TIP3    H216437   3.759   1.018   4.022  0.5330  0.4299 -0.1714
 5498TIP3   OH216438   2.642   2.743   0.934  0.0041 -0.4912 -0.0104
 5498TIP3    H116439   2.714   2.735   0.997 -0.1512 -0.5967  0.1567
 5498TIP3    H216440   2.564   2.716   0.984  0.1325 -2.4155 -0.7479
 5499TIP3   OH216441   4.081   7.108   5.102 -0.0435 -0.2640  0.3801
 5499TIP3    H116442   4.055   7.029   5.149  2.2021 -1.1522  0.2864
 5499TIP3    H216443   4.161   7.082   5.055 -1.0742  1.1157 -2.3700
 5500TIP3   OH216444   7.990   3.604   5.519 -0.3411  0.6359 -0.0348
 5500TIP3    H116445   8.040   3.587   5.599  1.1856  1.0340 -0.8669
 5500TIP3    H216446   7.934   3.678   5.541  0.2835  0.9337  0.5661
 5501TIP3   OH216447   2.534   1.846   2.958 -0.7115  0.0605 -0.6124
 5501TIP3    H116448   2.505   1.908   2.891 -0.1396 -1.5428 -2.4518
 5501TIP3    H216449   2.454   1.810   2.995 -1.0351  0.8371 -0.5441
 5502TIP3   OH216450   6.377   3.056   0.357 -0.1191 -0.2068  0.3083
 5502TIP3    H116451   6.324   3.044   0.436  1.4706 -0.1624  1.4074
 5502TIP3    H216452   6.433   2.978   0.353  1.5625  0.9397  0.6348
 5503TIP3   OH216453   2.347   7.584   6.371 -0.3856  0.0090  0.7141
 5503TIP3    H116454   2.328   7.648   6.440 -0.8112  0.3751  0.2703
 5503TIP3    H216455   2.274   7.523   6.374  0.7204 -1.3225  2.0834
 5504TIP3   OH216456   6.887   4.881   4.768  0.6017  0.4465 -0.1570
 5504TIP3    H116457   6.843   4.965   4.785 -1.0340 -0.4127  0.0547
 5504TIP3    H216458   6.882   4.870   4.673  0.3839  0.3703 -0.1375
 5505TIP3   OH216459   4.427   0.706   2.262 -0.2030 -0.3989  0.0987
 5505TIP3    H116460   4.369   0.699   2.186 -0.7290  2.3972  0.1335
 5505TIP3    H216461   4.515   0.706   2.224 -0.4807  2.2210 -0.7559
 5506TIP3   OH216462   4.118   5.707   4.013  0.3944  0.1108 -0.4521
 5506TIP3    H116463   4.190   5.680   3.956 -0.3246  3.2019 -3.1422
 5506TIP3    H216464   4.128   5.801   4.022 -1.6597  0.2123  1.5689
 5507TIP3   OH216465   4.740   2.511   6.603  0.6511 -0.0305  0.1951
 5507TIP3    H116466   4.753   2.421   6.572  1.5124  0.1342  0.0527
 5507TIP3    H216467   4.679   2.550   6.540 -0.3688 -0.7373  0.7048
 5508TIP3   OH216468   8.265   1.925   3.229  0.4438 -0.3281 -0.3037
 5508TIP3    H116469   8.271   1.908   3.323 -1.4032 -0.8195 -0.2292
 5508TIP3    H216470   8.192   1.987   3.221  1.3647  0.6698 -1.3392
 5509TIP3   OH216471   4.680   5.976   3.035  0.0378 -0.5962  0.0533
 5509TIP3    H116472   4.751   5.966   3.098 -0.4900  0.4369  0.8366
 5509TIP3    H216473   4.659   6.069   3.036 -1.5665 -0.9212  0.1109
 5510TIP3   OH216474   5.810  -0.010   1.295  0.3915  0.1941  0.1285
 5510TIP3    H116475   5.765   0.025   1.218  2.1940  0.9981 -0.6081
 5510TIP3    H216476   5.903  -0.001   1.275  0.9150  0.1184  2.2693
 5511TIP3   OH216477   8.222   6.926   6.421  0.2627 -0.3435 -0.1260
 5511TIP3    H116478   8.269   6.936   6.504 -0.4782  0.2519  0.2318
 5511TIP3    H216479   8.151   6.865   6.440 -1.0980  1.2796  0.2200
 5512TIP3   OH216480   5.166   5.593   0.870 -0.3951  0.2759 -0.7121
 5512TIP3    H116481   5.234   5.635   0.922 -0.4828 -0.5773  0.1057
 5512TIP3    H216482   5.198   5.599   0.780  1.4761 -1.3585 -0.2239
 5513TIP3   OH216483   3.413   4.061   0.424 -0.0303 -0.6873 -0.3853
 5513TIP3    H116484   3.445   4.037   0.337 -0.0124 -0.1221 -0.5424
 5513TIP3    H216485   3.486   4.041   0.483  1.1531  1.7142 -0.8882
 5514TIP3   OH216486   5.576   5.968   4.921  0.1463  0.3830  0.1947
 5514TIP3    H116487   5.513   5.900   4.948 -0.1300 -0.2261 -1.8390
 5514TIP3    H216488   5.551   6.044   4.973 -1.8354 -0.0564  0.0009
 5515TIP3   OH216489   0.856   2.520   2.295  0.2575  0.3420  0.0159
 5515TIP3    H116490   0.788   2.463   2.258 -0.3624  0.3713  1.0670
 5515TIP3    H216491   0.853   2.598   2.240  0.3873 -0.2005 -0.7876
 5516TIP3   OH216492   4.670   7.408   6.150 -0.2129 -0.1349 -0.1405
 5516TIP3    H116493   4.765   7.408   6.139 -0.1102 -1.5315  0.5724
 5516TIP3    H216494   4.654   7.476   6.215  0.1641  0.9385 -1.1330
 5517TIP3   OH216495   6.302   5.214   3.266  0.7395  0.5011  0.8623
 5517TIP3    H116496   6.260   5.242   3.348  1.2286 -1.4135  1.8519
 5517TIP3    H216497   6.322   5.121   3.281 -0.1682 -0.2382 -1.8602
 5518TIP3   OH216498   4.107   1.079   1.044  0.2361  0.3496 -0.4457
 5518TIP3    H116499   4.152   1.081   0.960  1.1436 -1.8664 -0.0772
 5518TIP3    H216500   4.025   1.127   1.029  1.6092  2.4383 -1.7771
 5519TIP3   OH216501   5.461   2.534   1.380  0.6669 -0.0960 -0.2338
 5519TIP3    H116502   5.488   2.442   1.376 -0.1368 -0.4751  1.7424
 5519TIP3    H216503   5.505   2.575   1.306  0.8694 -2.1078 -1.3142
 5520TIP3   OH216504   4.138   1.941   0.828 -0.0390 -0.1256 -0.3240
 5520TIP3    H116505   4.151   1.874   0.895  0.3224 -0.0029 -0.2718
 5520TIP3    H216506   4.223   1.984   0.820 -0.2155  0.1907 -0.5049
 5521TIP3   OH216507   7.167   0.136   0.600  0.5380  0.3595 -0.0002
 5521TIP3    H116508   7.198   0.192   0.672  1.0373 -0.8420  0.7428
 5521TIP3    H216509   7.226   0.060   0.602 -0.0157 -0.1108 -1.1068
 5522TIP3   OH216510   4.766   5.023   2.048 -0.1838 -0.1894 -0.5810
 5522TIP3    H116511   4.782   5.114   2.021 -0.5005 -0.4949 -1.8576
 5522TIP3    H216512   4.835   5.005   2.112  0.7997  0.4898 -1.4072
 5523TIP3   OH216513   7.804   1.552   5.948 -0.4183 -0.4833  0.1940
 5523TIP3    H116514   7.817   1.585   6.037 -2.3111  1.9532 -0.3019
 5523TIP3    H216515   7.864   1.604   5.894 -1.4726  0.3001 -0.2728
 5524TIP3   OH216516   5.016   6.918   5.493 -0.0204 -0.3154  0.0972
 5524TIP3    H116517   5.047   6.889   5.407  0.2705  0.1989  0.0229
 5524TIP3    H216518   4.928   6.882   5.500 -0.2086 -0.0180 -0.5985
 5525TIP3   OH216519   3.937   6.218   5.831 -0.5756  0.3138 -0.4105
 5525TIP3    H116520   3.954   6.123   5.833 -0.5137  0.2796 -1.7730
 5525TIP3    H216521   3.858   6.227   5.779 -0.5064  1.0197 -0.3972
 5526TIP3   OH216522   0.738   1.543   0.827 -0.6198  0.0771 -0.0095
 5526TIP3    H116523   0.775   1.627   0.856  2.0518 -0.9685 -0.1356
 5526TIP3    H216524   0.754   1.483   0.900  0.1774 -0.9967 -1.0362
 5527TIP3   OH216525   0.656   3.983   2.429 -0.4485 -0.0822  0.4383
 5527TIP3    H116526   0.580   3.952   2.381 -0.7212  2.0587 -0.5936
 5527TIP3    H216527   0.621   4.013   2.513 -0.5109 -0.3825  0.5228
 5528TIP3   OH216528   3.634   4.271   4.927 -0.6786 -0.4880 -0.0411
 5528TIP3    H116529   3.686   4.325   4.866 -0.8089 -0.0125  0.2647
 5528TIP3    H216530   3.570   4.228   4.871  1.7216 -3.2973 -0.9093
 5529TIP3   OH216531   1.672   4.269   6.676  0.4589 -0.6548  0.0430
 5529TIP3    H116532   1.707   4.196   6.626 -1.3229 -0.7999 -1.0391
 5529TIP3    H216533   1.593   4.296   6.630  1.4454  2.4988 -0.0844
 5530TIP3   OH216534   1.752   5.570   3.714 -0.0812 -0.5332 -0.2909
 5530TIP3    H116535   1.819   5.503   3.698 -1.3514 -1.2777 -3.1623
 5530TIP3    H216536   1.799   5.653   3.709  1.5356 -1.0544  3.3651
 5531TIP3   OH216537   4.847   6.537   3.246 -0.1751  0.0001  0.3825
 5531TIP3    H116538   4.801   6.540   3.162  0.7407 -0.9543 -0.1814
 5531TIP3    H216539   4.860   6.628   3.270  1.7374  0.3906 -1.7835
 5532TIP3   OH216540   1.110   4.621   0.332 -0.6797  0.7874 -0.2518
 5532TIP3    H116541   1.089   4.621   0.425 -0.4560  1.4096 -0.1969
 5532TIP3    H216542   1.048   4.559   0.293 -1.4535  1.2980  0.1587
 5533TIP3   OH216543   2.376   1.420   6.661 -0.5705  0.3045  0.0963
 5533TIP3    H116544   2.290   1.416   6.619  0.6901 -3.4263 -2.5871
 5533TIP3    H216545   2.377   1.346   6.722  0.2673  1.2619  1.3209
 5534TIP3   OH216546   6.645   1.963   1.654  0.6600  0.1553 -0.4023
 5534TIP3    H116547   6.612   2.050   1.635 -0.4620  0.6548  3.0710
 5534TIP3    H216548   6.734   1.976   1.685  0.6339  0.0164 -0.2658
 5535TIP3   OH216549   3.322   4.734   6.757  0.0585 -0.3505 -0.5310
 5535TIP3    H116550   3.292   4.799   6.694  0.9423  0.9277  0.3143
 5535TIP3    H216551   3.414   4.719   6.736  1.1267  1.9686  1.8383
 5536TIP3   OH216552   2.705   6.566   0.676  0.1489 -0.0613  0.6389
 5536TIP3    H116553   2.658   6.640   0.716 -0.6840 -0.4443  0.4007
 5536TIP3    H216554   2.664   6.489   0.715 -0.7169 -0.4407 -0.9725
 5537TIP3   OH216555   5.882   2.576   4.216  0.0386  0.1137 -0.1588
 5537TIP3    H116556   5.949   2.539   4.274  0.5518 -0.8668 -1.3175
 5537TIP3    H216557   5.800   2.536   4.245 -0.1732  1.6758  1.5712
 5538TIP3   OH216558   7.288   7.437   0.795  0.2031 -0.3304  0.6159
 5538TIP3    H116559   7.345   7.383   0.741 -0.7374  0.1989 -0.9967
 5538TIP3    H216560   7.275   7.386   0.875 -1.5135 -3.0838 -1.2269
 5539TIP3   OH216561   0.057   5.778   0.952 -0.1572  0.5763 -0.7961
 5539TIP3    H116562   0.137   5.727   0.960  0.2117  1.1828 -0.5728
 5539TIP3    H216563   0.057   5.837   1.027 -2.1499 -1.2308  0.7518
 5540TIP3   OH216564   2.030   3.325   1.892  0.5252  0.2548  0.4484
 5540TIP3    H116565   2.061   3.235   1.875  2.8924  0.7947  1.4838
 5540TIP3    H216566   1.950   3.332   1.841  0.1676 -2.4974  0.4403
 5541TIP3   OH216567   5.479   7.125   3.934 -0.6371 -0.6840 -0.1069
 5541TIP3    H116568   5.445   7.078   3.858 -0.2373  0.0959 -0.7880
 5541TIP3    H216569   5.472   7.218   3.909  1.4947 -0.4684 -0.0787
 5542TIP3   OH216570   1.288   0.481   5.814  0.1969 -0.0131  0.0912
 5542TIP3    H116571   1.256   0.500   5.726  0.0516 -1.7834 -0.2914
 5542TIP3    H216572   1.254   0.552   5.869 -2.1680 -0.3862 -0.7798
 5543TIP3   OH216573   1.406   4.318   1.670 -0.0485 -0.1310  0.0203
 5543TIP3    H116574   1.427   4.345   1.759  2.3445  0.5451 -0.6765
 5543TIP3    H216575   1.400   4.400   1.620 -2.4370 -0.4236 -0.3012
 5544TIP3   OH216576   2.903   2.760   4.735 -0.3411  0.0079  0.0003
 5544TIP3    H116577   2.892   2.712   4.816 -1.0472 -0.5520 -0.4119
 5544TIP3    H216578   2.950   2.700   4.677 -0.7178  0.0216 -0.3262
 5545TIP3   OH216579   0.715   3.817   4.895 -0.3960 -0.0911  0.3351
 5545TIP3    H116580   0.791   3.805   4.839  0.6159  1.7085  1.2370
 5545TIP3    H216581   0.751   3.840   4.980 -1.9164  1.2137  0.6852
 5546TIP3   OH216582   2.240   3.141   6.560  0.0004  0.3328  0.4437
 5546TIP3    H116583   2.200   3.065   6.603 -1.3487 -0.8154 -2.5735
 5546TIP3    H216584   2.167   3.188   6.523  1.1259  0.5245 -1.6612
 5547TIP3   OH216585   1.335   0.528   2.934 -0.2104  0.3886  0.4080
 5547TIP3    H116586   1.315   0.548   3.026 -1.2319  0.2213  0.2375
 5547TIP3    H216587   1.423   0.491   2.936  0.2956  1.5564  1.1641
 5548TIP3   OH216588   1.450   4.457   3.550  0.1145  0.4123 -0.5504
 5548TIP3    H116589   1.531   4.429   3.507 -0.1939  0.1362 -0.9582
 5548TIP3    H216590   1.383   4.398   3.515 -0.6288  1.8655 -1.7088
 5549TIP3   OH216591   1.328   3.366   6.170 -0.0500  0.0312  0.4226
 5549TIP3    H116592   1.277   3.422   6.229 -0.4163 -0.3935  0.5081
 5549TIP3    H216593   1.273   3.355   6.093  0.5883  0.9067 -0.1791
 5550TIP3   OH216594   5.848   3.209   4.494 -0.7513  0.0818 -0.0895
 5550TIP3    H116595   5.911   3.255   4.550 -0.5455 -0.1350 -0.1449
 5550TIP3    H216596   5.896   3.189   4.414 -0.6958 -0.6488  0.1157
 5551TIP3   OH216597   4.811   4.042   1.595  0.6021 -0.1593 -0.1273
 5551TIP3    H116598   4.867   4.099   1.542  0.8663  1.0317  1.3343
 5551TIP3    H216599   4.827   4.071   1.685 -2.0103 -0.0676  0.3964
 5552TIP3   OH216600   4.035   2.621   3.208  0.3156 -0.5385  0.5541
 5552TIP3    H116601   4.123   2.590   3.189  0.3077  0.4319 -1.2282
 5552TIP3    H216602   4.046   2.710   3.239 -0.0642 -0.1712 -0.3325
 5553TIP3   OH216603   1.609   2.059   1.798  0.5584 -0.6233 -0.2767
 5553TIP3    H116604   1.651   2.070   1.884 -0.5212  1.1902  0.0882
 5553TIP3    H216605   1.527   2.013   1.817 -0.0587  0.4735 -0.1717
 5554TIP3   OH216606   3.308   1.257   2.165  0.3778  0.3611 -0.2925
 5554TIP3    H116607   3.223   1.274   2.206  0.0765  1.2937 -1.2704
 5554TIP3    H216608   3.297   1.173   2.121  0.4356 -0.2270  0.7743
 5555TIP3   OH216609   7.802   1.406   0.518 -0.0326 -0.7043  0.0886
 5555TIP3    H116610   7.897   1.400   0.529 -0.2755 -2.2776  1.6939
 5555TIP3    H216611   7.778   1.488   0.560  0.5465 -0.5137  0.0601
 5556TIP3   OH216612   6.224   1.189   2.088 -0.1241 -0.5099 -0.1687
 5556TIP3    H116613   6.248   1.278   2.114  1.0910 -0.6967 -0.6087
 5556TIP3    H216614   6.132   1.181   2.113 -0.4666  1.1277 -0.8288
 5557TIP3   OH216615   6.512   6.969   1.740  0.1323 -0.0818 -0.1694
 5557TIP3    H116616   6.540   7.010   1.658 -0.2143  1.1574  0.3036
 5557TIP3    H216617   6.575   6.899   1.755  1.4579  1.0300 -0.4223
 5558TIP3   OH216618   3.103   7.307   1.472 -0.2570 -0.1244 -0.0223
 5558TIP3    H116619   3.015   7.276   1.453  0.0396 -0.7254 -0.4415
 5558TIP3    H216620   3.091   7.378   1.535 -1.1244  0.6029 -0.9700
 5559TIP3   OH216621   2.075   4.688   4.365  0.1239  0.3333 -0.5383
 5559TIP3    H116622   2.094   4.764   4.310 -0.3689 -0.8704 -2.4687
 5559TIP3    H216623   1.980   4.687   4.373  0.1636  0.2261 -0.0552
 5560TIP3   OH216624   2.343   3.756   4.901  0.3262 -0.1232 -0.0832
 5560TIP3    H116625   2.356   3.847   4.875 -1.2497  0.1207 -0.1334
 5560TIP3    H216626   2.314   3.712   4.821 -1.0247 -0.1703  0.4077
 5561TIP3   OH216627   5.236   2.323   5.608 -0.1049 -0.5543 -0.3218
 5561TIP3    H116628   5.207   2.265   5.538  1.6149  0.2737 -1.7737
 5561TIP3    H216629   5.321   2.289   5.634 -0.4023 -0.4247  0.9023
 5562TIP3   OH216630   7.522   3.706   3.861  0.1901 -0.3102 -0.1086
 5562TIP3    H116631   7.588   3.771   3.838 -0.4328  0.2043 -0.4651
 5562TIP3    H216632   7.440   3.740   3.825  0.1006 -2.0526 -1.6668
 5563TIP3   OH216633   4.214   1.098   4.899 -0.1881  0.2327 -0.4541
 5563TIP3    H116634   4.170   1.141   4.973 -1.4614 -1.1409 -0.3561
 5563TIP3    H216635   4.280   1.161   4.870 -1.9717  2.2712 -0.3590
 5564TIP3   OH216636   4.226   3.500   6.016  0.6211  0.3183 -0.0250
 5564TIP3    H116637   4.303   3.556   6.023  1.1502 -0.1132 -1.8372
 5564TIP3    H216638   4.165   3.534   6.082  1.0975  2.7122 -0.7219
 5565TIP3   OH216639   6.014   6.842   2.596 -0.3623  0.1429 -0.0851
 5565TIP3    H116640   5.980   6.760   2.561 -0.2630  0.2569 -0.4577
 5565TIP3    H216641   6.080   6.869   2.533  1.1648 -0.5818  1.1238
 5566TIP3   OH216642   0.321   0.100   6.081 -0.5080  0.0097 -0.1492
 5566TIP3    H116643   0.248   0.050   6.042  0.4489 -1.6557  0.0819
 5566TIP3    H216644   0.390   0.095   6.015 -0.1843  0.5189  0.1496
 5567TIP3   OH216645   2.299   3.911   5.164 -0.0750 -0.7815 -0.2207
 5567TIP3    H116646   2.335   3.850   5.099  2.0500 -0.6667  0.7592
 5567TIP3    H216647   2.218   3.944   5.125 -1.5144 -4.4117 -0.6879
 5568TIP3   OH216648   1.545   6.599   6.454 -0.6403  0.0549  0.2378
 5568TIP3    H116649   1.477   6.545   6.414 -1.3759 -0.4765  2.1374
 5568TIP3    H216650   1.524   6.688   6.428  1.5438 -0.4434 -4.4247
 5569TIP3   OH216651   3.570   5.706   6.096 -0.5330 -0.3980 -0.5857
 5569TIP3    H116652   3.639   5.770   6.077 -1.0455  0.4972  0.5072
 5569TIP3    H216653   3.488   5.755   6.087 -0.9683 -1.0693 -0.3818
 5570TIP3   OH216654   4.039   5.779   1.811 -0.3752 -0.1880  0.0608
 5570TIP3    H116655   4.094   5.723   1.755 -0.4554  0.8842 -1.1484
 5570TIP3    H216656   3.978   5.820   1.750 -0.4675  1.0222  0.9452
 5571TIP3   OH216657   2.383   5.523   1.579 -0.3991  0.7376  0.0093
 5571TIP3    H116658   2.326   5.534   1.655  1.2839  1.3371  1.2613
 5571TIP3    H216659   2.420   5.610   1.565 -0.6749  0.6334 -1.5218
 5572TIP3   OH216660   4.819   7.757   1.211 -0.2642 -0.3671  0.9002
 5572TIP3    H116661   4.810   7.681   1.154 -0.3812  0.0113  0.4141
 5572TIP3    H216662   4.754   7.820   1.180  1.5001  0.9431 -0.3402
 5573TIP3   OH216663   7.921   0.937   2.405 -0.7022 -0.0186 -0.1710
 5573TIP3    H116664   7.975   1.015   2.417  1.7764 -1.3612 -1.7206
 5573TIP3    H216665   7.853   0.964   2.343 -0.2165  1.0520 -0.2560
 5574TIP3   OH216666   8.167   4.861   4.658 -0.2076  0.6641 -0.2241
 5574TIP3    H116667   8.168   4.807   4.737  3.3289  1.2597  0.2884
 5574TIP3    H216668   8.195   4.801   4.588  3.9595  1.5918  0.3855
 5575TIP3   OH216669   7.081   7.078   2.595 -0.6319 -0.1114  0.2637
 5575TIP3    H116670   7.127   6.996   2.576  0.2948  0.2841  0.7090
 5575TIP3    H216671   7.142   7.127   2.650 -2.5775 -0.6124  3.0955
 5576TIP3   OH216672   4.057   6.382   5.456  0.1569  0.6822  0.4379
 5576TIP3    H116673   4.111   6.315   5.414 -1.0174  0.6888 -1.1417
 5576TIP3    H216674   3.968   6.349   5.448 -0.3868  2.1580  0.1817
 5577TIP3   OH216675   0.977   7.426   4.881 -0.2547 -0.0114 -0.4756
 5577TIP3    H116676   0.943   7.495   4.824  1.6573  0.0463 -1.6181
 5577TIP3    H216677   1.019   7.474   4.953  0.3045 -0.0023 -0.8074
 5578TIP3   OH216678   5.208   4.899   6.455 -0.4620 -0.0257 -0.5327
 5578TIP3    H116679   5.118   4.873   6.476 -0.8251  0.1340 -1.7744
 5578TIP3    H216680   5.250   4.818   6.425 -0.3504  0.0050 -0.4602
 5579TIP3   OH216681   0.945   4.723   4.498 -0.2651  0.7763  0.4692
 5579TIP3    H116682   0.915   4.659   4.434  0.5550  0.7284  0.1247
 5579TIP3    H216683   1.030   4.752   4.466 -0.0661  1.1255  1.2757
 5580TIP3   OH216684   7.740   5.292   3.100 -0.4102  0.0039  0.9689
 5580TIP3    H116685   7.763   5.251   3.016 -0.4880  0.3859  0.7613
 5580TIP3    H216686   7.650   5.266   3.116 -0.1450 -0.7350  1.3330
 5581TIP3   OH216687   5.160   0.690   3.881  0.1981  0.7176  0.3473
 5581TIP3    H116688   5.187   0.707   3.791 -3.1577  3.1237 -0.4210
 5581TIP3    H216689   5.078   0.641   3.873  0.0254  0.6251  2.1150
 5582TIP3   OH216690   6.880   2.548   5.240 -0.1238  0.3898 -0.4016
 5582TIP3    H116691   6.884   2.644   5.241  0.5205  0.4525 -3.1485
 5582TIP3    H216692   6.790   2.528   5.216 -0.6639  0.2039  1.5661
 5583TIP3   OH216693   0.195   6.081   1.453  0.4642 -0.0211 -0.2013
 5583TIP3    H116694   0.153   6.159   1.417 -0.2789 -0.8774 -1.2436
 5583TIP3    H216695   0.201   6.099   1.547  2.1137  2.1084 -0.6256
 5584TIP3   OH216696   6.060   5.671   6.633 -0.3735  0.6901 -0.2350
 5584TIP3    H116697   6.138   5.718   6.602  0.7996 -0.7660  0.3727
 5584TIP3    H216698   6.056   5.593   6.578 -1.0844  0.4684  0.1257
 5585TIP3   OH216699   1.815   2.010   2.381 -0.5738  0.3004  0.1701
 5585TIP3    H116700   1.793   2.103   2.394  0.7462  0.7460 -0.5764
 5585TIP3    H216701   1.771   1.965   2.453 -0.9930  1.5393  0.7293
 5586TIP3   OH216702   3.482   6.189   0.434  0.6476 -0.1301 -0.3973
 5586TIP3    H116703   3.430   6.255   0.389 -0.5589 -0.9192 -0.1929
 5586TIP3    H216704   3.571   6.224   0.434 -0.1607  2.1130  0.8582
 5587TIP3   OH216705   5.429   1.910   2.522 -0.4246 -0.0428 -0.2636
 5587TIP3    H116706   5.376   1.989   2.526  0.5922  0.8460 -2.6324
 5587TIP3    H216707   5.366   1.839   2.505 -1.0583  0.7820 -1.5290
 5588TIP3   OH216708   4.448   4.488   4.119  0.1752 -0.2203 -0.4207
 5588TIP3    H116709   4.424   4.472   4.028  0.2347 -1.7306 -0.1926
 5588TIP3    H216710   4.486   4.405   4.149 -0.7102 -0.0585  1.2651
 5589TIP3   OH216711   8.268   1.308   3.095 -0.0886 -0.1537  0.1942
 5589TIP3    H116712   8.250   1.400   3.112 -0.4555 -0.3184  0.7225
 5589TIP3    H216713   8.349   1.289   3.143  0.9765  0.3291 -1.3519
 5590TIP3   OH216714   5.576   6.805   3.081 -0.0952 -0.0597 -0.3805
 5590TIP3    H116715   5.580   6.878   3.143  0.8829 -0.5862  0.2184
 5590TIP3    H216716   5.524   6.738   3.127 -0.1833 -0.0922 -0.5284
 5591TIP3   OH216717   0.910   4.629   3.975 -0.0128 -0.2572 -0.0873
 5591TIP3    H116718   0.917   4.545   4.020  2.8715  0.1633  0.4536
 5591TIP3    H216719   0.945   4.612   3.887  3.3474  0.8261  0.8832
 5592TIP3   OH216720   6.484   0.988   6.684  0.5149 -0.0422  0.8112
 5592TIP3    H116721   6.394   0.958   6.696  0.3950 -1.1472 -2.1119
 5592TIP3    H216722   6.537   0.908   6.694  0.9051  0.1081 -0.0032
 5593TIP3   OH216723   2.976   0.679   3.611  0.1606  0.5363 -0.0254
 5593TIP3    H116724   2.896   0.725   3.633 -2.7237 -4.1021  0.5017
 5593TIP3    H216725   3.015   0.655   3.696  1.7458  1.9763 -0.2833
 5594TIP3   OH216726   2.103   6.145   6.317 -0.4404 -0.1150  0.3294
 5594TIP3    H116727   2.160   6.099   6.378 -0.4123  0.6707  0.9207
 5594TIP3    H216728   2.069   6.077   6.259  0.2843 -0.7385  0.6195
 5595TIP3   OH216729   7.042   6.568   3.833 -0.1555 -0.2427  0.6364
 5595TIP3    H116730   7.121   6.547   3.784  0.6249  0.9604  1.3071
 5595TIP3    H216731   7.073   6.586   3.922 -0.9668  1.7032  0.5703
 5596TIP3   OH216732   3.111   6.288   2.799 -0.5465  0.1559 -0.6603
 5596TIP3    H116733   3.170   6.360   2.820 -0.6088  0.0083  0.0144
 5596TIP3    H216734   3.122   6.276   2.704 -0.9385  1.4023 -0.8771
 5597TIP3   OH216735   1.055   3.276   1.130  0.0065 -0.6451 -0.3171
 5597TIP3    H116736   1.107   3.227   1.195  0.4175  0.7479  0.4431
 5597TIP3    H216737   1.080   3.367   1.143 -1.3559 -0.1233 -1.1415
 5598TIP3   OH216738   5.499   7.100   6.563 -0.2446  0.7037  0.2517
 5598TIP3    H116739   5.407   7.091   6.589 -0.0874 -0.4619  0.4596
 5598TIP3    H216740   5.496   7.154   6.484 -1.3604 -1.1681 -1.0822
 5599TIP3   OH216741   2.393   7.477   1.663 -0.2214  0.3717  0.4441
 5599TIP3    H116742   2.299   7.461   1.669  0.1503 -2.4377  0.1649
 5599TIP3    H216743   2.427   7.455   1.749  0.0164  3.6340  1.3138
 5600TIP3   OH216744   5.741   7.224   4.250  0.2115 -0.1786  0.4301
 5600TIP3    H116745   5.791   7.150   4.285  0.5655 -0.1256  0.0426
 5600TIP3    H216746   5.779   7.301   4.293 -0.8782 -0.2962  1.6674
 5601TIP3   OH216747   5.047   6.121   4.298 -0.3639 -0.1424  0.2546
 5601TIP3    H116748   5.073   6.060   4.367  0.1113 -0.7918 -0.4849
 5601TIP3    H216749   5.053   6.071   4.217 -0.7414  0.6579 -0.2918
 5602TIP3   OH216750   4.519   4.241   4.239  0.4484 -0.1253  0.3089
 5602TIP3    H116751   4.446   4.181   4.228  1.1794 -1.0045  0.0875
 5602TIP3    H216752   4.597   4.186   4.230  1.1407  0.7224  0.8759
 5603TIP3   OH216753   7.419   6.349   5.166  0.0883 -0.3291  0.2415
 5603TIP3    H116754   7.427   6.274   5.225  1.0691 -0.5704 -0.1820
 5603TIP3    H216755   7.496   6.344   5.110  0.1287  0.9501  0.1451
 5604TIP3   OH216756   4.300   0.274   3.435  0.0429  0.2280 -0.1886
 5604TIP3    H116757   4.241   0.198   3.437  1.1703 -0.6717  0.3187
 5604TIP3    H216758   4.384   0.238   3.407  0.6666  1.2603  0.2964
 5605TIP3   OH216759   0.854   1.476   1.458 -0.2582  0.0272 -0.0202
 5605TIP3    H116760   0.791   1.489   1.387 -0.2434  1.1595  0.1455
 5605TIP3    H216761   0.888   1.564   1.475 -0.1187 -0.2603  1.2540
 5606TIP3   OH216762   1.144   4.248   3.528  0.1157  0.1968 -0.0710
 5606TIP3    H116763   1.091   4.318   3.491 -0.0193 -0.0408 -0.3287
 5606TIP3    H216764   1.206   4.224   3.458 -0.4774 -0.6031 -0.3385
 5607TIP3   OH216765   7.513   3.127   1.790  0.3995 -0.9510  0.6182
 5607TIP3    H116766   7.520   3.119   1.694  0.5208 -1.2674  0.6529
 5607TIP3    H216767   7.464   3.050   1.817 -1.0166 -0.0905  0.6558
 5608TIP3   OH216768   3.414   3.753   1.259  0.1071 -0.5023 -0.3400
 5608TIP3    H116769   3.484   3.692   1.239  1.7155  1.8591 -2.5403
 5608TIP3    H216770   3.334   3.709   1.230  1.0309 -2.0095 -0.7106
 5609TIP3   OH216771   7.443   6.881   4.493 -0.0491  0.1690 -0.6024
 5609TIP3    H116772   7.462   6.831   4.413 -0.7485  0.1405 -0.7602
 5609TIP3    H216773   7.456   6.819   4.564 -0.0870  0.0015 -0.7415
 5610TIP3   OH216774   0.374   4.351   3.683  0.0511 -0.0649 -0.0052
 5610TIP3    H116775   0.280   4.332   3.689  0.5947 -2.8319  1.6882
 5610TIP3    H216776   0.383   4.438   3.722 -1.8491  0.5234 -0.7409
 5611TIP3   OH216777   6.229   7.449   2.909 -0.1716 -0.1669 -0.5020
 5611TIP3    H116778   6.138   7.433   2.934 -0.1079  0.2208 -0.0102
 5611TIP3    H216779   6.241   7.543   2.919  0.1931 -0.1666 -0.8899
 5612TIP3   OH216780   5.495   4.189   6.387 -0.0426  0.0945 -0.4240
 5612TIP3    H116781   5.504   4.198   6.293  0.2508 -0.7678 -0.4851
 5612TIP3    H216782   5.420   4.245   6.410 -0.5499 -0.2324 -1.2556
 5613TIP3   OH216783   1.686   2.759   3.176  0.3265 -0.0799 -0.1821
 5613TIP3    H116784   1.773   2.727   3.152  1.3296  2.7903 -0.7431
 5613TIP3    H216785   1.693   2.778   3.270  0.5679  0.8746 -0.3881
 5614TIP3   OH216786   2.320   2.262   5.768  0.2240  0.1953  0.1236
 5614TIP3    H116787   2.289   2.284   5.681  1.8155  2.3094  0.0052
 5614TIP3    H216788   2.241   2.242   5.818 -0.9647  1.6934 -1.0834
 5615TIP3   OH216789   5.124   0.285   3.454 -0.2381  0.0520  0.2513
 5615TIP3    H116790   5.071   0.271   3.375  0.1750 -0.8034  0.1151
 5615TIP3    H216791   5.063   0.324   3.517 -0.4317  1.3118 -0.6616
 5616TIP3   OH216792   0.379   7.317   2.256 -0.1301 -0.3155 -0.5828
 5616TIP3    H116793   0.468   7.350   2.262  0.6345 -1.6412 -3.0642
 5616TIP3    H216794   0.333   7.381   2.202 -0.8637  0.6025  1.0690
 5617TIP3   OH216795   6.885   2.990   6.515  0.0530  0.9233 -0.2050
 5617TIP3    H116796   6.914   2.974   6.425 -2.3461 -1.6835 -0.6701
 5617TIP3    H216797   6.900   2.906   6.559 -1.1888  1.3511  1.0888
 5618TIP3   OH216798   2.987   5.405   1.359  0.2308 -0.0555 -0.1087
 5618TIP3    H116799   2.956   5.464   1.290  0.4575 -0.9650 -1.0032
 5618TIP3    H216800   3.030   5.333   1.312 -0.6177 -1.2743  0.9190
 5619TIP3   OH216801   7.879   3.039   0.810  0.5449  0.1052  0.2156
 5619TIP3    H116802   7.937   3.003   0.743  2.2143  1.2516  0.9790
 5619TIP3    H216803   7.909   3.129   0.822 -0.1288  0.1208  2.0490
 5620TIP3   OH216804   4.852   3.223   1.751  0.2170  0.2220 -0.1389
 5620TIP3    H116805   4.760   3.199   1.734  0.7240 -0.9632 -1.4873
 5620TIP3    H216806   4.875   3.282   1.679  1.2914 -1.7677 -1.5279
 5621TIP3   OH216807   4.268   6.425   3.814  0.5014  0.4187  0.0126
 5621TIP3    H116808   4.353   6.394   3.846  0.7754 -1.5262 -2.3254
 5621TIP3    H216809   4.204   6.367   3.857  0.4047  1.2798  1.0588
 5622TIP3   OH216810   0.625   3.683   5.708  0.1456 -0.1650  0.2534
 5622TIP3    H116811   0.714   3.656   5.684 -0.4837 -0.8906 -1.4102
 5622TIP3    H216812   0.634   3.716   5.798  2.2365  0.5673 -0.1508
 5623TIP3   OH216813   2.221   0.958   1.532  0.4330 -0.0123 -0.2406
 5623TIP3    H116814   2.139   0.930   1.492  0.1222  0.9401 -0.3012
 5623TIP3    H216815   2.201   0.968   1.625  1.0493 -1.8205  0.1322
 5624TIP3   OH216816   7.065   5.274   5.910  0.1433 -0.1713  0.7499
 5624TIP3    H116817   7.144   5.321   5.885  0.5423 -1.0906  0.2328
 5624TIP3    H216818   6.999   5.342   5.922  0.1754  0.4115 -1.8650
 5625TIP3   OH216819   3.717   3.664   0.615  0.4352 -0.0895  0.0184
 5625TIP3    H116820   3.806   3.699   0.623  0.5847 -0.1493 -1.2289
 5625TIP3    H216821   3.682   3.705   0.536 -1.0848  0.8395  1.1185
 5626TIP3   OH216822   3.361   0.890   2.966  0.2506  0.3150 -0.1862
 5626TIP3    H116823   3.342   0.974   3.007  1.4933  1.0061 -0.9495
 5626TIP3    H216824   3.432   0.853   3.019  0.8820  0.5571 -0.8392
 5627TIP3   OH216825   4.657   0.165   1.439  0.0024 -0.4268  0.5358
 5627TIP3    H116826   4.660   0.098   1.507  1.5166 -0.2514  0.6868
 5627TIP3    H216827   4.739   0.213   1.449 -1.2084  1.7498  0.7136
 5628TIP3   OH216828   4.889   2.551   1.328 -0.3895  0.0689 -0.1561
 5628TIP3    H116829   4.874   2.458   1.311 -0.4856  0.1335 -0.4253
 5628TIP3    H216830   4.960   2.552   1.393 -1.2637 -0.2265  0.8269
 5629TIP3   OH216831   5.734   1.901   3.881  0.3600 -0.6030  0.0297
 5629TIP3    H116832   5.758   1.993   3.893  0.4067 -0.6425  0.2429
 5629TIP3    H216833   5.817   1.858   3.860  0.6697 -0.9141  1.7575
 5630TIP3   OH216834  -0.028   7.414   2.343  0.0951 -0.6543 -0.0764
 5630TIP3    H116835  -0.004   7.322   2.348 -0.0300 -0.7049 -0.3908
 5630TIP3    H216836   0.053   7.458   2.315  0.5785 -0.4691  1.5279
 5631TIP3   OH216837   5.181   3.306   0.288 -0.2774 -0.0584  0.2538
 5631TIP3    H116838   5.260   3.300   0.235 -0.5394  0.5149 -0.2131
 5631TIP3    H216839   5.205   3.363   0.361  0.4059 -1.7096  1.3746
 5632TIP3   OH216840   8.256   1.541   5.813  0.7661  0.2830 -0.2010
 5632TIP3    H116841   8.344   1.507   5.796 -0.3098 -1.8362 -2.1040
 5632TIP3    H216842   8.205   1.463   5.835 -0.5568  1.5402  1.3704
 5633TIP3   OH216843   8.251   3.355   2.982  0.4334  0.0403 -0.0262
 5633TIP3    H116844   8.329   3.335   3.034 -0.3211 -0.0708  1.0985
 5633TIP3    H216845   8.191   3.282   2.999  0.3388 -0.2645 -1.4689
 5634TIP3   OH216846   5.960   4.828   2.352  0.9062  0.0710  0.0917
 5634TIP3    H116847   5.922   4.750   2.393  0.7517 -0.2778 -0.6959
 5634TIP3    H216848   5.926   4.901   2.405 -0.6995 -0.2446 -0.4283
 5635TIP3   OH216849   4.419   7.206   1.436  0.1610 -0.0113 -0.0503
 5635TIP3    H116850   4.390   7.118   1.411  0.2855  0.5154 -2.2090
 5635TIP3    H216851   4.355   7.265   1.396  1.1299  0.9492 -0.2277
 5636TIP3   OH216852   0.812   3.543   6.644  0.7304  0.4927  0.1306
 5636TIP3    H116853   0.834   3.451   6.655  2.3011  0.5347 -1.9054
 5636TIP3    H216854   0.738   3.543   6.584  1.4503  0.5335 -0.7889
 5637TIP3   OH216855   1.226   3.586   1.625 -0.3308  0.1624 -0.2114
 5637TIP3    H116856   1.178   3.608   1.545  0.7835  0.0926 -0.9125
 5637TIP3    H216857   1.303   3.643   1.624  0.2258 -0.5581  0.2849
 5638TIP3   OH216858   5.343   0.200   6.792  0.1589  0.3340  0.3086
 5638TIP3    H116859   5.345   0.229   6.700  0.4528 -0.8088 -0.0590
 5638TIP3    H216860   5.421   0.241   6.831  0.3531  0.3617 -0.0967
 5639TIP3   OH216861   0.978   3.073   5.056  0.3998 -0.0041  0.8134
 5639TIP3    H116862   0.966   3.160   5.093 -0.5780  0.4099 -0.4108
 5639TIP3    H216863   0.897   3.056   5.008  1.3112 -0.8057 -0.5109
 5640TIP3   OH216864   1.622   4.697   1.959  0.0518 -0.0637 -0.7676
 5640TIP3    H116865   1.601   4.680   1.867 -3.1746  0.8650 -0.3048
 5640TIP3    H216866   1.603   4.790   1.971 -1.6139 -0.6181  1.3018
 5641TIP3   OH216867   2.380   4.185   1.067 -0.0253  0.6547 -0.2102
 5641TIP3    H116868   2.446   4.245   1.103 -0.7676  0.2794  1.9480
 5641TIP3    H216869   2.313   4.243   1.030  0.2444  1.1038 -0.0067
 5642TIP3   OH216870   4.585   5.683   5.877 -0.3166 -0.1751  0.1760
 5642TIP3    H116871   4.644   5.751   5.909  0.4370 -1.1670  0.9576
 5642TIP3    H216872   4.513   5.682   5.939 -0.3966  0.0067  0.0856
 5643TIP3   OH216873   7.354   7.190   1.838  0.0568  0.1630  0.4128
 5643TIP3    H116874   7.385   7.160   1.924  0.4133  0.0126  0.2356
 5643TIP3    H216875   7.261   7.208   1.851  0.3244  1.1961  1.1188
 5644TIP3   OH216876   8.254   5.522   2.039 -0.0755 -0.6442  0.1303
 5644TIP3    H116877   8.194   5.594   2.056 -1.5076 -1.7474 -0.0471
 5644TIP3    H216878   8.249   5.508   1.944  1.3938  0.0075 -0.0677
 5645TIP3   OH216879   2.040   4.414   0.100 -0.3264  0.6467  0.0489
 5645TIP3    H116880   2.074   4.438   0.187 -1.0686 -0.6665  0.7398
 5645TIP3    H216881   1.955   4.457   0.095  0.6248  2.5080 -0.9632
 5646TIP3   OH216882   2.775   1.638   0.516  0.0299  0.4145  0.9813
 5646TIP3    H116883   2.843   1.577   0.545  0.4754  0.5877  0.3211
 5646TIP3    H216884   2.814   1.725   0.525  0.0878  0.4893  0.1440
 5647TIP3   OH216885   0.265   1.389   4.999 -0.2591 -0.2115  0.2166
 5647TIP3    H116886   0.290   1.479   4.976 -0.3185 -0.0938  0.5965
 5647TIP3    H216887   0.347   1.339   4.990  0.1214  0.1653  1.4149
 5648TIP3   OH216888   5.114   5.140   4.949 -0.0431 -0.0281  0.2279
 5648TIP3    H116889   5.175   5.212   4.935  0.3535 -0.3482  0.2978
 5648TIP3    H216890   5.150   5.091   5.022 -0.2728 -0.3413  0.1367
 5649TIP3   OH216891   0.574   5.159   3.865  0.0160 -0.6754 -0.2922
 5649TIP3    H116892   0.506   5.225   3.881  0.8844  0.6730 -1.8536
 5649TIP3    H216893   0.632   5.166   3.940  1.2950  1.9766 -1.3987
 5650TIP3   OH216894   0.761   6.695   1.804 -0.1429 -0.1072  0.0983
 5650TIP3    H116895   0.777   6.789   1.811 -0.0806 -0.2398  2.5582
 5650TIP3    H216896   0.766   6.677   1.710  1.7518  2.0026 -0.2966
 5651TIP3   OH216897   1.364   4.517   0.287  0.6010 -0.2740  0.1886
 5651TIP3    H116898   1.277   4.554   0.299  0.6926 -0.1972  0.6323
 5651TIP3    H216899   1.350   4.441   0.230  0.2911 -0.0793 -0.0004
 5652TIP3   OH216900   0.994   7.403   6.735  0.1650  0.5685 -0.7256
 5652TIP3    H116901   0.988   7.492   6.770 -0.4526  0.8841 -1.5983
 5652TIP3    H216902   1.004   7.348   6.812  0.4928  1.3877 -0.1658
 5653TIP3   OH216903   0.131   0.634   0.285  0.0862 -0.1351  0.3720
 5653TIP3    H116904   0.188   0.656   0.359  1.0120 -1.7725  0.1916
 5653TIP3    H216905   0.043   0.655   0.316  0.5287 -0.0875  1.6589
 5654TIP3   OH216906   7.070   7.503   3.383  0.8260  0.0558 -0.6623
 5654TIP3    H116907   7.019   7.425   3.405  0.9858  0.3115  0.6999
 5654TIP3    H216908   7.090   7.493   3.290 -0.0779 -0.9865 -0.7656
 5655TIP3   OH216909   5.120   7.219   3.240 -0.2973 -0.0232 -0.6771
 5655TIP3    H116910   5.195   7.195   3.294 -1.1586  2.8443  2.0751
 5655TIP3    H216911   5.158   7.243   3.155  1.5680 -0.9846 -0.1644
 5656TIP3   OH216912   0.525   2.781   5.381 -0.1466  0.2635 -0.7159
 5656TIP3    H116913   0.580   2.703   5.387 -0.4053  0.1897  1.3691
 5656TIP3    H216914   0.486   2.777   5.293 -0.6178 -2.2487 -0.4549
 5657TIP3   OH216915   4.261   1.034   2.677 -0.4013  0.0595  0.3305
 5657TIP3    H116916   4.277   1.127   2.660 -0.0841  0.1478  1.1029
 5657TIP3    H216917   4.265   0.994   2.590 -3.0700  1.1082 -0.3793
 5658TIP3   OH216918   7.216   2.202   3.759 -0.1759 -0.3912  0.3875
 5658TIP3    H116919   7.242   2.115   3.731  1.2361 -0.4635  1.8020
 5658TIP3    H216920   7.296   2.241   3.795 -0.8460  1.3754  0.0723
 5659TIP3   OH216921   1.254   4.398   4.029 -0.1136 -0.3649 -0.1689
 5659TIP3    H116922   1.180   4.367   3.977 -0.8388 -0.4248  0.8645
 5659TIP3    H216923   1.304   4.453   3.969 -0.4190 -1.1561 -1.1825
 5660TIP3   OH216924   3.692   6.083   5.333 -0.1905 -0.2416 -0.2457
 5660TIP3    H116925   3.728   6.144   5.398 -2.6711  0.2353  0.8399
 5660TIP3    H216926   3.726   5.997   5.359  1.1469  0.3232 -0.0866
 5661TIP3   OH216927   0.307   2.147   5.966  0.2263  0.1709 -0.2710
 5661TIP3    H116928   0.359   2.194   5.901  0.9444  0.4920  0.5166
 5661TIP3    H216929   0.251   2.213   6.006 -0.0384  0.0225 -0.3935
 5662TIP3   OH216930   3.005   1.408   6.456  0.8427 -0.1928 -0.7094
 5662TIP3    H116931   2.955   1.374   6.382  0.8323 -0.1931 -0.7023
 5662TIP3    H216932   2.998   1.503   6.448 -0.2153 -0.2000  0.0084
 5663TIP3   OH216933   2.215   6.530   4.041 -0.1338 -0.1848  0.0290
 5663TIP3    H116934   2.163   6.458   4.075  0.9489 -0.0033  2.2987
 5663TIP3    H216935   2.215   6.595   4.112  1.5275  0.6440 -0.6587
 5664TIP3   OH216936   5.404   2.588   5.843 -0.1302  0.2394  0.6638
 5664TIP3    H116937   5.426   2.628   5.927 -0.5507  0.1506  0.8185
 5664TIP3    H216938   5.487   2.556   5.809  0.1313  0.7733  0.7876
 5665TIP3   OH216939   7.162   0.670   2.197  0.1828 -0.2963 -0.4384
 5665TIP3    H116940   7.158   0.622   2.279 -3.1367  0.0884 -0.2602
 5665TIP3    H216941   7.198   0.756   2.221  0.6118 -0.6774  0.3034
 5666TIP3   OH216942   2.121   0.408   0.357 -0.2762  0.4731 -0.0489
 5666TIP3    H116943   2.149   0.447   0.440 -1.9935 -0.6846  1.1249
 5666TIP3    H216944   2.076   0.479   0.312 -0.0949  0.8714  0.3811
 5667TIP3   OH216945   4.256   1.371   3.493 -0.1041 -0.4763  0.0947
 5667TIP3    H116946   4.255   1.395   3.401 -0.7450 -0.8473  0.0011
 5667TIP3    H216947   4.330   1.311   3.501 -0.8584 -1.5002 -0.4597
 5668TIP3   OH216948   6.673   6.032   3.996  0.1634 -0.0318  0.7040
 5668TIP3    H116949   6.642   6.080   4.073  0.2122  2.4477 -0.7224
 5668TIP3    H216950   6.597   6.029   3.937 -0.2923 -3.0898  1.2662
 5669TIP3   OH216951   2.892   0.660   3.969  0.3719 -0.4232  0.0937
 5669TIP3    H116952   2.985   0.675   3.951  0.5302  2.2979  2.3891
 5669TIP3    H216953   2.888   0.570   4.001  2.1955 -0.6814 -0.2863
 5670TIP3   OH216954   4.542   2.663   3.945  0.4567  0.3753  0.2546
 5670TIP3    H116955   4.494   2.682   3.865  0.2003 -1.8587 -0.1795
 5670TIP3    H216956   4.536   2.743   3.997 -0.6063  1.3627 -1.3362
 5671TIP3   OH216957   5.875   7.767   2.506  0.7085 -0.1573 -0.0331
 5671TIP3    H116958   5.837   7.849   2.539  2.8123  0.6728  0.5256
 5671TIP3    H216959   5.939   7.796   2.441 -0.2704 -1.5456 -1.6627
 5672TIP3   OH216960   7.460   5.002   0.766  0.7811  0.9539  0.6265
 5672TIP3    H116961   7.437   4.917   0.730  2.7284 -0.3619  2.2383
 5672TIP3    H216962   7.377   5.038   0.798 -0.1754 -0.0164 -0.6520
 5673TIP3   OH216963   7.640   7.068   4.972 -0.6306  0.2123  0.1750
 5673TIP3    H116964   7.683   7.127   4.910 -0.9396 -0.2184 -0.4551
 5673TIP3    H216965   7.709   7.044   5.034 -0.3725  0.8126  0.1254
 5674TIP3   OH216966   7.113   2.938   3.642 -0.5396 -0.4996  0.1624
 5674TIP3    H116967   7.198   2.958   3.602 -0.6940 -0.1222  0.0172
 5674TIP3    H216968   7.050   2.952   3.572 -0.8326  0.3459  0.5870
 5675TIP3   OH216969   6.491   0.751   4.238  0.3974 -0.6975  0.6246
 5675TIP3    H116970   6.407   0.725   4.201  0.5273 -0.6577  0.2920
 5675TIP3    H216971   6.542   0.780   4.162 -0.1330  1.6815  1.1058
 5676TIP3   OH216972   5.448   0.842   2.262  0.0127  0.2067  0.1765
 5676TIP3    H116973   5.387   0.824   2.333 -1.2820 -1.3886 -1.2563
 5676TIP3    H216974   5.527   0.794   2.286 -0.8566 -1.3957 -0.0365
 5677TIP3   OH216975   6.075   4.163   2.898  0.1583  0.3910  0.2287
 5677TIP3    H116976   6.019   4.086   2.888 -0.4966  0.7355  1.1372
 5677TIP3    H216977   6.164   4.127   2.899 -0.1320 -0.3468  0.4962
 5678TIP3   OH216978   5.083   5.304   6.132  0.3731 -0.8875  0.5814
 5678TIP3    H116979   5.095   5.230   6.192  1.1737 -0.4929  0.9222
 5678TIP3    H216980   5.056   5.377   6.189  0.3892 -0.7072  0.3586
 5679TIP3   OH216981   5.824   0.454   3.226 -0.3119 -0.4336 -0.2024
 5679TIP3    H116982   5.790   0.432   3.139  0.1949 -0.8538 -0.2992
 5679TIP3    H216983   5.761   0.517   3.261 -0.5516 -0.3063 -0.8497
 5680TIP3   OH216984   0.031   6.412   4.445 -0.2398  0.4301  0.6219
 5680TIP3    H116985   0.117   6.453   4.456  0.0639 -0.0543  0.1465
 5680TIP3    H216986   0.045   6.321   4.471 -0.6394  0.3744  0.6515
 5681TIP3   OH216987   4.881   0.225   3.942  0.0515 -0.4183  0.4017
 5681TIP3    H116988   4.803   0.259   3.986  0.0199  0.1356 -0.0718
 5681TIP3    H216989   4.859   0.135   3.921 -1.1985  0.2608 -1.3852
 5682TIP3   OH216990   0.354   3.047   4.950  0.3760  0.3523 -0.2520
 5682TIP3    H116991   0.291   2.983   4.985  2.2364 -0.0476  2.7512
 5682TIP3    H216992   0.346   3.123   5.008  2.3129  0.4421 -0.0360
 5683TIP3   OH216993   8.067   6.666   0.762 -0.0915  0.8465  0.0294
 5683TIP3    H116994   8.078   6.632   0.851 -0.4191  2.0621  0.5394
 5683TIP3    H216995   7.991   6.618   0.727 -0.4360  0.9254  0.6704
 5684TIP3   OH216996   4.618   0.235   0.109 -0.6299  0.2264  0.0888
 5684TIP3    H116997   4.596   0.191   0.191 -2.4922  0.3802 -0.2911
 5684TIP3    H216998   4.562   0.313   0.107  1.1551  1.5834 -0.2010
 5685TIP3   OH216999   2.601   6.151   5.432 -0.0168  0.4763  0.0339
 5685TIP3    H117000   2.678   6.207   5.417 -0.7313  1.1495 -1.3186
 5685TIP3    H217001   2.613   6.078   5.371 -0.5255  0.6688 -0.2998
 5686TIP3   OH217002   2.716   2.947   1.992  0.6346  0.0631 -0.4345
 5686TIP3    H117003   2.800   2.952   2.036  0.2717 -0.1989  0.3133
 5686TIP3    H217004   2.705   3.032   1.949  1.2953  0.0774 -0.5751
 5687TIP3   OH217005   4.809   5.751   1.438  0.1784  0.2401  0.2603
 5687TIP3    H117006   4.732   5.802   1.413  0.0710 -0.5341 -1.0654
 5687TIP3    H217007   4.780   5.660   1.436  0.2043  0.0685  3.1798
 5688TIP3   OH217008   1.077   7.024   3.438  0.4298  0.6466  0.3058
 5688TIP3    H117009   1.022   6.965   3.488 -0.2922 -0.1989 -1.3889
 5688TIP3    H217010   1.016   7.071   3.380  1.2950  0.9624 -0.3752
 5689TIP3   OH217011   4.616   2.487   4.291 -0.5613  0.4105 -0.3303
 5689TIP3    H117012   4.700   2.512   4.251 -0.0244  1.2932  1.2581
 5689TIP3    H217013   4.604   2.396   4.265  1.7152 -0.2595  0.7120
 5690TIP3   OH217014   2.769   5.548   3.456  0.1469 -0.2392 -0.2762
 5690TIP3    H117015   2.780   5.569   3.363 -1.9671 -1.7727 -0.9380
 5690TIP3    H217016   2.827   5.473   3.470  0.0073 -0.3942 -0.5185
 5691TIP3   OH217017   0.318   2.149   2.474 -0.5641 -0.1895 -0.4412
 5691TIP3    H117018   0.336   2.166   2.381  0.3812  0.1041 -0.2156
 5691TIP3    H217019   0.275   2.228   2.505 -0.1706  0.0354 -0.4535
 5692TIP3   OH217020   0.508   4.949   3.096 -0.4760  0.1348 -0.1527
 5692TIP3    H117021   0.542   4.885   3.159 -1.3764  0.2200  0.4361
 5692TIP3    H217022   0.453   4.898   3.037  0.3251  0.0642 -0.8582
 5693TIP3   OH217023   6.944   7.560   6.035 -0.1449  0.4959 -0.4750
 5693TIP3    H117024   6.891   7.614   5.977 -0.3427 -1.2278 -1.9900
 5693TIP3    H217025   7.005   7.514   5.977 -0.7876 -1.8146  0.5449
 5694TIP3   OH217026   2.310   6.816   6.694  0.2179  0.0139  0.2231
 5694TIP3    H117027   2.343   6.748   6.753  1.1475 -0.0748 -0.3713
 5694TIP3    H217028   2.238   6.774   6.647 -2.2779  0.8396  3.0056
 5695TIP3   OH217029   1.419   2.764   3.549 -0.1045  0.2014 -0.3196
 5695TIP3    H117030   1.377   2.776   3.464  0.6159  3.0487 -0.3710
 5695TIP3    H217031   1.512   2.753   3.529 -0.0736 -0.3242  0.0780
 5696TIP3   OH217032   7.250   1.419   4.974 -0.3000  0.7046 -0.5462
 5696TIP3    H117033   7.196   1.349   5.011 -1.4895  1.6740 -0.3901
 5696TIP3    H217034   7.338   1.402   5.008 -0.7127 -0.3053  0.0538
 5697TIP3   OH217035   4.803   5.131   2.658 -0.0279 -0.0517  0.5075
 5697TIP3    H117036   4.834   5.176   2.737  0.4195 -0.2852  0.4660
 5697TIP3    H217037   4.773   5.201   2.600  1.1475  0.2357  0.2298
 5698TIP3   OH217038   1.499   6.827   0.464 -0.6250  0.1321  0.3523
 5698TIP3    H117039   1.460   6.793   0.544 -0.6889  0.1447  0.3275
 5698TIP3    H217040   1.456   6.911   0.451 -0.3152  0.3184  0.5251
 5699TIP3   OH217041   1.691   4.315   2.735 -0.6975  0.6002 -0.1589
 5699TIP3    H117042   1.657   4.391   2.782 -0.2280  1.3205 -0.9566
 5699TIP3    H217043   1.614   4.273   2.699 -1.1104 -0.1828  1.5234
 5700TIP3   OH217044   5.084   4.013   2.946  0.0768 -0.1773 -0.3408
 5700TIP3    H117045   5.157   4.009   2.884 -0.1631 -1.4731 -0.5675
 5700TIP3    H217046   5.029   4.085   2.914  1.3030  0.9342 -0.0721
 5701TIP3   OH217047   0.549   0.149   2.573 -0.1621  0.3632 -0.2076
 5701TIP3    H117048   0.574   0.108   2.490  0.7190  0.4653 -0.0088
 5701TIP3    H217049   0.504   0.230   2.547  0.8695  0.8322 -0.5919
 5702TIP3   OH217050   5.918   5.204   2.029  0.1200  0.0836 -0.0175
 5702TIP3    H117051   5.872   5.143   2.087  0.4065  1.0679  1.2931
 5702TIP3    H217052   5.946   5.150   1.955 -2.3771 -0.7133 -0.4778
 5703TIP3   OH217053   4.588   0.783   3.685  0.5558  0.4813 -0.0712
 5703TIP3    H117054   4.607   0.853   3.622  0.6512 -0.1088 -0.7089
 5703TIP3    H217055   4.597   0.702   3.635  2.0712 -0.0862  1.0644
 5704TIP3   OH217056   7.418   1.945   1.332  0.0601  0.7358 -0.1070
 5704TIP3    H117057   7.427   1.968   1.424  0.7961  1.2824 -0.2960
 5704TIP3    H217058   7.508   1.926   1.304 -0.2975 -0.5867 -0.4303
 5705TIP3   OH217059   5.629   6.575   5.799 -0.0042 -0.2160  0.4937
 5705TIP3    H117060   5.621   6.514   5.873 -1.0586 -0.6143  0.0713
 5705TIP3    H217061   5.639   6.519   5.722  3.2787  0.1938  0.4873
 5706TIP3   OH217062   4.163   7.833   5.513  0.5327  0.2279  0.0019
 5706TIP3    H117063   4.124   7.852   5.599 -1.8702 -0.7150 -0.8039
 5706TIP3    H217064   4.184   7.740   5.517 -0.8978 -0.1632 -0.8571
 5707TIP3   OH217065   6.783   5.685   4.594 -0.0762  0.0541  0.0397
 5707TIP3    H117066   6.861   5.729   4.627 -0.7127  1.9846 -0.8529
 5707TIP3    H217067   6.809   5.594   4.581  1.6931  0.4329  0.7558
 5708TIP3   OH217068   0.445   2.806   5.118 -0.2929 -0.6226 -0.2610
 5708TIP3    H117069   0.406   2.889   5.145  0.5161  0.3536 -1.9398
 5708TIP3    H217070   0.371   2.752   5.091 -0.8363 -0.5121  0.9482
 5709TIP3   OH217071   6.567   1.344   0.444 -0.0638  0.1585 -0.0878
 5709TIP3    H117072   6.589   1.296   0.523  0.4197 -0.5642 -0.6410
 5709TIP3    H217073   6.652   1.356   0.400 -0.5223 -1.1283 -1.4118
 5710TIP3   OH217074   3.996   4.016   2.220 -0.2789 -0.0348 -0.1817
 5710TIP3    H117075   4.089   4.007   2.241 -0.6048  0.5691  1.7473
 5710TIP3    H217076   3.968   3.927   2.196  0.3789 -0.6733  1.2496
 5711TIP3   OH217077   2.478   5.393   0.078  0.3641 -0.3784 -0.3494
 5711TIP3    H117078   2.491   5.410  -0.015 -1.0009 -0.4020 -0.5568
 5711TIP3    H217079   2.483   5.298   0.086  0.4921 -0.3757 -0.3839
 5712TIP3   OH217080   7.313   0.173   5.919 -0.2413  0.2023 -0.0388
 5712TIP3    H117081   7.318   0.119   5.840  0.3622  0.0743  0.0776
 5712TIP3    H217082   7.394   0.224   5.918 -0.9604  1.3707 -0.3239
 5713TIP3   OH217083   0.795   0.017   1.550  0.6850 -0.2303 -0.3111
 5713TIP3    H117084   0.805   0.092   1.491 -2.2059  0.2691 -0.3339
 5713TIP3    H217085   0.760  -0.053   1.495  0.5469 -0.6359  0.2792
 5714TIP3   OH217086   8.054   1.647   3.947 -0.0862  0.5287 -0.3178
 5714TIP3    H117087   8.078   1.588   3.875 -2.6457 -1.0151 -0.0482
 5714TIP3    H217088   8.036   1.731   3.904 -2.3310 -0.5607 -1.7174
 5715TIP3   OH217089   3.894   1.347   6.227  0.5520 -0.0938  0.3101
 5715TIP3    H117090   3.879   1.282   6.158  1.6426 -0.9177  0.8242
 5715TIP3    H217091   3.833   1.323   6.297 -0.0480  0.3109 -0.0633
 5716TIP3   OH217092   7.763   6.622   3.813  0.0993 -0.3254  0.1625
 5716TIP3    H117093   7.775   6.657   3.901  0.9011 -0.6762  0.2058
 5716TIP3    H217094   7.670   6.634   3.794 -0.2650 -1.0775  1.4077
 5717TIP3   OH217095   0.945   6.962   0.316  0.3700  0.2343  0.3986
 5717TIP3    H117096   0.934   6.928   0.405  1.9844 -0.0135  0.5302
 5717TIP3    H217097   0.909   6.894   0.259  1.1980 -0.5530  0.7861
 5718TIP3   OH217098   5.915   0.279   1.224 -0.7089  0.3836 -0.5097
 5718TIP3    H117099   5.935   0.299   1.132 -0.3287  0.2063 -0.4660
 5718TIP3    H217100   5.962   0.198   1.242  0.3998  1.1793  0.2625
 5719TIP3   OH217101   1.263   4.143   1.512 -0.1348 -0.0433  0.8345
 5719TIP3    H117102   1.308   4.164   1.594  0.4710 -0.8623  0.7246
 5719TIP3    H217103   1.329   4.096   1.460 -0.7404 -0.1758  0.1725
 5720TIP3   OH217104   2.357   6.495   0.154  0.3835  0.0813  0.0704
 5720TIP3    H117105   2.289   6.433   0.181 -1.0287  1.3331 -0.4384
 5720TIP3    H217106   2.418   6.443   0.103 -1.4009 -0.7282 -1.3759
 5721TIP3   OH217107   0.691   4.738   2.514 -0.3228 -0.1119  0.7103
 5721TIP3    H117108   0.752   4.672   2.546  0.7260  0.1168 -0.7117
 5721TIP3    H217109   0.605   4.708   2.542  0.2672 -1.4238  1.1556
 5722TIP3   OH217110   4.328   0.735   0.813 -0.6335 -0.2239  0.4261
 5722TIP3    H117111   4.339   0.642   0.829  1.1561  0.2452  2.5090
 5722TIP3    H217112   4.351   0.747   0.721 -1.4599 -1.8773 -0.0251
 5723TIP3   OH217113   1.151   1.418   5.262  0.4443 -0.1050 -0.0009
 5723TIP3    H117114   1.200   1.468   5.327  0.1369  0.0281  0.1337
 5723TIP3    H217115   1.068   1.465   5.253  0.4953 -0.0980 -0.5186
 5724TIP3   OH217116   6.377   1.079   4.914  0.0432 -0.6159 -0.3782
 5724TIP3    H117117   6.286   1.062   4.893 -0.0410  0.3084 -0.8087
 5724TIP3    H217118   6.378   1.091   5.009 -0.2772 -0.6451 -0.3713
 5725TIP3   OH217119   6.227   0.149   3.953 -0.3324  0.2002  0.1201
 5725TIP3    H117120   6.253   0.237   3.925 -3.8862  0.8008 -1.8889
 5725TIP3    H217121   6.139   0.161   3.990 -0.1807 -2.2899  1.5118
 5726TIP3   OH217122   2.153   1.607   1.443  0.0853  0.6361 -0.1160
 5726TIP3    H117123   2.238   1.580   1.408  0.0682  0.3748  0.0404
 5726TIP3    H217124   2.164   1.602   1.538 -0.5108 -0.7120 -0.0840
 5727TIP3   OH217125   4.201   1.278   2.505 -0.3647  0.2385 -0.4335
 5727TIP3    H117126   4.236   1.366   2.517  0.3650 -0.1436  0.3134
 5727TIP3    H217127   4.114   1.281   2.544 -0.4884  0.7213 -0.7343
 5728TIP3   OH217128   7.010   0.409   1.132  0.2388 -0.2691  0.4021
 5728TIP3    H117129   6.952   0.444   1.064 -0.1065  0.3540  1.0050
 5728TIP3    H217130   7.004   0.472   1.203  0.1882 -1.1816  1.2218
 5729TIP3   OH217131   6.424   5.406   6.240  0.2397  0.2069  0.4503
 5729TIP3    H117132   6.409   5.453   6.158  0.6853 -0.0460  0.2203
 5729TIP3    H217133   6.471   5.326   6.214 -0.3254 -0.2692  0.8582
 5730TIP3   OH217134   1.729   0.950   5.438  0.0100  0.0329 -0.3787
 5730TIP3    H117135   1.806   0.987   5.393 -0.0190  0.4241 -0.1101
 5730TIP3    H217136   1.741   0.973   5.530  0.0214 -0.6913 -0.1953
 5731TIP3   OH217137   3.191   1.065   3.081 -0.0402 -0.3275  0.4726
 5731TIP3    H117138   3.127   1.013   3.034  0.5780 -0.5478 -0.1529
 5731TIP3    H217139   3.140   1.125   3.135 -0.7832  0.3334 -0.9225
 5732TIP3   OH217140   1.787   0.862   6.651  0.1208 -0.3136  0.1307
 5732TIP3    H117141   1.856   0.821   6.598 -0.6871 -0.6613 -0.6869
 5732TIP3    H217142   1.834   0.923   6.708  1.3144 -1.9226  0.9813
 5733TIP3   OH217143   1.972   1.732   1.757  0.1348 -0.1866  0.2122
 5733TIP3    H117144   1.937   1.730   1.668  1.3994 -1.0312 -0.3079
 5733TIP3    H217145   2.067   1.741   1.744  0.2274  0.9529  1.5123
 5734TIP3   OH217146   7.574   6.756   0.940  0.2248 -0.1099 -0.1064
 5734TIP3    H117147   7.556   6.672   0.897 -1.6085 -0.3319  1.0032
 5734TIP3    H217148   7.489   6.787   0.970  0.8059  2.3568 -0.7781
 5735TIP3   OH217149   0.852   5.084   2.937  0.2669  0.1320  0.0224
 5735TIP3    H117150   0.914   5.032   2.887  0.9604  0.6392  0.3249
 5735TIP3    H217151   0.879   5.073   3.028  0.2131  0.7398  0.1190
 5736TIP3   OH217152   0.307   2.220   1.689 -0.2680  0.8247 -0.1185
 5736TIP3    H117153   0.352   2.217   1.605 -0.7629 -0.1847 -0.3472
 5736TIP3    H217154   0.342   2.299   1.731  1.5765  0.1968 -0.3739
 5737TIP3   OH217155   0.265   5.668   5.077  0.2612  0.1968 -0.4266
 5737TIP3    H117156   0.221   5.588   5.106 -0.5952  0.3217 -1.3430
 5737TIP3    H217157   0.336   5.638   5.021 -1.0529  0.0932 -2.1055
 5738TIP3   OH217158   7.907   3.322   6.267 -0.0073 -0.1605  0.0896
 5738TIP3    H117159   7.841   3.256   6.290 -1.1330  1.6769  2.6143
 5738TIP3    H217160   7.958   3.333   6.348  0.2432  1.9106 -0.3120
 5739TIP3   OH217161   5.194   6.721   0.078 -0.0996 -0.2539  0.5928
 5739TIP3    H117162   5.185   6.729  -0.017 -0.5346  0.5938  0.6903
 5739TIP3    H217163   5.104   6.718   0.110  0.0109  0.9402  1.0685
 5740TIP3   OH217164   2.711   0.695   0.122  0.6923  0.1972 -0.0952
 5740TIP3    H117165   2.735   0.780   0.158 -0.0015  0.9627 -1.3807
 5740TIP3    H217166   2.683   0.713   0.033 -1.7739 -1.0115  0.3288
 5741TIP3   OH217167   7.523   3.316   0.128  0.1678  0.1382  0.3700
 5741TIP3    H117168   7.542   3.224   0.107  2.0985  0.4461  0.5384
 5741TIP3    H217169   7.455   3.312   0.196 -1.4137 -1.0599 -1.1999
 5742TIP3   OH217170   0.995   4.925   2.776 -0.1169 -0.2968  0.5596
 5742TIP3    H117171   1.044   4.844   2.792  0.8677  0.3461  0.9185
 5742TIP3    H217172   0.956   4.913   2.690 -1.3761 -1.8278  1.2979
 5743TIP3   OH217173   1.253   0.798   4.803 -0.2764 -0.0194  0.0690
 5743TIP3    H117174   1.277   0.858   4.873  1.2492 -0.8005  0.2619
 5743TIP3    H217175   1.248   0.712   4.844  0.0248 -0.3925 -0.6371
 5744TIP3   OH217176   3.534   5.759   5.479  0.2253 -0.0921 -0.7549
 5744TIP3    H117177   3.475   5.829   5.452 -1.5429 -1.4241 -0.5267
 5744TIP3    H217178   3.508   5.684   5.426  2.2734 -0.5456 -1.2123
 5745TIP3   OH217179   1.955   5.349   6.510 -0.1815 -0.0926  0.3608
 5745TIP3    H117180   1.974   5.313   6.424 -1.0027 -1.9207  0.8952
 5745TIP3    H217181   2.038   5.346   6.557 -0.0296 -0.4008  0.0730
 5746TIP3   OH217182   0.900   7.602   4.417  0.1440  0.1704 -0.0793
 5746TIP3    H117183   0.867   7.573   4.332 -1.3288  0.3583  0.4007
 5746TIP3    H217184   0.996   7.596   4.409  0.0008 -0.8797 -1.3586
 5747TIP3   OH217185   3.886   0.610   3.378  0.3436  0.3167  0.2913
 5747TIP3    H117186   3.980   0.599   3.362  0.0725  0.2943 -1.4469
 5747TIP3    H217187   3.865   0.541   3.441  1.4159  0.0780  0.4089
 5748TIP3   OH217188   4.593   5.229   0.196 -0.2568 -0.1204  0.3604
 5748TIP3    H117189   4.596   5.325   0.196  0.9437 -0.1506  0.2304
 5748TIP3    H217190   4.592   5.205   0.289 -2.2512  0.0263  0.4372
 5749TIP3   OH217191   5.534   1.798   3.776  0.3380 -0.4284 -0.3322
 5749TIP3    H117192   5.603   1.858   3.806 -0.4481 -0.5823  1.8809
 5749TIP3    H217193   5.534   1.727   3.840 -2.8102  0.2718  0.5868
 5750TIP3   OH217194   6.541   4.621   1.963  0.0055 -0.1176 -0.5248
 5750TIP3    H117195   6.621   4.670   1.944  0.3463 -0.4381  0.0647
 5750TIP3    H217196   6.526   4.569   1.884  1.0583 -0.9596 -0.2089
 5751TIP3   OH217197   3.052   7.127   2.149 -0.5925  0.0226 -0.3020
 5751TIP3    H117198   2.969   7.103   2.189  0.0450 -1.2273  0.3086
 5751TIP3    H217199   3.118   7.076   2.196  0.7022  2.0164  0.1954
 5752TIP3   OH217200   6.415   4.246   1.864 -0.2994 -0.3154 -0.4910
 5752TIP3    H117201   6.484   4.185   1.841 -1.0673 -1.1893 -0.5619
 5752TIP3    H217202   6.419   4.315   1.798  0.7262 -0.1564 -0.2752
 5753TIP3   OH217203   1.663   5.007   1.027  0.2227 -0.4410  0.9311
 5753TIP3    H117204   1.618   5.042   0.950 -0.8113 -1.6769  0.9435
 5753TIP3    H217205   1.594   4.996   1.093  0.8824 -0.5524  1.6204
 5754TIP3   OH217206   2.367   6.428   2.400  0.2169 -0.1010  0.1570
 5754TIP3    H117207   2.285   6.404   2.443  0.4000 -0.0968  0.5082
 5754TIP3    H217208   2.366   6.379   2.317  0.6125 -1.3966  0.8889
 5755TIP3   OH217209   0.469   4.562   5.587 -0.4517 -0.1778 -0.5129
 5755TIP3    H117210   0.546   4.532   5.538 -0.5577  0.8422 -1.3181
 5755TIP3    H217211   0.401   4.498   5.567  0.5018 -1.8890  1.2819
 5756TIP3   OH217212   5.168   3.943   4.289 -0.1811 -0.3275  0.0866
 5756TIP3    H117213   5.140   4.020   4.240  2.5606  1.9438  1.7400
 5756TIP3    H217214   5.193   3.879   4.222 -1.4680  0.6137 -1.3476
 5757TIP3   OH217215   0.583   1.381   1.286  0.3122  0.3458 -0.2790
 5757TIP3    H117216   0.529   1.395   1.208  1.1702 -1.9514 -1.3900
 5757TIP3    H217217   0.520   1.360   1.355 -0.3332 -0.5571 -1.1098
 5758TIP3   OH217218   7.022   1.204   4.868  0.2101 -0.1412  0.0787
 5758TIP3    H117219   7.110   1.169   4.854  0.8996  1.0663  1.2078
 5758TIP3    H217220   7.028   1.253   4.949 -1.4118  0.3161 -0.0454
 5759TIP3   OH217221   7.398   4.062   0.855  0.3512 -0.3811  0.2091
 5759TIP3    H117222   7.368   4.151   0.838 -1.2192 -0.8587  0.3543
 5759TIP3    H217223   7.403   4.022   0.768 -0.1190 -0.5071  0.2387
 5760TIP3   OH217224   2.831   0.765   5.709  0.3593  0.0298  0.1276
 5760TIP3    H117225   2.758   0.764   5.771  0.1089 -0.4148 -0.1711
 5760TIP3    H217226   2.842   0.673   5.683  0.5862  0.1851 -0.3437
 5761TIP3   OH217227   3.807   7.548   4.258 -0.3388  0.3992 -0.4499
 5761TIP3    H117228   3.844   7.579   4.341  1.6185 -0.3781 -0.9851
 5761TIP3    H217229   3.763   7.467   4.282 -0.4278  0.5576 -0.0517
 5762TIP3   OH217230   8.228   4.553   4.823  0.1428 -0.9199 -0.2950
 5762TIP3    H117231   8.278   4.622   4.867 -1.0110  0.7703 -1.5091
 5762TIP3    H217232   8.145   4.551   4.870 -0.2192 -0.7421 -0.9201
 5763TIP3   OH217233   4.535   4.111   1.184  0.1478  0.1981 -0.0874
 5763TIP3    H117234   4.587   4.128   1.105 -0.4438 -1.0298 -0.7645
 5763TIP3    H217235   4.456   4.164   1.172 -0.2485 -0.5135 -0.6520
 5764TIP3   OH217236   3.359   5.285   4.891 -0.4595 -0.5961  0.5644
 5764TIP3    H117237   3.285   5.311   4.945 -0.1922  0.6462  0.3772
 5764TIP3    H217238   3.320   5.250   4.811 -0.9202  2.1439 -0.5072
 5765TIP3   OH217239   0.569   2.205   0.334  0.2837  0.1995 -0.0725
 5765TIP3    H117240   0.588   2.174   0.422  2.9525  1.8515  0.0476
 5765TIP3    H217241   0.558   2.125   0.282  1.6443 -0.8598  1.2071
 5766TIP3   OH217242   2.289   6.535   4.664 -0.1203 -0.0507  0.0776
 5766TIP3    H117243   2.384   6.533   4.665 -0.1264 -0.5820  0.1440
 5766TIP3    H217244   2.266   6.622   4.697  0.3371 -0.1075  0.5567
 5767TIP3   OH217245   6.005   6.005   0.380  0.0999 -0.0494  0.2971
 5767TIP3    H117246   5.970   6.093   0.367  0.9013  0.1438 -0.7506
 5767TIP3    H217247   5.982   5.983   0.470  0.5477  1.5562  0.8521
 5768TIP3   OH217248   3.230   7.810   4.752 -0.0819  0.0624 -0.1114
 5768TIP3    H117249   3.267   7.725   4.778  1.3538  0.5332 -0.5313
 5768TIP3    H217250   3.214   7.855   4.835 -0.0750 -0.2942  0.0880
 5769TIP3   OH217251   6.848   2.667   1.049 -0.1086 -0.1612 -0.1808
 5769TIP3    H117252   6.766   2.634   1.012 -0.7871 -2.2711  2.7755
 5769TIP3    H217253   6.845   2.639   1.141  3.6858  0.2031  0.2071
 5770TIP3   OH217254   6.532   6.699   3.605  0.3100 -0.4400 -0.1595
 5770TIP3    H117255   6.545   6.687   3.511  0.1268  1.6171 -0.5016
 5770TIP3    H217256   6.488   6.619   3.634 -2.0249 -0.0851 -2.3495
 5771TIP3   OH217257   0.070   2.289   5.931 -0.1800  0.0160  0.1215
 5771TIP3    H117258   0.013   2.366   5.937  1.6826  1.4345  0.5156
 5771TIP3    H217259   0.037   2.229   5.999 -1.2652  0.7278  0.2483
 5772TIP3   OH217260   4.680   1.332   4.730 -0.2920  0.1578  0.3550
 5772TIP3    H117261   4.754   1.271   4.738  0.2373  0.6631 -0.5026
 5772TIP3    H217262   4.706   1.407   4.783 -0.7404 -0.1635  1.0399
 5773TIP3   OH217263   1.230   0.959   4.257  0.0154  0.3417 -0.0826
 5773TIP3    H117264   1.163   0.940   4.323 -1.7528  0.1432 -1.8394
 5773TIP3    H217265   1.227   1.054   4.247 -0.1679  0.3157 -0.2966
 5774TIP3   OH217266   6.752   3.915   0.463 -0.4709 -0.0212  0.7656
 5774TIP3    H117267   6.754   4.009   0.444 -0.4900  0.0913  1.2825
 5774TIP3    H217268   6.807   3.875   0.396 -1.2866  0.2452 -0.0816
 5775TIP3   OH217269   4.069   5.564   3.585 -0.6243 -0.3271  0.4534
 5775TIP3    H117270   4.101   5.505   3.516  1.7344 -0.4073  1.5448
 5775TIP3    H217271   4.053   5.506   3.660 -0.1801  0.1566  0.9273
 5776TIP3   OH217272   6.374   5.404   0.858 -0.0850  0.4319  0.4872
 5776TIP3    H117273   6.450   5.375   0.909  0.4780  0.8629 -0.0957
 5776TIP3    H217274   6.392   5.375   0.769  0.1534  1.9080  0.0284
 5777TIP3   OH217275   7.813   5.141   3.712  0.3926 -0.2639 -0.1759
 5777TIP3    H117276   7.718   5.149   3.717  0.5518  1.7914  0.4424
 5777TIP3    H217277   7.829   5.099   3.627 -1.0282  0.4325 -0.8333
 5778TIP3   OH217278   3.121   2.935   1.837  0.0347 -0.0833 -0.5048
 5778TIP3    H117279   3.065   3.007   1.809 -0.9983 -1.3781 -1.9541
 5778TIP3    H217280   3.087   2.911   1.924  0.0239  0.7944 -0.2579
 5779TIP3   OH217281   6.996   4.275   6.248  0.6952  0.1347 -1.0141
 5779TIP3    H117282   7.052   4.231   6.184  2.7241 -0.3463  0.9710
 5779TIP3    H217283   6.968   4.206   6.307 -2.4022  0.3111 -2.1147
 5780TIP3   OH217284   3.980   0.665   1.444  0.3801 -0.0431  0.2916
 5780TIP3    H117285   3.903   0.608   1.447  0.9450 -0.9024 -0.9741
 5780TIP3    H217286   4.036   0.633   1.514  0.8117 -1.2480 -0.5742
 5781TIP3   OH217287   5.331   3.015   2.191  0.0618 -0.1780  0.7309
 5781TIP3    H117288   5.282   2.967   2.124  0.0872 -1.1485  1.3755
 5781TIP3    H217289   5.360   3.095   2.148 -0.4582 -0.4893 -0.2225
 5782TIP3   OH217290   6.767   4.763   2.340 -0.5771 -0.6518  0.5934
 5782TIP3    H117291   6.769   4.726   2.428 -1.4815 -1.2028  0.4016
 5782TIP3    H217292   6.833   4.713   2.291 -1.4175 -1.6967  0.4741
 5783TIP3   OH217293   7.270   1.279   4.055 -0.0345 -0.4039  0.7479
 5783TIP3    H117294   7.179   1.308   4.045  0.1779  0.1596  0.3538
 5783TIP3    H217295   7.273   1.239   4.142 -0.7327 -0.7156  0.6354
 5784TIP3   OH217296   4.620   0.120   2.743 -0.3417 -0.1268 -0.1981
 5784TIP3    H117297   4.643   0.198   2.693  0.2283  0.5458  1.0950
 5784TIP3    H217298   4.646   0.139   2.833 -2.0634 -1.0060  0.5326
 5785TIP3   OH217299   5.392   6.254   1.853  0.2516  0.9979  0.6368
 5785TIP3    H117300   5.378   6.175   1.906 -0.1927  1.7240  1.6423
 5785TIP3    H217301   5.334   6.319   1.892 -3.2686  0.5465 -3.1555
 5786TIP3   OH217302   7.384   7.109   0.316 -0.0426  0.2575 -0.1573
 5786TIP3    H117303   7.475   7.094   0.342 -0.7560 -1.1182  1.8339
 5786TIP3    H217304   7.351   7.171   0.381 -0.8833 -0.3467  0.0150
 5787TIP3   OH217305   1.005   1.401   4.799 -0.4135  0.4741  0.8390
 5787TIP3    H117306   0.996   1.312   4.832 -1.8196  0.6645  1.0512
 5787TIP3    H217307   1.066   1.443   4.860  1.1576 -0.6165  0.0870
 5788TIP3   OH217308   4.256   3.902   5.203  0.2899  0.4106  0.5556
 5788TIP3    H117309   4.214   3.960   5.138 -0.0486  0.3170  0.6873
 5788TIP3    H217310   4.190   3.835   5.220  1.5268 -1.3983 -1.3572
 5789TIP3   OH217311   3.910   5.513   1.600 -0.1614 -0.8697 -0.1886
 5789TIP3    H117312   3.920   5.608   1.592  0.3208 -1.0122 -1.4568
 5789TIP3    H217313   3.999   5.479   1.596 -0.1441 -1.2932  2.1541
 5790TIP3   OH217314   5.905   4.582   6.770  0.3763 -0.1856 -0.2238
 5790TIP3    H117315   5.874   4.603   6.682  0.4537  0.3170 -0.1333
 5790TIP3    H217316   5.974   4.646   6.787 -0.5374  0.5803  0.7190
 5791TIP3   OH217317   3.859   0.490   5.788  0.1914  0.4168  0.0260
 5791TIP3    H117318   3.816   0.556   5.842  0.4322  1.3311 -0.8832
 5791TIP3    H217319   3.801   0.414   5.794  0.3447  0.3863  1.7633
 5792TIP3   OH217320   6.477   5.441   3.229 -0.2803 -0.2507  0.2536
 5792TIP3    H117321   6.394   5.484   3.207  0.2110  0.2058 -0.7456
 5792TIP3    H217322   6.451   5.352   3.255 -1.0676 -0.2023 -0.3255
 5793TIP3   OH217323   3.281   3.552   5.143 -0.3441  0.0469  0.0374
 5793TIP3    H117324   3.232   3.535   5.223 -0.2352 -1.0330 -0.1179
 5793TIP3    H217325   3.304   3.466   5.110 -1.9239  0.3751 -2.1300
 5794TIP3   OH217326   1.670   3.814   5.652 -0.0270  0.4543  0.4614
 5794TIP3    H117327   1.634   3.792   5.738 -0.9440 -0.5079 -0.1511
 5794TIP3    H217328   1.594   3.817   5.594  0.3988  2.4857 -0.0739
 5795TIP3   OH217329   5.919   7.714   2.062  0.0875 -0.3191 -0.1118
 5795TIP3    H117330   5.905   7.735   1.970 -2.5054 -0.1025  0.2436
 5795TIP3    H217331   5.933   7.619   2.063  0.9483 -0.2048 -0.7861
 5796TIP3   OH217332   6.265   5.103   4.024  0.0237 -0.2438  0.5153
 5796TIP3    H117333   6.256   5.153   3.942 -0.9819 -0.2647  0.6051
 5796TIP3    H217334   6.238   5.014   4.001 -0.1354 -0.2813  0.8418
 5797TIP3   OH217335   8.163   7.608   2.845  0.1563  0.2758  0.0122
 5797TIP3    H117336   8.241   7.651   2.810  0.2681 -0.2017 -0.3396
 5797TIP3    H217337   8.162   7.522   2.802 -0.8307  0.4656 -0.3477
 5798TIP3   OH217338   1.214   1.996   0.046  0.4730 -0.6366 -0.1486
 5798TIP3    H117339   1.246   2.086   0.053  1.6124 -1.1127  1.3144
 5798TIP3    H217340   1.170   1.980   0.129  0.9112 -1.6589 -0.0998
 5799TIP3   OH217341   0.432   5.987   1.295  0.0701 -0.4314  0.1719
 5799TIP3    H117342   0.422   6.045   1.219  2.0888  0.4305  0.5021
 5799TIP3    H217343   0.348   5.993   1.340  0.1736  2.3089  0.2045
 5800TIP3   OH217344   6.728   0.352   5.179  0.2657  0.0071 -0.7269
 5800TIP3    H117345   6.654   0.311   5.134 -0.1880  0.9358 -0.8540
 5800TIP3    H217346   6.772   0.280   5.223 -0.3379 -0.6558 -1.1804
 5801TIP3   OH217347   7.556   3.197   6.631 -0.2436 -0.6629 -0.6318
 5801TIP3    H117348   7.590   3.239   6.711 -0.3932 -0.1560 -0.8275
 5801TIP3    H217349   7.626   3.210   6.566  0.3623 -2.0675 -0.2897
 5802TIP3   OH217350   1.683   3.174   4.864  0.2927  0.1935  0.6460
 5802TIP3    H117351   1.749   3.235   4.832  0.6562 -0.7052 -0.3849
 5802TIP3    H217352   1.695   3.173   4.959  3.0498 -1.3245  0.3824
 5803TIP3   OH217353   0.136   1.138   2.340 -0.1117  0.0129  0.0397
 5803TIP3    H117354   0.101   1.221   2.309 -2.1528  0.0159  2.0767
 5803TIP3    H217355   0.176   1.098   2.262 -0.2236  2.2828 -1.2662
 5804TIP3   OH217356   3.209   5.675   2.179 -0.2922  0.0377  0.0263
 5804TIP3    H117357   3.131   5.627   2.207 -0.2596  0.2445  0.4884
 5804TIP3    H217358   3.193   5.695   2.087 -1.4838  1.3866  0.4861
 5805TIP3   OH217359   3.849   3.966   5.784  0.3900 -0.2706 -0.3085
 5805TIP3    H117360   3.864   3.972   5.690 -0.4918 -0.3170 -0.4589
 5805TIP3    H217361   3.905   3.894   5.813  1.1328  0.1384 -0.6843
 5806TIP3   OH217362   7.476   5.184   5.126 -0.7260  0.1760 -0.1597
 5806TIP3    H117363   7.507   5.112   5.182 -1.5616  1.4967  2.1611
 5806TIP3    H217364   7.449   5.142   5.045  2.1852 -1.6504 -0.3180
 5807TIP3   OH217365   3.522   7.127   4.277  0.0523 -0.2014  0.2807
 5807TIP3    H117366   3.570   7.182   4.339  0.1825 -0.2326  0.2082
 5807TIP3    H217367   3.537   7.038   4.307  2.1798 -0.4217 -1.1963
 5808TIP3   OH217368   8.210   2.637   1.967  0.0952 -0.0786  0.1752
 5808TIP3    H117369   8.277   2.688   1.921  0.4189 -0.4121  0.2616
 5808TIP3    H217370   8.188   2.689   2.043 -0.0084  0.2037 -0.0466
 5809TIP3   OH217371   0.497   7.633   6.047 -0.1745 -0.4142  0.3134
 5809TIP3    H117372   0.454   7.694   6.106  0.9676 -0.8560  1.6542
 5809TIP3    H217373   0.455   7.549   6.065 -0.1743 -0.4532  0.1294
 5810TIP3   OH217374   4.847   1.099   0.900 -0.2264 -0.3611 -0.3894
 5810TIP3    H117375   4.911   1.098   0.829  0.5033  0.0108  0.2530
 5810TIP3    H217376   4.871   1.026   0.956 -2.2520 -2.1879 -1.7457
 5811TIP3   OH217377   6.232   1.688   2.450  0.1158 -0.0053  0.1557
 5811TIP3    H117378   6.300   1.694   2.383  0.0704  1.1986  0.1920
 5811TIP3    H217379   6.172   1.760   2.430 -1.7035 -1.6196 -0.4378
 5812TIP3   OH217380   4.410   7.635   5.493 -0.2932 -0.0300  0.2068
 5812TIP3    H117381   4.398   7.641   5.398 -1.9072  0.0712  0.3893
 5812TIP3    H217382   4.491   7.585   5.503  0.1166  0.2852 -1.2162
 5813TIP3   OH217383   5.551   6.178   1.641  0.1621 -0.2291  0.3424
 5813TIP3    H117384   5.509   6.236   1.705  0.3905  0.1042  0.1908
 5813TIP3    H217385   5.477   6.131   1.601 -0.4761  2.6009 -2.1770
 5814TIP3   OH217386   0.827   7.029   3.253  0.0083 -0.3064 -0.4975
 5814TIP3    H117387   0.739   7.065   3.261  0.0109  0.1045 -2.0562
 5814TIP3    H217388   0.818   6.955   3.193  0.4237 -1.4670  0.8105
 5815TIP3   OH217389   8.294   6.591   0.944 -0.1505  0.7236 -0.5684
 5815TIP3    H117390   8.311   6.503   0.979  0.3185  0.8184 -0.5516
 5815TIP3    H217391   8.277   6.645   1.021  2.1179  1.2128 -0.3324
 5816TIP3   OH217392   1.578   0.986   4.218  0.2657  0.1325  0.6068
 5816TIP3    H117393   1.520   0.916   4.191  0.0262  0.3107  0.6559
 5816TIP3    H217394   1.666   0.948   4.215  0.3508  0.3754 -1.2244
 5817TIP3   OH217395   4.609   2.973   2.589  0.0384 -0.1960  0.9727
 5817TIP3    H117396   4.639   3.061   2.568 -0.5681 -0.8756 -3.6766
 5817TIP3    H217397   4.685   2.917   2.571 -0.8201 -0.9528 -0.4195
 5818TIP3   OH217398   2.975   3.352   3.758  0.1925  0.4921 -0.1020
 5818TIP3    H117399   2.922   3.401   3.696 -1.0948  1.6166  1.7591
 5818TIP3    H217400   2.915   3.332   3.830  1.8648  0.2755  1.3012
 5819TIP3   OH217401   6.306   4.160   1.165  0.5609  0.2629 -0.3251
 5819TIP3    H117402   6.376   4.160   1.101  1.5035 -1.4434  0.6291
 5819TIP3    H217403   6.233   4.116   1.121  0.7899  0.2011 -0.6421
 5820TIP3   OH217404   1.047   5.035   2.410 -0.4004 -0.4323 -0.3809
 5820TIP3    H117405   1.114   5.032   2.478 -1.2047  2.2421  0.6474
 5820TIP3    H217406   0.972   4.988   2.448 -0.6825  0.6422  0.4538
 5821TIP3   OH217407   1.569   7.224   1.684 -0.0662  0.3997 -0.6520
 5821TIP3    H117408   1.475   7.219   1.696  0.0486 -0.3816 -0.0439
 5821TIP3    H217409   1.583   7.197   1.593 -0.3785 -0.0540 -0.5657
 5822TIP3   OH217410   2.559   0.943   3.553  0.3841  0.2560 -0.1370
 5822TIP3    H117411   2.562   0.930   3.458 -1.1822  0.5469 -0.2505
 5822TIP3    H217412   2.636   0.997   3.572 -0.6427  2.3439 -1.6157
 5823TIP3   OH217413   1.665   1.314   0.702 -0.4408  0.1553 -0.5475
 5823TIP3    H117414   1.617   1.289   0.781 -0.3832 -0.1468 -0.6077
 5823TIP3    H217415   1.753   1.280   0.715  0.1668  1.8791  0.1629
 5824TIP3   OH217416   3.462   1.918   6.438  0.7512 -0.4007 -0.3419
 5824TIP3    H117417   3.469   2.007   6.404 -1.5377  0.0987  0.3100
 5824TIP3    H217418   3.369   1.896   6.427  1.2368 -2.6309 -0.2902
 5825TIP3   OH217419   0.390   6.451   1.150  0.1745  0.1484 -0.5862
 5825TIP3    H117420   0.370   6.434   1.058  1.5789  2.0214 -1.3077
 5825TIP3    H217421   0.438   6.374   1.180 -2.7158 -1.7968 -0.4889
 5826TIP3   OH217422   6.978   2.255   0.938  0.0833 -0.4734 -0.1855
 5826TIP3    H117423   6.947   2.176   0.894  1.1633 -1.6482  1.0402
 5826TIP3    H217424   6.908   2.277   0.999  0.0392 -0.9008 -0.0716
 5827TIP3   OH217425   5.804   5.918   5.151  0.2493 -0.4734 -0.3211
 5827TIP3    H117426   5.838   5.902   5.063 -1.0097 -0.1985 -0.8769
 5827TIP3    H217427   5.724   5.968   5.138 -0.2537 -0.8893  0.9529
 5828TIP3   OH217428   7.457   2.338   3.831 -0.2019 -0.0247 -0.3782
 5828TIP3    H117429   7.495   2.251   3.841 -0.7424 -0.0060  2.6495
 5828TIP3    H217430   7.467   2.379   3.917 -0.4834  2.7245 -1.5434
 5829TIP3   OH217431   2.815   5.922   0.780  0.0260 -0.2820 -0.4747
 5829TIP3    H117432   2.774   5.996   0.737 -1.9696 -0.4076  1.0313
 5829TIP3    H217433   2.840   5.955   0.867  1.0225 -0.8429 -0.5278
 5830TIP3   OH217434   6.351   2.918   2.539 -0.0223 -0.0497 -0.5558
 5830TIP3    H117435   6.370   2.932   2.447  1.6463  0.3142 -0.1893
 5830TIP3    H217436   6.353   3.005   2.578  1.5240 -0.3823  0.1823
 5831TIP3   OH217437   5.265   7.475   5.383 -0.6970  0.2443 -0.1256
 5831TIP3    H117438   5.259   7.395   5.330 -0.6186 -0.5063  0.9527
 5831TIP3    H217439   5.237   7.447   5.470  0.6449  1.0628  0.5976
 5832TIP3   OH217440   7.085   7.060   1.677  0.5240 -0.3170  0.1779
 5832TIP3    H117441   7.074   7.150   1.646 -2.2760 -0.7174 -0.2128
 5832TIP3    H217442   7.118   7.012   1.600  1.5181  0.2286  0.2413
 5833TIP3   OH217443   5.295   3.363   1.056  0.1285  1.0083  0.5989
 5833TIP3    H117444   5.375   3.375   1.107  1.9992 -0.2374 -1.8332
 5833TIP3    H217445   5.279   3.449   1.017 -0.0091  1.3833  1.4635
 5834TIP3   OH217446   1.034   5.482   0.542  0.3317 -0.1916  0.0753
 5834TIP3    H117447   0.945   5.503   0.512  1.2855  0.3649 -2.5467
 5834TIP3    H217448   1.064   5.562   0.585 -0.2804 -0.2560  0.6447
 5835TIP3   OH217449   0.595   7.317   0.070  0.1657  0.4546 -0.3247
 5835TIP3    H117450   0.573   7.402   0.106  0.4035  0.8493 -1.0865
 5835TIP3    H217451   0.526   7.299   0.006  0.4584  0.3731 -0.6245
 5836TIP3   OH217452   0.398   5.759   6.530 -0.0690  0.1876 -0.0084
 5836TIP3    H117453   0.365   5.684   6.579  0.1832  0.5599  0.7413
 5836TIP3    H217454   0.407   5.829   6.595 -1.0370  1.1070 -0.8224
 5837TIP3   OH217455   6.433   4.868   2.021 -0.1182  0.1003  0.5573
 5837TIP3    H117456   6.491   4.916   2.079  0.2853  0.4592 -0.1346
 5837TIP3    H217457   6.474   4.782   2.012 -0.8073 -0.3774  1.7436
 5838TIP3   OH217458   2.523   4.354   2.070  0.6200  0.3858  0.4967
 5838TIP3    H117459   2.595   4.310   2.025 -0.0419 -0.2279  0.0137
 5838TIP3    H217460   2.448   4.296   2.057 -0.1576  1.4112  0.2731
 5839TIP3   OH217461   5.510   4.712   5.766 -0.4985  0.6378 -0.0588
 5839TIP3    H117462   5.561   4.632   5.778 -1.4335  0.1448  0.7960
 5839TIP3    H217463   5.550   4.775   5.825  0.0907  0.7528 -0.5595
 5840TIP3   OH217464   4.375   6.659   0.518 -0.2294  0.4452 -0.5651
 5840TIP3    H117465   4.459   6.679   0.478 -0.9926  1.3520 -1.7811
 5840TIP3    H217466   4.365   6.564   0.507  0.1209  0.4994 -1.4647
 5841TIP3   OH217467   2.290   6.998   6.195 -0.1643  0.1951 -0.2639
 5841TIP3    H117468   2.294   6.903   6.184  0.3958  0.3590 -1.6827
 5841TIP3    H217469   2.222   7.026   6.134 -0.7815  0.6545  0.6198
 5842TIP3   OH217470   0.099   2.229   4.008 -0.5328 -0.2798  0.2141
 5842TIP3    H117471   0.177   2.224   3.952 -0.2163 -1.7729  0.7543
 5842TIP3    H217472   0.093   2.322   4.032 -0.8088  0.4769 -2.4241
 5843TIP3   OH217473   4.729   3.684   6.202 -0.1456  0.4299  0.3538
 5843TIP3    H117474   4.783   3.651   6.274  1.2373  0.4809 -0.6325
 5843TIP3    H217475   4.788   3.740   6.152 -0.8674 -0.2081 -1.2614
 5844TIP3   OH217476   3.646   7.838   1.217 -0.5518 -0.3670  0.1050
 5844TIP3    H117477   3.691   7.790   1.286  0.1138  0.7046  0.4405
 5844TIP3    H217478   3.661   7.786   1.138  1.5239  0.0873  0.1571
 5845TIP3   OH217479   5.955   1.882   5.040  0.2296  0.2701  0.3142
 5845TIP3    H117480   5.952   1.860   5.133  1.5650  3.4449  1.2290
 5845TIP3    H217481   5.889   1.951   5.030 -0.9363 -1.0049 -1.5003
 5846TIP3   OH217482   6.738   0.904   2.963 -0.6130  0.4306 -0.0150
 5846TIP3    H117483   6.828   0.877   2.978 -0.7470 -0.3449 -0.5489
 5846TIP3    H217484   6.739   0.952   2.881 -0.8677 -0.5951 -0.6310
 5847TIP3   OH217485   6.396   0.541   6.161 -0.2532  0.0343 -0.5094
 5847TIP3    H117486   6.394   0.618   6.218  1.2381 -0.6180  0.4839
 5847TIP3    H217487   6.484   0.541   6.123 -0.0009 -1.5276  0.0206
 5848TIP3   OH217488   0.638   1.524   4.073 -0.1648  0.2011  0.1184
 5848TIP3    H117489   0.656   1.535   4.166 -0.7734  0.3087  0.2247
 5848TIP3    H217490   0.596   1.438   4.066 -1.4755  0.8124  0.1458
 5849TIP3   OH217491   1.915   0.298   2.510 -0.4330  0.4104  0.3568
 5849TIP3    H117492   1.861   0.297   2.430 -0.0077 -0.1612  0.0659
 5849TIP3    H217493   1.852   0.307   2.581 -1.0291 -1.3882  0.1006
 5850TIP3   OH217494   0.192   3.042   3.593 -0.0231  0.4839  0.3011
 5850TIP3    H117495   0.103   3.010   3.601 -0.0077 -0.4722 -2.4463
 5850TIP3    H217496   0.244   2.964   3.572  1.0200  1.3716 -0.5722
 5851TIP3   OH217497   2.868   6.003   3.699 -0.0759 -0.3116  0.5190
 5851TIP3    H117498   2.802   5.951   3.652 -0.1648  0.4930 -0.2605
 5851TIP3    H217499   2.880   6.081   3.645  0.3127  0.3195  1.5087
 5852TIP3   OH217500   0.179   4.913   1.442 -0.2830  0.5751  0.5310
 5852TIP3    H117501   0.260   4.949   1.405  0.5354 -0.5885  1.1299
 5852TIP3    H217502   0.184   4.819   1.424 -1.0284  0.3437  1.4565
 5853TIP3   OH217503   4.262   3.449   4.231  0.4170 -0.0795 -0.3081
 5853TIP3    H117504   4.344   3.489   4.201 -1.1910  1.1658 -3.4318
 5853TIP3    H217505   4.255   3.368   4.180  0.1632 -0.7383  0.7381
 5854TIP3   OH217506   7.536   0.982   1.563  0.0451  0.1073 -0.6656
 5854TIP3    H117507   7.546   0.952   1.473 -0.6882 -2.3072 -0.0273
 5854TIP3    H217508   7.442   1.000   1.572  0.2568  1.2801 -0.6093
 5855TIP3   OH217509   5.422   1.162   4.938 -0.3426 -0.3410  0.0421
 5855TIP3    H117510   5.348   1.222   4.934  1.2108  1.8054  1.5582
 5855TIP3    H217511   5.386   1.083   4.980 -2.1144 -0.0206 -0.7861
 5856TIP3   OH217512   0.337   2.828   1.030  0.3118 -0.1357  0.0248
 5856TIP3    H117513   0.432   2.834   1.022  0.2743  0.8522  0.2088
 5856TIP3    H217514   0.307   2.919   1.031 -0.6178 -0.4333  0.1924
 5857TIP3   OH217515   0.470   3.286   2.671  0.0314  1.0700  0.1841
 5857TIP3    H117516   0.540   3.303   2.734  0.5741 -1.4809  0.3820
 5857TIP3    H217517   0.389   3.298   2.720  0.4501 -1.7087  1.7442
 5858TIP3   OH217518   0.162   2.955   5.178 -0.5560  0.0649  0.6665
 5858TIP3    H117519   0.192   2.884   5.236 -0.7433 -1.7138 -1.3061
 5858TIP3    H217520   0.067   2.952   5.184 -0.5720 -0.0600  0.3290
 5859TIP3   OH217521   6.627   1.027   5.345  0.2774  0.4092  0.5884
 5859TIP3    H117522   6.665   0.986   5.267 -2.4017 -0.2567 -0.4469
 5859TIP3    H217523   6.601   1.114   5.316  0.3594  0.6079  1.1003
 5860TIP3   OH217524   3.488   6.851   4.356  0.0490 -0.2998  0.5955
 5860TIP3    H117525   3.434   6.882   4.429 -0.5466  1.9859 -0.7204
 5860TIP3    H217526   3.425   6.818   4.292  0.5053 -1.4260  0.7133
 5861TIP3   OH217527   7.903   6.834   1.940 -0.1555 -0.2131  0.1124
 5861TIP3    H117528   7.817   6.812   1.975  0.1684  1.8468  2.4640
 5861TIP3    H217529   7.955   6.754   1.950 -0.8913 -0.5161  1.7918
 5862TIP3   OH217530   1.882   2.330   2.147  0.1384 -0.4160 -0.0539
 5862TIP3    H117531   1.971   2.360   2.129 -0.7006  1.4527 -1.3175
 5862TIP3    H217532   1.863   2.363   2.235 -0.5576  2.4324 -1.1906
 5863TIP3   OH217533   0.257   5.613   0.756  0.1295 -0.3273 -0.3515
 5863TIP3    H117534   0.189   5.573   0.701 -0.2831  0.0605 -0.1310
 5863TIP3    H217535   0.243   5.708   0.746 -0.5433 -0.2491  1.1429
 5864TIP3   OH217536   2.998   2.670   0.434  0.5644  0.1004 -0.0529
 5864TIP3    H117537   2.943   2.721   0.493  0.1694  0.8090 -1.0206
 5864TIP3    H217538   2.957   2.584   0.431  0.1384  0.2979  0.0799
 5865TIP3   OH217539   0.436   1.505   1.098  0.1353  0.0064  0.1810
 5865TIP3    H117540   0.457   1.565   1.027  1.0986  0.5053  0.8618
 5865TIP3    H217541   0.343   1.486   1.087  0.0548  0.8212 -0.6479
 5866TIP3   OH217542   6.813   5.275   2.737 -0.3792 -0.3624 -0.0129
 5866TIP3    H117543   6.833   5.351   2.683 -0.5107 -0.0414  0.3799
 5866TIP3    H217544   6.749   5.225   2.686  1.0026 -1.1477 -1.0588
 5867TIP3   OH217545   2.276   1.380   4.552  0.0395 -0.2574 -0.6680
 5867TIP3    H117546   2.218   1.388   4.476  1.0674 -0.2714 -1.4870
 5867TIP3    H217547   2.273   1.466   4.593 -3.0228 -1.1072  1.2313
 5868TIP3   OH217548   4.359   5.797   0.300  0.6989 -0.4454 -0.4529
 5868TIP3    H117549   4.341   5.832   0.387  1.4744 -0.1700 -0.4047
 5868TIP3    H217550   4.274   5.762   0.271 -0.2286  1.8644 -0.7103
 5869TIP3   OH217551   2.362   6.210   3.924 -0.0018  0.2942  0.0694
 5869TIP3    H117552   2.286   6.225   3.980  0.0110  1.0425 -0.1137
 5869TIP3    H217553   2.332   6.146   3.859 -0.2933  0.1390  0.3520
 5870TIP3   OH217554   0.258   0.573   0.528  0.4902 -0.3134  0.1402
 5870TIP3    H117555   0.312   0.525   0.590  0.0527 -0.9623  0.0268
 5870TIP3    H217556   0.225   0.506   0.468  0.2144  0.1859 -0.2739
 5871TIP3   OH217557   3.906   2.987   5.410  0.1594  0.4305  0.4143
 5871TIP3    H117558   3.892   2.898   5.440 -0.8460  0.0551 -1.0821
 5871TIP3    H217559   3.868   2.990   5.322  3.0717  1.4360 -0.9313
 5872TIP3   OH217560   1.024   2.074   6.266  0.0095 -0.5244 -0.1125
 5872TIP3    H117561   0.993   2.155   6.226 -1.8432  0.1645  2.4904
 5872TIP3    H217562   1.024   2.091   6.360  1.3753 -2.9748  0.4423
 5873TIP3   OH217563   6.059   5.428   1.289  0.3111  0.3846  0.3266
 5873TIP3    H117564   6.023   5.404   1.375 -0.1177 -0.2376 -0.0215
 5873TIP3    H217565   6.060   5.523   1.290 -0.0297  0.3906  0.8883
 5874TIP3   OH217566   0.174   5.168   1.211 -0.1279 -0.3035  0.1625
 5874TIP3    H117567   0.101   5.221   1.180 -1.4315 -1.5283  1.0215
 5874TIP3    H217568   0.202   5.210   1.292 -1.3724 -1.0630  1.0145
 5875TIP3   OH217569   8.112   6.189   2.486  0.1862  0.0089 -0.3991
 5875TIP3    H117570   8.080   6.279   2.478  0.1770 -0.0078 -0.5501
 5875TIP3    H217571   8.057   6.150   2.554 -0.2726 -0.0877 -0.8171
 5876TIP3   OH217572   0.532   1.396   6.487  0.1796  0.2885 -0.0896
 5876TIP3    H117573   0.626   1.412   6.474  0.6405 -1.5370  0.7335
 5876TIP3    H217574   0.524   1.301   6.492 -1.3204  0.4427  2.5545
 5877TIP3   OH217575   6.631   2.789   1.467  0.0514  0.2491  0.1602
 5877TIP3    H117576   6.549   2.810   1.421  0.5347  1.6184 -0.1194
 5877TIP3    H217577   6.644   2.695   1.450 -1.3285  0.0581  0.0163
 5878TIP3   OH217578   4.116   4.582   3.868 -0.1267  0.1619 -0.9192
 5878TIP3    H117579   4.140   4.547   3.781 -0.8774  0.4735 -1.2629
 5878TIP3    H217580   4.025   4.607   3.858 -0.8889 -1.7668  0.5765
 5879TIP3   OH217581   0.111   7.711   1.972  0.3919 -0.0281 -0.3300
 5879TIP3    H117582   0.027   7.666   1.984  1.4021 -1.9829 -0.3334
 5879TIP3    H217583   0.113   7.732   1.878 -1.0048  2.0465  0.0158
 5880TIP3   OH217584   0.334   1.440   6.315  0.1502 -0.2135 -0.3036
 5880TIP3    H117585   0.408   1.453   6.373  0.4715 -2.9512  0.0678
 5880TIP3    H217586   0.360   1.367   6.259 -1.0242  0.8911 -2.4096
 5881TIP3   OH217587   4.654   2.900   6.622 -0.5301 -0.2740 -0.2530
 5881TIP3    H117588   4.674   2.842   6.549 -1.1543  0.9508 -1.4572
 5881TIP3    H217589   4.710   2.977   6.607 -0.9863  0.1760  0.3077
 5882TIP3   OH217590   6.674   6.082   4.409 -0.8909 -0.5339  0.4471
 5882TIP3    H117591   6.667   6.158   4.351 -2.4325 -0.1655  1.0793
 5882TIP3    H217592   6.705   6.119   4.492  1.4329 -1.0760 -0.0965
 5883TIP3   OH217593   3.972   2.873   6.292  0.1997  0.7477 -0.1210
 5883TIP3    H117594   3.969   2.966   6.271 -0.5953  0.5911 -0.7374
 5883TIP3    H217595   3.904   2.861   6.359 -1.0534  0.2923 -1.4243
 5884TIP3   OH217596   6.885   6.132   0.297 -0.0907  0.3712 -0.2333
 5884TIP3    H117597   6.811   6.138   0.358  0.3308  1.6788  0.1876
 5884TIP3    H217598   6.961   6.113   0.353  0.0776  0.2156 -0.5151
 5885TIP3   OH217599   5.439   6.529   4.113  0.2019 -0.6829 -0.4063
 5885TIP3    H117600   5.453   6.436   4.134  0.0543 -0.6334 -0.0807
 5885TIP3    H217601   5.377   6.528   4.041 -1.1684 -0.8022  0.7253
 5886TIP3   OH217602   6.248   6.521   5.757 -0.1671 -0.1871 -0.0464
 5886TIP3    H117603   6.273   6.597   5.704  1.7389  0.1074  1.1500
 5886TIP3    H217604   6.326   6.464   5.754 -0.5685 -0.8341  1.2155
 5887TIP3   OH217605   7.492   7.365   1.326  0.1797 -0.2816 -0.1972
 5887TIP3    H117606   7.412   7.410   1.301 -0.1945 -0.2910  0.9315
 5887TIP3    H217607   7.561   7.431   1.316 -0.0181 -0.1643 -0.8094
 5888TIP3   OH217608   2.366   5.765   3.189 -0.3717  0.0041 -0.1508
 5888TIP3    H117609   2.388   5.686   3.238 -0.6940  0.3736  0.6129
 5888TIP3    H217610   2.432   5.829   3.218 -1.4002  0.6357  0.8922
 5889TIP3   OH217611   6.981   5.941   1.305  0.0738 -0.7402  0.5221
 5889TIP3    H117612   7.067   5.911   1.277 -0.2690 -1.0576 -0.2144
 5889TIP3    H217613   6.919   5.879   1.265 -0.5845  0.3601 -0.2473
 5890TIP3   OH217614   1.102   1.862   6.507 -0.0887 -0.1812 -0.8682
 5890TIP3    H117615   1.041   1.936   6.510 -0.2625 -0.2866  2.2152
 5890TIP3    H217616   1.046   1.785   6.499 -0.1502 -0.1224 -0.9993
 5891TIP3   OH217617   2.332   4.639   0.985 -0.0527 -0.1677  0.6128
 5891TIP3    H117618   2.319   4.544   0.994 -1.3482 -0.0026  0.6144
 5891TIP3    H217619   2.295   4.676   1.065 -1.5604  0.4877 -0.3625
 5892TIP3   OH217620   3.605   0.101   3.355  1.1851 -0.0315  0.0098
 5892TIP3    H117621   3.650   0.080   3.437  1.4741  1.7718  0.3652
 5892TIP3    H217622   3.554   0.180   3.376 -2.2930 -1.9946 -0.3497
 5893TIP3   OH217623   0.727   7.248   5.551 -0.3190  0.0999  0.7518
 5893TIP3    H117624   0.757   7.208   5.469  1.0664  1.3548  0.6061
 5893TIP3    H217625   0.657   7.307   5.524 -0.1632  0.1847  0.5298
 5894TIP3   OH217626   5.407   5.966   2.414  0.6030  0.0414  0.5616
 5894TIP3    H117627   5.426   6.029   2.484 -0.6506  0.8553  0.2081
 5894TIP3    H217628   5.492   5.926   2.394  1.6592  2.3117  0.1469
 5895TIP3   OH217629   2.499   4.620   5.994  0.6140  0.0132  0.5803
 5895TIP3    H117630   2.538   4.537   5.965 -0.6467  0.0793 -1.5474
 5895TIP3    H217631   2.415   4.595   6.033 -0.0897  0.2819 -0.6959
 5896TIP3   OH217632   8.145   1.006   0.633  1.1779 -0.5104  0.0944
 5896TIP3    H117633   8.210   1.065   0.672  1.4843 -1.6125  1.3311
 5896TIP3    H217634   8.079   1.065   0.596  0.1633  0.7315  3.4371
 5897TIP3   OH217635   3.738   0.491   1.743  0.0125  0.6877  0.4379
 5897TIP3    H117636   3.767   0.467   1.831  0.6557  0.5140  0.1849
 5897TIP3    H217637   3.751   0.585   1.739  2.6031  0.3673 -0.3782
 5898TIP3   OH217638   4.310   1.500   6.071  0.1587 -0.2298 -0.1851
 5898TIP3    H117639   4.373   1.474   6.004  0.8715  0.2036  0.3083
 5898TIP3    H217640   4.283   1.588   6.044  1.3611  0.4459  0.7331
 5899TIP3   OH217641   4.883   2.669   5.870 -0.3731 -0.4159  0.2170
 5899TIP3    H117642   4.875   2.749   5.818  1.6322  0.0056  0.4959
 5899TIP3    H217643   4.834   2.603   5.821  0.0853  0.3745 -1.3411
 5900TIP3   OH217644   1.945   6.949   0.621 -0.5800 -0.2520 -0.7355
 5900TIP3    H117645   1.893   6.993   0.553  0.4327 -0.1779 -1.4835
 5900TIP3    H217646   1.991   6.879   0.575 -1.1852 -1.3089  0.2138
 5901TIP3   OH217647   1.780   2.949   2.640 -0.1902  0.2526 -0.2148
 5901TIP3    H117648   1.704   2.892   2.628 -0.8399  0.9784  0.3224
 5901TIP3    H217649   1.809   2.969   2.551 -0.0721 -0.7507 -0.4117
 5902TIP3   OH217650   7.964   0.213   4.357  0.2488  0.0530  0.0448
 5902TIP3    H117651   7.982   0.289   4.412  0.7922 -0.6439  0.8690
 5902TIP3    H217652   8.051   0.175   4.341 -0.0310 -0.4946 -0.1975
 5903TIP3   OH217653   3.425   2.524   4.767  0.1350 -0.8023  0.2005
 5903TIP3    H117654   3.476   2.478   4.834  0.2396 -1.4454 -0.3109
 5903TIP3    H217655   3.463   2.612   4.764 -0.2947 -0.5495  1.4381
 5904TIP3   OH217656   2.154   6.700   2.735 -0.5033 -0.6335 -0.3076
 5904TIP3    H117657   2.227   6.726   2.678 -0.3300  1.5373  0.8063
 5904TIP3    H217658   2.185   6.621   2.779  2.0929  1.2230  1.5539
 5905TIP3   OH217659   1.570   5.152   0.782 -0.1145  0.2454  0.0739
 5905TIP3    H117660   1.500   5.130   0.721  0.3075  2.5405 -1.3349
 5905TIP3    H217661   1.636   5.196   0.729  0.4023  2.1325  2.1095
 5906TIP3   OH217662   2.625   1.576   0.776 -0.2263 -0.1428 -0.2576
 5906TIP3    H117663   2.568   1.609   0.706 -1.3937 -1.8600 -0.1565
 5906TIP3    H217664   2.572   1.582   0.855  0.6362  0.5494  0.2900
 5907TIP3   OH217665   7.943   1.607   5.589  0.0187  0.1895  0.0417
 5907TIP3    H117666   7.937   1.516   5.563  1.3634 -0.2803  1.2401
 5907TIP3    H217667   7.937   1.657   5.508 -0.2394 -0.9789 -0.6696
 5908TIP3   OH217668   7.237   0.274   0.193 -0.3522  0.3390  0.1823
 5908TIP3    H117669   7.323   0.265   0.233 -0.7736  0.1749  1.0931
 5908TIP3    H217670   7.248   0.343   0.127  0.5059  0.2026  0.1699
 5909TIP3   OH217671   1.797   3.540   2.725  0.1662  0.5267  0.2978
 5909TIP3    H117672   1.834   3.477   2.786  3.4469 -2.0021 -3.7250
 5909TIP3    H217673   1.866   3.605   2.711 -0.4307  0.9780 -0.7466
 5910TIP3   OH217674   4.052   4.248   5.446 -0.1375 -0.1960 -0.3889
 5910TIP3    H117675   3.969   4.224   5.405 -0.7218  0.9451  0.0568
 5910TIP3    H217676   4.060   4.190   5.521 -0.4705 -0.4028 -0.5132
 5911TIP3   OH217677   0.141   4.526   5.859 -0.3459 -0.2019  0.3172
 5911TIP3    H117678   0.047   4.544   5.873 -0.9073  0.5558 -3.4196
 5911TIP3    H217679   0.161   4.569   5.776  3.4919  0.0030  1.1722
 5912TIP3   OH217680   3.045   0.547   4.618 -0.5835  0.0021  0.4577
 5912TIP3    H117681   3.134   0.536   4.585 -0.5459  0.5827  0.3512
 5912TIP3    H217682   3.057   0.578   4.708 -0.6817 -0.2586  0.5626
 5913TIP3   OH217683   7.718   6.800   1.649 -0.3279  0.2283  0.1447
 5913TIP3    H117684   7.741   6.883   1.691 -1.3738  0.4639  0.2809
 5913TIP3    H217685   7.675   6.825   1.567  1.1258 -0.2218 -0.7962
 5914TIP3   OH217686   5.045   1.524   0.276 -0.8435 -0.1886 -0.2967
 5914TIP3    H117687   4.980   1.594   0.275  0.1818  0.8910  1.9071
 5914TIP3    H217688   5.056   1.502   0.368 -1.6198 -3.8120 -0.9345
 5915TIP3   OH217689   0.624   4.191   4.837  0.0817 -0.2880  0.2910
 5915TIP3    H117690   0.544   4.190   4.889 -0.2621 -1.7892 -0.2394
 5915TIP3    H217691   0.634   4.283   4.810 -0.2641  0.3356  2.1373
 5916TIP3   OH217692   5.253   7.686   5.204 -0.7021  0.4659 -0.8785
 5916TIP3    H117693   5.346   7.700   5.218 -1.2062  2.3062  1.0890
 5916TIP3    H217694   5.236   7.599   5.241  0.0624  0.5010 -0.4301
 5917TIP3   OH217695   6.877   5.581   0.856  0.5766 -0.0550 -0.3593
 5917TIP3    H117696   6.939   5.510   0.874  0.4301  0.0069  0.4023
 5917TIP3    H217697   6.826   5.590   0.936  1.0339  1.3699 -0.2027
 5918TIP3   OH217698   5.827   7.511   2.776 -0.1587  0.7389  0.0654
 5918TIP3    H117699   5.777   7.430   2.786 -0.2885  0.6035 -1.3769
 5918TIP3    H217700   5.777   7.562   2.711  0.4641  1.5313  0.1872
 5919TIP3   OH217701   1.286   4.201   4.457 -0.7031  0.3051 -0.0500
 5919TIP3    H117702   1.254   4.184   4.369  1.0262 -1.3851 -0.4121
 5919TIP3    H217703   1.377   4.171   4.456 -0.7838 -0.2238  2.4420
 5920TIP3   OH217704   0.533   0.259   1.467  0.7686  0.2368 -0.5857
 5920TIP3    H117705   0.505   0.279   1.557 -1.0205  0.1748 -1.1052
 5920TIP3    H217706   0.527   0.343   1.422 -1.8213 -0.3377 -1.4954
 5921TIP3   OH217707   0.862   4.453   6.361 -0.3096  0.2702 -0.3708
 5921TIP3    H117708   0.769   4.436   6.379 -0.3173  0.9800  0.2930
 5921TIP3    H217709   0.904   4.453   6.447 -0.1108  2.3323 -0.4247
 5922TIP3   OH217710   5.671   7.644   3.193  0.0366 -0.4900  0.1244
 5922TIP3    H117711   5.681   7.701   3.117  1.7075 -0.5042  0.2925
 5922TIP3    H217712   5.577   7.635   3.204 -0.2854  1.9501 -0.1034
 5923TIP3   OH217713   4.402   0.404   5.275  0.0489 -0.0114 -0.1179
 5923TIP3    H117714   4.374   0.331   5.330 -0.5022 -0.8868 -1.5205
 5923TIP3    H217715   4.369   0.482   5.320  1.1692 -0.5448  1.7255
 5924TIP3   OH217716   6.086   2.351   5.203  0.1444 -0.7887 -0.2648
 5924TIP3    H117717   6.069   2.394   5.287  1.0522 -0.6598 -0.1320
 5924TIP3    H217718   6.063   2.259   5.218 -1.9367 -0.3689 -0.5939
 5925TIP3   OH217719   7.529   4.537   2.137  0.1035 -0.1602 -0.1680
 5925TIP3    H117720   7.499   4.476   2.205 -4.0493 -0.1195 -1.6877
 5925TIP3    H217721   7.561   4.614   2.186  0.0299 -1.2710  1.7102
 5926TIP3   OH217722   3.789   0.035   2.311  0.0209 -0.2175  0.5438
 5926TIP3    H117723   3.762   0.105   2.371  0.1181 -0.1067  0.4581
 5926TIP3    H217724   3.714   0.024   2.253 -0.1680 -0.4917  0.8378
 5927TIP3   OH217725   6.262   7.605   6.611  0.1197  0.3421 -0.7953
 5927TIP3    H117726   6.344   7.570   6.645 -0.4470 -0.3266 -0.0661
 5927TIP3    H217727   6.234   7.541   6.545 -0.5228 -0.2012 -0.0182
 5928TIP3   OH217728   7.173   5.754   6.403 -0.1371  0.4496 -1.0080
 5928TIP3    H117729   7.160   5.840   6.441  0.4333  0.3810 -0.6469
 5928TIP3    H217730   7.228   5.708   6.465 -0.7447 -0.3128 -1.0132
 5929TIP3   OH217731   4.358   3.720   0.622 -0.4417  0.0611 -0.2119
 5929TIP3    H117732   4.327   3.751   0.537 -1.2890 -0.6785 -0.1911
 5929TIP3    H217733   4.452   3.705   0.609 -1.0009 -2.7407 -1.9012
 5930TIP3   OH217734   4.008   5.340   2.430  0.0974 -0.0930  0.2718
 5930TIP3    H117735   3.986   5.311   2.518 -1.2470  0.6675  0.2233
 5930TIP3    H217736   3.925   5.374   2.395  0.9381  1.0187 -0.7163
 5931TIP3   OH217737   7.260   7.609   1.948  0.4564  0.0288 -0.7156
 5931TIP3    H117738   7.314   7.552   1.893  2.3291  0.8378  0.2041
 5931TIP3    H217739   7.266   7.695   1.906 -3.1862 -0.4782 -2.6814
 5932TIP3   OH217740   5.876   6.040   6.512 -0.2655 -0.2067  0.6479
 5932TIP3    H117741   5.941   5.983   6.472 -0.1959 -0.3478  0.9552
 5932TIP3    H217742   5.922   6.082   6.584 -0.2023  0.5590  0.1693
 5933TIP3   OH217743   7.981   7.273   4.342 -0.4560 -0.1251 -0.2903
 5933TIP3    H117744   8.055   7.226   4.380 -0.0479  0.4086 -0.4049
 5933TIP3    H217745   8.002   7.279   4.249 -0.8817 -0.3965 -0.4051
 5934TIP3   OH217746   6.456   7.492   6.754  0.2909  0.2716 -0.1175
 5934TIP3    H117747   6.505   7.461   6.678  0.6601  0.1091  0.1898
 5934TIP3    H217748   6.482   7.435   6.825  0.2182  0.6571  0.2213
 5935TIP3   OH217749   5.912   5.962   4.562 -0.0075  0.4301  0.1371
 5935TIP3    H117750   5.950   5.890   4.611 -0.9086 -0.5975 -0.6282
 5935TIP3    H217751   5.818   5.957   4.579 -0.2303  0.6253 -0.9290
 5936TIP3   OH217752   7.334   2.701   0.086  0.0797 -0.3720 -0.0505
 5936TIP3    H117753   7.270   2.631   0.079  0.4683 -0.6898 -0.4838
 5936TIP3    H217754   7.407   2.673   0.031  0.8066 -0.2485  0.8214
 5937TIP3   OH217755   0.556   5.434   0.240 -0.4847  0.9097 -0.3254
 5937TIP3    H117756   0.569   5.449   0.147  0.6981 -0.6977 -0.4802
 5937TIP3    H217757   0.464   5.453   0.256 -1.0015  0.0629 -2.0860
 5938TIP3   OH217758   3.029   5.761   6.447  0.0828  0.3751  0.0637
 5938TIP3    H117759   2.968   5.804   6.388  0.5841  2.1196  0.7591
 5938TIP3    H217760   2.997   5.780   6.535 -0.2001 -1.5048  0.4155
 5939TIP3   OH217761   0.455   3.723   5.481 -0.2991 -0.0900  0.1988
 5939TIP3    H117762   0.471   3.787   5.412  0.7292  0.1374  0.6439
 5939TIP3    H217763   0.541   3.703   5.517 -0.9060  0.7308  2.2687
 5940TIP3   OH217764   6.982   1.825   4.022 -0.0870  0.1522  0.7819
 5940TIP3    H117765   7.028   1.897   3.980 -0.5297  0.7459  1.2869
 5940TIP3    H217766   6.978   1.850   4.115 -0.5210 -0.3742  0.9138
 5941TIP3   OH217767   1.259   0.317   4.876 -0.6046  1.1372  0.1491
 5941TIP3    H117768   1.211   0.248   4.830 -0.1583 -0.4464  1.9216
 5941TIP3    H217769   1.348   0.311   4.843 -0.5850  0.8873  0.2411
 5942TIP3   OH217770   0.005   7.794   3.566 -0.5365 -0.6056 -0.3348
 5942TIP3    H117771   0.005   7.702   3.541  0.8956 -0.6021 -0.4000
 5942TIP3    H217772   0.034   7.841   3.488 -0.0516 -0.2142  0.0749
 5943TIP3   OH217773   4.748   4.073   6.503 -0.1404  1.2637  0.1121
 5943TIP3    H117774   4.731   4.155   6.550 -0.9168 -0.0847  2.3547
 5943TIP3    H217775   4.661   4.042   6.478  0.1474  1.0819 -0.6913
 5944TIP3   OH217776   1.705   1.522   1.057  0.3331  0.1688 -0.6799
 5944TIP3    H117777   1.735   1.550   0.971  1.8827  0.2325 -0.1573
 5944TIP3    H217778   1.718   1.599   1.113  0.3760 -0.2053 -0.1677
 5945TIP3   OH217779   1.232   3.903   0.329  0.2854  0.4089 -0.2055
 5945TIP3    H117780   1.276   3.968   0.275  0.2962  0.9524  0.4477
 5945TIP3    H217781   1.292   3.828   0.329 -0.1009  0.0740 -1.6262
 5946TIP3   OH217782   3.774   3.342   5.697  0.1556 -0.3428  0.0333
 5946TIP3    H117783   3.692   3.360   5.650  0.4902  1.4032  0.0226
 5946TIP3    H217784   3.752   3.272   5.758 -1.0152 -0.7410 -0.8072
 5947TIP3   OH217785   1.201   1.017   6.742 -0.0981  0.1893 -0.6660
 5947TIP3    H117786   1.165   0.966   6.669  2.6080 -1.5305 -0.9214
 5947TIP3    H217787   1.244   1.091   6.699 -1.4372  1.1059 -0.4994
 5948TIP3   OH217788   7.042   7.121   5.206  0.8110  0.0277  0.4485
 5948TIP3    H117789   7.067   7.173   5.282 -0.1919  1.4115 -0.1201
 5948TIP3    H217790   7.119   7.122   5.149  0.7321  1.1490  0.3351
 5949TIP3   OH217791   4.656   7.134   4.622  0.2029 -0.2923  0.4510
 5949TIP3    H117792   4.697   7.047   4.623  1.9986  0.4956  0.4085
 5949TIP3    H217793   4.666   7.165   4.713 -0.9583 -0.3481  0.6063
 5950TIP3   OH217794   1.867   7.334   5.522  0.6059  0.5173  0.5076
 5950TIP3    H117795   1.820   7.337   5.606 -0.1337  0.9022  0.0946
 5950TIP3    H217796   1.952   7.296   5.543 -0.3658 -1.5008  1.0566
 5951TIP3   OH217797   1.410   4.524   3.817  0.3214 -0.0949  0.1670
 5951TIP3    H117798   1.471   4.594   3.842 -0.1534 -0.0175  1.1615
 5951TIP3    H217799   1.433   4.504   3.727  0.3067  1.5335 -0.2376
 5952TIP3   OH217800   6.780   2.739   5.841 -0.4117 -0.1730 -0.0359
 5952TIP3    H117801   6.711   2.792   5.803 -1.8576 -1.5375  0.5589
 5952TIP3    H217802   6.760   2.737   5.935 -0.5241 -1.8391 -0.0523
 5953TIP3   OH217803   6.319   2.457   5.098 -1.0056 -0.4139  0.4360
 5953TIP3    H117804   6.233   2.430   5.130 -1.4401  0.7873  0.3533
 5953TIP3    H217805   6.366   2.376   5.083 -2.4619 -1.1285 -0.4559
 5954TIP3   OH217806   2.603   6.633   2.620 -0.2436 -0.1744  0.0841
 5954TIP3    H117807   2.686   6.621   2.574  0.4678 -0.5104  1.4059
 5954TIP3    H217808   2.542   6.662   2.553  1.4376  2.1748 -0.5400
 5955TIP3   OH217809   4.019  -0.011   5.368 -0.2018  0.3693 -0.1709
 5955TIP3    H117810   3.990   0.060   5.312 -0.1956  0.4465 -0.0751
 5955TIP3    H217811   4.046   0.031   5.450 -0.7365  0.2019  0.0946
 5956TIP3   OH217812   5.684   4.590   0.454 -0.0963 -0.2340 -0.0244
 5956TIP3    H117813   5.725   4.580   0.540 -0.2884 -0.5184  0.0360
 5956TIP3    H217814   5.637   4.673   0.459  1.2832  0.6015 -0.4316
 5957TIP3   OH217815   4.810   5.207   0.987  0.3160 -0.1432 -0.2660
 5957TIP3    H117816   4.904   5.215   0.976  0.2782 -0.2608 -0.7067
 5957TIP3    H217817   4.774   5.225   0.900 -0.1575  1.1764  0.1796
 5958TIP3   OH217818   8.201   1.153   4.085 -0.3990 -0.0346 -0.1571
 5958TIP3    H117819   8.275   1.094   4.083  1.4670  2.1734 -1.3203
 5958TIP3    H217820   8.127   1.098   4.110  1.5212 -2.4084  0.6692
 5959TIP3   OH217821   1.248   5.422   6.484 -0.0967  0.0061  0.0742
 5959TIP3    H117822   1.249   5.451   6.576 -1.0053  1.3746 -0.3213
 5959TIP3    H217823   1.175   5.360   6.480 -0.5232  0.4930  0.1374
 5960TIP3   OH217824   8.258   6.856   1.836 -0.2580 -0.0770  0.4134
 5960TIP3    H117825   8.239   6.819   1.750  2.6170 -1.5000  0.2609
 5960TIP3    H217826   8.333   6.914   1.821  1.3228 -1.5410  2.0923
 5961TIP3   OH217827   0.152   2.402   1.156  0.1182 -0.7198 -0.3538
 5961TIP3    H117828   0.067   2.380   1.192 -0.3034 -0.7569 -1.3322
 5961TIP3    H217829   0.135   2.474   1.095  1.0133  0.2804  0.5181
 5962TIP3   OH217830   4.215   0.377   2.442 -0.5507 -0.0127  0.5867
 5962TIP3    H117831   4.134   0.419   2.470 -0.3122 -0.9794  2.9837
 5962TIP3    H217832   4.191   0.330   2.361 -1.7829  1.4417  0.0604
 5963TIP3   OH217833   0.176   0.374   1.377 -0.4621 -0.1681 -0.4595
 5963TIP3    H117834   0.240   0.318   1.332  0.4499 -0.9340  1.6856
 5963TIP3    H217835   0.097   0.320   1.381 -0.8503  0.2535 -1.8906
 5964TIP3   OH217836   7.455   3.954   4.649  0.0563 -0.1403  0.1794
 5964TIP3    H117837   7.518   4.007   4.699 -0.3390  0.9243 -0.4387
 5964TIP3    H217838   7.374   4.004   4.651 -0.4054 -0.8617 -0.1762
 5965TIP3   OH217839   7.024   2.102   3.031 -0.0505  0.1912  0.4646
 5965TIP3    H117840   7.018   2.055   3.114 -0.1650 -0.1349  0.2749
 5965TIP3    H217841   7.052   2.191   3.055  0.4780 -0.0613  0.7952
 5966TIP3   OH217842   6.754   4.789   5.321 -0.1132  0.1697  0.0641
 5966TIP3    H117843   6.818   4.851   5.286  0.6684 -0.3509  0.5587
 5966TIP3    H217844   6.771   4.707   5.275  0.7255 -0.4358  1.3995
 5967TIP3   OH217845   2.232   6.744   0.048  0.4769  0.5089 -0.1436
 5967TIP3    H117846   2.286   6.689   0.105 -1.4338 -0.3349  0.9392
 5967TIP3    H217847   2.156   6.766   0.101 -1.6844 -0.8013 -2.5059
 5968TIP3   OH217848   3.606   6.968   5.712 -0.4007  0.2459 -0.2415
 5968TIP3    H117849   3.648   6.887   5.739  0.9313  1.0438  0.1428
 5968TIP3    H217850   3.645   7.036   5.767 -1.6728  1.1347 -0.3680
 5969TIP3   OH217851   1.375   2.808   4.249  0.0126 -0.7928 -0.4810
 5969TIP3    H117852   1.430   2.848   4.318  1.0889  0.0345 -1.7658
 5969TIP3    H217853   1.335   2.883   4.204 -0.7025 -1.3266 -0.7503
 5970TIP3   OH217854   3.342   5.553   3.093  0.2850  0.1772  0.4551
 5970TIP3    H117855   3.372   5.486   3.031 -0.7652  1.1514 -1.1846
 5970TIP3    H217856   3.248   5.559   3.079  0.4699  2.6549 -0.1968
 5971TIP3   OH217857   6.979   7.153   3.760 -0.2972 -0.5629  0.7408
 5971TIP3    H117858   7.009   7.101   3.835  0.6484  0.8885  1.4040
 5971TIP3    H217859   6.885   7.134   3.754 -0.0298 -2.1261  1.1140
 5972TIP3   OH217860   6.723   4.320   6.171  0.2024 -1.0329  0.1439
 5972TIP3    H117861   6.814   4.291   6.159 -0.0203 -1.5021 -0.4793
 5972TIP3    H217862   6.681   4.301   6.087 -0.2772 -0.0934  0.1630
 5973TIP3   OH217863   8.048   3.106   4.285  0.5896  0.6289  0.4593
 5973TIP3    H117864   8.060   3.073   4.374  1.9636 -0.1167  0.0327
 5973TIP3    H217865   8.098   3.188   4.283 -0.6332  1.4065  0.7610
 5974TIP3   OH217866   7.879   6.692   0.058  0.2188 -0.3962 -0.2170
 5974TIP3    H117867   7.825   6.746   0.117  1.1748 -0.6823  0.9696
 5974TIP3    H217868   7.951   6.750   0.034 -1.0999  0.3619 -2.6865
 5975TIP3   OH217869   0.185   1.035   2.086 -0.8652  0.0266 -0.0765
 5975TIP3    H117870   0.099   1.033   2.043 -1.3228 -2.2386  0.7997
 5975TIP3    H217871   0.245   1.000   2.020 -1.0229 -0.5354  0.0754
 5976TIP3   OH217872   1.149   6.919   3.143  0.4332  0.3182  0.3267
 5976TIP3    H117873   1.209   6.994   3.145  0.6336  0.1376  1.5714
 5976TIP3    H217874   1.156   6.880   3.230  1.1102 -1.7899 -0.6319
 5977TIP3   OH217875   4.404   3.946   2.923 -0.1613 -0.1327  0.3651
 5977TIP3    H117876   4.389   4.010   2.993 -0.6294  0.5136 -0.3082
 5977TIP3    H217877   4.316   3.926   2.890 -0.0102 -1.0521  0.4922
 5978TIP3   OH217878   5.487   1.862   5.587  0.0550  0.1505 -0.3512
 5978TIP3    H117879   5.516   1.777   5.620 -0.9062 -0.7844 -1.7725
 5978TIP3    H217880   5.541   1.877   5.509  1.3207  1.6417  0.7455
 5979TIP3   OH217881   2.074   5.320   6.243 -0.2077  0.3473  0.4225
 5979TIP3    H117882   2.125   5.394   6.211  0.6976 -0.9443 -1.2286
 5979TIP3    H217883   2.009   5.304   6.175  0.1953 -0.9391  0.3164
 5980TIP3   OH217884   7.328   0.478   1.414 -0.6890  0.1314  0.4316
 5980TIP3    H117885   7.364   0.566   1.403  0.4592 -0.1964  1.3519
 5980TIP3    H217886   7.355   0.431   1.336 -1.3688  0.6065 -0.0978
 5981TIP3   OH217887   7.736   3.599   5.243 -0.3328  0.0761  0.0343
 5981TIP3    H117888   7.800   3.569   5.178  0.3366 -1.3933  1.3106
 5981TIP3    H217889   7.749   3.541   5.318  0.4113  3.0323  2.3766
 5982TIP3   OH217890   0.089   6.007   3.055  0.5714 -0.1348  0.1211
 5982TIP3    H117891   0.026   6.014   3.126 -1.1752 -2.1129 -1.1140
 5982TIP3    H217892   0.100   5.913   3.041  0.3349  0.1416 -2.5716
 5983TIP3   OH217893   2.484   0.910   3.260  0.2684  0.1841  0.3018
 5983TIP3    H117894   2.526   0.964   3.192  2.1379 -0.3090  1.0126
 5983TIP3    H217895   2.530   0.826   3.255 -1.3318 -0.7363  0.4826
 5984TIP3   OH217896   3.345   4.767   4.940  0.0470 -0.7044 -0.8839
 5984TIP3    H117897   3.355   4.826   4.865 -0.0061 -0.5005 -0.7324
 5984TIP3    H217898   3.368   4.821   5.015 -1.7486 -0.3366 -0.5544
 5985TIP3   OH217899   4.678   7.043   4.027  0.3959  0.1803  0.0946
 5985TIP3    H117900   4.696   7.026   4.119  1.7430  0.6961 -0.0544
 5985TIP3    H217901   4.586   7.071   4.025  0.1921 -0.3649  1.1938
 5986TIP3   OH217902   7.601   2.073   4.450  0.3781  0.6179 -0.3133
 5986TIP3    H117903   7.688   2.041   4.429  1.1118  0.8564  2.0728
 5986TIP3    H217904   7.543   1.999   4.433  1.3463 -0.2763  0.1974
 5987TIP3   OH217905   6.059   7.302   1.678  0.1220 -0.0445  0.3580
 5987TIP3    H117906   6.016   7.357   1.744 -1.4539 -1.9786  1.0231
 5987TIP3    H217907   6.151   7.299   1.706 -0.0798  0.9304  1.1977
 5988TIP3   OH217908   4.310   6.830   3.000 -0.0666 -0.0384  0.3716
 5988TIP3    H117909   4.292   6.882   2.922  0.3676  2.0826  1.5714
 5988TIP3    H217910   4.406   6.825   3.004 -0.1050 -1.3541  0.0556
 5989TIP3   OH217911   3.349   1.442   1.721 -0.0045 -0.1090  0.1761
 5989TIP3    H117912   3.443   1.428   1.710  0.4760  2.2216  0.7186
 5989TIP3    H217913   3.332   1.523   1.673 -1.3763  0.4346  1.5088
 5990TIP3   OH217914   6.258   0.680   4.069  0.1161 -0.1441 -0.2625
 5990TIP3    H117915   6.257   0.748   4.000 -2.4066 -0.6293 -0.8245
 5990TIP3    H217916   6.169   0.682   4.105  1.0761 -0.6298  2.3266
 5991TIP3   OH217917   1.689   5.258   2.666 -0.2557 -0.0724  0.2958
 5991TIP3    H117918   1.768   5.251   2.613 -0.8153 -0.2949 -0.5261
 5991TIP3    H217919   1.716   5.231   2.754  0.9760  1.4948  0.4358
 5992TIP3   OH217920   8.008   7.145   3.884  0.3303  0.0108 -0.4375
 5992TIP3    H117921   7.937   7.187   3.836  0.5482  0.6070 -0.2562
 5992TIP3    H217922   8.032   7.069   3.831 -1.4664 -1.1022  0.2600
 5993TIP3   OH217923   2.943   7.518   2.280 -0.4154  0.2917 -0.5138
 5993TIP3    H117924   2.990   7.453   2.333 -1.0965  0.6755  0.5815
 5993TIP3    H217925   2.851   7.504   2.301 -0.5018  2.9564  1.4029
 5994TIP3   OH217926   5.256   2.645   4.003  0.4295 -0.1180  0.3709
 5994TIP3    H117927   5.281   2.602   4.085  1.1856 -0.6255 -0.1202
 5994TIP3    H217928   5.172   2.686   4.023  0.8159  0.1473  1.5310
 5995TIP3   OH217929   7.392   0.131   0.861 -0.5120 -0.0859  0.1747
 5995TIP3    H117930   7.344   0.056   0.827 -0.6197  1.0467 -2.4594
 5995TIP3    H217931   7.483   0.115   0.835 -0.0297 -0.5384  2.0099
 5996TIP3   OH217932   8.092   0.955   5.465  0.2381 -0.4370  0.0368
 5996TIP3    H117933   7.997   0.951   5.480  0.1564 -1.0574 -0.6281
 5996TIP3    H217934   8.105   0.915   5.380  1.1628 -0.8513  0.3595
 5997TIP3   OH217935   4.992   4.066   1.128  0.1420 -0.2241 -0.1891
 5997TIP3    H117936   5.004   4.090   1.220  2.2462 -0.9097 -0.2540
 5997TIP3    H217937   4.904   4.099   1.107 -0.4544 -0.1734  2.0795
 5998TIP3   OH217938   2.819   3.250   2.750  0.4465  0.8322  0.2296
 5998TIP3    H117939   2.846   3.165   2.784 -0.2138  0.5792  0.1393
 5998TIP3    H217940   2.762   3.229   2.675  0.1503  1.3425  0.3044
 5999TIP3   OH217941   0.866   2.589   1.182 -0.0256  0.6862  0.2108
 5999TIP3    H117942   0.810   2.558   1.253  1.2526 -1.4761  0.3637
 5999TIP3    H217943   0.842   2.536   1.106  1.3895  0.0899  0.1450
 6000TIP3   OH217944   6.592   2.945   5.274  0.3200 -0.1796 -0.4389
 6000TIP3    H117945   6.547   2.866   5.304  0.8245  0.0109  0.8544
 6000TIP3    H217946   6.587   3.005   5.348  1.7257  0.2530 -0.6703
 6001TIP3   OH217947   3.946   4.984   5.055  0.1232 -0.2640  0.0602
 6001TIP3    H117948   4.006   4.912   5.074 -1.9565 -1.7740  1.2978
 6001TIP3    H217949   3.885   4.984   5.128 -1.0298  1.6162 -0.8347
 6002TIP3   OH217950   7.257   2.497   3.026 -0.0566 -0.7085  0.1007
 6002TIP3    H117951   7.212   2.582   3.021  0.3618 -0.3175  2.2082
 6002TIP3    H217952   7.209   2.442   2.964 -0.9567  0.7809 -0.6013
 6003TIP3   OH217953   7.012   5.300   4.338 -0.1711  0.0404 -0.3781
 6003TIP3    H117954   7.023   5.395   4.329 -0.0981  0.2820  1.6443
 6003TIP3    H217955   6.940   5.291   4.401  0.0137 -1.2333 -0.3324
 6004TIP3   OH217956   7.358   5.992   4.180 -0.4014 -0.1210  0.7859
 6004TIP3    H117957   7.346   6.082   4.210 -1.1245  0.7642 -1.8846
 6004TIP3    H217958   7.272   5.952   4.190 -0.1462 -0.4679  1.7127
 6005TIP3   OH217959   5.269   2.657   1.892 -0.2704 -0.1768  0.4470
 6005TIP3    H117960   5.189   2.615   1.860 -0.9599  0.8863  0.7162
 6005TIP3    H217961   5.336   2.633   1.828 -1.3293  0.8385 -1.1197
 6006TIP3   OH217962   4.726   3.180   2.467  0.2569  0.3935 -0.5387
 6006TIP3    H117963   4.777   3.251   2.507  0.8625  0.2663 -1.0750
 6006TIP3    H217964   4.704   3.212   2.380  0.6111 -0.1092 -0.8178
 6007TIP3   OH217965   1.784   1.607   5.072 -0.1005  0.1447 -0.2018
 6007TIP3    H117966   1.749   1.550   5.140  0.8620 -0.9132 -0.5722
 6007TIP3    H217967   1.834   1.673   5.120 -1.6515  1.0391  0.2608
 6008TIP3   OH217968   1.148   6.891   1.707 -0.1219  0.1661 -0.4055
 6008TIP3    H117969   1.227   6.936   1.676  0.7968 -0.9882  0.1624
 6008TIP3    H217970   1.077   6.932   1.659  0.6714  2.1039 -0.0294
 6009TIP3   OH217971   2.780   5.183   1.153  0.5791 -0.2858  0.7814
 6009TIP3    H117972   2.782   5.272   1.188  0.7163  0.1433 -0.2946
 6009TIP3    H217973   2.717   5.186   1.082  1.1083 -0.8706  0.2771
 6010TIP3   OH217974   3.253   7.579   0.376  0.0935  0.0626 -0.5987
 6010TIP3    H117975   3.336   7.531   0.372 -0.1360 -0.6531  1.8831
 6010TIP3    H217976   3.187   7.513   0.398 -0.6922  1.0205  0.0261
 6011TIP3   OH217977   2.744   1.464   1.159 -0.3528  0.5455  0.3963
 6011TIP3    H117978   2.665   1.512   1.135 -0.2097 -0.0300 -1.4181
 6011TIP3    H217979   2.722   1.372   1.143  0.3864  0.3023  0.7233
 6012TIP3   OH217980  -0.013   2.650   0.632  0.1091  0.7047  0.0034
 6012TIP3    H117981  -0.019   2.742   0.609  2.3075  0.6644 -0.9904
 6012TIP3    H217982   0.046   2.612   0.567 -1.3102 -1.5969 -0.0813
 6013TIP3   OH217983   5.945   5.778   3.937  0.1147 -0.2275 -0.6649
 6013TIP3    H117984   6.022   5.778   3.994  0.5277 -0.9163 -1.2078
 6013TIP3    H217985   5.956   5.856   3.882 -0.0379  0.1711 -0.1363
 6014TIP3   OH217986   5.228   4.163   4.961  0.1147  0.3201 -0.0753
 6014TIP3    H117987   5.306   4.136   5.010 -0.2045 -0.4778  0.0210
 6014TIP3    H217988   5.257   4.235   4.906  0.6916  0.6641  0.6661
 6015TIP3   OH217989   6.686   2.925   2.371 -0.1725 -0.5615 -0.1703
 6015TIP3    H117990   6.633   2.867   2.317 -0.7600 -1.0191  0.8774
 6015TIP3    H217991   6.776   2.908   2.344 -0.5325  0.6271 -2.3784
 6016TIP3   OH217992   3.861   2.625   4.184 -0.4521  0.4397  0.0608
 6016TIP3    H117993   3.854   2.641   4.278  1.7487 -0.7389  0.4843
 6016TIP3    H217994   3.814   2.543   4.170  0.9091 -0.4349  0.5084
 6017TIP3   OH217995   7.144   5.190   5.030  0.0268 -0.3959  0.2537
 6017TIP3    H117996   7.135   5.095   5.025 -0.1580 -0.3327 -0.6976
 6017TIP3    H217997   7.226   5.209   4.985 -0.6940  0.0247 -0.9123
 6018TIP3   OH217998   4.635   1.709   6.492 -0.2718  0.0049 -0.3657
 6018TIP3    H117999   4.613   1.776   6.557 -2.3253 -2.0093  1.1842
 6018TIP3    H218000   4.645   1.757   6.410  4.5817  2.9998  1.5687
 6019TIP3   OH218001   4.052   1.830   5.673  0.0651 -0.0029 -0.1497
 6019TIP3    H118002   3.989   1.769   5.634 -0.1624  0.0529  0.1229
 6019TIP3    H218003   4.110   1.775   5.725  0.5953 -0.1200 -0.8497
 6020TIP3   OH218004   6.300   3.276   5.497 -0.0019  0.4554 -0.0084
 6020TIP3    H118005   6.217   3.235   5.523  0.8524 -1.0072  0.5304
 6020TIP3    H218006   6.314   3.344   5.563 -0.0435 -0.3022  0.8045
 6021TIP3   OH218007   1.210   2.499   0.161  0.0191  0.3127  0.1978
 6021TIP3    H118008   1.171   2.511   0.247  0.0887  1.0474  0.1314
 6021TIP3    H218009   1.186   2.578   0.112 -0.7617 -0.4792 -0.7443
 6022TIP3   OH218010   8.206   7.784   0.640  0.1214  0.0662 -0.0516
 6022TIP3    H118011   8.260   7.809   0.565 -0.2233  1.0572  0.0150
 6022TIP3    H218012   8.122   7.759   0.601  0.5125 -1.2008 -0.1313
 6023TIP3   OH218013   4.036   1.021   3.415  0.1381 -0.4182  0.3474
 6023TIP3    H118014   4.024   1.015   3.509  1.4455 -0.0187  0.5611
 6023TIP3    H218015   4.127   1.048   3.404  0.1847 -1.0366 -1.0433
 6024TIP3   OH218016   0.751   2.607   0.037  0.0157  0.5876  0.6243
 6024TIP3    H118017   0.830   2.600   0.090  0.6199  3.5201  0.2884
 6024TIP3    H218018   0.765   2.548  -0.036  0.7601 -0.7842  1.8219
 6025TIP3   OH218019   6.506   1.541   5.972 -0.2689  0.5527  0.1515
 6025TIP3    H118020   6.499   1.479   6.044 -1.2617 -0.4641 -0.7637
 6025TIP3    H218021   6.452   1.615   5.999 -1.0396 -0.0358  0.2580
 6026TIP3   OH218022   5.163   7.060   3.981  0.3352 -0.1752 -0.0910
 6026TIP3    H118023   5.196   6.994   4.043 -0.9719 -0.6412  0.1507
 6026TIP3    H218024   5.097   7.109   4.031  0.7128  0.7884 -0.5196
 6027TIP3   OH218025   6.916   5.379   2.991 -0.1764 -0.3008  0.1045
 6027TIP3    H118026   6.897   5.365   2.898  1.4880 -0.6348 -0.2180
 6027TIP3    H218027   6.899   5.472   3.005 -0.0235 -0.1492 -0.6497
 6028TIP3   OH218028   4.906   7.370   5.412  0.5347 -0.2011 -0.2698
 6028TIP3    H118029   4.944   7.457   5.400 -1.0642  0.5334 -0.1801
 6028TIP3    H218030   4.908   7.331   5.325 -0.1894  0.5550 -0.6396
 6029TIP3   OH218031   6.691   4.542   0.665  0.3457 -0.3841  0.0471
 6029TIP3    H118032   6.659   4.513   0.580 -1.5852 -1.0082  0.9246
 6029TIP3    H218033   6.625   4.603   0.697  1.6633  0.8352  0.5877
 6030TIP3   OH218034   1.561   5.939   6.051 -0.0416 -0.1526 -0.4180
 6030TIP3    H118035   1.523   5.882   6.117 -0.5448 -0.1385 -0.6928
 6030TIP3    H218036   1.634   5.982   6.096  0.5958 -1.2870 -0.3151
 6031TIP3   OH218037   7.381   3.229   5.062 -0.0576  0.0458 -0.5837
 6031TIP3    H118038   7.326   3.167   5.110  2.0780 -1.0560  0.6000
 6031TIP3    H218039   7.389   3.304   5.121  1.5200 -0.7765  0.3338
 6032TIP3   OH218040   1.637   0.059   1.311 -0.0802 -0.0422  0.7827
 6032TIP3    H118041   1.605   0.116   1.241  4.4263  0.2916 -1.3465
 6032TIP3    H218042   1.634  -0.029   1.273  0.4866 -0.1301  0.9381
 6033TIP3   OH218043   1.653   4.064   2.974 -0.2991 -0.1055  0.0058
 6033TIP3    H118044   1.623   4.063   3.064  0.1209  0.0254  0.1509
 6033TIP3    H218045   1.714   3.990   2.969 -0.1534  0.0208 -0.1078
 6034TIP3   OH218046   7.958   5.829   5.756  0.4340 -0.3798  0.0541
 6034TIP3    H118047   8.049   5.847   5.782  0.3866  1.0133 -0.6148
 6034TIP3    H218048   7.945   5.736   5.775  1.7106 -0.3901  0.9994
 6035TIP3   OH218049   5.124   1.934   3.205  0.3542  0.3299 -0.2051
 6035TIP3    H118050   5.164   1.923   3.119 -0.0800 -1.7344 -0.1772
 6035TIP3    H218051   5.037   1.897   3.196 -0.2486  1.4345  0.7554
 6036TIP3   OH218052   5.409   3.325   6.485 -0.3497  0.3323 -0.5762
 6036TIP3    H118053   5.433   3.239   6.450 -3.1112 -1.0190  0.6220
 6036TIP3    H218054   5.493   3.366   6.506  1.2082 -0.9050 -3.6476
 6037TIP3   OH218055   5.382   2.251   2.675 -0.1093 -0.3304 -0.1074
 6037TIP3    H118056   5.443   2.286   2.740 -1.4793  0.4717  0.7748
 6037TIP3    H218057   5.323   2.194   2.724 -1.4515  0.6462 -0.5335
 6038TIP3   OH218058   1.961   0.067   5.354 -0.1389  0.0692  0.4670
 6038TIP3    H118059   1.882   0.044   5.305 -1.2845  2.0630  1.2837
 6038TIP3    H218060   1.987  -0.015   5.396 -1.7793 -0.6321  0.1996
 6039TIP3   OH218061   7.726   1.609   4.470  0.1646 -0.0303  0.6041
 6039TIP3    H118062   7.631   1.613   4.479  0.3240  0.1894  2.4442
 6039TIP3    H218063   7.742   1.528   4.422 -0.9914  0.6428 -1.0336
 6040TIP3   OH218064   5.198   5.673   0.618 -0.3488 -0.3864 -0.1981
 6040TIP3    H118065   5.258   5.743   0.593 -0.3205 -0.1920  0.4007
 6040TIP3    H218066   5.126   5.678   0.554 -0.6545  0.5821  0.2113
 6041TIP3   OH218067   3.022   5.935   2.604  0.5271  0.1784  0.6335
 6041TIP3    H118068   2.928   5.938   2.624  0.5316  1.0276  0.5512
 6041TIP3    H218069   3.064   5.953   2.688  0.6554 -1.2841  0.9132
 6042TIP3   OH218070   4.871   2.814   2.531  0.2087 -0.6460  0.1402
 6042TIP3    H118071   4.920   2.809   2.449 -0.0533  0.6835 -0.1283
 6042TIP3    H218072   4.902   2.895   2.571 -2.3669  0.7463 -0.4659
 6043TIP3   OH218073   1.945   5.710   4.050 -0.4685 -0.2634 -0.0486
 6043TIP3    H118074   1.991   5.713   3.966  0.3590  0.2993  0.4162
 6043TIP3    H218075   1.852   5.706   4.026 -0.2585  0.1651 -0.9893
 6044TIP3   OH218076   6.782   0.695   6.428  0.7973  0.3976  0.0968
 6044TIP3    H118077   6.810   0.780   6.394  0.7310  0.7271  0.8282
 6044TIP3    H218078   6.864   0.647   6.441  1.1877  1.5794  2.8003
 6045TIP3   OH218079   3.836   7.715   1.801 -0.2870  0.3041  0.0572
 6045TIP3    H118080   3.834   7.673   1.887 -3.3591  0.1982  0.0358
 6045TIP3    H218081   3.788   7.796   1.813 -0.0485  0.6756 -1.3952
 6046TIP3   OH218082   7.961   7.546   5.310 -0.1354 -0.0979  0.0559
 6046TIP3    H118083   8.030   7.563   5.374  1.0306 -3.0506 -0.2810
 6046TIP3    H218084   7.992   7.470   5.260 -2.3176  0.3011 -2.1129
 6047TIP3   OH218085   6.224   7.329   0.924  0.0535  0.0670 -0.6732
 6047TIP3    H118086   6.230   7.407   0.869  0.0326  0.6431  0.1343
 6047TIP3    H218087   6.304   7.280   0.905 -0.5269 -0.3728 -2.1428
 6048TIP3   OH218088   7.912   2.204   6.529 -0.4555  0.1350  0.3673
 6048TIP3    H118089   7.954   2.200   6.443 -1.3152  0.4188 -0.0672
 6048TIP3    H218090   7.822   2.231   6.512 -1.8669 -3.5919  0.9206
 6049TIP3   OH218091   7.689   4.426   1.949  0.1948 -1.2258 -0.5060
 6049TIP3    H118092   7.658   4.338   1.929 -0.5463 -0.5970 -2.3395
 6049TIP3    H218093   7.615   4.468   1.992 -0.0843 -0.9657 -1.2315
 6050TIP3   OH218094   7.931   2.920   6.036  0.0348 -0.1152  0.6141
 6050TIP3    H118095   7.866   2.859   6.073  2.1431 -2.0851  1.2815
 6050TIP3    H218096   8.003   2.918   6.098  0.4759  2.6515  0.3002
 6051TIP3   OH218097   0.145   0.060   3.785 -0.0109  1.2757  0.5528
 6051TIP3    H118098   0.204  -0.016   3.785 -1.5120  0.0409  0.3698
 6051TIP3    H218099   0.081   0.040   3.853 -0.8619  2.0223 -0.0067
 6052TIP3   OH218100   2.686   4.193   5.536  0.7692  0.6456 -0.4833
 6052TIP3    H118101   2.680   4.282   5.501  0.6037  0.7086 -0.2974
 6052TIP3    H218102   2.604   4.180   5.582  0.4515  0.1083 -1.1733
 6053TIP3   OH218103   2.550   2.205   0.461 -0.1984  0.3336  0.0355
 6053TIP3    H118104   2.583   2.280   0.413  1.9824 -1.3073 -1.2287
 6053TIP3    H218105   2.582   2.129   0.411 -3.8481 -1.5060  0.1411
 6054TIP3   OH218106   4.176   3.424   3.281 -0.6588 -0.4255 -0.4028
 6054TIP3    H118107   4.125   3.350   3.249 -2.0617  0.0427  0.6625
 6054TIP3    H218108   4.121   3.464   3.348  0.2793  1.2915 -0.6017
 6055TIP3   OH218109   7.972   6.253   3.441  0.1518 -0.1243 -1.2028
 6055TIP3    H118110   7.921   6.331   3.465  1.6417  0.1971  1.2728
 6055TIP3    H218111   8.047   6.287   3.392  2.5056  0.5958  2.4894
 6056TIP3   OH218112   6.376   3.402   3.202 -0.4313  0.2067  0.1842
 6056TIP3    H118113   6.434   3.405   3.126  0.5277 -2.2717  0.7372
 6056TIP3    H218114   6.390   3.485   3.246  2.2659 -0.0366 -0.0489
 6057TIP3   OH218115   0.692   2.338   4.451  0.0957 -0.1995 -0.1060
 6057TIP3    H118116   0.598   2.339   4.433 -0.2151 -0.6795  1.3314
 6057TIP3    H218117   0.702   2.270   4.518  1.4260  0.0387 -0.0524
 6058TIP3   OH218118   8.049   7.593   3.098 -0.0852  0.0950  0.3418
 6058TIP3    H118119   8.079   7.512   3.139  1.3043  0.1344 -0.5301
 6058TIP3    H218120   8.082   7.588   3.008  3.6763  3.3240  1.2235
 6059TIP3   OH218121   6.051   0.320   4.618  0.0746 -0.2649  0.2418
 6059TIP3    H118122   6.124   0.329   4.679  0.7793  0.4496 -0.6716
 6059TIP3    H218123   5.983   0.377   4.652  1.6353  2.7406 -1.2955
 6060TIP3   OH218124   0.151   6.614   6.781  0.0212  0.4472  0.2812
 6060TIP3    H118125   0.109   6.609   6.696 -0.4871 -0.8465  0.5943
 6060TIP3    H218126   0.217   6.545   6.780 -1.9545 -1.5990  1.9633
 6061TIP3   OH218127   7.041   7.494   3.840  0.2882 -0.0148 -0.3139
 6061TIP3    H118128   6.993   7.528   3.764  0.5925  1.8752  0.3047
 6061TIP3    H218129   7.120   7.454   3.803  0.1124  0.2969 -1.0367
 6062TIP3   OH218130   3.382   5.038   0.941  0.1001  0.5027 -0.8402
 6062TIP3    H118131   3.382   5.119   0.991 -1.7225  0.4392 -0.6923
 6062TIP3    H218132   3.462   5.042   0.889  2.1056  0.5722  2.0319
 6063TIP3   OH218133   2.688   3.397   6.293  0.2200  0.0333 -0.1928
 6063TIP3    H118134   2.632   3.376   6.218  0.3568  1.4144 -0.7131
 6063TIP3    H218135   2.684   3.492   6.300 -0.0336 -0.0860  1.7709
 6064TIP3   OH218136   6.030   6.002   0.775 -0.1845 -0.3038  0.6635
 6064TIP3    H118137   6.114   6.045   0.792  0.1395 -0.3540 -0.6777
 6064TIP3    H218138   6.054   5.922   0.729 -0.8278 -1.6259  2.5289
 6065TIP3   OH218139   6.107   0.529   0.141  0.0553  0.5863  0.0260
 6065TIP3    H118140   6.188   0.575   0.164 -0.0467  0.3246  0.9268
 6065TIP3    H218141   6.127   0.437   0.154 -0.3759  0.5166  0.2059
 6066TIP3   OH218142   3.643   2.128   6.273 -0.5686 -0.2767 -0.0950
 6066TIP3    H118143   3.661   2.217   6.243  1.4527 -0.6132  0.0019
 6066TIP3    H218144   3.672   2.073   6.200  0.3781 -0.9324  0.7606
 6067TIP3   OH218145   0.220   4.674   1.336 -0.1491  0.3794  0.0765
 6067TIP3    H118146   0.155   4.606   1.320 -0.4688  0.5027  0.8038
 6067TIP3    H218147   0.288   4.631   1.387 -0.5271  0.6812  0.8553
 6068TIP3   OH218148   6.178   6.040   2.016 -0.2993  0.6177 -0.0456
 6068TIP3    H118149   6.240   6.065   1.948 -0.6800 -0.2000 -0.7105
 6068TIP3    H218150   6.232   6.003   2.086 -0.0007  0.2771 -0.4513
 6069TIP3   OH218151   2.575   2.489   4.919 -0.2039 -0.0858  0.7234
 6069TIP3    H118152   2.579   2.407   4.871 -0.3844  1.0538 -1.3704
 6069TIP3    H218153   2.494   2.530   4.890  1.6915  2.5497 -1.4267
 6070TIP3   OH218154   2.725   6.369   4.042 -0.2516 -0.0499 -0.0876
 6070TIP3    H118155   2.805   6.387   4.092  0.4402  0.9128 -1.4748
 6070TIP3    H218156   2.659   6.426   4.082 -0.4567 -1.2689  1.4411
 6071TIP3   OH218157   4.358   4.275   6.519 -0.2126 -0.4326  0.2277
 6071TIP3    H118158   4.372   4.185   6.492  0.4384 -0.7882  1.6927
 6071TIP3    H218159   4.371   4.326   6.439  0.0912 -1.5633 -0.4647
 6072TIP3   OH218160   3.871   4.843   6.721  0.3001  0.4210  0.1228
 6072TIP3    H118161   3.957   4.823   6.684  0.8211  1.6451  0.6061
 6072TIP3    H218162   3.871   4.938   6.732 -0.2785  0.2408  2.1247
 6073TIP3   OH218163   4.923   2.280   1.192  0.1371  0.2355  0.1165
 6073TIP3    H118164   4.929   2.280   1.097  1.1273  1.2212  0.1683
 6073TIP3    H218165   4.995   2.224   1.221 -0.9092 -1.0804  0.2712
 6074TIP3   OH218166   3.146   5.875   0.659 -1.0989  0.5345 -0.1058
 6074TIP3    H118167   3.131   5.954   0.712  2.0917  1.4719 -0.3742
 6074TIP3    H218168   3.147   5.906   0.569  0.7776  0.3639 -0.1767
 6075TIP3   OH218169   5.795   4.617   5.891 -0.1739 -0.1661 -0.3881
 6075TIP3    H118170   5.784   4.690   5.830 -0.3770 -0.1123 -0.2897
 6075TIP3    H218171   5.791   4.657   5.978 -2.5661 -0.5394 -0.2438
 6076TIP3   OH218172   0.174   1.796   0.503  0.0119  0.4504 -0.1521
 6076TIP3    H118173   0.136   1.856   0.567  0.5651  0.7718 -0.1240
 6076TIP3    H218174   0.184   1.848   0.423  0.9808  0.5504  0.0232
 6077TIP3   OH218175   1.247   1.218   2.809 -0.2412 -0.3465  0.0211
 6077TIP3    H118176   1.267   1.291   2.868  1.7968 -1.3155  0.5942
 6077TIP3    H218177   1.236   1.258   2.723 -1.7734  0.9084  0.7491
 6078TIP3   OH218178   3.629   7.006   6.419  0.5039  0.1236  0.7310
 6078TIP3    H118179   3.645   7.074   6.484 -1.6889  0.9058  0.5299
 6078TIP3    H218180   3.537   6.982   6.432  0.2533 -0.2915 -1.5399
 6079TIP3   OH218181   4.992   2.417   5.398  0.4825  0.2050  0.2795
 6079TIP3    H118182   5.001   2.512   5.394 -0.5239  0.2689 -0.7130
 6079TIP3    H218183   4.902   2.400   5.372  0.6146 -1.0214  0.5704
 6080TIP3   OH218184   7.989   4.159   5.576  0.2368 -0.0645 -0.0718
 6080TIP3    H118185   8.016   4.080   5.624 -0.6931 -0.9407 -0.9362
 6080TIP3    H218186   7.893   4.157   5.579  0.1792  0.3363 -1.1762
 6081TIP3   OH218187   1.901   4.397   5.538 -0.5256 -0.1034 -0.2656
 6081TIP3    H118188   1.958   4.322   5.557 -1.8904 -1.0192  0.3529
 6081TIP3    H218189   1.935   4.433   5.456  1.5458  0.0050  0.5834
 6082TIP3   OH218190   1.638   4.459   0.877  0.4781 -0.1744 -0.7504
 6082TIP3    H118191   1.578   4.469   0.951 -1.1915 -0.7967 -1.9451
 6082TIP3    H218192   1.604   4.518   0.810 -0.6704 -2.6511 -2.5325
 6083TIP3   OH218193   7.666   7.439   4.041  0.3273 -0.0180  0.0582
 6083TIP3    H118194   7.749   7.407   4.006  0.5442  0.2577  0.3163
 6083TIP3    H218195   7.688   7.478   4.125 -0.3101 -1.3197  0.8623
 6084TIP3   OH218196   7.718   5.446   6.191 -0.3008  0.4300 -0.4784
 6084TIP3    H118197   7.770   5.520   6.159 -1.4151  0.7315 -1.6790
 6084TIP3    H218198   7.704   5.392   6.113  0.6753 -1.2056  0.4114
 6085TIP3   OH218199   0.430   1.616   5.162  0.3143  0.3033  0.2398
 6085TIP3    H118200   0.340   1.639   5.184  0.2910  0.7161 -0.2582
 6085TIP3    H218201   0.463   1.691   5.111  0.3513 -0.5850 -1.1087
 6086TIP3   OH218202   4.899   1.136   2.946 -0.2009 -0.1539 -0.4925
 6086TIP3    H118203   4.874   1.196   3.016  0.3443  0.8720 -1.1492
 6086TIP3    H218204   4.965   1.079   2.985 -0.1656  0.1705 -0.0698
 6087TIP3   OH218205   4.264   2.580   5.016  0.1522 -0.0902  0.1146
 6087TIP3    H118206   4.276   2.650   4.951  0.4023  0.4169  0.6950
 6087TIP3    H218207   4.322   2.604   5.089 -0.6176 -0.2903  0.8130
 6088TIP3   OH218208   7.303   4.910   2.934 -0.3740  0.6801  0.6223
 6088TIP3    H118209   7.288   4.963   2.855 -1.0661  0.7682  0.8072
 6088TIP3    H218210   7.215   4.892   2.968 -0.1955 -0.9974  0.2945
 6089TIP3   OH218211   6.812   3.783   1.969 -0.2841 -0.4266 -0.2124
 6089TIP3    H118212   6.867   3.784   1.890 -1.2196  0.7552 -0.8823
 6089TIP3    H218213   6.729   3.821   1.940 -0.0180  1.8864  1.7869
 6090TIP3   OH218214   6.629   0.356   5.476 -0.1696 -0.1379  0.2833
 6090TIP3    H118215   6.636   0.350   5.381  1.8115 -1.9629  0.4959
 6090TIP3    H218216   6.632   0.266   5.507 -4.2926  0.0795  1.9827
 6091TIP3   OH218217   2.536   4.961   5.422 -0.0072 -0.3110  0.3186
 6091TIP3    H118218   2.486   4.927   5.348  1.1525 -0.2844 -0.4992
 6091TIP3    H218219   2.471   5.009   5.474 -0.7528  0.1048 -0.9360
 6092TIP3   OH218220   5.411   4.411   4.066  0.1556 -0.4066  0.3185
 6092TIP3    H118221   5.394   4.477   3.999 -2.4941 -0.9285  0.3665
 6092TIP3    H218222   5.455   4.459   4.136 -1.2971  1.2548  0.1658
 6093TIP3   OH218223   5.412   3.872   5.432 -0.0454  0.3405 -0.4713
 6093TIP3    H118224   5.445   3.788   5.401 -1.8232 -0.6828  0.2494
 6093TIP3    H218225   5.322   3.854   5.459  0.2743  1.9562  1.9516
 6094TIP3   OH218226   2.400   2.946   4.617 -0.1894  0.1447  0.4227
 6094TIP3    H118227   2.477   2.924   4.668 -0.9443  0.1953  1.6116
 6094TIP3    H218228   2.412   3.038   4.593  0.4912 -0.0703 -0.1087
 6095TIP3   OH218229   4.998   6.783   4.959  0.1412 -0.2023  0.2371
 6095TIP3    H118230   5.015   6.694   4.987  1.3706  0.1632  0.7088
 6095TIP3    H218231   4.909   6.780   4.921  0.4673 -1.7737 -0.4760
 6096TIP3   OH218232   7.325   6.064   6.438 -0.5225 -0.1770 -0.5738
 6096TIP3    H118233   7.328   6.050   6.344 -0.2888 -0.9031 -0.4681
 6096TIP3    H218234   7.238   6.099   6.455 -0.3003  0.6591 -1.1442
 6097TIP3   OH218235   2.710   3.779   2.230  0.1210  0.0628  0.3477
 6097TIP3    H118236   2.640   3.743   2.284  0.2606 -2.4175 -1.0053
 6097TIP3    H218237   2.665   3.823   2.158 -0.0783 -0.5734  0.0754
 6098TIP3   OH218238   6.177   1.215   0.138  0.4783 -0.2785  0.8015
 6098TIP3    H118239   6.238   1.256   0.198  0.3895 -0.5200  1.0599
 6098TIP3    H218240   6.131   1.288   0.096  0.3729 -0.1165  1.1986
 6099TIP3   OH218241   3.197   2.557   3.300 -0.5933 -0.4218  0.8323
 6099TIP3    H118242   3.273   2.500   3.311 -0.3033 -0.0999  0.5261
 6099TIP3    H218243   3.132   2.502   3.256 -0.0681 -0.3291 -0.0957
 6100TIP3   OH218244   8.170   0.702   3.837  0.2120 -0.2645  0.2206
 6100TIP3    H118245   8.219   0.761   3.780  1.4858 -1.6687 -0.2326
 6100TIP3    H218246   8.182   0.616   3.797 -2.0340 -0.7797  0.5449
 6101TIP3   OH218247   6.124   5.401   4.748  0.6449  0.3590 -0.2704
 6101TIP3    H118248   6.139   5.326   4.806  1.1300 -0.3717 -1.3166
 6101TIP3    H218249   6.198   5.459   4.766  0.5442  0.3566  0.1743
 6102TIP3   OH218250   3.384   5.512   2.294  0.1694  0.0773  0.0344
 6102TIP3    H118251   3.404   5.438   2.237 -1.8841 -0.4580 -0.0807
 6102TIP3    H218252   3.316   5.561   2.248 -0.9974  0.0615  1.6502
 6103TIP3   OH218253   3.313   5.031   4.201  0.1946  0.0480 -0.9267
 6103TIP3    H118254   3.347   5.112   4.163 -1.6238  0.6804 -1.2749
 6103TIP3    H218255   3.229   5.056   4.240  0.9156 -1.0534  1.5458
 6104TIP3   OH218256   1.752   5.185   3.749  0.4386 -0.4889 -0.0693
 6104TIP3    H118257   1.805   5.106   3.736 -0.5420 -1.2320  0.3630
 6104TIP3    H218258   1.754   5.229   3.664 -1.3054 -2.4309 -1.2075
 6105TIP3   OH218259   1.792   0.723   3.856  0.5686 -0.7237 -0.2498
 6105TIP3    H118260   1.841   0.645   3.829  1.9986 -0.8406  2.3489
 6105TIP3    H218261   1.711   0.688   3.893  1.1371 -1.0078  0.7653
 6106TIP3   OH218262   5.283   0.495   0.285 -0.5682  0.1524 -0.5609
 6106TIP3    H118263   5.245   0.418   0.242 -0.6261 -0.9676  1.3672
 6106TIP3    H218264   5.377   0.479   0.284 -0.6423 -0.4964  0.7544
 6107TIP3   OH218265   6.533   0.462   1.781 -0.3922 -0.0508 -0.1733
 6107TIP3    H118266   6.617   0.442   1.740 -0.9017 -0.4826 -1.0463
 6107TIP3    H218267   6.550   0.541   1.833  0.5698 -0.1870 -0.2523
 6108TIP3   OH218268   4.083   6.653   4.591 -0.2230 -0.3455 -0.5397
 6108TIP3    H118269   4.172   6.678   4.615  0.3566 -2.1805 -0.5890
 6108TIP3    H218270   4.092   6.564   4.555 -1.8126  0.1522 -2.3766
 6109TIP3   OH218271   7.959   4.861   6.582  0.0928 -0.4014  0.0086
 6109TIP3    H118272   7.994   4.773   6.596  2.7436  0.7527  1.4346
 6109TIP3    H218273   7.870   4.858   6.618  0.2991 -2.3516  0.4514
 6110TIP3   OH218274   5.510   2.326   6.753  0.3288 -0.1372  0.3714
 6110TIP3    H118275   5.512   2.421   6.743  1.6410 -0.3434 -2.0739
 6110TIP3    H218276   5.422   2.301   6.724  0.6988  0.2088 -1.1716
 6111TIP3   OH218277   6.073   3.746   2.381 -0.1843  0.0946 -0.7016
 6111TIP3    H118278   6.053   3.835   2.353  1.1210  0.6237 -0.0434
 6111TIP3    H218279   6.054   3.692   2.304 -3.4314  0.5528 -0.3575
 6112TIP3   OH218280   4.334   0.214   3.858 -0.1284 -0.0885  0.2066
 6112TIP3    H118281   4.357   0.306   3.844  0.3769  0.1363  2.2705
 6112TIP3    H218282   4.251   0.203   3.811 -0.6917  1.6844  0.6959
 6113TIP3   OH218283   0.992   3.508   0.277  0.5593  0.2145 -0.6765
 6113TIP3    H118284   1.074   3.513   0.228  1.3013  0.5538  0.5538
 6113TIP3    H218285   0.956   3.597   0.273  0.4298  0.1490 -0.9348
 6114TIP3   OH218286   1.917   5.727   5.684 -0.1488 -0.6193  0.7022
 6114TIP3    H118287   1.973   5.804   5.672 -0.1301 -0.8089 -0.5065
 6114TIP3    H218288   1.865   5.722   5.604 -0.1934 -1.8236  0.7842
 6115TIP3   OH218289   2.328   3.780   5.409  0.1038 -0.5646  0.2047
 6115TIP3    H118290   2.275   3.701   5.399  0.4108 -0.6612 -0.7064
 6115TIP3    H218291   2.328   3.821   5.322  0.4862  0.0932  0.5038
 6116TIP3   OH218292   7.275   7.535   0.508  0.4024  0.1751 -0.2307
 6116TIP3    H118293   7.225   7.506   0.432 -0.2703  0.5528  0.0499
 6116TIP3    H218294   7.304   7.454   0.550  0.4479 -0.0400 -0.6730
 6117TIP3   OH218295   3.514   0.470   1.594  0.4419  0.2658  0.0931
 6117TIP3    H118296   3.452   0.492   1.664  1.1454 -3.0431  2.0148
 6117TIP3    H218297   3.598   0.460   1.640  1.4850  0.4726 -1.7056
 6118TIP3   OH218298   7.635   5.967   4.567  0.0136  0.1279 -0.0093
 6118TIP3    H118299   7.680   5.903   4.623 -0.8235  0.1410  0.6883
 6118TIP3    H218300   7.589   5.913   4.502  0.2844  0.0821 -0.1686
 6119TIP3   OH218301   2.377   6.080   5.137 -0.0802 -0.1334  0.0934
 6119TIP3    H118302   2.455   6.042   5.177 -1.2868 -1.3954  1.3785
 6119TIP3    H218303   2.357   6.156   5.190 -0.0272 -0.1163  0.0896
 6120TIP3   OH218304   8.157   2.881   0.925  0.9938 -0.0953 -0.0481
 6120TIP3    H118305   8.219   2.809   0.932  0.1168 -0.8224  0.3400
 6120TIP3    H218306   8.071   2.840   0.920  0.2664  0.9346  2.5189
 6121TIP3   OH218307   1.560   4.713   0.229  0.1999  0.2534 -0.3298
 6121TIP3    H118308   1.491   4.649   0.244 -0.4916  1.0765  0.1101
 6121TIP3    H218309   1.584   4.703   0.137 -1.7199  1.1146 -0.9647
 6122TIP3   OH218310   3.454   1.798   2.812  0.1908 -0.2861 -0.2844
 6122TIP3    H118311   3.474   1.731   2.747 -0.4470 -0.2178 -0.5529
 6122TIP3    H218312   3.406   1.752   2.881 -3.8019  0.5249 -2.2638
 6123TIP3   OH218313   1.393   5.403   6.788 -0.3157 -0.6137  0.0400
 6123TIP3    H118314   1.439   5.382   6.707 -2.2922 -1.9641 -0.8115
 6123TIP3    H218315   1.361   5.319   6.820 -0.7252  0.0629  1.5120
 6124TIP3   OH218316   0.851   6.112   0.372  0.5820 -0.3444  0.0300
 6124TIP3    H118317   0.896   6.100   0.456  0.8540  1.2486  0.1387
 6124TIP3    H218318   0.905   6.065   0.309  1.1380 -0.3984  0.5363
 6125TIP3   OH218319   4.673   7.803   3.311 -0.0354 -0.2917 -0.2751
 6125TIP3    H118320   4.733   7.731   3.291 -1.5077 -2.2324  1.7433
 6125TIP3    H218321   4.701   7.875   3.255  2.6745 -1.8441 -1.0671
 6126TIP3   OH218322   4.113   0.671   1.772  0.5743  0.5444  0.5576
 6126TIP3    H118323   4.041   0.710   1.821 -0.9646 -1.0051 -0.3507
 6126TIP3    H218324   4.138   0.594   1.823  1.3197  0.8405  0.6511
 6127TIP3   OH218325   5.868   0.185   3.675  0.4169  0.6802  0.0267
 6127TIP3    H118326   5.946   0.192   3.729  0.1498 -0.1445  0.5352
 6127TIP3    H218327   5.897   0.137   3.598  0.8595  2.0807 -0.7245
 6128TIP3   OH218328   7.022   1.440   4.708  0.1666  0.0127 -0.5744
 6128TIP3    H118329   7.029   1.363   4.765 -0.5607 -0.8087 -1.5637
 6128TIP3    H218330   6.999   1.511   4.767  2.6343 -0.1036  0.6572
 6129TIP3   OH218331   0.100   5.021   4.858 -0.3245  0.0841  0.2503
 6129TIP3    H118332   0.105   5.084   4.930 -0.1102 -1.3832  1.5770
 6129TIP3    H218333   0.190   5.016   4.825 -0.0031 -0.6574  1.1866
 6130TIP3   OH218334   0.663   5.446   2.833  0.1143  0.0745 -0.0070
 6130TIP3    H118335   0.749   5.406   2.840  0.3141  0.3557 -0.7896
 6130TIP3    H218336   0.680   5.540   2.834 -0.2097  0.1333  0.1534
 6131TIP3   OH218337   3.853   6.556   0.317  0.1625 -0.3908  0.2123
 6131TIP3    H118338   3.838   6.614   0.242 -1.0239 -1.2233 -0.2142
 6131TIP3    H218339   3.947   6.562   0.332  0.6898 -1.2154 -2.2014
 6132TIP3   OH218340   8.304   3.464   4.428  0.7554 -0.3680  0.2783
 6132TIP3    H118341   8.323   3.387   4.482  0.4195 -0.7075 -0.0844
 6132TIP3    H218342   8.242   3.514   4.480  0.7540 -0.4835  0.3896
 6133TIP3   OH218343   2.407   5.717   6.368  0.8173 -0.1144  0.0335
 6133TIP3    H118344   2.452   5.745   6.288  1.4429  1.4453  0.8757
 6133TIP3    H218345   2.318   5.696   6.340  0.5482  1.9502 -0.8595
 6134TIP3   OH218346   5.893   4.750   4.702 -0.2527  0.4836 -0.0286
 6134TIP3    H118347   5.857   4.662   4.694  0.8500  0.1241 -1.5436
 6134TIP3    H218348   5.968   4.751   4.642  1.0090  1.8200  1.4571
 6135TIP3   OH218349   3.872   7.170   2.168 -0.3920  0.0117 -0.3587
 6135TIP3    H118350   3.814   7.245   2.185 -0.7935 -0.4836  0.5301
 6135TIP3    H218351   3.882   7.128   2.253 -0.4693 -1.1503 -0.9038
 6136TIP3   OH218352   3.739   3.112   5.187 -0.0844 -0.5320 -1.0899
 6136TIP3    H118353   3.818   3.100   5.134 -1.1153  0.9646 -3.1180
 6136TIP3    H218354   3.756   3.190   5.239 -0.4943  0.2988 -2.1629
 6137TIP3   OH218355   5.559   3.513   0.117  0.6145 -0.5926  0.3357
 6137TIP3    H118356   5.482   3.557   0.081  2.9106  1.1815 -2.9656
 6137TIP3    H218357   5.542   3.507   0.211 -1.9318  3.1464  0.3141
 6138TIP3   OH218358   8.252   2.509   5.523 -0.5857  0.1897 -0.4873
 6138TIP3    H118359   8.179   2.525   5.463 -0.9738 -0.4337 -0.1868
 6138TIP3    H218360   8.239   2.420   5.554 -0.0947  0.3243  0.1288
 6139TIP3   OH218361   2.145   3.491   0.391 -0.6705 -0.6210  0.4237
 6139TIP3    H118362   2.081   3.532   0.450  0.2544  0.9832  0.3514
 6139TIP3    H218363   2.228   3.496   0.438 -0.0611 -0.0108 -0.6748
 6140TIP3   OH218364   5.404   3.390   1.500  0.4304  0.4828  0.4139
 6140TIP3    H118365   5.372   3.305   1.470 -0.3419  0.9022  0.0372
 6140TIP3    H218366   5.421   3.439   1.420  0.4073  0.8550  0.6342
 6141TIP3   OH218367   5.329   4.976   6.218 -0.1577  0.1936  0.1409
 6141TIP3    H118368   5.289   4.958   6.303 -0.0725  1.0560  0.3696
 6141TIP3    H218369   5.290   4.912   6.159  2.3389 -2.8203  1.4979
 6142TIP3   OH218370   1.143   0.498   5.251 -0.1362 -0.3343  0.0784
 6142TIP3    H118371   1.102   0.528   5.332 -2.3843 -2.7425 -0.0544
 6142TIP3    H218372   1.093   0.421   5.225  2.4455 -1.5016 -1.9712
 6143TIP3   OH218373   5.732   7.771   0.643 -0.2528 -0.0487 -0.3022
 6143TIP3    H118374   5.790   7.778   0.567  0.4131 -1.7559 -0.0004
 6143TIP3    H218375   5.786   7.796   0.717 -0.7523  1.1100 -0.3122
 6144TIP3   OH218376   7.765   7.224   0.586  0.2780  0.4771 -0.6216
 6144TIP3    H118377   7.771   7.301   0.644  1.8701 -0.8782  1.1482
 6144TIP3    H218378   7.856   7.203   0.566  0.0142 -2.0472  0.5119
 6145TIP3   OH218379   5.617   6.513   2.953  0.1055 -0.3504 -0.4948
 6145TIP3    H118380   5.664   6.596   2.962  1.4836 -1.0850 -0.7466
 6145TIP3    H218381   5.538   6.525   3.006  1.5277  0.1950  1.6239
 6146TIP3   OH218382   1.537   4.510   1.117  0.6597 -0.5118  0.7926
 6146TIP3    H118383   1.553   4.592   1.164 -0.0153 -1.0047  1.9351
 6146TIP3    H218384   1.543   4.442   1.184 -0.7829 -1.2050  0.2689
 6147TIP3   OH218385   5.536   5.312   3.372 -0.6423 -0.2749 -0.0921
 6147TIP3    H118386   5.474   5.242   3.395 -0.7663 -0.1991 -0.2006
 6147TIP3    H218387   5.581   5.280   3.294 -0.7251 -0.2150 -0.1630
 6148TIP3   OH218388   3.217   1.695   5.280 -0.4109 -0.1247 -0.3065
 6148TIP3    H118389   3.131   1.699   5.324 -0.5216  1.1745 -0.6082
 6148TIP3    H218390   3.255   1.613   5.312 -0.5857  0.6289  2.0653
 6149TIP3   OH218391   6.635   3.263   4.679  0.2269  0.7077 -0.0680
 6149TIP3    H118392   6.577   3.263   4.603  0.2155  0.5673 -0.0592
 6149TIP3    H218393   6.723   3.274   4.642  0.2537  0.3220 -0.1276
 6150TIP3   OH218394   4.148   0.338   1.315 -0.0457 -0.2924  0.1770
 6150TIP3    H118395   4.241   0.322   1.304 -0.1170  0.0509 -1.0146
 6150TIP3    H218396   4.134   0.426   1.279 -0.8441 -0.3688  0.2833
 6151TIP3   OH218397   5.725   4.697   0.939  0.2815 -0.2817 -0.1885
 6151TIP3    H118398   5.813   4.718   0.970  0.1506  0.4908 -0.3205
 6151TIP3    H218399   5.685   4.648   1.011  1.0710 -1.2992 -0.4267
 6152TIP3   OH218400   3.415   0.986   2.646  0.1865 -0.2724 -0.1436
 6152TIP3    H118401   3.333   0.966   2.600  0.0954 -3.3931  1.1785
 6152TIP3    H218402   3.443   0.903   2.684  3.7022  0.7906 -0.0226
 6153TIP3   OH218403   0.365   0.857   0.658 -0.6255 -0.0049 -0.4469
 6153TIP3    H118404   0.285   0.850   0.606 -0.2833 -1.6543 -0.8158
 6153TIP3    H218405   0.412   0.932   0.621 -2.4402  1.6909  0.4820
 6154TIP3   OH218406   7.737   5.705   4.442 -0.3033 -0.4025  0.2814
 6154TIP3    H118407   7.676   5.760   4.393  0.5234  0.0167 -0.3179
 6154TIP3    H218408   7.778   5.765   4.504 -0.3574 -0.6355  0.5403
 6155TIP3   OH218409   3.783   7.226   4.120 -0.4328 -0.0070 -0.2735
 6155TIP3    H118410   3.826   7.267   4.045 -2.2401 -0.3248 -1.5444
 6155TIP3    H218411   3.690   7.244   4.108 -0.7043  1.1378  2.6793
 6156TIP3   OH218412   0.598   0.273   0.691 -0.4882  0.0334  0.3093
 6156TIP3    H118413   0.535   0.330   0.736  0.8364  0.0617  2.2309
 6156TIP3    H218414   0.625   0.325   0.615  0.5041  1.9593  1.8697
 6157TIP3   OH218415   1.629   1.460   5.255  0.1549  0.0064 -0.2262
 6157TIP3    H118416   1.614   1.409   5.334  0.4472 -0.8135 -0.6876
 6157TIP3    H218417   1.552   1.444   5.200  0.4532 -0.3082 -0.5595
 6158TIP3   OH218418   0.018   4.571   0.585  0.1501 -0.0640  0.4145
 6158TIP3    H118419   0.103   4.533   0.564 -0.1570 -0.2066 -0.6050
 6158TIP3    H218420   0.035   4.665   0.592  0.3951 -0.0994  0.2836
 6159TIP3   OH218421   2.821   0.225   4.639 -0.1383  0.1006 -0.0934
 6159TIP3    H118422   2.808   0.196   4.548 -0.7258  0.8123 -0.2472
 6159TIP3    H218423   2.743   0.194   4.685  0.6366 -1.1580  0.4113
 6160TIP3   OH218424   3.884   5.435   1.194  0.1281 -0.1800  0.4303
 6160TIP3    H118425   3.802   5.484   1.197  1.2447  1.8058  0.0030
 6160TIP3    H218426   3.884   5.395   1.107  0.8690  2.2320 -0.7742
 6161TIP3   OH218427   3.206   4.434   5.306  0.2581  0.5509 -0.1165
 6161TIP3    H118428   3.250   4.436   5.391  0.9620  0.4294 -0.4697
 6161TIP3    H218429   3.231   4.349   5.269  0.5729  0.9185 -0.7607
 6162TIP3   OH218430   6.041   2.173   2.642  0.5087 -0.5895 -0.0943
 6162TIP3    H118431   6.110   2.237   2.622  0.1812 -0.2957 -0.2798
 6162TIP3    H218432   6.016   2.194   2.732 -0.3583  0.2563 -0.5153
 6163TIP3   OH218433   3.074   5.510   6.337 -0.2376 -0.2001  0.2562
 6163TIP3    H118434   3.057   5.604   6.340  2.0358  0.2503  0.5504
 6163TIP3    H218435   3.144   5.500   6.273 -0.8178 -1.7835 -0.1826
 6164TIP3   OH218436   6.674   1.666   5.139  0.2822 -0.3656  0.2058
 6164TIP3    H118437   6.640   1.577   5.138 -1.8247  0.3744  0.0533
 6164TIP3    H218438   6.705   1.681   5.050  2.2934 -1.4829  0.6692
 6165TIP3   OH218439   1.401   3.039   1.013 -0.4966  0.4004 -0.0463
 6165TIP3    H118440   1.372   3.088   0.936  2.9824 -0.3272 -2.0890
 6165TIP3    H218441   1.387   2.947   0.989  1.5369  0.1208 -0.3681
 6166TIP3   OH218442   2.434   7.248   1.472 -0.2076 -0.2103  0.0773
 6166TIP3    H118443   2.416   7.267   1.564  0.1236  0.4733  0.0083
 6166TIP3    H218444   2.514   7.297   1.453 -1.2104  1.0477 -1.0353
 6167TIP3   OH218445   3.343   7.537   2.346 -0.6809 -0.9306  0.1909
 6167TIP3    H118446   3.407   7.598   2.383 -1.1978 -0.8345  0.9717
 6167TIP3    H218447   3.334   7.469   2.413  0.0811 -2.0310 -0.7753
 6168TIP3   OH218448   5.251   6.739   2.955 -0.1145  0.7681  0.3326
 6168TIP3    H118449   5.231   6.832   2.945 -0.9303  0.5791  0.1131
 6168TIP3    H218450   5.176   6.694   2.917  0.3208  0.0135  0.3349
 6169TIP3   OH218451   0.181   4.717   4.662 -0.3579  1.0787 -0.0032
 6169TIP3    H118452   0.122   4.757   4.725  1.2703  1.2599  1.4941
 6169TIP3    H218453   0.186   4.625   4.687 -1.0344  0.7554 -0.9812
 6170TIP3   OH218454   7.999   2.084   2.024  0.5498 -0.0893 -0.2561
 6170TIP3    H118455   7.992   2.028   2.101  3.0410 -1.3953 -0.8767
 6170TIP3    H218456   8.057   2.155   2.051 -1.6646  1.6850  0.1633
 6171TIP3   OH218457   3.127   4.205   1.242 -0.0177  0.2910 -0.0038
 6171TIP3    H118458   3.157   4.205   1.151  0.0865  0.7623  0.0267
 6171TIP3    H218459   3.183   4.140   1.285 -0.0546  0.0794 -0.2704
 6172TIP3   OH218460   7.180   6.803   2.901 -0.0297  0.1244  0.1317
 6172TIP3    H118461   7.242   6.766   2.964 -0.8579 -2.7734 -0.5790
 6172TIP3    H218462   7.233   6.824   2.825  0.7742  2.4498  1.2497
 6173TIP3   OH218463   2.438   3.526   5.697  0.0708 -0.3375  0.5453
 6173TIP3    H118464   2.449   3.546   5.604 -1.4700  0.5928  0.5336
 6173TIP3    H218465   2.480   3.441   5.708 -1.2689 -1.3271 -1.4058
 6174TIP3   OH218466   5.234   7.351   5.624  0.0970  0.0744 -0.1813
 6174TIP3    H118467   5.170   7.286   5.653 -0.1737  0.6085  0.4488
 6174TIP3    H218468   5.272   7.386   5.705 -0.0745  1.0110 -0.4890
 6175TIP3   OH218469   3.745   1.094   0.159  0.3272  0.7423 -0.2995
 6175TIP3    H118470   3.790   1.072   0.240 -1.5398 -1.9762  0.1417
 6175TIP3    H218471   3.793   1.047   0.091 -0.2054  0.0551 -0.2137
 6176TIP3   OH218472   7.357   5.772   1.879  0.2013  0.1343  0.5760
 6176TIP3    H118473   7.401   5.772   1.964 -0.4793 -2.9058  1.0503
 6176TIP3    H218474   7.266   5.749   1.898 -0.6158  1.8927 -0.8141
 6177TIP3   OH218475   1.968   5.375   0.281 -0.1994  0.6744  0.1115
 6177TIP3    H118476   1.936   5.450   0.331 -0.8105 -0.6533  1.8037
 6177TIP3    H218477   1.907   5.367   0.207 -1.2193  0.7808  0.9239
 6178TIP3   OH218478   0.337   0.586   4.551  0.2474  0.2609 -0.2350
 6178TIP3    H118479   0.303   0.591   4.640  0.5122  0.7442 -0.1551
 6178TIP3    H218480   0.426   0.622   4.558  0.4774 -0.2397 -0.5856
 6179TIP3   OH218481   3.765   7.576   2.409 -0.3154  0.1066 -0.1176
 6179TIP3    H118482   3.767   7.596   2.502  0.4947  0.9140 -0.2974
 6179TIP3    H218483   3.747   7.659   2.366 -0.8741 -0.2913 -0.6814
 6180TIP3   OH218484   1.166   0.640   1.674 -0.3450  0.3148 -0.2662
 6180TIP3    H118485   1.127   0.689   1.602 -0.8467  1.5064  0.7791
 6180TIP3    H218486   1.185   0.706   1.740  0.2716 -0.7284  0.6366
 6181TIP3   OH218487   2.087   7.734   6.101  0.3956 -0.4174  0.3320
 6181TIP3    H118488   2.022   7.803   6.116  0.9269 -0.1200  1.3304
 6181TIP3    H218489   2.050   7.657   6.142  0.6364 -0.2677  0.8311
 6182TIP3   OH218490   0.134   3.688   4.971  0.2033 -0.2003  0.3458
 6182TIP3    H118491   0.226   3.673   4.950  0.2111 -0.3706  0.4955
 6182TIP3    H218492   0.104   3.752   4.907 -0.1340 -1.6959 -1.0446
 6183TIP3   OH218493   4.825   1.799   5.860 -0.1485 -0.4264  0.5711
 6183TIP3    H118494   4.918   1.785   5.845 -0.3526  0.1698 -1.5853
 6183TIP3    H218495   4.801   1.734   5.926  1.5116 -1.5093  0.1640
 6184TIP3   OH218496   8.135   0.631   2.768 -0.2389 -0.1769  0.2653
 6184TIP3    H118497   8.162   0.720   2.745 -2.0347  0.3175 -0.0830
 6184TIP3    H218498   8.217   0.582   2.773  0.6598  1.0701 -1.3087
 6185TIP3   OH218499   0.399   0.133   3.396 -0.2443  0.1458  0.6116
 6185TIP3    H118500   0.470   0.120   3.333  0.5666 -0.0776  1.5353
 6185TIP3    H218501   0.319   0.129   3.344  0.4243  0.4480 -0.4624
 6186TIP3   OH218502   2.973   3.144   6.202  0.2382  0.3039  0.2135
 6186TIP3    H118503   2.878   3.134   6.202  0.3746 -1.2088  0.6946
 6186TIP3    H218504   2.987   3.239   6.196 -1.2681  0.4801 -1.4105
 6187TIP3   OH218505   1.052   2.390   2.430 -0.4896 -0.1901 -0.1572
 6187TIP3    H118506   0.988   2.435   2.375 -0.0554 -1.1499 -1.4900
 6187TIP3    H218507   1.012   2.391   2.518 -2.9748 -1.8537 -1.1383
 6188TIP3   OH218508   4.853   2.872   3.298  0.8023  0.0366  0.2609
 6188TIP3    H118509   4.936   2.904   3.262 -0.6048  1.5455 -1.8373
 6188TIP3    H218510   4.813   2.824   3.225 -0.7838  0.5484  0.7629
 6189TIP3   OH218511   0.664   4.004   3.018  0.0061 -0.4843 -0.0066
 6189TIP3    H118512   0.652   3.943   2.945  0.5356  0.5838 -1.0213
 6189TIP3    H218513   0.729   3.962   3.074 -1.1705 -1.8074  0.4526
 6190TIP3   OH218514   7.683   2.366   6.698  0.1874 -0.1445  0.0506
 6190TIP3    H118515   7.776   2.359   6.719 -0.1918 -1.0498  1.6408
 6190TIP3    H218516   7.649   2.430   6.760 -0.3605 -0.2946 -0.0855
 6191TIP3   OH218517   4.908   4.720   2.246 -0.1589 -0.5533  0.1491
 6191TIP3    H118518   4.814   4.720   2.264 -0.2457 -1.7049 -0.2366
 6191TIP3    H218519   4.942   4.792   2.299 -1.0736 -0.9073  1.2622
 6192TIP3   OH218520   2.405   2.107   0.976  0.3310 -0.4090  0.3387
 6192TIP3    H118521   2.445   2.192   0.994  2.2905 -1.1365 -0.2838
 6192TIP3    H218522   2.352   2.087   1.053  1.3743  0.5256  1.3071
 6193TIP3   OH218523   4.176   4.434   5.219 -0.1526  0.0678 -0.1907
 6193TIP3    H118524   4.253   4.483   5.248 -0.0123  0.8982 -1.8161
 6193TIP3    H218525   4.105   4.468   5.273  0.8288 -2.1926  2.8449
 6194TIP3   OH218526   1.327   6.400   0.647 -0.1861  0.0273  0.0593
 6194TIP3    H118527   1.323   6.388   0.552 -0.1357  2.0709 -0.2563
 6194TIP3    H218528   1.346   6.313   0.682 -1.7977 -1.1013 -1.6719
 6195TIP3   OH218529   5.541   7.028   2.282 -0.0412 -0.3523 -0.2729
 6195TIP3    H118530   5.506   7.098   2.227  0.1816 -0.7074 -0.8818
 6195TIP3    H218531   5.501   7.042   2.367 -0.4268  0.1874 -0.5363
 6196TIP3   OH218532   4.035   3.412   0.962 -0.2245 -0.3837  0.0326
 6196TIP3    H118533   3.958   3.356   0.950 -0.3552 -0.2478  0.2313
 6196TIP3    H218534   4.001   3.501   0.952 -0.0192 -0.3396 -0.2700
 6197TIP3   OH218535   6.746   4.104   4.628 -0.0322 -0.7127  0.0995
 6197TIP3    H118536   6.746   4.083   4.535  1.2050 -0.2104 -0.0324
 6197TIP3    H218537   6.817   4.053   4.665  1.2881  1.1273  0.2423
 6198TIP3   OH218538   4.540   0.428   4.383  0.4070 -0.3559  0.1229
 6198TIP3    H118539   4.569   0.485   4.454  0.9555 -0.3614 -0.0938
 6198TIP3    H218540   4.527   0.487   4.308 -1.0632 -0.2083  0.4609
 6199TIP3   OH218541   1.413   1.839   1.058 -0.0655  0.1807 -0.1965
 6199TIP3    H118542   1.447   1.815   0.971  0.5581 -1.1626  0.3820
 6199TIP3    H218543   1.439   1.930   1.069  1.6856 -0.2194 -0.6108
 6200TIP3   OH218544   4.347   0.630   2.497 -0.0995 -0.1526  0.0927
 6200TIP3    H118545   4.291   0.555   2.478  0.7686 -1.1785  1.4271
 6200TIP3    H218546   4.374   0.662   2.411 -1.0145 -0.9443 -0.5131
 6201TIP3   OH218547   7.294   1.215   0.766 -0.1914 -0.1115  0.0833
 6201TIP3    H118548   7.368   1.268   0.795 -0.3722  0.9496 -1.3009
 6201TIP3    H218549   7.332   1.130   0.745  0.4561  0.1155  0.3109
 6202TIP3   OH218550   2.637   4.406   3.797 -0.0750 -0.3711  0.3026
 6202TIP3    H118551   2.577   4.331   3.797 -0.1933 -0.2761  0.8985
 6202TIP3    H218552   2.717   4.373   3.838  0.5280 -0.6807 -1.0588
 6203TIP3   OH218553   0.943   1.717   3.633  0.4862 -0.8642  0.3095
 6203TIP3    H118554   0.884   1.694   3.561  0.3303 -2.3398  0.8743
 6203TIP3    H218555   1.025   1.740   3.591 -0.6397  1.9931 -0.5502
 6204TIP3   OH218556   4.191   2.678   4.148 -0.0981 -0.3968  0.1847
 6204TIP3    H118557   4.142   2.683   4.230  0.2755 -0.5354  0.4223
 6204TIP3    H218558   4.256   2.747   4.155 -1.1692  0.7306 -0.7555
 6205TIP3   OH218559   7.562   1.036   5.486  0.3561 -0.0696  0.6857
 6205TIP3    H118560   7.514   1.117   5.502  0.7436  0.1077  0.9704
 6205TIP3    H218561   7.527   0.973   5.550 -0.3642 -0.3072  0.0704
 6206TIP3   OH218562   5.853   2.206   0.234 -0.1399  0.4809 -0.0216
 6206TIP3    H118563   5.772   2.157   0.249  0.3839 -0.1870  0.7819
 6206TIP3    H218564   5.855   2.222   0.140 -1.0734  0.2749 -0.0819
 6207TIP3   OH218565   6.216   0.465   0.579  0.3882  0.1388  0.5235
 6207TIP3    H118566   6.293   0.500   0.624  0.0397  1.1134  0.3739
 6207TIP3    H218567   6.142   0.504   0.624 -0.0758 -1.4919  1.2515
 6208TIP3   OH218568   0.440   1.078   0.491 -0.3023 -0.0442 -0.5640
 6208TIP3    H118569   0.465   1.166   0.517  0.5814 -0.7289  1.1133
 6208TIP3    H218570   0.346   1.083   0.471 -1.0137  0.7092  2.4896
 6209TIP3   OH218571   5.705   3.856   1.818 -0.3252 -0.0524 -0.1775
 6209TIP3    H118572   5.710   3.777   1.764  0.6843  0.0343 -0.2257
 6209TIP3    H218573   5.701   3.928   1.755 -0.2482 -0.0106 -0.1341
 6210TIP3   OH218574   1.281   5.269   1.564  0.0030 -0.4005  0.1921
 6210TIP3    H118575   1.329   5.192   1.595  0.7316  0.5297  1.4689
 6210TIP3    H218576   1.349   5.327   1.529 -0.7578 -1.3494 -3.2365
 6211TIP3   OH218577   5.978   6.674   6.020 -0.5213  0.4039  0.0550
 6211TIP3    H118578   5.886   6.697   6.029 -0.7096  0.0753 -0.9029
 6211TIP3    H218579   5.985   6.635   5.933  0.2854 -0.7225  0.5888
 6212TIP3   OH218580   6.776   4.119   1.930 -0.4180 -0.3751  0.4540
 6212TIP3    H118581   6.738   4.202   1.958 -0.3563  0.3324 -1.3722
 6212TIP3    H218582   6.701   4.061   1.917 -0.3994 -0.9443  2.6325
 6213TIP3   OH218583   7.798   7.269   4.802 -0.3574 -0.8658  0.0406
 6213TIP3    H118584   7.822   7.221   4.723  2.1848  0.7671 -0.3002
 6213TIP3    H218585   7.792   7.360   4.773 -0.5268 -0.3900  1.5127
 6214TIP3   OH218586   6.034   4.286   0.808  0.0760 -0.2604 -0.5297
 6214TIP3    H118587   5.943   4.258   0.802 -0.1490  0.2439  0.2936
 6214TIP3    H218588   6.044   4.355   0.744 -0.0366 -0.5212 -0.8287
 6215TIP3   OH218589   2.236   0.595   1.339  0.5216 -0.2856  0.2397
 6215TIP3    H118590   2.273   0.682   1.326 -0.5880  0.4459  1.7568
 6215TIP3    H218591   2.142   0.608   1.342  0.0793 -1.9773 -2.4994
 6216TIP3   OH218592   5.487   3.468   1.243 -0.0151  0.1218 -0.1765
 6216TIP3    H118593   5.462   3.558   1.221 -1.2373 -0.8669 -3.3335
 6216TIP3    H218594   5.574   3.457   1.206  0.2858  0.0755  0.5230
 6217TIP3   OH218595   0.321   2.482   2.996 -0.1326  0.0082  0.6490
 6217TIP3    H118596   0.309   2.519   3.084  0.6794  2.3946 -0.1625
 6217TIP3    H218597   0.398   2.527   2.962  0.6408 -2.1802 -0.6609
 6218TIP3   OH218598   7.314   4.173   5.654 -0.4797 -0.1753  0.2848
 6218TIP3    H118599   7.244   4.163   5.718  1.4931 -2.6686  2.2639
 6218TIP3    H218600   7.279   4.135   5.574 -1.5723 -0.9091  1.0840
 6219TIP3   OH218601   2.726   5.893   4.492  0.1512 -0.0163  0.5114
 6219TIP3    H118602   2.806   5.862   4.535 -0.4495 -0.2437  1.4740
 6219TIP3    H218603   2.687   5.814   4.454 -0.6646 -0.2618  1.7946
 6220TIP3   OH218604   5.379   1.855   4.194  0.3010  0.1785  0.0949
 6220TIP3    H118605   5.339   1.938   4.168  1.6909  1.3924  1.6252
 6220TIP3    H218606   5.306   1.803   4.228 -0.6346  0.6528 -1.1247
 6221TIP3   OH218607   0.644   1.746   6.282  0.2360 -0.2741  0.0150
 6221TIP3    H118608   0.644   1.841   6.271  0.0338 -0.3093 -0.3097
 6221TIP3    H218609   0.568   1.729   6.338  0.4050 -0.2259  0.2610
 6222TIP3   OH218610   0.121   4.182   2.284  0.0374  0.0390  0.1199
 6222TIP3    H118611   0.037   4.212   2.250  1.3111  3.4354 -0.3617
 6222TIP3    H218612   0.123   4.211   2.375 -0.6023 -3.1350  1.2886
 6223TIP3   OH218613   4.911   6.706   4.065 -0.2728  0.0380 -0.1338
 6223TIP3    H118614   5.004   6.685   4.067 -0.4492 -0.8934 -0.8544
 6223TIP3    H218615   4.868   6.626   4.098 -0.8400  0.2447 -0.3495
 6224TIP3   OH218616   4.231   6.886   1.997 -0.2107  0.5848 -0.1591
 6224TIP3    H118617   4.165   6.850   1.937  1.0225 -2.4294  0.0856
 6224TIP3    H218618   4.181   6.942   2.056 -2.2855 -0.2184 -1.0368
 6225TIP3   OH218619   7.419   0.357   5.472 -0.3807 -0.1064 -0.3755
 6225TIP3    H118620   7.492   0.369   5.411 -0.6161 -0.1472 -0.6695
 6225TIP3    H218621   7.347   0.328   5.417 -0.2043 -1.5604  0.1336
 6226TIP3   OH218622   3.929   5.320   6.245 -0.5067  0.0188  0.4148
 6226TIP3    H118623   3.840   5.292   6.227  0.6284 -2.7014 -1.4907
 6226TIP3    H218624   3.952   5.275   6.326  0.1633 -2.0407 -0.8466
 6227TIP3   OH218625   5.258   5.799   2.854  0.0725 -0.7241  0.2461
 6227TIP3    H118626   5.215   5.818   2.938  1.5192  2.0897  0.4627
 6227TIP3    H218627   5.186   5.770   2.797 -1.6439  0.9640  1.4153
 6228TIP3   OH218628   1.076   5.190   3.124  0.1321  0.0037  0.8056
 6228TIP3    H118629   1.045   5.225   3.207  0.3498  1.7425  0.2048
 6228TIP3    H218630   1.140   5.255   3.093 -0.8535  0.0742 -1.2788
 6229TIP3   OH218631   1.125   1.322   3.697  0.3926 -0.6519 -0.4724
 6229TIP3    H118632   1.101   1.405   3.737  1.0217  0.1047 -1.6006
 6229TIP3    H218633   1.073   1.257   3.744  1.7484  0.0280  2.1920
 6230TIP3   OH218634   6.661   3.173   4.208 -0.1031  0.2895 -0.1285
 6230TIP3    H118635   6.601   3.129   4.267  1.8302  1.1478  2.6886
 6230TIP3    H218636   6.619   3.257   4.189 -1.3937 -0.5684 -1.2181
 6231TIP3   OH218637   8.203   2.269   5.643 -0.2609  0.3784  0.3580
 6231TIP3    H118638   8.114   2.235   5.630 -0.3163  1.0522 -1.2014
 6231TIP3    H218639   8.246   2.202   5.695 -1.2691 -0.6353 -0.0604
 6232TIP3   OH218640   1.592   7.082   1.454 -0.3655  0.2712  0.9744
 6232TIP3    H118641   1.638   7.118   1.378 -0.0553  0.1891  1.1219
 6232TIP3    H218642   1.660   7.037   1.504 -0.7510 -0.5226  0.7918
 6233TIP3   OH218643   4.949   5.084   2.241 -0.2931 -0.3037 -0.4083
 6233TIP3    H118644   5.040   5.086   2.212 -0.5145  0.8339 -1.1087
 6233TIP3    H218645   4.928   5.176   2.260 -1.4776 -0.4507 -0.8853
 6234TIP3   OH218646   1.364   4.675   0.942 -0.3519  0.1519 -0.2217
 6234TIP3    H118647   1.393   4.712   0.859 -0.2279 -0.5039 -0.4755
 6234TIP3    H218648   1.442   4.679   0.998 -0.4756  0.7302 -0.0826
 6235TIP3   OH218649   0.501   3.911   3.388 -0.3489  0.1358 -0.0355
 6235TIP3    H118650   0.452   3.970   3.445 -0.4291  0.1109 -0.0776
 6235TIP3    H218651   0.504   3.828   3.436 -0.0942  0.2210  0.0953
 6236TIP3   OH218652   8.063   0.912   1.063  0.9828 -0.0143 -0.3350
 6236TIP3    H118653   8.066   0.827   1.018 -0.7215  0.1534 -0.8341
 6236TIP3    H218654   7.970   0.934   1.067  1.3982  1.9599 -0.4491
 6237TIP3   OH218655   7.461   5.221   0.194 -0.5657  0.0332  0.0180
 6237TIP3    H118656   7.397   5.156   0.222 -0.3558  0.3922  1.4276
 6237TIP3    H218657   7.478   5.273   0.272  1.0022  0.3201 -0.4715
 6238TIP3   OH218658   2.520   0.975   2.199 -0.2262  0.6868 -0.0235
 6238TIP3    H118659   2.555   0.910   2.260  1.2708 -0.9490 -2.4349
 6238TIP3    H218660   2.575   1.052   2.212  0.0383  0.3821  0.7113
 6239TIP3   OH218661   1.960   1.926   5.548  0.2419  0.2989  0.6435
 6239TIP3    H118662   1.937   1.983   5.474  1.1465 -1.4185 -1.0438
 6239TIP3    H218663   1.892   1.858   5.547  0.8649 -0.3324  0.6886
 6240TIP3   OH218664   0.367   0.991   1.889  0.5072  0.0308 -0.2098
 6240TIP3    H118665   0.396   0.911   1.845 -0.5496  0.0246 -0.9410
 6240TIP3    H218666   0.350   1.053   1.817 -0.5761  0.2492  0.2177
 6241TIP3   OH218667   0.853   1.565   2.040  0.3132 -0.1321  0.2126
 6241TIP3    H118668   0.814   1.607   1.963  0.7100 -0.4904 -0.1914
 6241TIP3    H218669   0.943   1.598   2.042  0.1089  0.3965  0.9175
 6242TIP3   OH218670   5.078   6.756   5.280  0.3201 -0.4433 -0.9343
 6242TIP3    H118671   5.111   6.666   5.276 -2.2144 -1.5593  0.5831
 6242TIP3    H218672   5.006   6.758   5.218 -1.8885 -0.6312  1.4232
 6243TIP3   OH218673   3.091   1.241   3.742 -0.0054  0.4488 -0.2829
 6243TIP3    H118674   3.050   1.171   3.690  1.0131  0.5602 -1.2529
 6243TIP3    H218675   3.178   1.207   3.763 -0.2964  0.5111  1.1705
 6244TIP3   OH218676   7.725   2.198   1.882 -0.4095  0.2934  0.0638
 6244TIP3    H118677   7.649   2.229   1.833 -1.1264 -0.6005  0.5694
 6244TIP3    H218678   7.793   2.185   1.815 -0.3174  2.1307 -0.2581
 6245TIP3   OH218679   8.166   1.461   1.602 -0.0530  0.8370 -0.1525
 6245TIP3    H118680   8.128   1.391   1.655  0.1394  0.4765 -0.4804
 6245TIP3    H218681   8.180   1.533   1.663 -0.9706  0.8653  0.0390
 6246TIP3   OH218682   5.351   4.361   2.658  0.1022 -0.1461  0.7155
 6246TIP3    H118683   5.419   4.335   2.721  1.1927  0.5774 -0.1245
 6246TIP3    H218684   5.385   4.440   2.618  0.0385 -1.2728 -1.7137
 6247TIP3   OH218685   6.430   0.111   1.541  0.4846  0.2821  0.1929
 6247TIP3    H118686   6.364   0.165   1.500  0.5601  0.0493 -0.2405
 6247TIP3    H218687   6.411   0.116   1.635  0.3801  0.9026  0.1392
 6248TIP3   OH218688   2.250   1.317   1.621 -0.0887  0.4946  0.2844
 6248TIP3    H118689   2.328   1.335   1.674 -1.0808  1.4463  1.4943
 6248TIP3    H218690   2.208   1.244   1.665 -0.1257  0.2960 -0.0835
 6249TIP3   OH218691   2.895   2.297   0.780 -0.0256  0.1438 -0.0719
 6249TIP3    H118692   2.816   2.245   0.797  0.0015  0.2037  0.2521
 6249TIP3    H218693   2.914   2.283   0.687 -0.8115  0.6761 -0.3218
 6250TIP3   OH218694   2.982   4.601   5.217 -0.0606 -0.1592  0.1679
 6250TIP3    H118695   2.904   4.555   5.249 -0.3559  1.0710  1.3213
 6250TIP3    H218696   3.056   4.551   5.251 -0.3566 -0.6690  0.0666
 6251TIP3   OH218697   6.819   7.618   2.925 -0.2862 -0.6107  0.2503
 6251TIP3    H118698   6.786   7.646   2.839 -1.2950 -2.9831 -0.2095
 6251TIP3    H218699   6.914   7.628   2.918 -0.3593 -0.6510 -1.0947
 6252TIP3   OH218700   0.480   4.038   5.591  0.3331  0.5180 -0.1817
 6252TIP3    H118701   0.439   4.071   5.511  1.3083  0.9523 -0.5141
 6252TIP3    H218702   0.422   3.967   5.620  0.1789  0.0813 -1.4900
 6253TIP3   OH218703   2.058   7.357   1.299  0.1047 -0.3413  0.3206
 6253TIP3    H118704   1.966   7.385   1.295 -0.4019 -1.7282  1.3471
 6253TIP3    H218705   2.058   7.285   1.362  1.2023 -3.0022 -2.4571
 6254TIP3   OH218706   6.874   6.056   1.715 -0.2769  0.6800 -0.3616
 6254TIP3    H118707   6.891   6.023   1.803 -1.0202 -0.9683 -0.7857
 6254TIP3    H218708   6.924   5.997   1.658  0.0133  1.5887 -1.0584
 6255TIP3   OH218709   1.616   0.193   0.737 -0.2326  0.1119  0.4667
 6255TIP3    H118710   1.596   0.245   0.814 -0.2889 -0.3813  0.7920
 6255TIP3    H218711   1.667   0.251   0.681  0.1802  0.3395  1.0698
 6256TIP3   OH218712   4.659   4.680   3.080 -0.4249 -0.6355  0.6545
 6256TIP3    H118713   4.589   4.664   3.145 -0.9007 -1.5071 -0.0438
 6256TIP3    H218714   4.700   4.761   3.109 -2.0682  0.1980  0.8119
 6257TIP3   OH218715   2.213   4.702   6.446  0.4205 -0.0282  0.2284
 6257TIP3    H118716   2.231   4.790   6.479 -0.5734  0.1937  0.2280
 6257TIP3    H218717   2.249   4.644   6.513  0.8450  0.3852  0.3634
 6258TIP3   OH218718   6.593   2.846   3.275 -0.6682  0.4425  0.5043
 6258TIP3    H118719   6.680   2.810   3.290 -0.8413 -0.0306  0.3848
 6258TIP3    H218720   6.535   2.770   3.280 -1.1205  0.8092  0.9868
 6259TIP3   OH218721   0.306   6.561   2.082  0.8324 -0.5395  0.1127
 6259TIP3    H118722   0.309   6.519   2.168  0.4306  1.1233  0.9776
 6259TIP3    H218723   0.232   6.520   2.037  0.2234 -0.5075  1.0682
 6260TIP3   OH218724   6.089   1.394   1.784  0.5322 -0.0337  0.5193
 6260TIP3    H118725   6.075   1.316   1.837  0.7256 -1.3714 -1.3300
 6260TIP3    H218726   6.148   1.366   1.714 -1.1937  1.1321 -1.5178
 6261TIP3   OH218727   7.688   2.822   1.495 -0.1841  0.1625 -0.1915
 6261TIP3    H118728   7.768   2.850   1.450 -0.8039  1.5897 -0.4669
 6261TIP3    H218729   7.644   2.765   1.432  0.0880  0.2654 -0.4783
 6262TIP3   OH218730   6.136   7.759   1.774  0.2374 -0.2517  0.2688
 6262TIP3    H118731   6.196   7.767   1.700  1.1105  0.5190  1.0350
 6262TIP3    H218732   6.186   7.712   1.841  0.5409  1.6336  1.4405
 6263TIP3   OH218733   3.670   5.371   3.569  0.0285  0.1609 -0.0809
 6263TIP3    H118734   3.762   5.353   3.586 -0.6431 -1.2101  2.6703
 6263TIP3    H218735   3.670   5.454   3.521  2.6434  0.2742 -0.0246
 6264TIP3   OH218736   1.688   4.678   5.254 -0.2961 -0.0188  0.2761
 6264TIP3    H118737   1.607   4.660   5.207  0.7241 -0.4724 -1.3972
 6264TIP3    H218738   1.681   4.627   5.334 -0.8187 -1.6377 -0.7619
 6265TIP3   OH218739   2.131   1.835   5.777  0.2540  0.3314 -0.4373
 6265TIP3    H118740   2.212   1.809   5.820  0.3217  2.6526  1.0162
 6265TIP3    H218741   2.145   1.815   5.684  1.5532 -1.3737  0.0701
 6266TIP3   OH218742   2.103   7.012   5.321  0.1556 -0.0852  0.2316
 6266TIP3    H118743   2.094   7.041   5.412  0.0621  0.2621  0.1152
 6266TIP3    H218744   2.116   7.093   5.272  0.0516 -0.2587 -0.0837
 6267TIP3   OH218745   6.625   4.268   5.630  0.0846 -0.0142  0.3716
 6267TIP3    H118746   6.680   4.202   5.587 -0.7221  0.4018 -1.3934
 6267TIP3    H218747   6.543   4.266   5.581 -1.0453  0.2318  2.1926
 6268TIP3   OH218748   1.221   7.590   3.632 -0.1547 -0.3815  0.2395
 6268TIP3    H118749   1.256   7.565   3.546  0.0822  0.3885  0.1071
 6268TIP3    H218750   1.299   7.608   3.685 -0.3278  0.1259  0.3199
 6269TIP3   OH218751   5.037   4.881   2.903  0.2076  0.1485 -0.0962
 6269TIP3    H118752   5.041   4.950   2.836 -1.2454 -0.1875 -0.5788
 6269TIP3    H218753   4.951   4.841   2.890  0.7599 -1.3286  0.6107
 6270TIP3   OH218754   8.131   1.902   4.191  0.0257  0.4765  0.2148
 6270TIP3    H118755   8.078   1.823   4.198 -0.4379  0.7602  0.0043
 6270TIP3    H218756   8.138   1.934   4.281  0.9232 -0.2517  0.4102
 6271TIP3   OH218757   6.693   4.291   2.849  0.5827 -0.4910 -0.6104
 6271TIP3    H118758   6.703   4.247   2.764 -2.5171  1.0540 -1.9283
 6271TIP3    H218759   6.605   4.330   2.845  1.2694  1.6513  2.4007
 6272TIP3   OH218760   3.713   0.257   0.412 -0.4214 -0.0745 -0.4212
 6272TIP3    H118761   3.744   0.178   0.457 -0.8328  0.0842  0.1501
 6272TIP3    H218762   3.691   0.227   0.324 -0.4364 -0.5707 -0.2543
 6273TIP3   OH218763   6.225   3.078   4.047 -0.4242  0.3426  0.1177
 6273TIP3    H118764   6.230   3.124   3.963 -0.4162 -0.3793 -0.2823
 6273TIP3    H218765   6.310   3.034   4.056 -1.0205 -0.9007 -0.2680
 6274TIP3   OH218766   0.388   4.358   4.647  0.0026  0.7746 -0.6527
 6274TIP3    H118767   0.330   4.424   4.609 -1.0686  1.4638  1.9438
 6274TIP3    H218768   0.419   4.398   4.729 -0.2314 -1.6640  0.7188
 6275TIP3   OH218769   0.728   0.945   5.156 -0.2073  0.4578 -0.2855
 6275TIP3    H118770   0.640   0.906   5.161  0.0309  0.0554  1.0458
 6275TIP3    H218771   0.768   0.902   5.081 -0.9716  0.2677 -0.5984
 6276TIP3   OH218772   8.090   1.591   4.448  0.6187 -0.3512  0.1024
 6276TIP3    H118773   8.074   1.638   4.366 -0.8629  0.1033  0.6274
 6276TIP3    H218774   8.061   1.502   4.430 -0.9018  0.0417  0.4870
 6277TIP3   OH218775   5.963   2.242   0.495  0.8599  0.0501 -0.2870
 6277TIP3    H118776   5.904   2.306   0.536 -0.2301 -1.2803  0.3204
 6277TIP3    H218777   5.950   2.254   0.401 -0.3358 -0.1526 -0.1632
 6278TIP3   OH218778   4.511   3.814   5.794  0.2741 -0.0031  0.2861
 6278TIP3    H118779   4.522   3.895   5.745 -0.2789  0.0872  0.3038
 6278TIP3    H218780   4.459   3.758   5.737 -1.2517  0.4756  1.1475
 6279TIP3   OH218781   5.007   7.438   1.328  0.0550  0.2170 -0.1966
 6279TIP3    H118782   5.054   7.475   1.253  0.0978 -0.8967 -0.7267
 6279TIP3    H218783   4.931   7.394   1.290  1.2777 -2.3364  0.1417
 6280TIP3   OH218784   0.222   2.741   5.335  0.1134 -0.1158 -0.2862
 6280TIP3    H118785   0.197   2.649   5.337 -0.1743 -0.0172  0.6610
 6280TIP3    H218786   0.265   2.757   5.419 -0.0138  0.6684 -0.3595
 6281TIP3   OH218787   7.476   6.100   2.970  0.3657 -0.3385  0.4808
 6281TIP3    H118788   7.394   6.066   3.007 -2.3089  2.3978 -2.3512
 6281TIP3    H218789   7.494   6.179   3.020  2.0321 -1.5245  1.8396
 6282TIP3   OH218790   4.962   3.430   0.835  0.1386  0.0433 -0.2789
 6282TIP3    H118791   5.026   3.491   0.798  2.8513 -3.0048 -1.1723
 6282TIP3    H218792   4.977   3.348   0.786 -4.3841 -0.9824 -0.3486
 6283TIP3   OH218793   4.709   3.999   0.022  0.7700 -0.6355  0.1913
 6283TIP3    H118794   4.739   4.025   0.109  2.3364 -0.3879 -0.3818
 6283TIP3    H218795   4.790   3.982  -0.027 -0.0759 -4.6689 -0.1052
 6284TIP3   OH218796   4.021   4.859   3.309 -0.0930  0.1155 -0.0693
 6284TIP3    H118797   3.938   4.858   3.357 -0.3444  1.2922 -0.4548
 6284TIP3    H218798   4.087   4.852   3.378 -0.4733  0.9040  0.3925
 6285TIP3   OH218799   6.388   0.664   1.245 -0.3054 -0.3950 -0.3610
 6285TIP3    H118800   6.433   0.633   1.324  0.4429  1.4447 -0.0157
 6285TIP3    H218801   6.295   0.652   1.264 -0.1251 -0.1172  0.7439
 6286TIP3   OH218802   5.130   4.208   2.521  0.0428  0.6875  0.2858
 6286TIP3    H118803   5.202   4.246   2.571  0.9773  0.0870 -0.5886
 6286TIP3    H218804   5.084   4.284   2.485  1.4247  1.0502 -0.7844
 6287TIP3   OH218805   0.464   4.427   5.121  0.1306  0.0966  0.4264
 6287TIP3    H118806   0.477   4.420   5.216 -0.1117  0.5880  0.4991
 6287TIP3    H218807   0.546   4.463   5.089  0.0524  0.3534  0.5091
 6288TIP3   OH218808   1.942   2.328   2.467 -0.3685 -0.5484 -0.0893
 6288TIP3    H118809   1.910   2.418   2.458  0.7328  0.0208  1.2920
 6288TIP3    H218810   1.897   2.294   2.544 -0.3157 -0.9661 -0.2412
 6289TIP3   OH218811   0.966   7.670   6.612 -0.1412  0.0610 -0.5955
 6289TIP3    H118812   0.949   7.764   6.607  1.3190  0.4463  0.9041
 6289TIP3    H218813   0.891   7.630   6.570 -2.0522  1.8040  0.9676
 6290TIP3   OH218814   2.062   7.136   6.075 -0.2496 -0.2927  0.1668
 6290TIP3    H118815   2.117   7.213   6.063  1.8094 -1.7078 -0.0526
 6290TIP3    H218816   2.021   7.148   6.160 -1.3345  1.8027 -0.5876
 6291TIP3   OH218817   5.684   5.176   3.174 -0.3197 -0.1074  0.5887
 6291TIP3    H118818   5.644   5.176   3.087 -1.1337  1.9836  0.8951
 6291TIP3    H218819   5.718   5.087   3.185  0.1281 -0.3426 -1.9934
 6292TIP3   OH218820   5.796   0.506   1.606  0.0951 -0.2519 -0.2442
 6292TIP3    H118821   5.748   0.479   1.528  0.2158 -0.4970 -0.2355
 6292TIP3    H218822   5.729   0.514   1.674 -0.2952  1.8231 -0.8167
 6293TIP3   OH218823   2.093   6.509   2.095 -0.3415 -0.4136  0.4910
 6293TIP3    H118824   2.141   6.587   2.121  0.7559 -1.0866  0.5458
 6293TIP3    H218825   2.029   6.540   2.031  0.5006  0.4313  0.0310
 6294TIP3   OH218826   5.791   6.046   1.565  0.4320  0.6882  0.6666
 6294TIP3    H118827   5.766   5.954   1.556  1.8509  0.3469 -0.0871
 6294TIP3    H218828   5.708   6.093   1.574 -0.4346 -0.4355 -1.0505
 6295TIP3   OH218829   4.299   4.789   3.998 -0.2462 -0.5862  0.2688
 6295TIP3    H118830   4.231   4.733   3.959 -0.4519  0.0629 -0.3261
 6295TIP3    H218831   4.381   4.752   3.965 -0.4191  0.0083 -0.8996
 6296TIP3   OH218832   4.936   6.029   2.373 -0.0175  0.2278  0.3279
 6296TIP3    H118833   5.023   5.990   2.364  0.4314  1.2786 -0.0592
 6296TIP3    H218834   4.943   6.084   2.451 -0.4675 -0.0127  0.5390
 6297TIP3   OH218835   8.225   2.743   1.359 -0.6660 -0.0253  0.6631
 6297TIP3    H118836   8.271   2.759   1.276  1.6332 -1.5045  1.5711
 6297TIP3    H218837   8.262   2.807   1.420  0.5995 -1.5070  1.5105
 6298TIP3   OH218838   8.111   2.555   2.246  0.1565 -0.0152  0.3419
 6298TIP3    H118839   8.092   2.640   2.206  0.6492  0.1103  0.3797
 6298TIP3    H218840   8.205   2.542   2.233  0.0709 -0.5909  0.2662
 6299TIP3   OH218841   5.390   6.860   1.435  0.0871  0.2183 -0.5899
 6299TIP3    H118842   5.443   6.881   1.358 -1.5350  1.0300 -1.5315
 6299TIP3    H218843   5.396   6.939   1.490  2.1586 -0.7685  0.7298
 6300TIP3   OH218844   0.428   7.283   5.275 -0.5366 -0.1243 -0.0869
 6300TIP3    H118845   0.365   7.345   5.240  0.6388  1.0770 -0.1565
 6300TIP3    H218846   0.380   7.233   5.341 -1.1805  1.7263  0.8850
 6301TIP3   OH218847   6.702   2.172   1.396  0.0127 -0.1445 -0.1745
 6301TIP3    H118848   6.726   2.109   1.328  0.7137 -0.3433  0.2505
 6301TIP3    H218849   6.627   2.132   1.440  0.0225 -0.3615 -0.3547
 6302TIP3   OH218850   1.494   5.571   0.177 -0.1322  0.0554 -0.0802
 6302TIP3    H118851   1.429   5.519   0.129 -2.5438  1.5951  1.2701
 6302TIP3    H218852   1.475   5.555   0.269  0.6695  1.4001  0.3555
 6303TIP3   OH218853   0.308   4.774   4.281 -0.3042  0.3852  0.6207
 6303TIP3    H118854   0.283   4.686   4.311  1.7277 -0.2074  0.7286
 6303TIP3    H218855   0.341   4.817   4.360  1.2292  0.2545  0.0985
 6304TIP3   OH218856   7.545   4.484   1.075  0.5313 -0.1495 -0.4419
 6304TIP3    H118857   7.553   4.543   1.149  0.8102 -0.3937 -0.2752
 6304TIP3    H218858   7.465   4.435   1.091 -0.2274  0.8531 -1.0692
 6305TIP3   OH218859   5.811   5.687   5.710  0.1197 -0.4261  0.8412
 6305TIP3    H118860   5.816   5.707   5.617  0.6192 -0.1826  0.9226
 6305TIP3    H218861   5.719   5.661   5.724  0.4126 -2.0344 -0.0306
 6306TIP3   OH218862   2.592   3.866   2.676 -0.3366  0.4108  0.1067
 6306TIP3    H118863   2.619   3.799   2.739  1.3563  0.3068 -0.6859
 6306TIP3    H218864   2.632   3.947   2.707  0.6648  0.3265 -0.9034
 6307TIP3   OH218865   1.309   1.559   5.452  0.4653 -0.7691  0.2851
 6307TIP3    H118866   1.266   1.643   5.468 -0.1320 -0.9452 -0.3925
 6307TIP3    H218867   1.402   1.581   5.447  0.1646  0.2146 -2.0746
 6308TIP3   OH218868   2.184   1.951   6.485  0.5473  0.4441  0.4442
 6308TIP3    H118869   2.229   1.866   6.487  0.9014  0.4678 -2.4082
 6308TIP3    H218870   2.093   1.930   6.468 -0.0851  0.5509  3.2496
 6309TIP3   OH218871   3.979   1.042   4.705 -0.2365 -0.1984  0.6928
 6309TIP3    H118872   3.986   1.117   4.764  0.6802 -0.1808  0.5832
 6309TIP3    H218873   3.940   0.973   4.758 -1.3123  0.4207  0.7257
 6310TIP3   OH218874   1.771   7.268   0.044  0.4407  0.0957 -0.0968
 6310TIP3    H118875   1.824   7.316  -0.020  1.0644  0.6520  0.8155
 6310TIP3    H218876   1.807   7.180   0.045  0.8191  0.2501 -0.0770
 6311TIP3   OH218877   1.147   2.528   6.592 -0.0587 -0.3762 -0.0830
 6311TIP3    H118878   1.174   2.574   6.672 -1.3724 -1.2231  0.8927
 6311TIP3    H218879   1.108   2.446   6.624 -0.3029 -0.8907 -1.6225
 6312TIP3   OH218880   0.714   0.191   0.925  0.1342 -0.3898 -0.0727
 6312TIP3    H118881   0.761   0.115   0.890  0.1597 -0.1908 -0.4681
 6312TIP3    H218882   0.711   0.253   0.853  2.1767  0.9711  0.9209
 6313TIP3   OH218883   2.181   5.385   0.801  0.2910  0.0948  0.2870
 6313TIP3    H118884   2.224   5.332   0.868  1.6077  1.1059  0.2842
 6313TIP3    H218885   2.101   5.337   0.780  0.6087 -1.0124  1.4830
 6314TIP3   OH218886   6.717   6.882   3.312  0.1322 -0.1199  0.1815
 6314TIP3    H118887   6.659   6.924   3.376  0.3886  0.2230  0.1976
 6314TIP3    H218888   6.796   6.936   3.314  0.6334 -0.8543  0.5083
 6315TIP3   OH218889   4.519   7.321   6.524 -0.2360  0.2972  0.2164
 6315TIP3    H118890   4.434   7.345   6.559 -0.3932  0.9155 -0.5515
 6315TIP3    H218891   4.545   7.396   6.471  0.1878 -0.4218 -0.6232
 6316TIP3   OH218892   5.544   7.417   2.525 -0.1177  0.0276  0.3003
 6316TIP3    H118893   5.462   7.368   2.525  0.6762 -1.3460  0.7110
 6316TIP3    H218894   5.576   7.411   2.435  1.1764 -2.3612  0.8456
 6317TIP3   OH218895   3.551   4.105   0.849  0.1570  0.1526 -0.1602
 6317TIP3    H118896   3.617   4.133   0.913  1.2997 -0.2322 -1.1298
 6317TIP3    H218897   3.528   4.017   0.876 -0.9706  0.7532  0.9485
 6318TIP3   OH218898   7.870   1.512   1.177  0.1814  0.3517 -0.1316
 6318TIP3    H118899   7.794   1.521   1.235  1.1073 -0.2228  1.2192
 6318TIP3    H218900   7.832   1.495   1.091 -1.2616  2.2758  0.0464
 6319TIP3   OH218901   6.356   3.877   5.476 -0.3502  0.0266  0.0999
 6319TIP3    H118902   6.261   3.884   5.469 -0.3518 -0.5770 -0.5616
 6319TIP3    H218903   6.373   3.875   5.571 -0.8147  2.2090  0.3013
 6320TIP3   OH218904   8.039   5.693   2.075 -0.1889 -0.1048 -0.2661
 6320TIP3    H118905   8.043   5.734   1.988 -0.4487 -0.4760 -0.4570
 6320TIP3    H218906   8.101   5.743   2.128 -0.9669  0.9336 -0.3190
 6321TIP3   OH218907   1.447   0.783   0.727 -0.4825  0.3227  0.5302
 6321TIP3    H118908   1.412   0.822   0.647  0.8093  2.3020  0.8605
 6321TIP3    H218909   1.386   0.811   0.795 -1.4946 -1.2301  0.2955
 6322TIP3   OH218910   1.388   6.487   4.096 -0.1914  0.7451 -0.2337
 6322TIP3    H118911   1.388   6.575   4.056  0.3389  0.9698  0.2417
 6322TIP3    H218912   1.334   6.496   4.174 -1.2283  0.3047 -0.8813
 6323TIP3   OH218913   4.420   1.415   5.361 -0.4060  0.2240 -0.3014
 6323TIP3    H118914   4.483   1.457   5.420 -0.6374  0.5670 -0.2972
 6323TIP3    H218915   4.336   1.421   5.407 -0.8636  1.7676 -1.2645
 6324TIP3   OH218916   0.204   1.087   0.357 -0.0133  0.4412  0.4775
 6324TIP3    H118917   0.128   1.145   0.350  0.1458  0.5837 -0.1646
 6324TIP3    H218918   0.253   1.103   0.277  1.0475  0.8325  1.1911
 6325TIP3   OH218919   3.176   2.109   6.665 -0.3148  0.2081 -0.6410
 6325TIP3    H118920   3.154   2.053   6.739 -1.1139 -0.3149 -1.2581
 6325TIP3    H218921   3.214   2.188   6.705  2.5729 -1.4629  0.1713
 6326TIP3   OH218922   1.519   5.070   5.071 -0.4241 -0.2423 -0.2032
 6326TIP3    H118923   1.473   5.081   5.153 -0.2572 -1.5965  0.0907
 6326TIP3    H218924   1.455   5.031   5.012 -0.2156 -0.3361 -0.3713
 6327TIP3   OH218925   6.769   3.709   5.276 -0.2903  0.7721 -0.2746
 6327TIP3    H118926   6.748   3.802   5.289 -1.4155  0.5690 -0.4934
 6327TIP3    H218927   6.819   3.707   5.195  1.1468  1.3481  0.5651
 6328TIP3   OH218928   6.372   4.705   2.947 -0.1494 -0.3106  0.1478
 6328TIP3    H118929   6.365   4.741   3.036  1.7117 -1.0730  0.6613
 6328TIP3    H218930   6.406   4.778   2.895 -0.3356 -0.1310  0.2771
 6329TIP3   OH218931   0.737   4.131   5.506  0.3079  0.0634  0.2573
 6329TIP3    H118932   0.648   4.103   5.529  0.7340  0.7060  3.0971
 6329TIP3    H218933   0.789   4.051   5.515  0.2236 -0.0373 -0.1329
 6330TIP3   OH218934   1.017   5.938   0.174 -0.4500 -0.4717 -0.4769
 6330TIP3    H118935   1.050   5.850   0.160  1.4529  0.2095 -0.5479
 6330TIP3    H218936   1.093   5.989   0.202 -1.3987  1.2545 -0.8479
 6331TIP3   OH218937   6.930   6.016   1.970  0.2075 -0.0266 -0.3929
 6331TIP3    H118938   6.871   5.940   1.969 -1.0212  0.8659  0.4512
 6331TIP3    H218939   7.004   5.989   2.024 -1.2065  0.0263  1.6610
 6332TIP3   OH218940   3.909   2.825   5.045  0.2890 -0.2085 -0.0818
 6332TIP3    H118941   3.926   2.857   4.956 -0.7990  3.2028  0.7753
 6332TIP3    H218942   3.972   2.872   5.099  0.8920 -2.1980  1.0291
 6333TIP3   OH218943   4.597   4.441   6.651  0.3074  0.2692  0.4517
 6333TIP3    H118944   4.512   4.401   6.634  0.3707 -0.3620  1.5549
 6333TIP3    H218945   4.576   4.529   6.682  0.0574  0.2155  0.4358
 6334TIP3   OH218946   7.952   1.630   2.146 -0.1314  0.1109 -0.1787
 6334TIP3    H118947   7.860   1.649   2.162 -0.3693  0.7017 -2.0094
 6334TIP3    H218948   7.953   1.539   2.117 -0.3237  0.4227 -1.2352
 6335TIP3   OH218949   3.776   7.703   1.426  0.1911  0.3932  0.3203
 6335TIP3    H118950   3.764   7.785   1.473 -0.9818  1.3978 -1.6077
 6335TIP3    H218951   3.714   7.643   1.467  1.8607  0.0409  2.5070
 6336TIP3   OH218952   7.977   4.567   3.895 -0.0400  0.5895  0.2670
 6336TIP3    H118953   8.028   4.644   3.873  0.1442 -0.2842 -2.9126
 6336TIP3    H218954   7.887   4.590   3.873 -0.6059  1.0487  2.8035
 6337TIP3   OH218955   8.139   1.193   3.426  0.7652 -0.1067 -0.2804
 6337TIP3    H118956   8.107   1.130   3.490  0.6717  1.4951  1.3559
 6337TIP3    H218957   8.234   1.193   3.438  0.8172 -0.3225 -0.6721
 6338TIP3   OH218958   7.009   6.494   6.201 -0.5566 -0.3029  0.0616
 6338TIP3    H118959   7.102   6.500   6.180 -0.7031  0.9812 -0.2689
 6338TIP3    H218960   6.967   6.556   6.142 -1.5305 -0.2534  0.7839
 6339TIP3   OH218961   4.375   2.965   1.914 -0.1181  0.2918  0.1056
 6339TIP3    H118962   4.412   2.891   1.961  0.2312 -0.6453 -1.5701
 6339TIP3    H218963   4.288   2.977   1.952 -0.1692 -0.9641  0.4222
 6340TIP3   OH218964   8.151   5.769   0.195  0.5040 -0.2155 -0.5672
 6340TIP3    H118965   8.198   5.844   0.160  0.1275  0.7670  0.9546
 6340TIP3    H218966   8.215   5.722   0.247 -0.3898  1.9995  2.8487
 6341TIP3   OH218967   7.766   4.297   6.739 -0.3883 -0.1061  0.6521
 6341TIP3    H118968   7.829   4.369   6.734  0.8165 -1.1933 -0.7312
 6341TIP3    H218969   7.695   4.324   6.680  0.3781 -0.3142 -0.3995
 6342TIP3   OH218970   4.403   2.018   5.512 -0.3232 -0.2785  0.1332
 6342TIP3    H118971   4.427   2.110   5.516  0.4278 -0.4584 -0.0576
 6342TIP3    H218972   4.486   1.972   5.507 -0.7315 -0.8762 -1.8660
 6343TIP3   OH218973   4.652   5.677   4.417  0.0845 -0.8457  0.0324
 6343TIP3    H118974   4.578   5.707   4.470  0.3304 -1.1592  0.5708
 6343TIP3    H218975   4.625   5.591   4.385  0.7731 -1.6281  1.4487
 6344TIP3   OH218976   3.999   0.197   0.674 -0.0512 -0.0878  0.2696
 6344TIP3    H118977   4.032   0.229   0.758 -1.4122 -3.8248  2.4735
 6344TIP3    H218978   3.908   0.174   0.691 -0.8280  0.3550 -2.7257
 6345TIP3   OH218979   4.303   1.042   5.423  0.1630 -0.1081  0.3353
 6345TIP3    H118980   4.364   1.102   5.467  0.1169  0.4634 -0.3612
 6345TIP3    H218981   4.216   1.069   5.453  0.2065 -0.5724  0.9042
 6346TIP3   OH218982   5.665   0.080   5.138  0.3020  0.1286  0.4087
 6346TIP3    H118983   5.715   0.086   5.056 -1.5813  0.1309 -0.7867
 6346TIP3    H218984   5.653   0.171   5.165 -1.3038  0.2953 -0.7572
 6347TIP3   OH218985   7.432   6.796   2.186 -0.1236 -0.1841  0.3396
 6347TIP3    H118986   7.410   6.817   2.095 -0.1804 -2.5502 -0.2571
 6347TIP3    H218987   7.349   6.766   2.224 -0.3453  1.7710  1.5474
 6348TIP3   OH218988   2.376   1.328   0.824 -0.1888 -0.0688 -0.3827
 6348TIP3    H118989   2.360   1.401   0.884  1.3939 -0.2039  0.2649
 6348TIP3    H218990   2.289   1.303   0.793 -0.8180  1.7822 -0.2717
 6349TIP3   OH218991   2.906   4.541   5.866  0.5164 -0.1940 -0.3287
 6349TIP3    H118992   2.881   4.576   5.952  0.0017 -0.5327 -0.3359
 6349TIP3    H218993   2.981   4.594   5.840  1.5363 -0.9577  0.9346
 6350TIP3   OH218994   5.050   1.653   3.302 -0.0294 -0.7849 -0.4198
 6350TIP3    H118995   5.050   1.563   3.333 -0.5086 -0.5635  0.2531
 6350TIP3    H218996   5.121   1.696   3.351 -0.1992 -0.6501 -0.2910
 6351TIP3   OH218997   3.529   2.932   5.146 -0.0772 -0.7189  0.3241
 6351TIP3    H118998   3.613   2.977   5.154 -0.4582 -0.0763  0.8710
 6351TIP3    H218999   3.551   2.846   5.110  0.8556 -0.7004  0.8130
 6352TIP3   OH219000   5.043   4.676   5.192  0.0866 -0.2039  0.0301
 6352TIP3    H119001   5.124   4.645   5.151  0.6595  1.2567  0.0041
 6352TIP3    H219002   5.068   4.697   5.282 -0.0075  1.2158 -0.2617
 6353TIP3   OH219003   7.676   6.446   4.368  0.2420  0.8828  0.3536
 6353TIP3    H119004   7.673   6.469   4.460 -0.5483  0.9396  0.3180
 6353TIP3    H219005   7.633   6.360   4.363  1.2089  0.3864  0.1789
 6354TIP3   OH219006   6.708   0.807   2.640  0.1894 -0.1054  0.4806
 6354TIP3    H119007   6.749   0.854   2.567 -1.6006 -0.1320 -0.5908
 6354TIP3    H219008   6.615   0.829   2.634 -0.1782 -1.1065  2.0077
 6355TIP3   OH219009   0.530   3.571   1.058 -0.2656 -0.1402  0.0591
 6355TIP3    H119010   0.558   3.646   1.111  0.2206 -0.4032  0.1734
 6355TIP3    H219011   0.594   3.565   0.988 -0.5831 -0.1518 -0.2348
 6356TIP3   OH219012   2.039   0.134   3.218 -0.0387 -0.8049  0.1002
 6356TIP3    H119013   2.118   0.188   3.225 -0.6214  0.2727 -1.2691
 6356TIP3    H219014   2.072   0.044   3.211  1.1438 -0.2726 -1.6160
 6357TIP3   OH219015   3.993   0.667   0.601 -0.9039 -0.1118  0.2414
 6357TIP3    H119016   3.919   0.643   0.545 -1.6369  0.3754  0.9877
 6357TIP3    H219017   3.953   0.700   0.681  0.1225  0.5515  0.4946
 6358TIP3   OH219018   7.499   0.153   1.869 -0.1635 -0.2231 -0.3361
 6358TIP3    H119019   7.549   0.234   1.859  0.4371 -0.6625 -0.9735
 6358TIP3    H219020   7.538   0.110   1.945 -0.5504  0.1373  0.0643
 6359TIP3   OH219021   6.411   1.139   0.299 -0.0030  0.0916  0.3102
 6359TIP3    H119022   6.329   1.101   0.331  0.8155 -1.4724  0.6665
 6359TIP3    H219023   6.418   1.222   0.345 -1.2686  0.1458  0.4501
 6360TIP3   OH219024   0.291   2.862   1.731 -0.2285  0.1810 -0.0041
 6360TIP3    H119025   0.229   2.935   1.729 -0.3156  0.1298  0.5981
 6360TIP3    H219026   0.373   2.901   1.761  0.1668  0.3405 -1.2618
 6361TIP3   OH219027   2.971   0.780   1.107 -0.2148  0.2182 -0.2706
 6361TIP3    H119028   2.933   0.853   1.058 -1.0206  0.1825  0.2735
 6361TIP3    H219029   2.895   0.736   1.146  0.3808  0.1097  0.7974
 6362TIP3   OH219030   2.542   3.381   2.200  0.6921 -0.3125 -0.0625
 6362TIP3    H119031   2.564   3.300   2.247 -0.1098  0.1202  1.1012
 6362TIP3    H219032   2.448   3.392   2.216  0.1482 -0.6555 -2.5867
 6363TIP3   OH219033   1.873   1.171   1.073 -0.3994 -0.2642  0.5940
 6363TIP3    H119034   1.924   1.197   1.149  1.0429 -0.9920 -0.0992
 6363TIP3    H219035   1.856   1.077   1.086  1.9626 -1.0193 -1.0802
 6364TIP3   OH219036   6.148   2.315   1.928 -0.2269 -0.0846  0.7260
 6364TIP3    H119037   6.189   2.234   1.961 -3.2870 -2.8124 -1.5463
 6364TIP3    H219038   6.105   2.352   2.005 -0.2528 -1.6441  1.5142
 6365TIP3   OH219039   7.960   6.665   0.335  0.0587 -0.4593  0.0928
 6365TIP3    H119040   7.987   6.576   0.357 -0.5439 -0.5865  0.3212
 6365TIP3    H219041   8.013   6.687   0.258 -0.3777 -1.3141 -0.4622
 6366TIP3   OH219042   5.676   1.939   0.472  0.7822  0.2778  0.0197
 6366TIP3    H119043   5.608   1.990   0.429  0.1202  0.6301  1.4037
 6366TIP3    H219044   5.656   1.947   0.566  0.9132 -2.1540  0.3232
 6367TIP3   OH219045   7.331   2.473   2.259  0.3994 -0.0130 -0.2587
 6367TIP3    H119046   7.244   2.499   2.229 -0.7849 -3.6116 -0.5267
 6367TIP3    H219047   7.375   2.442   2.179  0.9136 -0.6068  0.2417
 6368TIP3   OH219048   2.153   2.570   3.074  0.3956  0.3512  0.0306
 6368TIP3    H119049   2.155   2.491   3.130  0.2602  0.4521  0.1793
 6368TIP3    H219050   2.214   2.550   3.003  1.4783  0.6870  0.8427
 6369TIP3   OH219051   5.060   5.064   1.872 -0.3712  0.4030 -0.0537
 6369TIP3    H119052   5.024   5.146   1.905  1.7180  1.5038 -0.3476
 6369TIP3    H219053   5.153   5.082   1.858  0.3420 -2.2507  0.6277
 6370TIP3   OH219054   0.030   7.677   6.447 -0.3778  0.8205 -0.6522
 6370TIP3    H119055  -0.055   7.654   6.484 -0.8033 -0.6718 -2.4278
 6370TIP3    H219056   0.069   7.736   6.512 -2.7870  1.6412  0.1661
 6371TIP3   OH219057   1.995   2.406   4.217 -0.7677 -0.1283  1.3830
 6371TIP3    H119058   2.009   2.375   4.306 -0.7011  0.2769  1.5176
 6371TIP3    H219059   1.901   2.424   4.212 -1.2359 -2.4272  0.6175
 6372TIP3   OH219060   2.688   2.864   0.313  0.3871 -0.2977 -0.4546
 6372TIP3    H119061   2.767   2.918   0.305 -0.6717  1.3332 -0.5210
 6372TIP3    H219062   2.638   2.882   0.233 -2.3873  2.8144  1.6919
 6373TIP3   OH219063   8.184   6.348   1.687 -0.1000  1.0081  0.0555
 6373TIP3    H119064   8.139   6.264   1.701  0.5067  0.7143  0.3210
 6373TIP3    H219065   8.152   6.379   1.603 -0.8650  0.8531  0.2870
 6374TIP3   OH219066   4.377   7.034   5.937  0.0405  0.1798 -0.1673
 6374TIP3    H119067   4.424   7.111   5.906  3.0894 -0.8985  1.3500
 6374TIP3    H219068   4.361   6.981   5.859  1.9767  0.3174 -0.6941
 6375TIP3   OH219069   7.485   5.429   3.675  0.0864 -1.0186  0.2967
 6375TIP3    H119070   7.557   5.442   3.612 -0.2972  1.2308  0.2710
 6375TIP3    H219071   7.415   5.486   3.644 -0.2879 -0.1928  2.5225
 6376TIP3   OH219072   8.177   1.780   1.034  0.6228 -0.4402  0.2356
 6376TIP3    H119073   8.131   1.811   1.113  0.7135  0.0773  0.0936
 6376TIP3    H219074   8.269   1.775   1.060  0.4756 -1.7009  0.5877
 6377TIP3   OH219075   3.476   7.221   0.343 -0.4067 -0.3954  0.4361
 6377TIP3    H119076   3.487   7.301   0.394  0.1989  0.4173 -0.8930
 6377TIP3    H219077   3.562   7.180   0.344 -0.0788  0.1955 -0.7762
 6378TIP3   OH219078   4.011   3.743   1.541 -0.1162  0.5437 -0.8668
 6378TIP3    H119079   3.954   3.786   1.605 -0.0374 -0.5969  0.0150
 6378TIP3    H219080   4.057   3.814   1.498 -0.9559  1.4015 -0.3909
 6379TIP3   OH219081   4.240   0.580   1.557 -0.3027  0.5629  0.7235
 6379TIP3    H119082   4.218   0.624   1.639  0.6064  1.7565  0.3612
 6379TIP3    H219083   4.289   0.502   1.584  0.2276  1.0928  1.3017
 6380TIP3   OH219084   1.478   6.629   1.647 -0.0526 -0.0995 -0.3815
 6380TIP3    H119085   1.524   6.666   1.572 -0.4823  1.7135  0.1770
 6380TIP3    H219086   1.542   6.572   1.690  1.0377  0.8468 -0.7067
 6381TIP3   OH219087   6.520   6.457   5.862  0.0729 -0.2976  0.8717
 6381TIP3    H119088   6.539   6.448   5.769  2.1903  0.9176  1.1067
 6381TIP3    H219089   6.511   6.551   5.876  3.0805 -0.0990  2.3360
 6382TIP3   OH219090   1.081   5.617   3.731  0.2602 -0.5143  0.3883
 6382TIP3    H119091   1.115   5.599   3.819 -0.4463  1.5422  1.1632
 6382TIP3    H219092   0.988   5.593   3.736 -0.3519  1.6733  1.0082
 6383TIP3   OH219093   2.666   2.101   5.233 -0.2312 -0.0513  0.5100
 6383TIP3    H119094   2.733   2.123   5.169 -0.2259  0.3840  0.6599
 6383TIP3    H219095   2.636   2.186   5.266  0.6547 -0.2717  1.9846
 6384TIP3   OH219096   4.179   4.829   4.926 -0.2541 -0.2732  0.1380
 6384TIP3    H119097   4.273   4.833   4.908 -0.3939  2.4317 -0.4701
 6384TIP3    H219098   4.156   4.919   4.949 -2.7112 -0.8791  0.2802
 6385TIP3   OH219099   0.184   1.127   3.184  0.1083 -0.2567  0.2661
 6385TIP3    H119100   0.267   1.158   3.150  0.2302  0.4245  1.1708
 6385TIP3    H219101   0.148   1.073   3.113  0.6742  0.5549 -0.6628
 6386TIP3   OH219102   1.973   3.400   2.900 -0.2071  0.3297 -0.4135
 6386TIP3    H119103   2.032   3.331   2.870 -0.1678  0.5269 -0.7880
 6386TIP3    H219104   2.009   3.480   2.864  0.2731  0.6746  0.7922
 6387TIP3   OH219105   5.533   1.987   0.756  0.0503  0.1087 -0.3981
 6387TIP3    H119106   5.494   1.902   0.738  0.2641 -0.2443  0.7333
 6387TIP3    H219107   5.461   2.041   0.788 -0.1277  0.4363 -1.3065
 6388TIP3   OH219108   4.561   5.692   3.698  0.4760  0.1833 -0.8238
 6388TIP3    H119109   4.595   5.604   3.711 -1.2590 -0.4103 -0.0053
 6388TIP3    H219110   4.466   5.682   3.703  0.1609  2.6982  3.9140
 6389TIP3   OH219111   6.928   7.037   5.466  0.0679  0.1495 -0.4038
 6389TIP3    H119112   6.938   7.001   5.378 -0.5395 -1.7121  0.2357
 6389TIP3    H219113   6.996   7.104   5.473  0.4737 -0.0501 -2.0912
 6390TIP3   OH219114   1.554   6.047   2.280 -0.0747 -0.1796  0.2184
 6390TIP3    H119115   1.597   5.963   2.263  0.7270 -0.0498  1.4833
 6390TIP3    H219116   1.618   6.112   2.252 -0.0764  0.0178  0.6799
 6391TIP3   OH219117   2.480   0.024   1.829 -0.0630  0.2854  0.3713
 6391TIP3    H119118   2.440   0.111   1.827  2.6960  1.7575 -3.3404
 6391TIP3    H219119   2.451  -0.018   1.748  0.6037 -1.2714  0.9034
 6392TIP3   OH219120   2.546   1.225   0.389  0.2865 -0.1860  0.6709
 6392TIP3    H119121   2.617   1.228   0.452 -0.8870  1.9132  2.0356
 6392TIP3    H219122   2.466   1.228   0.442 -0.7897 -0.7750 -0.8420
 6393TIP3   OH219123   7.217   3.103   0.011  0.2058 -0.7812  0.1073
 6393TIP3    H119124   7.206   3.033  -0.053 -0.5126 -0.1225 -0.5067
 6393TIP3    H219125   7.276   3.066   0.077  1.4471 -1.2680 -1.2228
 6394TIP3   OH219126   0.188   7.240   2.704 -0.0549  0.1225  0.7411
 6394TIP3    H119127   0.262   7.185   2.730  0.4782  0.9651  1.0205
 6394TIP3    H219128   0.220   7.288   2.628 -0.3696  0.3744  0.7663
 6395TIP3   OH219129   6.074   0.863   6.298  0.2294 -1.0416 -0.2642
 6395TIP3    H119130   6.021   0.937   6.326 -1.4401 -1.6969 -1.5515
 6395TIP3    H219131   6.151   0.865   6.355 -0.1535  1.1982  0.2304
 6396TIP3   OH219132   1.135   3.818   3.255 -0.3388  0.1721  0.0288
 6396TIP3    H119133   1.159   3.814   3.348  0.2748 -1.0418 -0.1628
 6396TIP3    H219134   1.203   3.873   3.215 -0.2679  0.2037  0.1912
 6397TIP3   OH219135   1.098   4.152   2.027 -0.0804  0.5035 -0.0777
 6397TIP3    H119136   1.011   4.127   1.996  0.1142 -0.6616  0.2715
 6397TIP3    H219137   1.092   4.246   2.040 -1.4006  0.3921  0.2713
 6398TIP3   OH219138   5.289   6.141   2.777  0.2104 -0.1242  0.0849
 6398TIP3    H119139   5.335   6.144   2.692  1.5000  1.8411  0.7839
 6398TIP3    H219140   5.344   6.084   2.831  0.6606  0.4716  0.2669
 6399TIP3   OH219141   1.412   5.704   2.593 -0.0622  0.2624 -0.2055
 6399TIP3    H119142   1.392   5.709   2.686 -0.2165 -0.4815 -0.1879
 6399TIP3    H219143   1.415   5.610   2.575 -4.2205  0.2190 -1.8245
 6400TIP3   OH219144   5.168   3.258   6.383  0.5392  0.4173 -0.0914
 6400TIP3    H119145   5.260   3.278   6.399  0.7388 -0.5637  0.0683
 6400TIP3    H219146   5.146   3.192   6.449  0.0021 -0.0877 -0.7619
 6401TIP3   OH219147   7.605   2.734   6.619  0.2888  0.1564 -0.5005
 6401TIP3    H119148   7.647   2.766   6.699 -2.8666  1.9945  0.5963
 6401TIP3    H219149   7.520   2.700   6.649  0.0662 -1.5355 -2.8058
 6402TIP3   OH219150   2.222   4.968   0.658 -0.9710  0.0062  0.2706
 6402TIP3    H119151   2.227   4.997   0.567  0.6494 -0.2180  0.2674
 6402TIP3    H219152   2.313   4.957   0.685 -1.4620 -2.0791  1.2413
 6403TIP3   OH219153   4.362   5.671   6.049  0.0923 -0.0508  0.2674
 6403TIP3    H119154   4.343   5.663   6.143  2.6311 -0.8494  0.8005
 6403TIP3    H219155   4.368   5.765   6.034  2.4080  0.1061  1.6294
 6404TIP3   OH219156   7.193   4.259   5.189 -0.1849 -0.1246 -0.0523
 6404TIP3    H119157   7.273   4.225   5.148 -0.3323 -1.5655  0.7967
 6404TIP3    H219158   7.225   4.326   5.249  0.7868 -2.5526  2.3698
 6405TIP3   OH219159   6.097   2.068   5.280  0.4757  0.1964 -0.6868
 6405TIP3    H119160   6.025   2.005   5.286  1.3550 -0.8744 -1.1289
 6405TIP3    H219161   6.167   2.031   5.333  0.4457  1.6394  0.4255
 6406TIP3   OH219162   6.447   4.333   2.449 -0.1209 -0.9415  0.1173
 6406TIP3    H119163   6.474   4.409   2.397 -1.9667 -0.3958 -0.1048
 6406TIP3    H219164   6.354   4.321   2.428 -0.5744 -1.5583  2.2623
 6407TIP3   OH219165   6.199   4.717   0.729  0.4784  0.6008  0.3707
 6407TIP3    H119166   6.146   4.648   0.690  0.4106  0.8239  0.0600
 6407TIP3    H219167   6.280   4.717   0.679  0.5550  0.6174  0.4941
 6408TIP3   OH219168   6.946   4.353   5.733  0.6481  0.7453 -0.2914
 6408TIP3    H119169   6.963   4.259   5.730 -1.1173  0.3460  0.4047
 6408TIP3    H219170   6.866   4.364   5.681  0.6699  1.8107 -0.1157
 6409TIP3   OH219171   4.024   7.449   5.238  0.2729 -0.6400 -0.6825
 6409TIP3    H119172   3.936   7.414   5.227  0.8597 -1.9208 -1.4780
 6409TIP3    H219173   4.057   7.461   5.149  1.3776 -1.4426 -0.4085
 6410TIP3   OH219174   1.616   2.244   6.462  0.0873  0.1176  0.5722
 6410TIP3    H119175   1.573   2.200   6.535 -0.7561 -0.8179 -0.4327
 6410TIP3    H219176   1.551   2.242   6.392  0.9355  0.8211 -0.2600
 6411TIP3   OH219177   6.725   0.273   0.783 -0.1206 -0.4593  0.4476
 6411TIP3    H119178   6.792   0.284   0.715 -1.4982 -1.0546 -1.0802
 6411TIP3    H219179   6.732   0.181   0.809 -0.7799 -0.7144 -0.2342
 6412TIP3   OH219180   0.929   6.515   0.321 -0.4914  0.1755 -0.2341
 6412TIP3    H119181   0.881   6.587   0.279  0.4012  1.6430  1.1635
 6412TIP3    H219182   0.949   6.455   0.249 -0.5283  1.7371 -1.6086
 6413TIP3   OH219183   3.318   0.284   4.148 -0.8140 -0.1006  0.1182
 6413TIP3    H119184   3.280   0.205   4.110  1.9507 -1.7157  0.4506
 6413TIP3    H219185   3.353   0.333   4.073  0.5858 -1.0191  0.1247
 6414TIP3   OH219186   4.383   5.095   2.586 -0.1045 -0.2016 -0.4060
 6414TIP3    H119187   4.408   5.169   2.531  2.7662 -0.9871 -0.3285
 6414TIP3    H219188   4.318   5.131   2.646  0.6720  2.1006 -0.8363
 6415TIP3   OH219189   0.861   6.250   1.203 -0.5725 -0.3935 -0.1654
 6415TIP3    H119190   0.953   6.269   1.185 -0.6069 -0.7596 -0.7775
 6415TIP3    H219191   0.850   6.159   1.177 -1.3414 -0.0616 -1.0827
 6416TIP3   OH219192   7.570   7.714   5.529 -0.2585 -0.3845  0.0910
 6416TIP3    H119193   7.614   7.777   5.585  0.1205 -0.8861  0.3696
 6416TIP3    H219194   7.567   7.633   5.581 -1.2981 -0.4236 -0.0218
 6417TIP3   OH219195   0.559   6.551   0.265  0.1870  0.5179  1.0813
 6417TIP3    H119196   0.554   6.486   0.195 -0.5211  2.4591 -0.7843
 6417TIP3    H219197   0.611   6.509   0.333  1.6677 -1.1474 -0.9519
 6418TIP3   OH219198   6.154   0.710   2.561 -0.6801  0.1455 -0.1706
 6418TIP3    H119199   6.177   0.775   2.628  0.9479  0.6119 -1.1168
 6418TIP3    H219200   6.123   0.634   2.611  2.5623 -0.3736  1.3108
 6419TIP3   OH219201   7.458   4.397   3.481  0.0142  0.8814 -0.0320
 6419TIP3    H119202   7.484   4.433   3.396  1.4120  0.2060  0.0750
 6419TIP3    H219203   7.516   4.439   3.544 -0.7321  1.0663  0.5507
 6420TIP3   OH219204   1.743   5.000   4.428 -0.0678  0.2121 -0.8827
 6420TIP3    H119205   1.702   5.085   4.442  0.2746  0.2620 -0.1551
 6420TIP3    H219206   1.819   5.020   4.372  1.6536  0.8514  1.5377
 6421TIP3   OH219207   6.342   6.879   2.667  0.7614  0.2044  0.4286
 6421TIP3    H119208   6.270   6.820   2.688  0.6547 -0.3943 -1.4080
 6421TIP3    H219209   6.338   6.947   2.734 -1.0297 -0.2341  0.8101
 6422TIP3   OH219210   5.133   6.766   5.887  0.0627 -0.2816  0.5338
 6422TIP3    H119211   5.213   6.790   5.840  0.4044 -2.0989  0.1131
 6422TIP3    H219212   5.096   6.850   5.915  1.0276  0.7285 -1.0320
 6423TIP3   OH219213   4.669   2.015   1.442  0.3392 -0.2521  0.5822
 6423TIP3    H119214   4.678   1.960   1.520 -1.7476  0.9506  1.7684
 6423TIP3    H219215   4.584   1.990   1.406  0.8332 -0.0734 -0.7316
 6424TIP3   OH219216   1.555   5.172   2.258 -0.4195  0.8288 -0.1611
 6424TIP3    H119217   1.537   5.099   2.317 -0.0283  0.4628 -0.4929
 6424TIP3    H219218   1.629   5.143   2.205  1.3219  2.3128  1.2684
 6425TIP3   OH219219   1.833   5.814   4.599 -0.4465  0.8134 -0.1073
 6425TIP3    H119220   1.909   5.853   4.555 -1.4586  1.8513 -0.9835
 6425TIP3    H219221   1.866   5.791   4.687  1.3165 -0.2983 -0.9944
 6426TIP3   OH219222   7.826   2.616   2.492  0.6366  0.5130  0.1384
 6426TIP3    H119223   7.751   2.606   2.434 -0.1395  0.9574  1.0477
 6426TIP3    H219224   7.877   2.688   2.454  0.7802  0.0189 -0.6405
 6427TIP3   OH219225   3.662   1.937   1.680 -0.4031  0.0331  0.0707
 6427TIP3    H119226   3.595   1.930   1.612 -1.8230 -0.3122  1.4429
 6427TIP3    H219227   3.637   2.014   1.731 -0.3518 -0.6641  1.1938
 6428TIP3   OH219228   1.570   7.016   1.032 -0.4283  0.1029 -0.7701
 6428TIP3    H119229   1.611   6.961   0.965  1.4044  2.3898 -1.6613
 6428TIP3    H219230   1.491   7.051   0.990  0.4517  1.1356 -1.6371
 6429TIP3   OH219231   6.231   5.188   6.056 -0.3006 -0.1217 -0.1752
 6429TIP3    H119232   6.276   5.127   6.115 -1.0839  1.5876  2.3411
 6429TIP3    H219233   6.151   5.142   6.031 -1.2987  0.0178  2.3637
 6430TIP3   OH219234   7.061   4.308   0.680 -0.3172  0.7252  0.1295
 6430TIP3    H119235   7.151   4.303   0.649 -0.7099  2.6641 -1.5108
 6430TIP3    H219236   7.055   4.393   0.723 -1.5055  0.8408 -0.2369
 6431TIP3   OH219237   0.988   3.394   3.827  0.1351 -0.1701  0.0199
 6431TIP3    H119238   0.923   3.339   3.870  0.7592 -0.7970  0.1701
 6431TIP3    H219239   0.936   3.457   3.776 -0.5838 -0.6858  0.1011
 6432TIP3   OH219240   5.618   6.719   5.286 -0.3229  0.7066 -0.1144
 6432TIP3    H119241   5.570   6.644   5.322  1.4501  0.7473  2.5565
 6432TIP3    H219242   5.687   6.680   5.233 -1.0782  0.5857 -1.0558
 6433TIP3   OH219243   3.856   1.433   6.765  0.3080  0.5418 -0.7095
 6433TIP3    H119244   3.795   1.471   6.702 -0.0382  2.2900  0.5904
 6433TIP3    H219245   3.813   1.352   6.793 -0.0977  0.3567 -1.8152
 6434TIP3   OH219246   3.624   4.981   0.401 -0.1967 -0.2876 -0.1006
 6434TIP3    H119247   3.657   4.953   0.316  1.4441  2.9359 -0.6630
 6434TIP3    H219248   3.530   4.993   0.388 -0.6705 -3.4533 -0.2904
 6435TIP3   OH219249   8.122   7.836   3.152 -0.2286  0.3553  0.8516
 6435TIP3    H119250   8.076   7.752   3.158 -1.7494  1.0636 -0.2478
 6435TIP3    H219251   8.106   7.878   3.237 -2.4969  0.9554  0.2163
 6436TIP3   OH219252   7.629   7.747   4.736 -0.3804  0.2248 -0.1399
 6436TIP3    H119253   7.554   7.800   4.763  0.2877  0.1690  2.0139
 6436TIP3    H219254   7.644   7.688   4.810  2.2781  0.7725 -0.1440
 6437TIP3   OH219255   3.506   0.753   1.569  0.6140 -0.2829  0.1513
 6437TIP3    H119256   3.494   0.658   1.560  0.8495 -0.4493  1.4552
 6437TIP3    H219257   3.588   0.762   1.617  1.2181  0.6378 -0.9983
 6438TIP3   OH219258   6.193   2.526   3.499  0.3165  0.1125 -0.3753
 6438TIP3    H119259   6.280   2.488   3.500  0.2058 -0.1490  0.8100
 6438TIP3    H219260   6.205   2.616   3.530  0.2162  0.1864 -0.5494
 6439TIP3   OH219261   3.749   4.014   3.020  0.7754  0.2999  0.0271
 6439TIP3    H119262   3.825   3.974   2.977 -0.4771  0.1018 -2.2033
 6439TIP3    H219263   3.754   4.106   2.995 -0.0786  0.1419 -0.7871
 6440TIP3   OH219264   1.422   6.901   3.336  0.2419 -0.4234  1.4079
 6440TIP3    H119265   1.446   6.994   3.341  1.1404 -0.5544  0.0354
 6440TIP3    H219266   1.489   6.862   3.280 -1.4485 -1.4154 -0.0397
 6441TIP3   OH219267   6.204   0.472   3.444 -0.3759  0.0600 -0.2795
 6441TIP3    H119268   6.295   0.483   3.416  0.3758 -1.8420  1.1555
 6441TIP3    H219269   6.159   0.441   3.365  0.8595 -1.6174 -0.3968
 6442TIP3   OH219270   3.318   7.269   0.821  0.1960  0.1267  0.3197
 6442TIP3    H119271   3.265   7.256   0.743 -1.5361  0.7137  1.3349
 6442TIP3    H219272   3.335   7.180   0.854  1.1475 -0.1338 -0.8160
 6443TIP3   OH219273   7.764   3.664   0.570  0.7834  0.2902  0.7495
 6443TIP3    H119274   7.841   3.610   0.553  0.5669  0.3493 -0.6018
 6443TIP3    H219275   7.707   3.610   0.624  1.3112 -0.1653  0.8517
 6444TIP3   OH219276   2.263   4.578   5.308 -0.3850  0.0872 -0.6074
 6444TIP3    H119277   2.338   4.520   5.296  0.9366  1.4883  0.4860
 6444TIP3    H219278   2.221   4.545   5.388  0.3655  0.6149  0.0155
 6445TIP3   OH219279   8.035   1.878   3.808 -0.3672  0.6256 -0.2123
 6445TIP3    H119280   8.032   1.876   3.712 -1.1923  0.1763 -0.1934
 6445TIP3    H219281   8.123   1.908   3.829 -0.6040  2.0820 -1.1266
 6446TIP3   OH219282   5.161   3.592   0.737 -0.3413 -0.0765  0.1499
 6446TIP3    H119283   5.120   3.679   0.738  1.6500  0.9454 -1.0331
 6446TIP3    H219284   5.216   3.590   0.816 -1.7008 -1.0255  1.1430
 6447TIP3   OH219285   7.555   5.356   0.440  0.4876 -0.0647 -0.2208
 6447TIP3    H119286   7.642   5.396   0.436  0.6603 -0.5235 -1.3960
 6447TIP3    H219287   7.503   5.417   0.493  1.1898  0.8670 -0.5638
 6448TIP3   OH219288   7.556   2.595   6.378  0.1558  0.5458  0.3819
 6448TIP3    H119289   7.625   2.533   6.354 -2.2621 -2.1489 -0.1804
 6448TIP3    H219290   7.593   2.644   6.452  2.7169 -0.6075 -0.0212
 6449TIP3   OH219291   6.555   0.159   4.110 -0.2198  0.1035 -0.4234
 6449TIP3    H119292   6.539   0.246   4.148 -0.7851  0.2926 -1.0760
 6449TIP3    H219293   6.477   0.108   4.133 -0.7385  0.3272 -1.6209
 6450TIP3   OH219294   5.153   0.245   0.504  0.0440  0.0780 -0.3423
 6450TIP3    H119295   5.187   0.231   0.415  1.3977 -0.2756  0.2134
 6450TIP3    H219296   5.100   0.325   0.497 -0.2427 -0.1950 -1.5572
 6451TIP3   OH219297   5.163   0.367   5.820 -0.0308 -0.5286  0.0975
 6451TIP3    H119298   5.183   0.456   5.852 -1.4776 -0.4690  0.9283
 6451TIP3    H219299   5.067   0.362   5.821  0.0318 -2.3672  0.8242
 6452TIP3   OH219300   7.276   3.045   1.606  0.8866  0.1861 -0.0921
 6452TIP3    H119301   7.232   3.072   1.525 -0.9682 -0.2781  0.7191
 6452TIP3    H219302   7.278   3.124   1.660 -0.2799 -0.1372  0.4365
 6453TIP3   OH219303   7.912   2.888   2.397 -0.2889 -0.7640 -0.0852
 6453TIP3    H119304   7.881   2.919   2.312  0.7287 -0.0081 -0.2016
 6453TIP3    H219305   8.003   2.918   2.402  0.0319 -1.8111  0.7763
 6454TIP3   OH219306   6.413   1.989   2.563 -0.3913 -0.1285 -0.0022
 6454TIP3    H119307   6.388   1.917   2.621  2.0367 -1.0785 -0.0563
 6454TIP3    H219308   6.508   1.983   2.555 -0.2581  2.2124 -1.1906
 6455TIP3   OH219309   7.474   0.332   1.221 -0.0061 -0.5604  0.5005
 6455TIP3    H119310   7.431   0.252   1.189  4.0057 -3.2458  1.0656
 6455TIP3    H219311   7.551   0.342   1.164  1.3981  0.9222  2.5164
 6456TIP3   OH219312   7.355   5.116   3.550 -0.1620  0.2266  0.4253
 6456TIP3    H119313   7.331   5.177   3.481  0.7556 -0.7014 -0.7517
 6456TIP3    H219314   7.362   5.031   3.506  1.3172 -0.2325  1.4727
 6457TIP3   OH219315   4.369   4.085   1.976 -0.4969 -0.4019  0.8780
 6457TIP3    H119316   4.436   4.054   1.916  0.1713  1.3989  0.6327
 6457TIP3    H219317   4.417   4.126   2.047 -1.3103  1.0168  0.6485
 6458TIP3   OH219318   7.303   3.500   2.951 -0.0763 -0.3144 -0.3294
 6458TIP3    H119319   7.215   3.515   2.985  0.0793  2.6511 -0.9860
 6458TIP3    H219320   7.356   3.569   2.990  1.5262 -0.8140 -1.5220
 6459TIP3   OH219321   7.731   4.975   0.131 -0.1184 -0.1862  0.0690
 6459TIP3    H119322   7.796   4.911   0.101  0.8859  0.5191  0.6873
 6459TIP3    H219323   7.651   4.923   0.145  0.0817 -0.9449 -1.3923
 6460TIP3   OH219324   8.115   7.357   3.245 -0.0806 -0.0631  0.3634
 6460TIP3    H119325   8.052   7.299   3.288 -0.6288 -1.0904 -1.6914
 6460TIP3    H219326   8.198   7.310   3.248 -0.0195  0.0599  0.6500
 6461TIP3   OH219327   7.057   3.273   6.728  0.6176  0.4429 -0.4555
 6461TIP3    H119328   7.135   3.315   6.764  0.4709  0.8391 -0.5925
 6461TIP3    H219329   6.984   3.316   6.773  0.5003 -1.3776  1.2580
 6462TIP3   OH219330   6.701   4.124   1.237 -0.9096 -0.3832 -0.1409
 6462TIP3    H119331   6.703   4.077   1.154  1.1837 -1.5208  0.4725
 6462TIP3    H219332   6.744   4.208   1.218  0.6750 -1.1263  0.0053
 6463TIP3   OH219333   1.486   4.210   6.190  0.6738  0.1864  0.3054
 6463TIP3    H119334   1.537   4.155   6.132  0.9306  0.1041  0.6071
 6463TIP3    H219335   1.485   4.296   6.148  1.9006  0.4474  0.7830
 6464TIP3   OH219336   6.557   4.449   3.558 -0.4682  0.2828  0.6674
 6464TIP3    H119337   6.487   4.454   3.493  0.3354  1.1942 -0.1582
 6464TIP3    H219338   6.623   4.392   3.517 -0.1769  0.4540  0.8945
 6465TIP3   OH219339   5.169   4.235   6.324 -0.2411 -0.2930 -0.6409
 6465TIP3    H119340   5.125   4.158   6.359 -0.2859 -0.2915 -0.6943
 6465TIP3    H219341   5.156   4.230   6.230  1.5799 -1.3685 -0.8689
 6466TIP3   OH219342   0.670   1.703   1.750  0.1569  0.2723 -0.0569
 6466TIP3    H119343   0.696   1.743   1.833 -0.5528  0.2510  0.1864
 6466TIP3    H219344   0.748   1.708   1.695  0.4012  1.0079  0.3396
 6467TIP3   OH219345   3.080   5.061   4.366 -0.0066  0.0239  0.2199
 6467TIP3    H119346   3.061   5.075   4.459 -1.5193  1.6452 -0.2892
 6467TIP3    H219347   3.032   4.981   4.343  0.3987 -0.4006  0.8276
 6468TIP3   OH219348   2.241   2.204   6.401 -0.2259 -0.4193 -0.1141
 6468TIP3    H119349   2.229   2.120   6.445  0.7882 -1.0603 -1.0064
 6468TIP3    H219350   2.210   2.189   6.311  2.3603 -0.6834 -1.0504
 6469TIP3   OH219351   5.258   4.000   2.706  0.0189  0.0317  0.3029
 6469TIP3    H119352   5.350   4.026   2.698 -0.5723  1.7918 -2.8680
 6469TIP3    H219353   5.231   3.982   2.616 -2.2088 -2.6641  1.3826
 6470TIP3   OH219354   4.022   7.547   2.893 -0.0328 -0.1124 -0.5903
 6470TIP3    H119355   4.019   7.630   2.941 -0.4147 -1.1286  1.2413
 6470TIP3    H219356   3.931   7.527   2.873 -0.4423 -1.8651  2.3601
 6471TIP3   OH219357   2.875   5.711   1.520  0.3406 -0.5797  0.3944
 6471TIP3    H119358   2.959   5.684   1.557 -0.4775 -0.8606  2.0967
 6471TIP3    H219359   2.824   5.631   1.514 -0.3822 -0.1623  0.8916
 6472TIP3   OH219360   3.741   0.990   4.445 -0.3388 -0.1206 -0.0916
 6472TIP3    H119361   3.760   0.900   4.420 -2.0850 -0.7000  0.5201
 6472TIP3    H219362   3.648   1.002   4.425 -0.0602  1.6653 -0.4911
 6473TIP3   OH219363   4.841   5.616   3.966 -0.0908  0.2815  0.5185
 6473TIP3    H119364   4.826   5.602   4.059 -0.4846  1.7628  0.7060
 6473TIP3    H219365   4.782   5.555   3.922 -0.3590  0.0124  1.2427
 6474TIP3   OH219366   5.362   6.978   2.459 -0.6132 -0.4645  0.1197
 6474TIP3    H119367   5.279   6.960   2.503 -0.9902  0.6529 -0.1105
 6474TIP3    H219368   5.367   6.913   2.389 -3.0146  1.5800 -2.1342
 6475TIP3   OH219369   7.913   1.038   5.814  0.0576  0.2446  0.4174
 6475TIP3    H119370   7.818   1.045   5.820 -0.0258  1.5633 -1.4927
 6475TIP3    H219371   7.930   1.022   5.721  1.6717 -0.9988  0.8731
 6476TIP3   OH219372   1.382   1.770   6.632 -0.1870 -0.2104 -0.3255
 6476TIP3    H119373   1.438   1.802   6.562  0.2628  2.3174  1.0546
 6476TIP3    H219374   1.297   1.809   6.614 -0.0852  0.3983  0.4608
 6477TIP3   OH219375   2.278   0.392   5.111  0.1116  0.5167 -0.6480
 6477TIP3    H119376   2.365   0.382   5.150  0.5435  1.8486 -1.1963
 6477TIP3    H219377   2.218   0.390   5.186  0.6569  0.0349 -0.2188
 6478TIP3   OH219378   3.310   2.428   1.929 -0.2106  0.3263 -0.0625
 6478TIP3    H119379   3.226   2.385   1.946 -0.3949  0.2437 -1.1225
 6478TIP3    H219380   3.288   2.500   1.869  0.0258  2.1500  1.9196
 6479TIP3   OH219381   3.461   1.414   6.614 -0.3995 -0.3866 -0.5098
 6479TIP3    H119382   3.421   1.498   6.594 -0.3425  0.2324  1.6535
 6479TIP3    H219383   3.392   1.349   6.598  0.2142 -0.3199 -4.3975
 6480TIP3   OH219384   6.198   5.492   0.416  0.3208 -0.6186  0.1857
 6480TIP3    H119385   6.175   5.579   0.385 -1.3890 -1.0110  0.2154
 6480TIP3    H219386   6.261   5.506   0.487  1.1837  0.4873 -0.7676
 6481TIP3   OH219387   1.738   2.804   6.493  0.6866  0.1686 -0.1816
 6481TIP3    H119388   1.784   2.733   6.449 -0.6898 -0.6563 -0.3152
 6481TIP3    H219389   1.689   2.849   6.425  0.2394  0.2257  0.1728
 6482TIP3   OH219390   6.766   4.336   0.956  0.2428  0.0141  0.1050
 6482TIP3    H119391   6.686   4.336   1.009  0.3846 -1.4355  0.3438
 6482TIP3    H219392   6.784   4.244   0.939  0.8900  0.3989 -1.4495
 6483TIP3   OH219393   3.406   7.589   2.794  0.1129 -0.3690  0.3211
 6483TIP3    H119394   3.389   7.511   2.741  2.2441 -1.6747  1.3806
 6483TIP3    H219395   3.427   7.658   2.731 -1.2810 -0.7664 -0.6199
 6484TIP3   OH219396   0.028   4.079   2.823  0.0333  0.1235  1.0139
 6484TIP3    H119397   0.117   4.061   2.851 -0.7144 -0.7092  3.0025
 6484TIP3    H219398   0.013   4.170   2.849  0.4672  0.4410  0.1789
 6485TIP3   OH219399   1.379   6.942   5.704  0.2571 -0.6242 -0.4302
 6485TIP3    H119400   1.307   6.950   5.767 -0.4636 -2.6318 -0.9187
 6485TIP3    H219401   1.444   6.888   5.750  1.3257  0.8007 -0.1622
 6486TIP3   OH219402   5.064   1.856   1.751 -0.2360 -0.0113 -0.2142
 6486TIP3    H119403   5.036   1.908   1.676  2.0094  0.4654 -0.7950
 6486TIP3    H219404   5.084   1.921   1.819  1.0607 -0.1899 -0.4038
 6487TIP3   OH219405   1.889   6.051   3.481  0.2380  0.5526  0.4280
 6487TIP3    H119406   1.852   6.008   3.404  1.0182  2.2680 -0.9959
 6487TIP3    H219407   1.874   6.144   3.466  1.2966  1.0030  1.8795
 6488TIP3   OH219408   4.180   4.483   6.519  0.1524 -0.2673  0.1083
 6488TIP3    H119409   4.256   4.429   6.542 -0.3961 -0.1727  2.3778
 6488TIP3    H219410   4.115   4.421   6.487  0.1189 -0.7573  1.0925
 6489TIP3   OH219411   8.254   1.544   4.832  0.0355  0.0891 -0.0710
 6489TIP3    H119412   8.262   1.448   4.830  3.9824  0.2387 -0.8967
 6489TIP3    H219413   8.275   1.568   4.922  3.0944  0.1957 -0.7008
 6490TIP3   OH219414   3.772   5.274   0.204  0.0210  0.5110  0.0174
 6490TIP3    H119415   3.766   5.179   0.202 -1.6237  0.5822 -0.1034
 6490TIP3    H219416   3.811   5.298   0.120  0.3804 -0.0392  0.0217
 6491TIP3   OH219417   4.412   6.790   2.574 -0.3296  0.0680 -0.7030
 6491TIP3    H119418   4.407   6.806   2.480  0.9530  1.7976 -0.5109
 6491TIP3    H219419   4.478   6.851   2.606 -0.3306 -0.8738  1.2495
 6492TIP3   OH219420   2.194   4.916   4.233  0.5309 -0.7352 -0.5650
 6492TIP3    H119421   2.205   5.010   4.252 -2.3105 -0.4951  0.3876
 6492TIP3    H219422   2.263   4.896   4.169  0.0809  2.4388 -2.2376
 6493TIP3   OH219423   1.565   6.983   4.757  0.5215 -0.2020  0.5699
 6493TIP3    H119424   1.575   6.904   4.705  0.7113 -0.4600  0.9968
 6493TIP3    H219425   1.653   7.019   4.764  0.2224  0.9072 -0.9512
 6494TIP3   OH219426   7.529   7.010   0.667 -0.4140  0.1124  0.2422
 6494TIP3    H119427   7.502   6.933   0.615 -1.7056 -0.9997  2.4311
 6494TIP3    H219428   7.622   6.995   0.684 -0.0038  0.3948 -1.4896
 6495TIP3   OH219429   6.436   0.871   6.160  0.7235 -0.0553  0.0290
 6495TIP3    H119430   6.398   0.924   6.090 -0.3382 -0.5695  0.2040
 6495TIP3    H219431   6.492   0.808   6.115 -1.4616 -1.6682 -0.5577
 6496TIP3   OH219432   5.737   0.751   6.122  0.3393  0.2618 -0.2028
 6496TIP3    H119433   5.824   0.718   6.100  0.1898 -0.2937  0.0168
 6496TIP3    H219434   5.678   0.697   6.069  0.1686  1.2164 -1.0200
 6497TIP3   OH219435   8.075   5.436   6.528 -0.3297  0.0418 -0.3821
 6497TIP3    H119436   8.069   5.344   6.502 -2.2196 -0.3382  1.1893
 6497TIP3    H219437   8.106   5.433   6.618 -2.2485  0.8016  0.3373
 6498TIP3   OH219438   2.374   3.077   0.889 -0.2202 -0.0996 -0.0635
 6498TIP3    H119439   2.363   3.106   0.980 -2.9692 -0.1070 -0.3360
 6498TIP3    H219440   2.358   2.983   0.892  0.6470 -0.2717 -0.4525
 6499TIP3   OH219441   2.994   5.438   2.156  0.1440 -0.1965 -0.0079
 6499TIP3    H119442   2.899   5.432   2.143  0.0076  1.6709 -0.1708
 6499TIP3    H219443   3.012   5.384   2.232 -1.1671 -0.0670  0.4092
 6500TIP3   OH219444   7.295   4.364   1.060  0.0767 -0.4202 -0.0741
 6500TIP3    H119445   7.256   4.449   1.038  0.1397 -0.4641 -0.3523
 6500TIP3    H219446   7.221   4.313   1.095 -0.2421 -0.6906 -1.1152
 6501TIP3   OH219447   2.191   5.509   1.381 -0.8299 -0.9181  0.0560
 6501TIP3    H119448   2.111   5.514   1.432 -0.4664 -0.0837  0.5720
 6501TIP3    H219449   2.260   5.491   1.446 -0.3174  0.4749 -0.0657
 6502TIP3   OH219450   2.808   4.695   1.523 -0.1763  0.0684  0.9325
 6502TIP3    H119451   2.718   4.729   1.525 -0.3019 -0.2844  1.2756
 6502TIP3    H219452   2.811   4.641   1.444 -0.0477  0.6677  0.5182
 6503TIP3   OH219453   3.799   2.436   3.262 -0.4022 -0.2251  0.7128
 6503TIP3    H119454   3.872   2.373   3.265 -0.7172 -0.6180  0.2816
 6503TIP3    H219455   3.816   2.488   3.183  1.1178  1.8021  2.2790
 6504TIP3   OH219456   4.137   1.527   2.991  0.4657 -0.3039  0.0422
 6504TIP3    H119457   4.157   1.485   3.075  1.7122  1.9036  0.9506
 6504TIP3    H219458   4.049   1.562   3.003  0.0725 -1.2151 -0.1189
 6505TIP3   OH219459   5.551   3.957   0.702  0.4848  0.1325  0.2350
 6505TIP3    H119460   5.589   3.887   0.755  1.7506  0.3422 -0.3703
 6505TIP3    H219461   5.518   4.020   0.767 -0.2971 -0.8059  0.7788
 6506TIP3   OH219462   7.627   1.671   3.438 -0.2373  0.2205 -0.3269
 6506TIP3    H119463   7.720   1.679   3.461  0.1725  0.7065 -2.0152
 6506TIP3    H219464   7.593   1.606   3.499  1.4472 -0.6577 -0.2698
 6507TIP3   OH219465   2.833   7.097   0.880  0.9747  0.1706 -0.7834
 6507TIP3    H119466   2.838   7.014   0.833 -0.3109 -0.7153  0.5590
 6507TIP3    H219467   2.899   7.089   0.949  1.2238  0.5112 -0.9747
 6508TIP3   OH219468   0.692   5.999   0.752 -0.5128  0.0233  0.3744
 6508TIP3    H119469   0.659   6.050   0.678  1.9068  2.0994  0.6157
 6508TIP3    H219470   0.725   5.918   0.712  0.4966  0.9895 -0.8313
 6509TIP3   OH219471   3.793   3.352   4.386  0.0850  0.1979  0.0836
 6509TIP3    H119472   3.833   3.269   4.359  0.2081  0.1335  0.4543
 6509TIP3    H219473   3.731   3.327   4.455  0.1775  0.4213  0.2498
 6510TIP3   OH219474   1.894   6.076   3.832 -0.0653  1.1855 -0.0380
 6510TIP3    H119475   1.857   6.140   3.771 -1.3081 -0.1611 -0.7409
 6510TIP3    H219476   1.837   6.078   3.908 -0.0876  0.9359 -0.0467
 6511TIP3   OH219477   7.757   4.592   5.693  0.1711  0.2392 -0.8328
 6511TIP3    H119478   7.680   4.552   5.652  0.2408  1.0268 -1.7461
 6511TIP3    H219479   7.721   4.661   5.749  0.1143 -0.4979  0.0765
 6512TIP3   OH219480   4.939   5.032   5.257 -0.2042 -0.0683 -0.3770
 6512TIP3    H119481   4.961   5.079   5.337 -2.3929 -0.1647  0.3210
 6512TIP3    H219482   5.024   5.008   5.220  0.9102  1.7905  0.8026
 6513TIP3   OH219483   0.723   4.936   0.109  0.0123 -0.1265 -0.0073
 6513TIP3    H119484   0.793   4.907   0.167 -0.9193 -1.3265  0.5750
 6513TIP3    H219485   0.714   5.029   0.125 -0.0691 -0.3984  1.6201
 6514TIP3   OH219486   7.619   3.520   2.206  0.1426 -0.1949 -0.3359
 6514TIP3    H119487   7.542   3.513   2.263  0.2602  0.6515 -0.0608
 6514TIP3    H219488   7.688   3.555   2.262  1.4816 -3.2399  0.0828
 6515TIP3   OH219489   1.145   6.851   0.622  0.0765  0.2017 -0.1527
 6515TIP3    H119490   1.135   6.909   0.698  1.0206 -1.1364  1.0476
 6515TIP3    H219491   1.061   6.804   0.617  0.3444 -0.3821  0.6691
 6516TIP3   OH219492   0.163   3.716   2.479 -0.1771  0.8092  0.0835
 6516TIP3    H119493   0.191   3.779   2.545  0.8571  0.2357  0.2051
 6516TIP3    H219494   0.190   3.755   2.396  0.8574  0.3391  0.1886
 6517TIP3   OH219495   0.714   4.366   3.196 -0.1919  0.0760  0.8294
 6517TIP3    H119496   0.687   4.299   3.259  2.2872 -0.2225  1.6792
 6517TIP3    H219497   0.688   4.330   3.111  1.1886 -2.1067  1.2408
 6518TIP3   OH219498   3.293   7.482   5.641 -0.1516  0.3836 -0.1645
 6518TIP3    H119499   3.295   7.443   5.729  0.1644 -0.9891 -0.7528
 6518TIP3    H219500   3.200   7.501   5.626 -0.3329 -0.2712  0.0902
 6519TIP3   OH219501   2.280   2.713   0.378  0.2799  0.2629  0.1208
 6519TIP3    H119502   2.360   2.765   0.371  0.8884 -0.7316 -0.3473
 6519TIP3    H219503   2.309   2.625   0.398 -0.3677 -1.0691 -3.8699
 6520TIP3   OH219504   3.264   2.828   3.315 -0.0322 -0.1097  0.7540
 6520TIP3    H119505   3.331   2.860   3.254 -2.0215 -0.2801 -1.6803
 6520TIP3    H219506   3.263   2.733   3.302 -2.7498  0.1301 -1.6120
 6521TIP3   OH219507   1.029   3.656   1.437 -0.1086  0.2565  0.0856
 6521TIP3    H119508   1.045   3.721   1.369  0.4674 -1.0769 -1.0895
 6521TIP3    H219509   1.068   3.576   1.404  1.3400 -0.1640  2.5498
 6522TIP3   OH219510   6.346   7.689   1.965  0.3478  0.3831  0.2545
 6522TIP3    H119511   6.375   7.671   2.055 -2.6680  1.4962  1.5636
 6522TIP3    H219512   6.389   7.771   1.942 -0.1178  0.9578  1.3555
 6523TIP3   OH219513   1.242   7.563   3.357 -0.1872 -0.5414  0.1777
 6523TIP3    H119514   1.177   7.612   3.307 -0.2235 -0.6940  0.0737
 6523TIP3    H219515   1.208   7.473   3.358  0.6811 -0.9140 -1.0181
 6524TIP3   OH219516   4.134   5.435   3.809  0.3920  0.3841  0.1327
 6524TIP3    H119517   4.206   5.376   3.833 -0.7302 -0.5270  1.3868
 6524TIP3    H219518   4.064   5.413   3.869 -0.8640  1.4543 -0.8832
 6525TIP3   OH219519   6.961   7.261   3.498  0.6775  0.3357 -0.6131
 6525TIP3    H119520   6.960   7.179   3.448 -0.0701  0.3613 -0.6385
 6525TIP3    H219521   6.986   7.234   3.586  0.8219  0.1349 -0.7130
 6526TIP3   OH219522   2.513   7.135   2.362  0.1253  0.1453  0.0876
 6526TIP3    H119523   2.488   7.061   2.417 -0.3634  1.0361  1.1040
 6526TIP3    H219524   2.561   7.193   2.420 -0.4619  1.1461 -0.3981
 6527TIP3   OH219525   8.081   3.498   5.748 -0.7920 -0.0552  0.5927
 6527TIP3    H119526   8.065   3.533   5.836 -0.1153 -1.9099  1.4902
 6527TIP3    H219527   7.997   3.458   5.723 -1.5289  1.9474 -0.3862
 6528TIP3   OH219528   1.201   5.312   3.469  0.1084  0.3064  0.1430
 6528TIP3    H119529   1.244   5.396   3.458  0.1878  0.4980  1.6707
 6528TIP3    H219530   1.113   5.334   3.500  0.5312 -0.1545  1.7935
 6529TIP3   OH219531   4.170   5.663   4.300 -0.4900  0.3880 -0.7838
 6529TIP3    H119532   4.115   5.734   4.333  3.3122  1.3673  4.9341
 6529TIP3    H219533   4.235   5.705   4.245  0.1176  0.9401  0.3326
 6530TIP3   OH219534   8.001   0.581   5.194  0.1047 -0.2356  0.2251
 6530TIP3    H119535   8.049   0.629   5.126  0.0335  1.8501  1.5731
 6530TIP3    H219536   7.926   0.544   5.148 -0.2575  1.5892 -0.7544
 6531TIP3   OH219537   5.399   0.370   5.655 -0.2205  0.8222  0.1739
 6531TIP3    H119538   5.336   0.397   5.722 -0.6864 -0.6495  0.3659
 6531TIP3    H219539   5.480   0.353   5.704 -1.0778 -2.1092  0.7298
 6532TIP3   OH219540   1.861   1.949   3.132  0.5208 -0.6866 -0.0119
 6532TIP3    H119541   1.847   2.021   3.070 -0.8102 -0.7848  0.1319
 6532TIP3    H219542   1.913   1.987   3.202 -0.0527  0.1191 -0.0078
 6533TIP3   OH219543   2.118   1.088   1.755 -0.0107  0.5282 -0.4882
 6533TIP3    H119544   2.186   1.093   1.822  0.9610  2.5127 -1.5266
 6533TIP3    H219545   2.042   1.132   1.793  0.6605  1.9948 -0.7570
 6534TIP3   OH219546   1.819   1.604   5.496 -0.6773 -0.0023  0.2431
 6534TIP3    H119547   1.863   1.586   5.413  0.1836 -0.5352  0.8028
 6534TIP3    H219548   1.889   1.614   5.559 -1.3300  0.2606  0.9447
 6535TIP3   OH219549   0.188   1.962   6.638 -0.1792  0.1810 -0.4225
 6535TIP3    H119550   0.174   1.877   6.596 -1.3801 -0.4499  1.1711
 6535TIP3    H219551   0.173   2.026   6.568  0.7823 -0.8712 -1.6556
 6536TIP3   OH219552   0.325   6.353   6.065 -0.1397 -0.4482  0.1970
 6536TIP3    H119553   0.251   6.362   6.124 -0.1857  1.5556 -0.0893
 6536TIP3    H219554   0.287   6.321   5.983  0.0018 -3.8216  1.2881
 6537TIP3   OH219555   6.585   6.211   4.183  0.0001 -0.4497  0.4351
 6537TIP3    H119556   6.500   6.191   4.223 -0.7721  0.1780 -0.8180
 6537TIP3    H219557   6.595   6.305   4.196 -1.0394  0.1016 -2.1519
 6538TIP3   OH219558   4.323   5.703   2.471 -0.2048  0.6188 -0.1840
 6538TIP3    H119559   4.312   5.772   2.405 -0.0609  0.2895 -0.5553
 6538TIP3    H219560   4.416   5.681   2.468  0.0047  1.2821  0.8259
 6539TIP3   OH219561   4.273   5.881   1.131  0.1597 -0.2628  0.3339
 6539TIP3    H119562   4.320   5.866   1.213  2.4205  2.9948 -0.1621
 6539TIP3    H219563   4.341   5.886   1.065 -1.3057  0.3320 -1.1986
 6540TIP3   OH219564   0.815   3.123   2.289  0.0924  0.0664  0.2910
 6540TIP3    H119565   0.825   3.190   2.356 -0.2963  0.0524  0.3654
 6540TIP3    H219566   0.727   3.137   2.253  0.4255  0.2940 -0.4566
 6541TIP3   OH219567   1.423   7.250   6.212 -0.3497 -0.2986  0.4494
 6541TIP3    H119568   1.509   7.285   6.188 -0.6862  0.6751  0.6286
 6541TIP3    H219569   1.419   7.165   6.169  0.8695 -0.5381  0.7828
 6542TIP3   OH219570   2.280   4.912   5.302 -0.1486 -0.4686  0.1289
 6542TIP3    H119571   2.258   4.820   5.315 -0.2643 -0.6875 -1.4030
 6542TIP3    H219572   2.296   4.919   5.207  0.5046  0.9432  0.3251
 6543TIP3   OH219573   8.280   6.530   1.445 -0.5084 -0.6265 -0.4588
 6543TIP3    H119574   8.299   6.575   1.363  0.9646  0.8714  0.6371
 6543TIP3    H219575   8.246   6.599   1.503  0.0476 -1.2981  0.6965
 6544TIP3   OH219576   2.889   6.874   6.346 -0.1273 -0.1138  0.3012
 6544TIP3    H119577   2.869   6.937   6.416  0.5261 -0.3985  0.7471
 6544TIP3    H219578   2.857   6.917   6.267 -1.3364 -0.0013  0.8257
 6545TIP3   OH219579   1.807   4.160   3.597  0.3104 -0.3793  0.0928
 6545TIP3    H119580   1.880   4.206   3.556  0.4865  1.7797  2.5530
 6545TIP3    H219581   1.729   4.207   3.565  0.2660 -0.3318  0.2719
 6546TIP3   OH219582   6.016   3.090   0.618 -0.2114 -0.1581 -0.3611
 6546TIP3    H119583   5.942   3.071   0.561 -1.1187  1.7923  0.0586
 6546TIP3    H219584   6.053   3.171   0.583  0.7633 -0.2658  0.3616
 6547TIP3   OH219585   5.565   2.312   1.250 -0.3438 -0.5842  0.2289
 6547TIP3    H119586   5.538   2.223   1.272  1.6857 -1.1780  0.6154
 6547TIP3    H219587   5.558   2.316   1.154 -0.2146 -1.2539  0.1864
 6548TIP3   OH219588   5.351   7.007   0.109  0.4591  0.5795 -0.2557
 6548TIP3    H119589   5.445   6.990   0.099  0.4978  1.5940 -2.0934
 6548TIP3    H219590   5.313   6.982   0.025 -1.4365 -2.4847  1.3136
 6549TIP3   OH219591   5.295   6.107   6.347 -0.0123  0.2175  0.1456
 6549TIP3    H119592   5.245   6.090   6.427  1.6841 -2.2247  0.8311
 6549TIP3    H219593   5.241   6.070   6.277 -0.8967  1.1521  0.3093
 6550TIP3   OH219594   1.802   4.201   0.089 -0.0549 -0.3371  0.2221
 6550TIP3    H119595   1.863   4.274   0.096  1.4066 -1.3712 -0.9121
 6550TIP3    H219596   1.830   4.140   0.158 -1.7911  0.4584  1.7237
 6551TIP3   OH219597   0.174   1.993   5.205 -0.1176 -0.1548 -0.6333
 6551TIP3    H119598   0.085   2.002   5.172  0.0834  0.1108 -1.1126
 6551TIP3    H219599   0.172   1.912   5.256 -1.5351  1.6192  2.4129
 6552TIP3   OH219600   5.226   5.258   5.659 -0.0191  0.2230  0.6299
 6552TIP3    H119601   5.294   5.191   5.649  1.3822  1.8529 -1.7537
 6552TIP3    H219602   5.240   5.295   5.746  2.4914  0.7954  0.0447
 6553TIP3   OH219603   4.063   6.115   1.894  0.7124  0.5826 -0.3384
 6553TIP3    H119604   4.062   6.128   1.799  1.8574  2.0557 -0.1960
 6553TIP3    H219605   4.126   6.180   1.926  1.3797 -0.8034  1.3035
 6554TIP3   OH219606   0.066   6.627   2.645 -0.2724 -0.0612  0.0205
 6554TIP3    H119607   0.110   6.676   2.576  0.4613  0.8929  1.1351
 6554TIP3    H219608   0.068   6.536   2.615 -1.7263  0.5168 -2.1300
 6555TIP3   OH219609   2.995   6.325   4.577 -0.1734 -0.0832  0.1318
 6555TIP3    H119610   3.024   6.234   4.583  0.4507  0.1814  1.3630
 6555TIP3    H219611   3.076   6.376   4.584 -0.6344  0.5869  0.6105
 6556TIP3   OH219612   8.279   1.607   4.099 -0.3027 -0.3219 -0.4944
 6556TIP3    H119613   8.200   1.630   4.050 -1.4765 -1.0084  0.9655
 6556TIP3    H219614   8.255   1.527   4.147  1.4140 -0.7596 -0.2995
 6557TIP3   OH219615   2.945   4.570   6.569  0.0971  0.1373 -0.0299
 6557TIP3    H119616   2.983   4.579   6.482  1.6166 -0.1736  0.5624
 6557TIP3    H219617   3.021   4.566   6.628 -0.8923  0.4811  1.3206
 6558TIP3   OH219618   7.123   3.598   4.783  0.4290 -0.2638 -0.8024
 6558TIP3    H119619   7.174   3.651   4.721  0.8174 -0.1419 -0.3810
 6558TIP3    H219620   7.165   3.512   4.780  0.7343 -0.1322 -0.3706
 6559TIP3   OH219621   6.017   6.090   6.747  0.2377  0.3061 -0.0135
 6559TIP3    H119622   6.011   6.124   6.837 -0.5564  0.0885  0.0244
 6559TIP3    H219623   6.018   5.994   6.758 -2.2494  0.1608 -0.2971
 6560TIP3   OH219624   5.495   2.053   2.261 -0.4086  0.0787 -0.4328
 6560TIP3    H119625   5.452   1.990   2.319 -1.0763  1.9015  1.1947
 6560TIP3    H219626   5.523   2.123   2.320 -0.6395  1.7935 -2.2597
 6561TIP3   OH219627   4.352   2.057   4.005 -0.2529 -0.3758 -0.4191
 6561TIP3    H119628   4.313   1.971   4.022 -0.8244 -0.5620 -2.4327
 6561TIP3    H219629   4.280   2.109   3.968  0.6492  0.2562 -1.3228
 6562TIP3   OH219630   3.751   3.949   3.480  0.5921 -0.0568 -0.3179
 6562TIP3    H119631   3.833   3.920   3.438  0.7975  1.2150 -0.8442
 6562TIP3    H219632   3.754   3.910   3.567  1.6050 -0.3069 -0.4475
 6563TIP3   OH219633   4.529   0.927   4.985  0.0628 -0.4085 -0.3085
 6563TIP3    H119634   4.496   1.007   5.026 -2.8637 -1.4716 -0.3153
 6563TIP3    H219635   4.620   0.947   4.962 -0.6301  3.0127 -0.6209
 6564TIP3   OH219636   7.829   3.361   0.075 -0.4425 -0.3935  0.4513
 6564TIP3    H119637   7.872   3.279   0.098 -0.2016 -0.3193  0.2645
 6564TIP3    H219638   7.744   3.357   0.120  0.2256 -0.0218  1.7947
 6565TIP3   OH219639   5.236   2.476   2.630  0.5726  0.0895 -0.8706
 6565TIP3    H119640   5.300   2.411   2.658  0.6293  0.0074 -1.1896
 6565TIP3    H219641   5.151   2.437   2.652  0.5060 -0.9484 -2.7911
 6566TIP3   OH219642   3.570   2.768   5.399  0.2199 -0.5162  0.5069
 6566TIP3    H119643   3.478   2.760   5.423  0.5203 -1.3364  1.4492
 6566TIP3    H219644   3.574   2.738   5.308 -0.7842  1.7043 -0.3413
 6567TIP3   OH219645   6.325   5.739   3.361 -0.0916  0.0487  0.0917
 6567TIP3    H119646   6.414   5.712   3.338 -0.2869 -0.5133 -0.0334
 6567TIP3    H219647   6.276   5.657   3.367 -0.1635  0.1930  2.0897
 6568TIP3   OH219648   7.242   0.217   5.299 -0.8725  0.5527 -0.3763
 6568TIP3    H119649   7.172   0.282   5.290 -1.0446  0.6974  1.5695
 6568TIP3    H219650   7.196   0.135   5.316 -0.6137  0.7037  1.2170
 6569TIP3   OH219651   4.647   5.441   6.248  0.2733 -0.7153  0.0230
 6569TIP3    H119652   4.582   5.382   6.288  0.8562 -1.0075  0.5511
 6569TIP3    H219653   4.631   5.434   6.154 -1.4874  0.3969  0.1858
 6570TIP3   OH219654   2.815   1.900   5.417 -0.2250  0.0127 -0.1822
 6570TIP3    H119655   2.779   1.950   5.491  0.0225 -0.4795  0.2785
 6570TIP3    H219656   2.746   1.902   5.351 -0.8181 -0.3185  0.4151
 6571TIP3   OH219657   1.444   4.690   4.213 -0.5260 -0.2417 -0.2598
 6571TIP3    H119658   1.528   4.735   4.228  0.8168 -2.0939 -1.7843
 6571TIP3    H219659   1.401   4.743   4.146  1.6494 -1.7113 -3.0685
 6572TIP3   OH219660   1.812   6.902   6.250  0.4479  0.0791  0.2026
 6572TIP3    H119661   1.837   6.815   6.218 -1.6644 -0.6558  0.4440
 6572TIP3    H219662   1.789   6.950   6.170 -1.5309 -0.6635  0.2865
 6573TIP3   OH219663   3.668   4.890   3.018 -0.4098  0.1433 -0.2405
 6573TIP3    H119664   3.674   4.880   2.923  1.6459  0.4143 -0.1738
 6573TIP3    H219665   3.625   4.809   3.048 -0.3414 -0.3083 -1.3176
 6574TIP3   OH219666  -0.013   2.259   3.319  0.0293  0.0731 -0.2254
 6574TIP3    H119667  -0.052   2.202   3.253 -1.4401  1.0068 -0.2006
 6574TIP3    H219668   0.081   2.240   3.314 -0.1459 -0.5184 -1.9486
 6575TIP3   OH219669   6.669   3.189   0.367 -0.3558 -0.5112 -0.2480
 6575TIP3    H119670   6.729   3.233   0.427 -1.8431 -1.2786  1.9519
 6575TIP3    H219671   6.693   3.096   0.373  1.3176 -0.3959 -3.1442
 6576TIP3   OH219672   3.821   7.096   5.825 -0.1318  0.0982 -0.3677
 6576TIP3    H119673   3.849   7.140   5.745 -1.7056  0.5658 -0.6931
 6576TIP3    H219674   3.902   7.076   5.871  0.6987  2.4411 -0.6868
 6577TIP3   OH219675   4.606   3.977   6.093  0.1305  0.2972  0.1241
 6577TIP3    H119676   4.579   3.885   6.086  0.7185  0.2585 -2.6113
 6577TIP3    H219677   4.529   4.027   6.069  0.8319  0.3463 -2.2264
 6578TIP3   OH219678   2.987   4.371   2.312  0.3067  0.5919 -0.0606
 6578TIP3    H119679   2.911   4.422   2.285  0.8293  1.2349 -0.3519
 6578TIP3    H219680   2.951   4.300   2.366 -0.6183  0.1102 -1.2815
 6579TIP3   OH219681   4.632   4.272   0.557 -0.2113  0.1012  0.4418
 6579TIP3    H119682   4.579   4.298   0.633 -1.0624  0.7928 -0.3784
 6579TIP3    H219683   4.632   4.176   0.560 -0.2529  0.1149  1.2927
 6580TIP3   OH219684   3.910   7.025   2.396  0.3072 -0.9308  0.9528
 6580TIP3    H119685   3.861   6.956   2.441 -0.1648 -1.0931  0.2131
 6580TIP3    H219686   3.967   7.062   2.463 -0.3938 -1.1490  1.6825
 6581TIP3   OH219687   7.946   2.033   4.836 -0.0893  0.4405  0.2862
 6581TIP3    H119688   7.864   2.051   4.790 -1.0819 -1.0924  1.3737
 6581TIP3    H219689   7.967   1.943   4.814  2.8146  1.5191 -2.1087
 6582TIP3   OH219690   4.933   7.352   6.091  0.5526  0.7988  0.6078
 6582TIP3    H119691   4.928   7.257   6.090 -0.7662  0.8252  1.8697
 6582TIP3    H219692   4.972   7.375   6.007  1.4027 -0.8706  0.5153
 6583TIP3   OH219693   3.405   5.227   0.603  0.5030 -0.1361 -1.1041
 6583TIP3    H119694   3.352   5.306   0.611  0.0313 -0.6037  1.4705
 6583TIP3    H219695   3.346   5.163   0.563 -1.0255 -0.6425  1.6827
 6584TIP3   OH219696   2.383   6.023   6.116 -0.3117  0.6886  0.4422
 6584TIP3    H119697   2.439   6.101   6.123 -0.0664  0.5006  0.6188
 6584TIP3    H219698   2.318   6.046   6.050  0.5809  0.5417 -0.5101
 6585TIP3   OH219699   7.608   6.466   2.195  0.6147 -0.0052 -0.0606
 6585TIP3    H119700   7.518   6.491   2.178  0.3895  1.2723  2.5155
 6585TIP3    H219701   7.620   6.384   2.147 -1.5450  0.3401 -1.3118
 6586TIP3   OH219702   2.252   7.738   3.185 -0.3990 -0.3200  0.0707
 6586TIP3    H119703   2.205   7.674   3.238  0.4254 -2.8028 -1.9790
 6586TIP3    H219704   2.188   7.768   3.121 -0.7261  0.8131  0.9000
 6587TIP3   OH219705   6.498   3.754   5.007 -0.4480 -0.4154 -0.3099
 6587TIP3    H119706   6.456   3.685   5.059 -0.7260 -0.5841 -0.7517
 6587TIP3    H219707   6.496   3.831   5.064 -1.0980 -0.4993 -0.2066
 6588TIP3   OH219708   4.804   2.047   6.674  0.2037  0.3238  0.4740
 6588TIP3    H119709   4.726   2.078   6.629  0.5778  0.2155 -0.2727
 6588TIP3    H219710   4.777   1.965   6.715 -0.1792  0.4901  0.5583
 6589TIP3   OH219711   5.032   3.421   5.685  0.6284 -0.1146  0.1694
 6589TIP3    H119712   5.004   3.497   5.634 -0.1975 -0.0676  0.6707
 6589TIP3    H219713   5.024   3.449   5.776 -0.9101 -1.1856  0.3962
 6590TIP3   OH219714   0.490   7.118   1.753 -0.3736  0.2991 -0.0411
 6590TIP3    H119715   0.539   7.079   1.680 -0.1604  1.8491 -0.7762
 6590TIP3    H219716   0.507   7.212   1.745 -1.2944  0.6058  1.3271
 6591TIP3   OH219717   7.240   0.699   1.633  0.2444  0.7853 -0.1520
 6591TIP3    H119718   7.258   0.752   1.711 -1.9362  1.1227  0.1861
 6591TIP3    H219719   7.281   0.747   1.561  1.3119  1.0597  0.6133
 6592TIP3   OH219720   2.265   4.480   6.633  0.0320 -0.5774  0.6212
 6592TIP3    H119721   2.345   4.513   6.674  0.6412  0.1174 -1.0510
 6592TIP3    H219722   2.215   4.443   6.705  0.9740  0.7377  2.0098
 6593TIP3   OH219723   1.378   7.449   0.638 -0.2734 -0.2478  0.3952
 6593TIP3    H119724   1.378   7.396   0.718 -0.3181 -2.0341 -0.7108
 6593TIP3    H219725   1.467   7.439   0.603 -0.3654  0.1878  0.0343
 6594TIP3   OH219726   4.579   1.564   0.110  0.2057  0.4535  0.6449
 6594TIP3    H119727   4.495   1.561   0.155  0.3590  0.6418  0.9444
 6594TIP3    H219728   4.584   1.480   0.063 -0.8858  1.1108 -0.7190
 6595TIP3   OH219729   1.728   2.546   4.674 -0.3487 -0.1383  0.1981
 6595TIP3    H119730   1.720   2.456   4.703 -0.0010  0.0102  0.7900
 6595TIP3    H219731   1.648   2.589   4.703 -0.3928 -0.1946  0.1580
 6596TIP3   OH219732   2.420   5.487   6.177 -0.0583  0.0132  0.2518
 6596TIP3    H119733   2.373   5.553   6.127  0.1555  0.1016  0.1654
 6596TIP3    H219734   2.512   5.513   6.171 -0.1015  0.4851  1.3561
 6597TIP3   OH219735   8.258   6.557   4.226 -1.2123 -0.3063  0.0162
 6597TIP3    H119736   8.257   6.482   4.166 -0.2576  0.5550 -1.1327
 6597TIP3    H219737   8.294   6.521   4.307  2.3783 -0.5569 -1.4577
 6598TIP3   OH219738   1.768   6.109   6.167  0.2335 -1.1867  0.3629
 6598TIP3    H119739   1.843   6.049   6.157 -0.2191 -1.7807  0.4515
 6598TIP3    H219740   1.787   6.157   6.248  1.5384  0.1782 -0.7035
 6599TIP3   OH219741   6.903   7.664   1.134 -0.0367 -0.2025 -0.5013
 6599TIP3    H119742   6.908   7.640   1.226 -0.1079  0.5113 -0.3038
 6599TIP3    H219743   6.918   7.759   1.133 -1.4430  0.0452 -1.0727
 6600TIP3   OH219744   5.118   7.030   4.345 -0.7290  0.1300  0.1604
 6600TIP3    H119745   5.157   6.972   4.280  0.8685  1.8853 -0.5371
 6600TIP3    H219746   5.106   6.974   4.422  0.8678 -1.1219 -0.4299
 6601TIP3   OH219747   4.156   3.013   2.528  0.0592  0.7291 -0.5659
 6601TIP3    H119748   4.201   3.092   2.558  0.8966  1.1287 -2.7357
 6601TIP3    H219749   4.226   2.957   2.494 -0.7020 -0.3052 -0.4831
 6602TIP3   OH219750   6.098   5.275   0.539  0.1398  0.0502 -0.1024
 6602TIP3    H119751   6.140   5.191   0.521 -2.5212 -1.0257 -1.8621
 6602TIP3    H219752   6.148   5.338   0.488  2.2511 -0.3693  1.3309
 6603TIP3   OH219753   2.179   5.500   2.902 -0.1135  0.2037  0.5613
 6603TIP3    H119754   2.220   5.428   2.855 -1.3534  0.0807 -0.4030
 6603TIP3    H219755   2.242   5.571   2.897 -0.0452  0.0816 -1.0454
 6604TIP3   OH219756   4.934   2.895   5.726 -0.2858 -0.1453  0.0161
 6604TIP3    H119757   5.017   2.903   5.678  0.1069 -1.9136  0.3096
 6604TIP3    H219758   4.952   2.933   5.812 -0.3834  1.2063 -0.5374
 6605TIP3   OH219759   3.589   0.519   5.010 -0.7577 -0.6228 -0.1399
 6605TIP3    H119760   3.555   0.491   5.095  1.4529  0.0984  1.0683
 6605TIP3    H219761   3.684   0.517   5.021 -0.4390  1.4801 -1.9168
 6606TIP3   OH219762   7.255   4.760   2.217  0.3339 -0.0023  0.1190
 6606TIP3    H119763   7.315   4.714   2.274  0.1873 -0.7813 -0.3273
 6606TIP3    H219764   7.216   4.690   2.163  0.0445  0.6391 -0.5176
 6607TIP3   OH219765   2.844   4.043   5.358 -0.6591 -0.0698  0.2138
 6607TIP3    H119766   2.772   4.087   5.404 -0.7866 -0.4313  0.3594
 6607TIP3    H219767   2.879   4.110   5.299 -2.4983 -0.4762 -1.4310
 6608TIP3   OH219768   0.069   3.744   3.507 -0.1004  0.3450  0.0172
 6608TIP3    H119769   0.121   3.783   3.578  0.6976  3.1289 -1.9236
 6608TIP3    H219770   0.091   3.651   3.510  0.2384  0.4113  3.0716
 6609TIP3   OH219771   0.291   5.922   6.307 -0.1749  0.2769  0.5903
 6609TIP3    H119772   0.364   5.912   6.247 -0.7375  0.4836 -0.1454
 6609TIP3    H219773   0.320   5.879   6.388  0.9245  0.7603  0.4685
 6610TIP3   OH219774   5.066   6.902   1.644 -0.4092  0.2786 -0.3380
 6610TIP3    H119775   5.082   6.860   1.560 -0.8472  0.7851 -0.6851
 6610TIP3    H219776   4.980   6.870   1.671  0.9928 -2.3603  1.4721
 6611TIP3   OH219777   3.769   1.494   3.279 -0.0709  0.0025  0.3637
 6611TIP3    H119778   3.741   1.477   3.369 -0.3998  0.0273  0.2673
 6611TIP3    H219779   3.840   1.432   3.264 -1.2794 -1.3506  0.0074
 6612TIP3   OH219780   0.408   3.088   2.939  0.0856 -0.0774 -0.4719
 6612TIP3    H119781   0.387   2.996   2.927  1.7393 -0.6379  0.5045
 6612TIP3    H219782   0.325   3.130   2.960 -0.4424 -1.6926  0.8595
 6613TIP3   OH219783   3.124   2.875   2.331 -0.4301  0.0396 -0.2618
 6613TIP3    H119784   3.193   2.826   2.376 -1.1560  0.0565  0.8882
 6613TIP3    H219785   3.079   2.923   2.400 -0.6277  1.2487 -1.1950
 6614TIP3   OH219786   7.111   1.876   2.882  0.0314 -0.3230 -0.4780
 6614TIP3    H119787   7.173   1.885   2.810 -0.1150  0.1850 -0.5463
 6614TIP3    H219788   7.096   1.966   2.912  0.5038 -0.5741  0.5485
 6615TIP3   OH219789   7.884   6.094   4.943  0.0571 -0.8100  0.6939
 6615TIP3    H119790   7.796   6.102   4.907  0.0467 -1.8678  0.4697
 6615TIP3    H219791   7.940   6.075   4.867  0.3135 -1.2171  0.9774
 6616TIP3   OH219792   3.047   3.137   0.611 -0.3815  0.3664  0.0464
 6616TIP3    H119793   3.068   3.225   0.644  2.1337 -0.3201  0.4592
 6616TIP3    H219794   3.132   3.097   0.593 -1.4483 -2.1285  0.1735
 6617TIP3   OH219795   5.131   5.712   5.864 -0.2973 -0.4342 -0.5520
 6617TIP3    H119796   5.079   5.677   5.792  0.7700  0.1480 -1.6489
 6617TIP3    H219797   5.190   5.775   5.823 -0.8217  1.2264  1.0679
 6618TIP3   OH219798   1.187   1.032   1.531 -0.2382  0.0902 -0.0326
 6618TIP3    H119799   1.144   1.118   1.526 -1.1558 -0.4180 -1.3724
 6618TIP3    H219800   1.155   0.985   1.454  2.6151 -0.3857 -1.0273
 6619TIP3   OH219801   7.851   0.117   1.812 -0.3668 -0.1714  0.1165
 6619TIP3    H119802   7.781   0.163   1.765  1.1724  1.4589 -0.7139
 6619TIP3    H219803   7.811   0.089   1.893 -2.1076  0.3231 -0.5328
 6620TIP3   OH219804   2.948   2.110   0.996  0.1999 -0.4289  0.6887
 6620TIP3    H119805   2.861   2.080   0.970  0.9019 -2.2573  0.2903
 6620TIP3    H219806   2.975   2.170   0.926 -1.0305  0.8118  1.2334
 6621TIP3   OH219807   4.070   3.779   5.818  0.1973  0.1713  0.5060
 6621TIP3    H119808   4.136   3.819   5.875 -2.0267  1.9958  1.9620
 6621TIP3    H219809   4.043   3.699   5.864  0.2015  0.3056  0.7418
 6622TIP3   OH219810   0.498   1.296   4.046 -0.2414 -0.3349  0.0846
 6622TIP3    H119811   0.526   1.217   4.000 -1.3686  0.6868 -2.4947
 6622TIP3    H219812   0.405   1.283   4.064 -0.1430 -0.1089  0.8091
 6623TIP3   OH219813   6.374   0.942   5.468  0.3916  0.0951  0.2918
 6623TIP3    H119814   6.302   0.980   5.518  1.2499  1.6656  0.4237
 6623TIP3    H219815   6.333   0.881   5.408 -0.8390 -0.5294  1.7016
 6624TIP3   OH219816   6.539   0.543   2.678  0.0229  0.1043  0.0579
 6624TIP3    H119817   6.556   0.528   2.771 -0.7240 -2.2588 -0.1122
 6624TIP3    H219818   6.605   0.607   2.651  1.0990 -0.1544  1.9053
 6625TIP3   OH219819   7.638   4.807   5.814  0.4717 -0.3831 -0.1011
 6625TIP3    H119820   7.587   4.803   5.895  1.0771 -0.8250  0.2687
 6625TIP3    H219821   7.591   4.869   5.759 -0.5158 -0.8522  0.1892
 6626TIP3   OH219822   5.563   6.849   6.273 -0.1888  0.2088  0.0872
 6626TIP3    H119823   5.476   6.826   6.308  0.4698  1.1471  2.5486
 6626TIP3    H219824   5.616   6.866   6.351  1.9715  0.5952 -1.3873
 6627TIP3   OH219825   2.862   1.689   6.730  0.2161  0.3394  0.2110
 6627TIP3    H119826   2.895   1.779   6.730  0.6455  0.2702 -2.4906
 6627TIP3    H219827   2.926   1.640   6.782 -0.2110  1.5984  1.9998
 6628TIP3   OH219828   7.474   3.877   2.030 -0.2323  0.1604 -0.1636
 6628TIP3    H119829   7.406   3.861   2.096 -0.5030  1.5086 -0.0888
 6628TIP3    H219830   7.539   3.931   2.075  0.6493 -0.7062 -0.3854
 6629TIP3   OH219831   6.408   0.948   5.887  0.2354  0.1561 -0.2818
 6629TIP3    H119832   6.372   1.007   5.820  1.6464  0.2036 -1.0299
 6629TIP3    H219833   6.375   0.862   5.863  0.2191  0.2693 -0.6712
 6630TIP3   OH219834   7.836   1.279   6.071 -0.1677  0.2000  0.4309
 6630TIP3    H119835   7.791   1.362   6.059 -0.4650  0.0576  0.5636
 6630TIP3    H219836   7.903   1.278   6.003 -1.0051 -0.0227 -0.4074
 6631TIP3   OH219837   1.970   7.308   0.439  1.0252 -0.9321  0.0365
 6631TIP3    H119838   2.033   7.361   0.489  1.0407  0.2452 -1.1747
 6631TIP3    H219839   2.024   7.238   0.401  2.5299  2.0037 -3.9147
 6632TIP3   OH219840   4.430   5.008   4.063  0.8158 -0.5483  0.1002
 6632TIP3    H119841   4.524   4.997   4.078  0.3556 -1.6532  2.7875
 6632TIP3    H219842   4.397   4.919   4.050 -0.3081 -0.6625  3.0016
 6633TIP3   OH219843   4.065   5.161   1.067  0.5445 -0.1367 -0.0832
 6633TIP3    H119844   4.136   5.099   1.052  0.2855 -0.1367 -1.4520
 6633TIP3    H219845   4.033   5.182   0.979  1.4714  2.9332  0.2117
 6634TIP3   OH219846   8.290   5.886   2.081 -0.4952  0.5422 -0.2268
 6634TIP3    H119847   8.243   5.890   2.164 -2.8282 -0.4011 -1.4251
 6634TIP3    H219848   8.364   5.827   2.098 -0.8056  0.5308  1.2091
 6635TIP3   OH219849   4.450   6.512   1.815 -0.2443  0.4145 -0.1392
 6635TIP3    H119850   4.527   6.543   1.863 -0.3538  1.4930 -0.6224
 6635TIP3    H219851   4.444   6.419   1.836  0.3854  0.6141  0.9954
 6636TIP3   OH219852   2.962   2.826   0.210  0.0899 -0.0790 -0.0546
 6636TIP3    H119853   2.943   2.914   0.242  2.5911  0.0584  1.2942
 6636TIP3    H219854   3.018   2.787   0.277  1.3001 -1.7145 -1.8966
 6637TIP3   OH219855   1.298   7.238   1.780 -0.0602 -0.0835 -0.0466
 6637TIP3    H119856   1.301   7.288   1.699  0.4949  0.2343  0.1663
 6637TIP3    H219857   1.219   7.271   1.825  0.1570  0.4163 -0.0266
 6638TIP3   OH219858   3.938   0.541   4.054 -0.1867 -0.5904  0.7339
 6638TIP3    H119859   3.874   0.588   4.107 -2.5051 -0.8626 -1.5820
 6638TIP3    H219860   3.990   0.610   4.013 -0.5869 -0.2313  0.8190
 6639TIP3   OH219861   1.145   2.643   1.867 -0.2271  0.4999 -0.2546
 6639TIP3    H119862   1.060   2.600   1.871 -0.5839  1.2320  0.1608
 6639TIP3    H219863   1.126   2.732   1.839  0.3938  0.7055 -0.0389
 6640TIP3   OH219864   4.771   5.729   6.513  0.2780  0.5003 -0.6275
 6640TIP3    H119865   4.709   5.763   6.448 -0.1148  0.2791 -0.3775
 6640TIP3    H219866   4.715   5.692   6.581  0.6341 -2.7970 -1.9619
 6641TIP3   OH219867   1.364   7.636   4.613  0.2341 -0.0084  0.0747
 6641TIP3    H119868   1.429   7.604   4.551 -1.7447 -0.3780 -1.9657
 6641TIP3    H219869   1.306   7.561   4.627 -0.1541  0.4964  1.3193
 6642TIP3   OH219870   2.962   2.824   4.343  0.1144  0.5031 -0.0443
 6642TIP3    H119871   2.992   2.909   4.376 -0.1327  0.6021 -0.0707
 6642TIP3    H219872   2.993   2.820   4.253  2.2631 -0.4819  0.6671
 6643TIP3   OH219873   3.207   6.379   3.626 -0.1220  0.2363 -0.3027
 6643TIP3    H119874   3.158   6.310   3.669 -1.2924  1.0960 -0.2095
 6643TIP3    H219875   3.279   6.400   3.687 -1.1732  0.7539  0.8008
 6644TIP3   OH219876   4.829   3.693   4.865 -0.2515  0.0266 -0.3098
 6644TIP3    H119877   4.924   3.696   4.850  0.3586 -0.5544  2.6174
 6644TIP3    H219878   4.810   3.776   4.910 -0.5545 -0.9447  1.4522
 6645TIP3   OH219879   4.174   7.338   2.801 -0.4706 -0.3288  0.1582
 6645TIP3    H119880   4.261   7.377   2.798 -1.2679  1.4894 -1.3144
 6645TIP3    H219881   4.115   7.412   2.814 -1.9167 -1.3015 -0.6399
 6646TIP3   OH219882   6.731   1.897   0.744 -0.5847 -0.4136  0.1284
 6646TIP3    H119883   6.688   1.952   0.679 -0.1208 -0.6931 -0.4220
 6646TIP3    H219884   6.703   1.808   0.723 -0.2986 -0.5222  0.2027
 6647TIP3   OH219885   3.775   2.042   5.126 -0.3234  0.0623 -0.2755
 6647TIP3    H119886   3.771   2.124   5.175  0.9797 -1.1194  1.9467
 6647TIP3    H219887   3.813   1.979   5.187 -2.3275 -2.5279 -1.4906
 6648TIP3   OH219888   0.864   7.079   0.896 -0.0332  0.6816  0.4898
 6648TIP3    H119889   0.914   7.003   0.924  2.1580  1.6052 -0.7366
 6648TIP3    H219890   0.800   7.045   0.834  0.7259 -0.1996  0.1855
 6649TIP3   OH219891   2.544   3.433   2.642  0.0649 -0.0042  0.0088
 6649TIP3    H119892   2.462   3.452   2.689 -0.2642  0.0720 -0.5807
 6649TIP3    H219893   2.546   3.337   2.636 -0.3297  0.0186 -0.5690
 6650TIP3   OH219894   7.529   1.611   2.303  0.4248  0.3070  0.4933
 6650TIP3    H119895   7.438   1.591   2.283  0.4407 -0.2270  0.9182
 6650TIP3    H219896   7.545   1.695   2.262 -0.3478  0.5412  0.6538
 6651TIP3   OH219897   7.659   4.217   3.608  0.0650 -0.3347 -0.4383
 6651TIP3    H119898   7.680   4.251   3.521 -0.3139 -0.8253 -0.7294
 6651TIP3    H219899   7.563   4.226   3.614  0.1469  0.1962  0.1433
 6652TIP3   OH219900   1.328   5.532   6.236  0.8214  0.1886  0.2867
 6652TIP3    H119901   1.363   5.456   6.189 -2.7406 -0.6525 -1.3411
 6652TIP3    H219902   1.291   5.495   6.316  1.8133  0.7500  1.0236
 6653TIP3   OH219903   7.007   7.565   0.765 -0.3140 -0.0288  0.1549
 6653TIP3    H119904   6.990   7.600   0.678  1.6144 -1.3727 -0.8616
 6653TIP3    H219905   6.934   7.505   0.782 -0.1413 -0.6109 -1.0656
 6654TIP3   OH219906   0.128   0.330   3.611 -0.5831 -0.1922 -0.4984
 6654TIP3    H119907   0.157   0.417   3.583  1.4991 -0.3161  1.0632
 6654TIP3    H219908   0.061   0.347   3.677 -0.4336  0.2104 -0.4471
 6655TIP3   OH219909   1.040   2.971   4.782  0.1133  0.0016 -1.0129
 6655TIP3    H119910   0.986   3.038   4.741 -2.2063 -1.8178 -1.1266
 6655TIP3    H219911   1.040   2.994   4.875  2.6976  2.2931 -1.4294
 6656TIP3   OH219912   3.506   5.732   2.086 -0.0253  0.0113 -0.3420
 6656TIP3    H119913   3.539   5.822   2.093  0.8664 -0.1785 -1.8190
 6656TIP3    H219914   3.411   5.743   2.076  0.0862  0.8005 -0.6327
 6657TIP3   OH219915   0.395   5.751   4.818  0.2782  0.1124  0.1855
 6657TIP3    H119916   0.371   5.801   4.739 -0.5477  0.0062  0.3600
 6657TIP3    H219917   0.335   5.782   4.885 -1.3620 -2.1953 -0.0829
 6658TIP3   OH219918   5.123   6.103   0.110 -0.3329  0.0791  0.1739
 6658TIP3    H119919   5.144   6.055   0.189  1.3420 -1.8109 -1.3112
 6658TIP3    H219920   5.208   6.118   0.067 -1.2934 -0.5755 -2.1320
 6659TIP3   OH219921   3.655   5.253   6.219  0.3802 -0.1868 -0.1137
 6659TIP3    H119922   3.582   5.301   6.181  0.0250 -1.2561 -0.8441
 6659TIP3    H219923   3.624   5.224   6.305 -0.4306 -1.4184 -0.7883
 6660TIP3   OH219924   5.688   6.043   5.440 -0.2616 -0.4794  0.4290
 6660TIP3    H119925   5.715   6.088   5.520  0.0285 -0.2334  0.1930
 6660TIP3    H219926   5.746   6.076   5.372 -1.6243  0.6186 -0.2528
 6661TIP3   OH219927   5.733   6.260   6.453  0.3122 -0.0550 -0.1252
 6661TIP3    H119928   5.785   6.184   6.477  2.9471  1.0265 -1.9279
 6661TIP3    H219929   5.668   6.226   6.391  0.1676 -1.1156  0.5836
 6662TIP3   OH219930   3.696   5.482   5.939 -0.3921  1.0038  0.7017
 6662TIP3    H119931   3.690   5.513   6.030  0.0709  3.6667 -0.1036
 6662TIP3    H219932   3.639   5.541   5.890 -0.2292 -0.0825 -0.8394
 6663TIP3   OH219933   3.922   3.651   6.097 -0.2684 -0.7904 -0.1759
 6663TIP3    H119934   3.841   3.682   6.058 -0.1427 -0.7409 -0.3979
 6663TIP3    H219935   3.961   3.729   6.137 -0.4777 -0.8730  0.1947
 6664TIP3   OH219936   6.940   1.219   6.524 -0.0927  0.6705  0.4409
 6664TIP3    H119937   6.946   1.308   6.559  0.3207  1.2464 -1.0319
 6664TIP3    H219938   6.981   1.225   6.438  0.3318 -1.0541  0.4981
 6665TIP3   OH219939   5.469   3.576   1.923 -0.0944  0.1634 -0.2932
 6665TIP3    H119940   5.439   3.622   1.844 -1.8865 -1.1226 -0.4033
 6665TIP3    H219941   5.507   3.495   1.890  0.7840  0.4046  0.0799
 6666TIP3   OH219942   4.351   4.192   3.051 -0.6787  0.3261 -0.0050
 6666TIP3    H119943   4.406   4.270   3.049 -0.0982 -0.0840 -0.2317
 6666TIP3    H219944   4.261   4.226   3.048 -0.4267  0.9705 -0.3455
 6667TIP3   OH219945   7.346   0.571   0.049 -0.2368 -0.0160 -0.1490
 6667TIP3    H119946   7.435   0.560   0.084  0.4086  0.5185 -1.5627
 6667TIP3    H219947   7.337   0.499  -0.014 -0.8424 -0.1181  0.0537
 6668TIP3   OH219948   6.703   4.679   3.670  0.6538  0.1161 -0.0626
 6668TIP3    H119949   6.659   4.610   3.621 -0.7806  2.1889 -1.8896
 6668TIP3    H219950   6.724   4.746   3.604  0.7618  2.0105  1.7906
 6669TIP3   OH219951   4.630   2.921   1.576  0.0300  0.4367 -0.4187
 6669TIP3    H119952   4.622   2.957   1.664  0.0911 -2.3441  0.8271
 6669TIP3    H219953   4.724   2.921   1.559 -0.0146  1.4436 -0.7301
 6670TIP3   OH219954   2.730   3.030   1.642  0.3614 -0.1033  0.1176
 6670TIP3    H119955   2.689   2.954   1.600  0.5658 -0.2529  0.1846
 6670TIP3    H219956   2.673   3.103   1.622 -1.0752 -0.6495  1.9470
 6671TIP3   OH219957   7.106   2.975   6.803  0.3047  0.4704 -0.3829
 6671TIP3    H119958   7.071   3.053   6.761  1.1993  1.9066  1.3889
 6671TIP3    H219959   7.053   2.903   6.768 -1.4721  2.0218 -1.0594
 6672TIP3   OH219960   6.092   6.537   3.678  0.5151  0.4652  0.6895
 6672TIP3    H119961   6.059   6.508   3.763  0.9624  0.6735  0.9344
 6672TIP3    H219962   6.013   6.552   3.626  0.2530 -0.9956  0.6144
 6673TIP3   OH219963   7.506   0.159   5.678 -0.2906 -0.2718 -0.5006
 6673TIP3    H119964   7.484   0.237   5.626 -1.4866 -0.0825  0.2462
 6673TIP3    H219965   7.564   0.193   5.746  2.3656 -0.7479 -2.3977
 6674TIP3   OH219966   1.623   4.798   4.575 -0.0578 -0.0424  0.1063
 6674TIP3    H119967   1.635   4.871   4.514 -1.6805 -0.7433 -1.1495
 6674TIP3    H219968   1.544   4.821   4.624 -0.7149 -1.0082 -0.4605
 6675TIP3   OH219969   1.436   0.594   6.486  0.2255 -0.1828  0.5230
 6675TIP3    H119970   1.477   0.571   6.569 -0.4763  0.7337  1.1474
 6675TIP3    H219971   1.365   0.653   6.510  0.6741  0.9652 -0.8217
 6676TIP3   OH219972   5.572   2.090   4.877  0.1190 -0.2718  0.0243
 6676TIP3    H119973   5.477   2.088   4.887 -0.0627  2.4932 -0.4704
 6676TIP3    H219974   5.599   2.172   4.918  2.0987 -0.2015 -1.2700
 6677TIP3   OH219975   2.368   6.247   5.343  0.1648 -0.2622  0.5943
 6677TIP3    H119976   2.316   6.239   5.423  1.8878 -1.3964  1.6728
 6677TIP3    H219977   2.457   6.225   5.370  1.0948  0.8330 -1.3373
 6678TIP3   OH219978   2.372   6.481   3.832  0.0691 -0.2447 -0.6658
 6678TIP3    H119979   2.308   6.506   3.898 -0.3756 -1.4435 -0.6365
 6678TIP3    H219980   2.430   6.420   3.876 -0.4614 -1.3617 -1.4724
 6679TIP3   OH219981   0.902   3.185   5.870  0.3574 -0.0348 -0.0022
 6679TIP3    H119982   0.831   3.170   5.807  1.0466  1.5475 -1.2292
 6679TIP3    H219983   0.954   3.105   5.867 -0.3992 -0.5260 -0.3964
 6680TIP3   OH219984   2.658   6.466   1.740  0.0785 -0.2730 -0.1496
 6680TIP3    H119985   2.743   6.422   1.741  0.1941 -0.0484  0.4717
 6680TIP3    H219986   2.596   6.399   1.712  0.5021 -0.3542 -0.9277
 6681TIP3   OH219987   2.894   1.250   5.925 -0.4137  0.2660  0.1472
 6681TIP3    H119988   2.864   1.281   5.839  1.6639  0.9572 -0.3974
 6681TIP3    H219989   2.853   1.309   5.988 -1.3668  0.2255 -0.4177
 6682TIP3   OH219990   5.195   5.023   5.173  0.0932 -0.3797 -0.1188
 6682TIP3    H119991   5.251   4.957   5.134  1.3007  0.0684  0.7714
 6682TIP3    H219992   5.255   5.076   5.228 -0.8522  1.2945 -0.6196
 6683TIP3   OH219993   2.628   6.045   1.198 -1.0289 -0.5091  0.4660
 6683TIP3    H119994   2.702   6.004   1.243 -0.5643  0.6196  0.7527
 6683TIP3    H219995   2.553   5.989   1.220 -0.9019  0.1944  2.9626
 6684TIP3   OH219996   3.735   6.482   3.724  0.4765 -0.1316  0.6476
 6684TIP3    H119997   3.659   6.525   3.686  0.2632  1.2356  2.4378
 6684TIP3    H219998   3.792   6.463   3.650 -0.7471  0.6017 -0.5199
 6685TIP3   OH219999   7.510   5.670   4.079  0.4687 -0.4411  0.1690
 6685TIP3    H120000   7.451   5.696   4.008 -0.9447 -0.4386  1.2844
 6685TIP3    H220001   7.584   5.628   4.035  0.0008  0.2365 -1.3307
 6686TIP3   OH220002   5.838   3.461   2.252 -0.3219  0.7252 -0.1633
 6686TIP3    H120003   5.756   3.449   2.300  0.0456  2.0706  0.8566
 6686TIP3    H220004   5.904   3.415   2.305 -0.4264 -0.4995 -1.0688
 6687TIP3   OH220005   2.687   7.211   0.532  0.1946 -0.1613 -0.1817
 6687TIP3    H120006   2.647   7.140   0.482  0.2627  1.2625 -2.3712
 6687TIP3    H220007   2.617   7.242   0.589 -0.5344 -0.4911 -0.8709
 6688TIP3   OH220008   4.769   2.858   5.287 -0.1275  0.2488  0.7237
 6688TIP3    H120009   4.677   2.868   5.263 -0.2846  0.8318  1.5505
 6688TIP3    H220010   4.815   2.919   5.228 -0.1146 -0.9350 -0.5464
 6689TIP3   OH220011   7.285   0.617   2.693  0.4222 -0.0408 -0.5258
 6689TIP3    H120012   7.379   0.630   2.706  0.6868 -1.1630 -1.2533
 6689TIP3    H220013   7.277   0.586   2.603 -0.3918 -2.3329  0.2862
 6690TIP3   OH220014   7.315   5.698   0.982 -0.2920  0.6736 -0.2749
 6690TIP3    H120015   7.253   5.685   1.054  0.1126 -3.8329 -0.4450
 6690TIP3    H220016   7.261   5.702   0.904 -0.5650  0.0793 -0.1266
 6691TIP3   OH220017   8.074   2.563   4.911  0.2284  0.3579 -0.3463
 6691TIP3    H120018   8.122   2.615   4.975 -0.9904  0.0962  0.8228
 6691TIP3    H220019   8.085   2.473   4.941 -0.4565  0.2451 -0.4307
 6692TIP3   OH220020   7.281   6.177   0.449  0.1799  0.3665 -0.1789
 6692TIP3    H120021   7.208   6.234   0.473 -0.6637 -0.8632  0.2859
 6692TIP3    H220022   7.357   6.236   0.442 -0.7132  1.5675 -0.0236
 6693TIP3   OH220023   2.737   2.459   1.764  0.2322 -0.0268 -0.1412
 6693TIP3    H120024   2.679   2.400   1.717  0.7732 -0.8194  0.1626
 6693TIP3    H220025   2.725   2.437   1.856 -1.3663  2.0066  0.2152
 6694TIP3   OH220026   6.294   3.288   0.160  0.1856 -0.7559  0.1711
 6694TIP3    H120027   6.297   3.213   0.220 -1.0224  0.4832  1.8606
 6694TIP3    H220028   6.247   3.255   0.083 -1.3942 -1.4547  1.3791
 6695TIP3   OH220029   7.773   0.806   2.581  0.3562 -0.5521 -0.3899
 6695TIP3    H120030   7.831   0.870   2.540 -0.3237 -0.0726 -0.6100
 6695TIP3    H220031   7.797   0.722   2.541  2.4326 -0.7644  1.1187
 6696TIP3   OH220032   0.228   1.543   0.300 -0.1753  0.0788  0.2647
 6696TIP3    H120033   0.310   1.591   0.307 -0.2944  0.3576 -0.1611
 6696TIP3    H220034   0.250   1.463   0.253 -0.1082  0.0585  0.3317
 6697TIP3   OH220035   5.360   2.385   5.024  0.2551  0.1919 -0.0847
 6697TIP3    H120036   5.436   2.433   4.991  0.4285  0.0905  0.1684
 6697TIP3    H220037   5.301   2.453   5.058  0.5484  0.2215  0.3750
 6698TIP3   OH220038   7.855   0.563   5.920 -0.5401  0.1547 -0.4779
 6698TIP3    H120039   7.836   0.542   5.828 -1.0268  0.3103 -0.4137
 6698TIP3    H220040   7.883   0.480   5.958 -1.0009 -0.0555 -0.5943
 6699TIP3   OH220041   6.365   6.983   1.183 -0.4408  0.3484  0.1851
 6699TIP3    H120042   6.365   6.952   1.092  2.6318  0.1530  0.1365
 6699TIP3    H220043   6.329   7.071   1.178 -1.1934 -0.0058 -1.0754
 6700TIP3   OH220044   2.629   6.375   0.044  0.0991  0.6416 -0.4079
 6700TIP3    H120045   2.699   6.314   0.068 -2.4094 -1.8766  1.1529
 6700TIP3    H220046   2.563   6.320   0.001 -0.9522  2.9027 -1.8901
 6701TIP3   OH220047   0.630   7.491   6.740 -0.0386  0.5382 -0.4138
 6701TIP3    H120048   0.605   7.399   6.745  1.5008  0.1109 -0.0558
 6701TIP3    H220049   0.556   7.538   6.777 -0.8184 -0.5592 -0.5363
 6702TIP3   OH220050   7.098   7.220   3.152  0.4470  0.0538  0.3932
 6702TIP3    H120051   7.089   7.159   3.079  1.8518  0.0381  0.2202
 6702TIP3    H220052   7.115   7.305   3.111 -1.8717  0.7066  0.6123
 6703TIP3   OH220053   2.103   7.500   4.585 -0.0729 -0.2026 -0.4473
 6703TIP3    H120054   2.134   7.500   4.676  1.1376  0.9488 -0.8238
 6703TIP3    H220055   2.065   7.587   4.573  1.3009  0.2907 -1.4971
 6704TIP3   OH220056   6.625   7.592   5.874 -0.4690  0.1233  0.1494
 6704TIP3    H120057   6.558   7.652   5.907 -1.7148  0.2282 -2.3547
 6704TIP3    H220058   6.702   7.648   5.861 -0.9413  0.7329 -0.1014
 6705TIP3   OH220059   1.778   6.238   2.082 -0.3061 -0.2532 -0.3689
 6705TIP3    H120060   1.740   6.325   2.068  1.1027  0.1988 -1.6269
 6705TIP3    H220061   1.840   6.250   2.154  1.0821  0.1884 -1.6118
 6706TIP3   OH220062   5.507   2.377   3.901  0.0657  0.7106 -0.1870
 6706TIP3    H120063   5.530   2.459   3.856  0.1749  0.5894 -0.3544
 6706TIP3    H220064   5.473   2.405   3.986  0.9247  0.8937  0.1037
 6707TIP3   OH220065   3.422   6.640   1.712  0.1945 -0.2561  0.1473
 6707TIP3    H120066   3.497   6.583   1.729  0.2191  0.8328  5.2365
 6707TIP3    H220067   3.423   6.703   1.783 -3.5877  2.0804 -1.5350
 6708TIP3   OH220068   7.602   5.349   6.442 -0.4181  0.1651  0.3724
 6708TIP3    H120069   7.512   5.339   6.412 -0.6959  3.3401 -0.1065
 6708TIP3    H220070   7.652   5.367   6.362  0.7590 -1.7134  0.6082
 6709TIP3   OH220071   0.131   7.153   1.634 -0.1983  0.5031  0.2146
 6709TIP3    H120072   0.120   7.241   1.672 -1.6262  0.6789 -0.5138
 6709TIP3    H220073   0.176   7.103   1.702  1.6943  2.0724  0.2225
 6710TIP3   OH220074   7.812   2.601   0.724  0.1542 -0.4783  0.2749
 6710TIP3    H120075   7.744   2.535   0.731 -1.5407  0.8421 -2.2042
 6710TIP3    H220076   7.862   2.576   0.647  1.9192 -0.8610  1.4830
 6711TIP3   OH220077   7.262   2.230   0.962 -0.1903  0.0212  0.1138
 6711TIP3    H120078   7.265   2.239   1.057  0.1690  1.8902 -0.0219
 6711TIP3    H220079   7.168   2.230   0.941 -0.2732 -0.5433  0.4770
 6712TIP3   OH220080   3.056   6.907   6.082  0.1371  0.5810 -0.1178
 6712TIP3    H120081   3.082   6.866   5.999 -0.6789 -0.6847  0.2268
 6712TIP3    H220082   2.996   6.977   6.057 -1.7602 -1.1087 -0.5336
 6713TIP3   OH220083   8.001   5.473   0.840 -0.6106  0.4791 -0.1370
 6713TIP3    H120084   8.043   5.492   0.924 -1.1569  1.2672 -0.0314
 6713TIP3    H220085   8.002   5.556   0.793  1.6835 -0.4268 -1.8683
 6714TIP3   OH220086   1.878   6.721   4.803  0.2121  0.3819 -0.1806
 6714TIP3    H120087   1.790   6.720   4.766  1.1859  0.5930 -2.6505
 6714TIP3    H220088   1.869   6.673   4.886 -2.4305  1.4509  0.2421
 6715TIP3   OH220089   7.722   7.118   2.084  0.4799 -0.4931  0.6464
 6715TIP3    H120090   7.815   7.143   2.084  0.0733  1.1107  1.5837
 6715TIP3    H220091   7.718   7.041   2.141  1.1619 -0.3286  0.9227
 6716TIP3   OH220092   5.867   6.632   4.323  0.3705 -0.3147 -0.2569
 6716TIP3    H120093   5.798   6.655   4.260  0.6985  1.3108 -0.0658
 6716TIP3    H220094   5.948   6.641   4.273  0.5311 -0.8147 -0.0895
 6717TIP3   OH220095   5.802   6.622   4.806  0.0655  0.1734 -0.0595
 6717TIP3    H120096   5.710   6.606   4.826 -0.2641  1.5132 -0.3871
 6717TIP3    H220097   5.818   6.572   4.726 -0.2652 -0.3943  0.2275
 6718TIP3   OH220098   6.735   4.277   3.408  0.2042  0.1389 -0.4349
 6718TIP3    H120099   6.785   4.197   3.390 -0.9545 -0.7473  0.1475
 6718TIP3    H220100   6.654   4.266   3.357  0.6914  1.6758 -1.5993
 6719TIP3   OH220101   6.056   6.374   6.614 -0.2723  0.0337 -0.0689
 6719TIP3    H120102   6.107   6.298   6.585 -1.9125 -1.3526  0.4562
 6719TIP3    H220103   6.027   6.351   6.702 -0.5574  1.4231  0.2158
 6720TIP3   OH220104   5.509   1.340   5.265 -0.4217  0.0204 -0.7461
 6720TIP3    H120105   5.475   1.415   5.314  0.5822 -0.8169  1.3795
 6720TIP3    H220106   5.597   1.365   5.239  0.6366 -0.9800  1.5766
 6721TIP3   OH220107   7.431   5.913   4.940  0.0496 -0.0313 -0.1365
 6721TIP3    H120108   7.517   5.905   4.980  0.6613 -1.2647 -1.6116
 6721TIP3    H220109   7.446   5.965   4.860 -1.0104  1.7503  0.7399
 6722TIP3   OH220110   4.829   3.982   3.878 -0.1344 -0.4794 -0.5167
 6722TIP3    H120111   4.920   3.955   3.862 -0.6825 -3.3916  0.7176
 6722TIP3    H220112   4.779   3.943   3.807 -0.6076  0.0048 -0.4582
 6723TIP3   OH220113   3.147   1.349   0.055 -0.2543  0.0449  0.1974
 6723TIP3    H120114   3.172   1.336   0.146 -0.5970 -0.4032  0.2315
 6723TIP3    H220115   3.061   1.391   0.059 -1.3068 -1.9866  0.1072
 6724TIP3   OH220116   1.195   5.037   4.192 -0.4977  0.0146 -0.3433
 6724TIP3    H120117   1.167   4.964   4.138 -1.6605 -0.4468  0.8377
 6724TIP3    H220118   1.129   5.105   4.178  0.0438  0.4931 -0.6721
 6725TIP3   OH220119   6.143   0.296   3.683  0.5236  0.0004 -0.0960
 6725TIP3    H120120   6.150   0.358   3.610  2.2915 -0.1399 -0.0988
 6725TIP3    H220121   6.224   0.246   3.679  1.9983  1.7154  3.5070
 6726TIP3   OH220122   0.938   0.448   5.519 -0.1621 -0.2590  0.1958
 6726TIP3    H120123   0.867   0.491   5.470  0.3433 -0.7301 -0.9823
 6726TIP3    H220124   0.965   0.375   5.463  0.0122 -1.2186  1.4742
 6727TIP3   OH220125   2.586   3.855   0.107 -0.0847  0.5075  0.8246
 6727TIP3    H120126   2.571   3.766   0.141  1.1336 -0.4320 -0.9341
 6727TIP3    H220127   2.622   3.903   0.182 -0.6630 -0.4964  1.7875
 6728TIP3   OH220128   1.674   3.697   2.392  0.3045  0.5120  0.2541
 6728TIP3    H120129   1.651   3.622   2.446 -0.6231 -0.7325 -1.7366
 6728TIP3    H220130   1.608   3.763   2.411  0.4921  0.4259  1.2313
 6729TIP3   OH220131   4.347   6.959   1.339 -0.3535  0.1849 -0.9962
 6729TIP3    H120132   4.396   6.884   1.372  0.9939  1.3112 -0.3433
 6729TIP3    H220133   4.337   6.942   1.245  0.4092 -0.5412 -0.9511
 6730TIP3   OH220134   3.126   2.123   0.246 -0.1128  0.2217 -0.4150
 6730TIP3    H120135   3.163   2.041   0.214 -2.0670 -0.4099 -1.2206
 6730TIP3    H220136   3.159   2.131   0.335  2.7132  0.2659 -1.3521
 6731TIP3   OH220137   0.633   3.093   3.769  0.3242  0.2063  0.2558
 6731TIP3    H120138   0.689   3.152   3.820  0.0404  0.9904 -0.3264
 6731TIP3    H220139   0.646   3.119   3.678 -1.2700  0.6718  0.1326
 6732TIP3   OH220140   7.707   4.250   3.312  0.0117  0.4724  0.4496
 6732TIP3    H120141   7.794   4.291   3.318 -0.4690  1.5713  0.1829
 6732TIP3    H220142   7.674   4.278   3.226 -0.9583  0.7970  0.9151
 6733TIP3   OH220143   1.306   1.874   5.113 -0.2386 -0.0320  0.0096
 6733TIP3    H120144   1.334   1.898   5.202  0.0702  2.1487 -0.6212
 6733TIP3    H220145   1.381   1.827   5.076  1.1891  2.3645 -0.3275
 6734TIP3   OH220146   1.725   5.440   4.342 -0.3466 -0.0212 -0.2270
 6734TIP3    H120147   1.634   5.458   4.318 -0.1894  0.8871 -0.1699
 6734TIP3    H220148   1.753   5.374   4.279 -0.1599  1.8019 -2.1918
 6735TIP3   OH220149   2.165   5.267   1.799  0.3494  0.0904 -0.2082
 6735TIP3    H120150   2.175   5.362   1.800 -2.0442  0.4007  0.5020
 6735TIP3    H220151   2.244   5.234   1.843  0.7140  1.8036  0.4970
 6736TIP3   OH220152   3.187   6.212   1.218 -0.1282 -0.0777 -0.1058
 6736TIP3    H120153   3.218   6.289   1.171 -0.0365  0.8907  1.4747
 6736TIP3    H220154   3.205   6.139   1.159  1.1355  0.9433 -1.0264
 6737TIP3   OH220155   2.475   0.739   1.632  0.1501  0.1683  0.2120
 6737TIP3    H120156   2.566   0.711   1.637  0.3881  0.3815 -2.0994
 6737TIP3    H220157   2.453   0.734   1.539 -3.2590 -3.2821  0.9032
 6738TIP3   OH220158   5.792   0.060   0.506  0.5701  0.3483 -0.0886
 6738TIP3    H120159   5.769   0.090   0.417  0.9646  1.6766  0.2403
 6738TIP3    H220160   5.719   0.090   0.560 -0.2344 -1.4329 -0.0879
 6739TIP3   OH220161   1.865   2.588   2.401 -0.4376  0.0498  0.5805
 6739TIP3    H120162   1.925   2.654   2.365 -3.3305  1.6481 -1.6857
 6739TIP3    H220163   1.842   2.622   2.487  1.9946 -0.7569  1.6431
 6740TIP3   OH220164   4.470   6.780   1.480 -0.1034  0.4187 -1.1068
 6740TIP3    H120165   4.548   6.725   1.496 -1.1908 -0.8531  0.1287
 6740TIP3    H220166   4.461   6.831   1.560 -1.0537 -0.1334 -0.8513
 6741TIP3   OH220167   6.524   7.526   1.448 -0.8251 -0.1824  0.3166
 6741TIP3    H120168   6.431   7.544   1.462 -0.2034  3.0976  0.9782
 6741TIP3    H220169   6.547   7.577   1.370  0.5845 -0.3215  0.6141
 6742TIP3   OH220170   2.859   3.815   2.615  0.0196  0.3516  0.0347
 6742TIP3    H120171   2.853   3.728   2.576  0.1685  0.5074 -0.3500
 6742TIP3    H220172   2.836   3.803   2.707  3.3667 -0.7216  0.8706
 6743TIP3   OH220173   5.320   3.379   3.860 -0.0931  0.6362  0.0432
 6743TIP3    H120174   5.245   3.320   3.844  1.7000 -1.2472 -2.1675
 6743TIP3    H220175   5.301   3.456   3.807 -0.0622 -0.2681 -1.3514
 6744TIP3   OH220176   8.296   3.186   6.005 -0.0647 -0.7480 -0.1650
 6744TIP3    H120177   8.307   3.242   6.082  0.0240 -1.2461  0.1889
 6744TIP3    H220178   8.245   3.112   6.036 -0.3214 -0.7904 -0.6713
 6745TIP3   OH220179   7.209   1.871   2.306 -0.0442  0.4077  0.0029
 6745TIP3    H120180   7.203   1.920   2.223  0.6954  0.0577 -0.2589
 6745TIP3    H220181   7.301   1.873   2.329 -0.3153  1.0020  1.1367
 6746TIP3   OH220182   3.924   2.844   2.987 -0.3475 -0.3174  0.8554
 6746TIP3    H120183   4.000   2.849   2.928 -0.2078 -0.5822  1.0106
 6746TIP3    H220184   3.859   2.901   2.947 -0.8528 -1.7436 -0.4296
 6747TIP3   OH220185   0.909   3.233   1.438  0.0375  0.2643 -0.6088
 6747TIP3    H120186   0.925   3.322   1.470  0.0966  0.0393 -0.0095
 6747TIP3    H220187   0.814   3.223   1.440  0.1316 -0.6210  1.9239
 6748TIP3   OH220188   2.598   4.549   1.815 -0.1616  0.6135  0.6949
 6748TIP3    H120189   2.681   4.509   1.786  0.7462  1.2052  2.3304
 6748TIP3    H220190   2.572   4.606   1.742  0.4041 -0.2292 -0.1974
 6749TIP3   OH220191   7.123   6.898   6.551  0.1284 -0.7853 -0.2856
 6749TIP3    H120192   7.134   6.806   6.528  0.6950 -1.2466  1.6491
 6749TIP3    H220193   7.212   6.932   6.558 -0.0578 -0.2798 -0.3172
 6750TIP3   OH220194   0.455   4.391   4.022  0.0969 -0.4411  0.2463
 6750TIP3    H120195   0.505   4.318   3.985 -0.1396 -0.5753  0.1970
 6750TIP3    H220196   0.515   4.465   4.017  0.6633 -0.8198  1.0974
 6751TIP3   OH220197   5.373   6.006   3.011 -0.0586  0.8503 -0.0058
 6751TIP3    H120198   5.421   5.928   3.041 -1.0345  0.1544 -0.2259
 6751TIP3    H220199   5.392   6.072   3.078 -0.1293  0.0858  0.7849
 6752TIP3   OH220200   2.307   1.728   6.558 -0.6431  0.1744  0.1295
 6752TIP3    H120201   2.331   1.739   6.650 -0.2316 -3.3664  0.5973
 6752TIP3    H220202   2.390   1.725   6.511 -0.7018 -0.4601  0.0479
 6753TIP3   OH220203   1.450   0.567   1.956 -0.8043  0.0414 -0.4758
 6753TIP3    H120204   1.475   0.528   2.040 -1.7761  1.1885  0.3875
 6753TIP3    H220205   1.412   0.652   1.979 -0.3980  0.7291 -2.1445
 6754TIP3   OH220206   3.837   5.558   4.590  0.5201 -0.0150 -0.1412
 6754TIP3    H120207   3.765   5.558   4.526 -0.7678 -0.2996  1.2429
 6754TIP3    H220208   3.904   5.503   4.551  0.0641  0.3901 -1.5548
 6755TIP3   OH220209   4.525   4.378   4.475 -0.1167  0.2685 -0.6337
 6755TIP3    H120210   4.513   4.469   4.447 -0.8570  0.6299  0.7823
 6755TIP3    H220211   4.512   4.327   4.395 -1.3642  1.2984 -1.1229
 6756TIP3   OH220212   2.711   2.036   2.699  0.0019  0.2739 -0.1376
 6756TIP3    H120213   2.664   2.096   2.755 -0.4608 -0.4387  0.2538
 6756TIP3    H220214   2.654   2.024   2.623  0.5281  1.0655 -0.6776
 6757TIP3   OH220215   8.092   7.344   5.836  0.1253 -0.2787 -0.2111
 6757TIP3    H120216   8.132   7.298   5.762  0.2527  0.0277 -0.3369
 6757TIP3    H220217   8.153   7.330   5.909 -0.3149 -1.1168  0.0107
 6758TIP3   OH220218   7.202   4.062   1.465  0.0214  0.3116  0.0971
 6758TIP3    H120219   7.177   3.971   1.484  1.2986 -0.2582 -0.8668
 6758TIP3    H220220   7.193   4.071   1.371  1.5922  0.6434 -0.0457
 6759TIP3   OH220221   5.137   5.343   0.461 -0.1636  0.2572 -0.0045
 6759TIP3    H120222   5.090   5.338   0.544 -0.4663 -1.3377 -0.2366
 6759TIP3    H220223   5.227   5.363   0.485  0.4022 -2.8996  1.0055
 6760TIP3   OH220224   3.947   6.830   5.238 -0.0918 -0.3328  0.2743
 6760TIP3    H120225   3.886   6.861   5.171  0.2110 -0.2351  0.0416
 6760TIP3    H220226   3.914   6.744   5.263 -0.5602 -0.1040  0.4484
 6761TIP3   OH220227   1.043   6.566   1.832  0.0053 -0.3683  0.2276
 6761TIP3    H120228   0.995   6.648   1.845 -0.5503 -0.7090  0.3254
 6761TIP3    H220229   0.976   6.499   1.823  0.3991 -1.2447  2.8341
 6762TIP3   OH220230   1.894   2.968   2.371 -0.0397 -0.5401  0.2415
 6762TIP3    H120231   1.962   2.928   2.317 -0.9475 -0.5704 -0.9062
 6762TIP3    H220232   1.868   3.046   2.322 -0.2742 -0.0887  1.0695
 6763TIP3   OH220233   7.451   3.818   6.266 -0.1169 -0.1534 -0.0652
 6763TIP3    H120234   7.441   3.839   6.359 -1.6772 -0.5412 -0.1102
 6763TIP3    H220235   7.510   3.743   6.264  0.8333  0.5643  0.5201
 6764TIP3   OH220236   6.283   2.127   3.142  0.2108 -0.1033  0.1395
 6764TIP3    H120237   6.308   2.059   3.078 -0.4360  0.0843 -0.3267
 6764TIP3    H220238   6.246   2.197   3.088  1.3429  0.8452  0.5745
 6765TIP3   OH220239   5.119   5.699   1.791  0.0026  0.3529 -0.2741
 6765TIP3    H120240   5.093   5.609   1.812 -1.3078  0.5477 -0.9720
 6765TIP3    H220241   5.081   5.753   1.860  1.4352  0.3330  0.5814
 6766TIP3   OH220242   7.112   5.346   0.011 -0.4823 -0.3478  0.0727
 6766TIP3    H120243   7.064   5.308   0.084 -0.3080 -0.1670  0.2839
 6766TIP3    H220244   7.064   5.425  -0.011 -1.9308 -1.5985 -1.5806
 6767TIP3   OH220245   2.996   1.638   3.645 -0.2712 -0.6393  0.3655
 6767TIP3    H120246   2.995   1.545   3.621  0.3876 -0.8815  1.2425
 6767TIP3    H220247   2.939   1.643   3.722  1.7335 -0.8102  1.9581
 6768TIP3   OH220248   0.463   6.490   0.570 -0.1000 -0.1667  0.7009
 6768TIP3    H120249   0.419   6.573   0.551 -1.2864 -1.1328 -1.0870
 6768TIP3    H220250   0.393   6.430   0.595  0.2713 -1.4161 -1.0228
 6769TIP3   OH220251   2.434   1.202   3.526 -0.1191 -0.1516 -0.0457
 6769TIP3    H120252   2.464   1.249   3.448  1.7077 -0.5787  0.3518
 6769TIP3    H220253   2.464   1.112   3.514 -0.9759 -0.5326  0.5511
 6770TIP3   OH220254   0.150   0.644   6.751  0.2048 -0.0354  0.0694
 6770TIP3    H120255   0.190   0.558   6.767  1.2307 -0.4716 -3.7687
 6770TIP3    H220256   0.121   0.640   6.660 -1.7650  2.9929  0.4175
 6771TIP3   OH220257   5.337   2.696   4.416 -0.2349  0.3698 -0.0123
 6771TIP3    H120258   5.347   2.617   4.364 -2.6765 -0.2254  0.3290
 6771TIP3    H220259   5.315   2.764   4.353  2.3092  0.9614 -0.3643
 6772TIP3   OH220260   0.539   5.808   2.534  0.0889  0.1355  0.0313
 6772TIP3    H120261   0.489   5.817   2.453  2.2841  0.8330 -1.3163
 6772TIP3    H220262   0.474   5.817   2.603 -1.9943 -1.3178 -1.6253
 6773TIP3   OH220263   7.758   3.428   1.748  0.0275 -0.1363 -0.2203
 6773TIP3    H120264   7.804   3.490   1.691  0.6643  1.6685  2.0992
 6773TIP3    H220265   7.671   3.421   1.710  0.2575  1.4340 -1.1309
 6774TIP3   OH220266   0.755   1.129   1.296 -0.2008 -0.1817  0.1067
 6774TIP3    H120267   0.728   1.097   1.210  0.4027 -1.4322  0.3477
 6774TIP3    H220268   0.715   1.215   1.304  0.1704  0.1916 -1.6398
 6775TIP3   OH220269   5.401   3.717   1.208 -0.4611  0.3787 -0.2349
 6775TIP3    H120270   5.379   3.722   1.301 -1.5822 -1.8311 -0.3184
 6775TIP3    H220271   5.331   3.766   1.164 -0.8881 -0.0284 -0.0141
 6776TIP3   OH220272   3.760   7.205   4.955 -0.3524  0.1357 -0.0703
 6776TIP3    H120273   3.719   7.245   4.879  0.2494  0.3164 -0.2980
 6776TIP3    H220274   3.841   7.167   4.922 -1.3514 -2.1328 -0.0668
 6777TIP3   OH220275   4.081   5.540   0.089 -0.1326  0.1052  0.2346
 6777TIP3    H120276   4.101   5.468   0.148  0.8668  0.9064  0.9041
 6777TIP3    H220277   4.134   5.522   0.011 -0.3149 -0.1661  0.1696
 6778TIP3   OH220278   2.878   5.099   2.793 -0.6444 -0.1591  0.2028
 6778TIP3    H120279   2.921   5.049   2.862  1.2943 -0.3111 -1.0441
 6778TIP3    H220280   2.839   5.032   2.736  0.5981 -0.2076 -0.6130
 6779TIP3   OH220281   6.766   1.428   5.384  0.0980  0.0422 -0.6075
 6779TIP3    H120282   6.747   1.399   5.294 -1.2358 -0.2846 -0.2270
 6779TIP3    H220283   6.689   1.478   5.410  1.5563  2.4219 -0.5592
 6780TIP3   OH220284   3.290   4.400   1.331  0.4175  0.3055  0.0310
 6780TIP3    H120285   3.207   4.369   1.293  0.6268 -0.8045  0.4370
 6780TIP3    H220286   3.345   4.418   1.255  0.5849 -1.2075 -0.2526
 6781TIP3   OH220287   7.502   3.616   5.936  0.0335 -0.3010 -0.1984
 6781TIP3    H120288   7.499   3.541   5.876 -0.1615 -0.3601 -0.1136
 6781TIP3    H220289   7.473   3.580   6.020  3.0428 -0.9685  0.6917
 6782TIP3   OH220290   0.767   5.533   0.473 -0.0786 -0.0767 -0.6204
 6782TIP3    H120291   0.738   5.612   0.428  0.8165 -1.3541 -3.7085
 6782TIP3    H220292   0.712   5.463   0.436  1.1409 -1.3043 -0.2067
 6783TIP3   OH220293   1.556   3.846   3.145 -0.4460 -0.4251  0.2558
 6783TIP3    H120294   1.565   3.769   3.202 -0.3535 -0.5453  0.0806
 6783TIP3    H220295   1.464   3.844   3.117 -0.5133 -0.3183  0.4662
 6784TIP3   OH220296   0.517   1.917   1.590 -0.3887  0.3511 -0.0579
 6784TIP3    H120297   0.541   1.986   1.651 -0.2174  1.0383 -0.8867
 6784TIP3    H220298   0.524   1.836   1.641 -2.6179  1.0758  1.5278
 6785TIP3   OH220299   2.287   6.065   3.569  0.2843  0.4307  0.0936
 6785TIP3    H120300   2.218   6.028   3.624 -1.3234  2.2980 -0.5537
 6785TIP3    H220301   2.369   6.039   3.612 -0.8283 -0.7858  1.5905
 6786TIP3   OH220302   2.575   0.895   6.778 -0.6035 -0.5096 -0.2333
 6786TIP3    H120303   2.643   0.841   6.819 -1.3064 -0.6844  0.7427
 6786TIP3    H220304   2.624   0.964   6.732  0.2902  1.2835  3.0677
 6787TIP3   OH220305   5.567   0.075   0.082  0.2535  0.3490  0.1614
 6787TIP3    H120306   5.519   0.153   0.053 -0.1376  0.6165  1.4640
 6787TIP3    H220307   5.500   0.006   0.086  0.7562 -0.2925 -1.7883
 6788TIP3   OH220308   3.062   7.331   2.445 -0.1899 -0.0911  0.1656
 6788TIP3    H120309   3.060   7.266   2.515  0.9709  0.1358  0.4393
 6788TIP3    H220310   3.151   7.326   2.411  0.0898  1.7231  0.5595
 6789TIP3   OH220311   0.763   1.136   4.162  0.2435  0.4161  0.0136
 6789TIP3    H120312   0.837   1.106   4.108  0.2481  2.0148 -0.9298
 6789TIP3    H220313   0.689   1.135   4.101 -0.2140  0.1854  0.5741
 6790TIP3   OH220314   6.114   0.080   1.319 -0.5087 -0.2403  0.7254
 6790TIP3    H120315   6.199   0.121   1.301 -1.0445 -0.1853 -2.2743
 6790TIP3    H220316   6.130   0.024   1.395  2.2773 -0.4172  0.1218
 6791TIP3   OH220317   7.627   4.013   2.475 -0.2710 -0.6735  0.3126
 6791TIP3    H120318   7.681   4.007   2.396  0.1118 -0.6447  0.5672
 6791TIP3    H220319   7.597   3.923   2.490  0.1536 -0.7913  0.4746
 6792TIP3   OH220320   7.162   7.244   5.944 -0.3165  0.2678 -0.3593
 6792TIP3    H120321   7.183   7.335   5.923 -0.7856  0.5645  0.4115
 6792TIP3    H220322   7.098   7.250   6.016  0.2217 -0.6755  0.2227
 6793TIP3   OH220323   2.429   6.641   0.376 -0.0481 -0.4247 -0.0538
 6793TIP3    H120324   2.414   6.580   0.304  0.3089  0.3791 -0.8340
 6793TIP3    H220325   2.524   6.656   0.375  0.1065 -1.1149  1.2006
 6794TIP3   OH220326   3.831   2.174   4.207  0.0705  0.0666  0.2239
 6794TIP3    H120327   3.926   2.183   4.194  0.0192 -0.4110 -0.5746
 6794TIP3    H220328   3.821   2.151   4.299  0.7103  0.3700  0.3745
 6795TIP3   OH220329   6.123   0.532   3.021  0.1609 -0.1898  0.1388
 6795TIP3    H120330   6.088   0.468   2.959  0.7138  1.0514 -1.5163
 6795TIP3    H220331   6.063   0.607   3.015  0.7694  0.3224  0.3744
 6796TIP3   OH220332   6.162   7.637   1.047  0.3575 -0.5659 -0.4675
 6796TIP3    H120333   6.100   7.568   1.071  0.7064 -0.7986 -0.2272
 6796TIP3    H220334   6.221   7.595   0.985  0.9530 -0.6619  0.1615
 6797TIP3   OH220335   7.297   7.129   1.250  0.5102  0.5388  0.0816
 6797TIP3    H120336   7.270   7.040   1.228  2.6358 -0.3285  0.7521
 6797TIP3    H220337   7.369   7.118   1.312  0.7242  2.7389  0.3191
 6798TIP3   OH220338   3.631   7.700   0.743 -0.4875 -0.0329 -0.3380
 6798TIP3    H120339   3.676   7.696   0.828 -1.8704 -0.4850  0.3975
 6798TIP3    H220340   3.601   7.790   0.736  2.1662  0.8824 -1.7745
 6799TIP3   OH220341   5.793   5.254   2.873  0.3536 -0.2250 -0.2755
 6799TIP3    H120342   5.763   5.344   2.859  0.5035 -0.0685  0.3430
 6799TIP3    H220343   5.716   5.200   2.860 -0.0633  0.1177  0.6818
 6800TIP3   OH220344   1.129   1.363   1.170  0.0420 -0.0558  0.0993
 6800TIP3    H120345   1.137   1.458   1.181 -1.1148  0.0375  0.3320
 6800TIP3    H220346   1.110   1.330   1.258 -0.6838 -0.3527 -0.1582
 6801TIP3   OH220347   0.644   7.272   0.937 -0.0309 -0.5027 -0.2978
 6801TIP3    H120348   0.582   7.308   0.873  0.8514  0.6405 -0.5358
 6801TIP3    H220349   0.729   7.278   0.894  0.6348  0.5878  1.0912
 6802TIP3   OH220350   3.966   3.877   2.852 -0.3265 -0.1192 -0.3991
 6802TIP3    H120351   4.031   3.826   2.900 -1.7959 -1.5084  0.2083
 6802TIP3    H220352   3.917   3.812   2.802 -0.4462  1.0370 -1.8382
 6803TIP3   OH220353   1.043   4.514   6.561 -0.1850  0.0017  0.2075
 6803TIP3    H120354   1.084   4.532   6.476 -3.1707  2.0488 -0.9467
 6803TIP3    H220355   1.108   4.462   6.608  3.0070  1.6892 -2.0000
 6804TIP3   OH220356   7.284   5.340   1.728 -0.0010 -0.3992 -0.1012
 6804TIP3    H120357   7.255   5.370   1.641 -0.1813  0.3313  0.1985
 6804TIP3    H220358   7.249   5.406   1.788  0.0015 -0.9800  0.5432
 6805TIP3   OH220359   3.206   4.078   0.983 -0.6135 -0.1670  0.1718
 6805TIP3    H120360   3.264   4.017   1.028 -1.9266  0.0459  2.2851
 6805TIP3    H220361   3.231   4.071   0.891  3.1367  0.3680  0.9798
 6806TIP3   OH220362   2.334   3.241   5.369 -0.3521  0.2351 -0.1085
 6806TIP3    H120363   2.381   3.323   5.385 -0.1702  0.4578 -1.6296
 6806TIP3    H220364   2.303   3.248   5.279 -1.7025 -0.7124  0.2524
 6807TIP3   OH220365   1.778   6.633   2.771 -0.0835 -0.1963 -0.5234
 6807TIP3    H120366   1.782   6.592   2.685  0.5797 -0.9880 -0.1285
 6807TIP3    H220367   1.854   6.599   2.818 -0.0402  0.7640  0.1475
 6808TIP3   OH220368   5.351   5.446   3.995  0.2366 -0.1962 -0.2189
 6808TIP3    H120369   5.358   5.437   3.900  1.2954 -0.4795 -0.1242
 6808TIP3    H220370   5.408   5.378   4.030 -1.7613 -1.5091  0.6602
 6809TIP3   OH220371   4.110   0.506   5.667  0.4483  0.0304  0.3539
 6809TIP3    H120372   4.155   0.541   5.744  1.5374 -0.3447 -0.0908
 6809TIP3    H220373   4.024   0.479   5.699 -0.1901  2.4146  0.8639
 6810TIP3   OH220374   8.270   0.382   0.652  0.2411  0.1363  0.2897
 6810TIP3    H120375   8.330   0.370   0.579  0.6890  0.8042  0.5282
 6810TIP3    H220376   8.287   0.472   0.682  0.8999 -0.4842  1.9299
 6811TIP3   OH220377   1.662   0.063   6.240 -0.2104  0.0229 -0.9108
 6811TIP3    H120378   1.599   0.049   6.311 -1.1904  1.7445 -1.3593
 6811TIP3    H220379   1.724  -0.009   6.247 -0.6569 -0.2121  1.2806
 6812TIP3   OH220380   0.362   0.518   5.679  0.2839 -0.5163 -0.2597
 6812TIP3    H120381   0.332   0.496   5.767 -1.3477 -0.8403 -0.8586
 6812TIP3    H220382   0.449   0.556   5.692 -0.2314  0.1395  1.5487
 6813TIP3   OH220383   3.137   6.676   6.191  0.1538 -0.2730  0.2328
 6813TIP3    H120384   3.135   6.616   6.117  0.0386  1.4758 -1.2436
 6813TIP3    H220385   3.055   6.725   6.184  1.1406  1.4231  0.1859
 6814TIP3   OH220386   6.340   1.367   4.908  0.2527 -0.0334 -0.0574
 6814TIP3    H120387   6.396   1.385   4.984 -0.6958 -0.2677  0.7160
 6814TIP3    H220388   6.344   1.271   4.898 -1.8574 -0.3581  1.5113
 6815TIP3   OH220389   4.057   6.881   0.723  0.0809  0.2657  0.3598
 6815TIP3    H120390   4.150   6.901   0.730  0.0645  0.8198 -0.8616
 6815TIP3    H220391   4.055   6.787   0.706  0.4074  0.2489  0.3981
 6816TIP3   OH220392   3.976   1.665   1.464 -0.0689  0.0678 -0.2520
 6816TIP3    H120393   3.921   1.689   1.389 -1.2773 -1.5161  0.0703
 6816TIP3    H220394   3.981   1.745   1.516 -1.1095  0.5783 -0.8866
 6817TIP3   OH220395   5.547   4.916   1.308 -0.2451  0.4281 -0.1347
 6817TIP3    H120396   5.605   4.941   1.236  0.3944  1.6641  0.7671
 6817TIP3    H220397   5.569   4.977   1.378 -0.9375 -0.6653  1.0740
 6818TIP3   OH220398   4.553   0.543   3.524  0.0577  0.4814  0.5218
 6818TIP3    H120399   4.460   0.558   3.544 -0.2447  2.0858 -1.7451
 6818TIP3    H220400   4.553   0.494   3.442  1.2003  0.6771  0.3822
 6819TIP3   OH220401   7.388   6.843   2.728 -0.2057  0.9668  0.3639
 6819TIP3    H120402   7.453   6.773   2.721 -1.6019 -0.2683 -0.7215
 6819TIP3    H220403   7.438   6.923   2.709  0.9970  0.0629 -0.4314
 6820TIP3   OH220404   3.316   7.283   1.238  0.0587  0.0867  0.7291
 6820TIP3    H120405   3.271   7.279   1.323 -1.1233 -1.6639  0.0954
 6820TIP3    H220406   3.334   7.376   1.224  0.1724  0.4270  2.8270
 6821TIP3   OH220407   4.608   5.027   4.995 -0.1008 -0.1809  0.3575
 6821TIP3    H120408   4.618   5.040   5.090 -0.3883 -0.1841  0.3892
 6821TIP3    H220409   4.697   5.017   4.963  0.4470  4.1239 -0.0247
 6822TIP3   OH220410   3.507   6.434   2.026  0.0567 -0.4337  0.1153
 6822TIP3    H120411   3.509   6.355   1.972 -0.8012 -0.8183  0.6152
 6822TIP3    H220412   3.594   6.472   2.017 -0.2798 -0.0264 -2.1972
 6823TIP3   OH220413   5.147   2.817   0.337  0.3214 -0.6211  0.5031
 6823TIP3    H120414   5.186   2.881   0.277 -0.4521 -1.0555 -0.4935
 6823TIP3    H220415   5.071   2.784   0.290  0.6570 -2.2199  1.0428
 6824TIP3   OH220416   6.473   7.683   0.348  0.1213 -0.3314  0.4874
 6824TIP3    H120417   6.408   7.620   0.382  0.1168  0.4646  2.0410
 6824TIP3    H220418   6.459   7.682   0.253 -1.2188 -1.2090  0.6549
 6825TIP3   OH220419   4.929   0.017   1.269 -0.8352 -0.0080 -0.2807
 6825TIP3    H120420   4.887   0.042   1.187 -1.0717 -1.4569 -0.6361
 6825TIP3    H220421   5.020   0.045   1.260 -1.4158  2.1622  0.0434
 6826TIP3   OH220422   5.458   3.577   3.243 -0.2144  0.5223 -0.8808
 6826TIP3    H120423   5.374   3.610   3.275  0.3247 -0.2705  1.5258
 6826TIP3    H220424   5.502   3.654   3.207 -1.1310  1.3573 -0.2502
 6827TIP3   OH220425   1.571   5.332   6.349 -0.6326 -0.0218  0.3775
 6827TIP3    H120426   1.488   5.302   6.312 -0.8435  1.3892 -0.3728
 6827TIP3    H220427   1.553   5.344   6.442 -1.3190  0.4209  0.1935
 6828TIP3   OH220428   6.598   0.091   5.529 -0.1610  0.2503  0.0264
 6828TIP3    H120429   6.678   0.068   5.577 -0.8524  0.4455  1.3098
 6828TIP3    H220430   6.527   0.073   5.591 -1.2447 -1.2938 -1.5726
 6829TIP3   OH220431   1.837   5.795   1.401  0.2166 -0.3583 -0.4306
 6829TIP3    H120432   1.863   5.710   1.436  1.3295  0.1400 -0.0181
 6829TIP3    H220433   1.916   5.830   1.359 -0.0418  0.7430 -0.0427
 6830TIP3   OH220434   4.869   5.601   0.819 -0.3476 -0.7151  0.4184
 6830TIP3    H120435   4.964   5.613   0.817 -0.6080  1.9903 -0.7444
 6830TIP3    H220436   4.847   5.597   0.912  0.8297 -0.7291  0.7138
 6831TIP3   OH220437   6.491   4.877   2.756 -0.0562 -0.0369  0.3643
 6831TIP3    H120438   6.494   4.839   2.668 -1.0428 -0.5104  0.5340
 6831TIP3    H220439   6.537   4.961   2.746  1.4067 -0.8588 -0.1962
 6832TIP3   OH220440   7.783   2.385   4.667  0.0465 -0.3347  0.0459
 6832TIP3    H120441   7.878   2.381   4.662  0.3725  2.5605  1.5382
 6832TIP3    H220442   7.762   2.346   4.752 -0.0903 -0.7192 -0.1610
 6833TIP3   OH220443   1.512   4.453   5.029 -0.3407 -0.1934 -0.1592
 6833TIP3    H120444   1.479   4.543   5.031  2.6872  1.0481 -0.2403
 6833TIP3    H220445   1.542   4.436   5.118  1.5101 -0.0638 -0.7146
 6834TIP3   OH220446   0.597   5.260   2.603 -0.2632 -0.4660  0.7901
 6834TIP3    H120447   0.620   5.313   2.679 -1.5740 -0.6483  1.3336
 6834TIP3    H220448   0.577   5.174   2.639  0.1814 -0.8638  0.1059
 6835TIP3   OH220449   0.454   1.612   0.834 -0.1282 -0.4572  0.6403
 6835TIP3    H120450   0.548   1.610   0.814 -0.1770  3.0469 -0.8098
 6835TIP3    H220451   0.412   1.600   0.749 -0.9191 -0.0573  0.9666
 6836TIP3   OH220452   2.594   1.706   0.313  0.0826 -0.2177  0.3462
 6836TIP3    H120453   2.526   1.659   0.362  0.7318 -0.8622  0.6312
 6836TIP3    H220454   2.671   1.702   0.368  0.7435 -0.6933 -0.5950
 6837TIP3   OH220455   5.514   5.957   5.916 -0.2780 -0.9673 -0.4853
 6837TIP3    H120456   5.516   6.041   5.961  1.2796 -1.3604  0.2567
 6837TIP3    H220457   5.421   5.937   5.906 -0.6674  0.0519  0.8178
 6838TIP3   OH220458   5.441   0.092   5.495 -0.5714  0.3571 -0.2966
 6838TIP3    H120459   5.395   0.165   5.539  1.3234  0.8139  1.0828
 6838TIP3    H220460   5.394   0.014   5.524 -1.6128  0.9103 -0.4343
 6839TIP3   OH220461   0.030   3.225   0.393  0.5641  0.3450 -0.1321
 6839TIP3    H120462   0.113   3.241   0.439  0.0129  0.2076  0.9572
 6839TIP3    H220463  -0.036   3.267   0.448 -0.2640 -0.8461 -0.1769
 6840TIP3   OH220464   4.135   0.100   0.218 -0.2848  0.1462 -0.2699
 6840TIP3    H120465   4.060   0.133   0.168 -1.2108 -0.6529  0.5372
 6840TIP3    H220466   4.128   0.144   0.303 -1.5400 -1.9849  0.8303
 6841TIP3   OH220467   2.592   6.659   3.088  0.2695 -0.6327  0.0626
 6841TIP3    H120468   2.683   6.690   3.086 -0.5086  1.9188 -1.5497
 6841TIP3    H220469   2.572   6.650   3.181  2.0037 -0.7309  0.4682
 6842TIP3   OH220470   5.292   1.991   6.191  0.2291  0.2540 -0.4274
 6842TIP3    H120471   5.220   2.044   6.158 -0.4927  0.8133  1.8492
 6842TIP3    H220472   5.367   2.049   6.192 -0.2924  0.9497  0.9882
 6843TIP3   OH220473   5.220   5.846   0.247  0.5409 -0.0552 -0.0478
 6843TIP3    H120474   5.194   5.860   0.338  2.4174 -2.0420  0.8923
 6843TIP3    H220475   5.293   5.784   0.252  0.4781 -0.5234 -2.9454
 6844TIP3   OH220476   5.948   3.760   0.894 -0.0971  0.0576  0.1181
 6844TIP3    H120477   6.031   3.718   0.871 -0.3210  0.1269 -0.8443
 6844TIP3    H220478   5.925   3.812   0.817  0.0220  1.7283  1.1721
 6845TIP3   OH220479   4.684   1.373   5.737 -0.0702  0.3039 -0.9476
 6845TIP3    H120480   4.762   1.393   5.685  0.0747 -1.2337 -1.3550
 6845TIP3    H220481   4.713   1.385   5.828  0.2437  1.0402 -1.1318
 6846TIP3   OH220482   7.988   1.320   4.640 -0.7353 -0.1945  0.3133
 6846TIP3    H120483   8.060   1.301   4.700 -0.9397 -0.2007  0.5546
 6846TIP3    H220484   8.032   1.336   4.556 -0.3658  0.8335  0.6762
 6847TIP3   OH220485   2.268   7.820   2.434  0.1801  0.0025  0.4120
 6847TIP3    H120486   2.362   7.840   2.428  0.2798 -0.1585  1.2914
 6847TIP3    H220487   2.265   7.727   2.451 -0.1625 -0.0468  0.0984
 6848TIP3   OH220488   8.088   4.332   5.130  1.1050  0.1712 -0.0803
 6848TIP3    H120489   8.091   4.343   5.225 -1.0384 -0.7427  0.1415
 6848TIP3    H220490   7.995   4.341   5.107  1.4357 -0.6813 -1.9487
 6849TIP3   OH220491   7.675   5.649   1.933  0.3191  0.2169  0.0121
 6849TIP3    H120492   7.628   5.660   2.016 -1.6732 -0.4693 -0.9448
 6849TIP3    H220493   7.738   5.721   1.930 -0.6246  1.1443  1.4352
 6850TIP3   OH220494   5.892   4.703   5.361  0.1587 -0.0832  0.2137
 6850TIP3    H120495   5.862   4.710   5.452  0.5841  0.4095  0.3271
 6850TIP3    H220496   5.818   4.732   5.309  0.4108  1.1259  0.4893
 6851TIP3   OH220497   3.246   4.927   6.566  0.6273  0.0317  0.5891
 6851TIP3    H120498   3.152   4.921   6.555  0.8528 -0.1006 -1.6639
 6851TIP3    H220499   3.283   4.882   6.491  2.4956  0.4547  1.1818
 6852TIP3   OH220500   0.961   5.062   1.185 -0.3151  0.1846  0.6375
 6852TIP3    H120501   0.956   4.969   1.208 -1.3318  0.0262 -0.1620
 6852TIP3    H220502   1.022   5.065   1.112 -0.4099  0.1153  0.5538
 6853TIP3   OH220503   4.698   3.644   5.910  0.0123  0.0748 -0.0019
 6853TIP3    H120504   4.639   3.713   5.880 -1.5925 -1.6066 -0.9676
 6853TIP3    H220505   4.644   3.591   5.970  1.4226  0.0559  1.3012
 6854TIP3   OH220506   4.673   7.718   5.273 -0.0777  0.2559 -0.3096
 6854TIP3    H120507   4.733   7.666   5.219 -0.1917  0.8565 -1.0437
 6854TIP3    H220508   4.710   7.714   5.361  2.0926  2.0761 -1.0257
 6855TIP3   OH220509   0.232   1.985   3.628  0.2804  0.1838  0.4568
 6855TIP3    H120510   0.296   1.915   3.617 -0.3667 -0.4044  0.3444
 6855TIP3    H220511   0.191   1.967   3.713  0.1202  0.4357  0.4354
 6856TIP3   OH220512   7.489   4.681   2.804 -0.5008  0.1289  0.5113
 6856TIP3    H120513   7.580   4.712   2.807 -0.2335 -0.6412  0.7360
 6856TIP3    H220514   7.439   4.748   2.849 -0.1368  0.8762 -0.1857
 6857TIP3   OH220515   5.377   1.573   4.908 -0.1157 -0.6295  0.5124
 6857TIP3    H120516   5.328   1.592   4.988  0.4034  1.6927  0.3480
 6857TIP3    H220517   5.332   1.622   4.839  1.0104 -0.4142 -0.0946
 6858TIP3   OH220518   2.967   5.749   4.962 -0.0284 -0.8263  0.3927
 6858TIP3    H120519   2.930   5.661   4.970 -1.0487 -0.2349  3.0800
 6858TIP3    H220520   3.050   5.745   5.009  0.1492 -0.4631  0.1168
 6859TIP3   OH220521   1.136   2.100   4.793  0.3119 -0.1954  0.4071
 6859TIP3    H120522   1.140   2.070   4.884  0.1389  0.0218  0.4848
 6859TIP3    H220523   1.141   2.195   4.798 -0.1068 -0.1631  0.2114
 6860TIP3   OH220524   3.816   7.029   3.327  0.2377 -0.3424 -0.5551
 6860TIP3    H120525   3.837   6.948   3.280  0.1739  1.5799 -4.3053
 6860TIP3    H220526   3.722   7.042   3.310 -0.3940 -0.6975  2.2516
 6861TIP3   OH220527   7.905   7.755   2.475 -0.0954 -0.3133 -0.6275
 6861TIP3    H120528   7.861   7.715   2.400  0.4006 -1.1024 -0.5091
 6861TIP3    H220529   7.891   7.849   2.464 -1.7662 -0.5340 -0.6217
 6862TIP3   OH220530   7.116   5.746   1.970 -0.0601 -0.4617 -0.8812
 6862TIP3    H120531   7.094   5.689   2.044  0.4403 -1.0428 -1.1637
 6862TIP3    H220532   7.113   5.834   2.006 -0.9694 -0.6478 -0.4602
 6863TIP3   OH220533   7.988   7.516   2.578 -0.0339  0.2484  0.6602
 6863TIP3    H120534   8.080   7.540   2.572  0.0632  0.0291  1.2558
 6863TIP3    H220535   7.942   7.589   2.535  0.4634 -0.1000 -0.4950
 6864TIP3   OH220536   6.534   1.916   0.439 -0.8527  0.0360  0.7842
 6864TIP3    H120537   6.601   1.918   0.371 -1.5291 -0.4000  0.0880
 6864TIP3    H220538   6.536   2.004   0.478  0.2329 -0.0331  0.8992
 6865TIP3   OH220539   1.289   4.127   2.469 -0.2532  0.2760 -0.2204
 6865TIP3    H120540   1.295   4.079   2.387 -0.0791 -2.5452  1.3181
 6865TIP3    H220541   1.289   4.059   2.537 -2.0764  2.3770  2.0661
 6866TIP3   OH220542   7.284   7.209   2.742 -0.3505  0.5221  0.5097
 6866TIP3    H120543   7.325   7.296   2.739  0.2292  0.2390 -0.0832
 6866TIP3    H220544   7.317   7.170   2.823  1.0384  0.0859 -0.2313
 6867TIP3   OH220545   7.093   7.499   6.452  0.0326 -0.5050 -0.2617
 6867TIP3    H120546   7.176   7.462   6.421 -0.0858 -0.3801 -0.7434
 6867TIP3    H220547   7.043   7.515   6.372 -0.8392 -1.4503  0.0787
 6868TIP3   OH220548   1.501   6.456   0.918 -0.0980 -0.2395 -0.4246
 6868TIP3    H120549   1.466   6.513   0.987  1.3852  0.8406 -0.5211
 6868TIP3    H220550   1.513   6.372   0.961  0.4592  0.3201  0.5674
 6869TIP3   OH220551   8.295   3.673   6.232  0.1280  0.2374  0.0738
 6869TIP3    H120552   8.280   3.581   6.212 -0.5008  0.2659  0.3993
 6869TIP3    H220553   8.276   3.682   6.325  0.0841  0.7162  0.0251
 6870TIP3   OH220554   4.664   5.420   3.698  0.2638  0.3567  0.0875
 6870TIP3    H120555   4.756   5.395   3.705  0.6377  1.9585  1.5343
 6870TIP3    H220556   4.630   5.364   3.629  1.7502 -1.9069  1.0486
 6871TIP3   OH220557   3.879   2.573   1.507  0.5090 -0.4869 -0.1477
 6871TIP3    H120558   3.804   2.621   1.473  0.7998  0.2334  0.2111
 6871TIP3    H220559   3.921   2.534   1.430 -0.2330 -0.9094 -0.3447
 6872TIP3   OH220560   3.310   7.717   0.054  0.3659  0.5463  0.2554
 6872TIP3    H120561   3.272   7.754   0.133 -2.7172 -2.2918  0.3131
 6872TIP3    H220562   3.353   7.636   0.083 -1.4707 -0.9429 -0.9338
 6873TIP3   OH220563   3.496   7.720   2.482  0.0609 -0.0267 -0.3446
 6873TIP3    H120564   3.567   7.748   2.424  1.2361  0.4827  1.2880
 6873TIP3    H220565   3.490   7.789   2.548  0.1023 -1.5124  1.2898
 6874TIP3   OH220566   1.034   2.560   0.867  0.0583 -0.0288  0.2724
 6874TIP3    H120567   1.049   2.517   0.783 -0.2542 -3.5001  1.7996
 6874TIP3    H220568   0.949   2.526   0.897 -1.0753  3.0430  0.9931
 6875TIP3   OH220569   7.691   6.241   2.076  0.4226 -0.4419  0.6184
 6875TIP3    H120570   7.734   6.156   2.069  1.1288  0.0042 -1.4952
 6875TIP3    H220571   7.704   6.281   1.989 -0.5953  1.4774  1.2879
 6876TIP3   OH220572   6.065   7.598   4.222 -0.2708 -0.3140 -0.4521
 6876TIP3    H120573   5.987   7.653   4.222  0.1223  0.3064  1.2680
 6876TIP3    H220574   6.041   7.523   4.167 -1.7091  0.3577 -0.7930
 6877TIP3   OH220575   1.663   7.363   6.122 -0.1206 -0.5125  0.4074
 6877TIP3    H120576   1.721   7.396   6.054  0.7731  3.0316  2.6142
 6877TIP3    H220577   1.720   7.349   6.198 -1.3460 -2.4597  1.0436
 6878TIP3   OH220578   6.179   5.216   4.407 -0.0091 -0.1728 -0.4330
 6878TIP3    H120579   6.204   5.308   4.403  2.3469 -0.7168  0.4262
 6878TIP3    H220580   6.084   5.218   4.422  0.2962  2.1631  1.9682
 6879TIP3   OH220581   4.933   3.005   2.220  0.5149 -0.1707  0.4868
 6879TIP3    H120582   4.989   3.042   2.288  0.2424  0.5463  0.3269
 6879TIP3    H220583   4.945   3.063   2.144 -2.2537  1.4935  1.1580
 6880TIP3   OH220584   1.136   3.097   5.753 -0.5613 -0.2906  0.3917
 6880TIP3    H120585   1.179   3.165   5.703 -0.1519 -2.1733 -1.9949
 6880TIP3    H220586   1.207   3.057   5.805 -0.8363  1.1340  1.9319
 6881TIP3   OH220587   4.871   0.929   4.541 -0.1481  0.4013  0.2271
 6881TIP3    H120588   4.807   0.944   4.471 -0.4387  0.5595  0.5234
 6881TIP3    H220589   4.938   0.874   4.501 -0.5103  0.1718 -0.0639
 6882TIP3   OH220590   5.203   4.939   0.800 -0.0649  0.4508 -0.1782
 6882TIP3    H120591   5.230   4.937   0.892  0.3323 -1.8934 -0.2799
 6882TIP3    H220592   5.285   4.933   0.751 -0.3584  0.1206 -0.6340
 6883TIP3   OH220593   5.974   1.124   2.145  0.1311  0.3494  0.4281
 6883TIP3    H120594   5.964   1.029   2.137  1.3087  0.3553 -1.5669
 6883TIP3    H220595   5.905   1.161   2.090 -0.6052  0.6802  1.5459
 6884TIP3   OH220596   4.151   5.334   3.352 -0.5659 -0.7937 -0.2764
 6884TIP3    H120597   4.235   5.288   3.352  0.4554  1.0046  0.1975
 6884TIP3    H220598   4.112   5.313   3.267 -0.2456 -2.6638 -0.0087
 6885TIP3   OH220599   4.575   6.536   4.206  0.0880  0.1859 -0.6638
 6885TIP3    H120600   4.594   6.630   4.204 -1.9125  0.6366 -0.9972
 6885TIP3    H220601   4.656   6.494   4.178  1.6268  1.6872  1.2374
 6886TIP3   OH220602   1.749   0.369   6.310 -0.0406 -0.5053 -0.4186
 6886TIP3    H120603   1.700   0.368   6.228 -0.0795 -2.3545 -0.4118
 6886TIP3    H220604   1.685   0.345   6.377  0.1994  0.0910  0.0409
 6887TIP3   OH220605   1.614   0.488   3.425  0.6491 -0.1697  0.8370
 6887TIP3    H120606   1.662   0.563   3.459  2.7683 -0.5957 -0.9074
 6887TIP3    H220607   1.547   0.470   3.490  1.9562  1.4065  2.7435
 6888TIP3   OH220608   4.146   6.343   6.578 -0.5149 -0.0442 -0.3487
 6888TIP3    H120609   4.061   6.364   6.540  0.0841  1.2047 -1.0648
 6888TIP3    H220610   4.191   6.427   6.586  1.1991 -0.8049 -1.3269
 6889TIP3   OH220611   2.724   3.460   0.399 -0.5152 -0.4263 -0.1293
 6889TIP3    H120612   2.685   3.398   0.461 -2.2111 -2.1452 -2.6867
 6889TIP3    H220613   2.777   3.405   0.341 -0.2569  0.8410 -1.1441
 6890TIP3   OH220614   6.498   3.883   4.464  0.7227 -0.1576  0.1086
 6890TIP3    H120615   6.578   3.931   4.443 -0.1148  1.2836  0.0917
 6890TIP3    H220616   6.511   3.852   4.554  0.8301  1.1324  0.5624
 6891TIP3   OH220617   5.922   1.808   0.076 -0.8029 -0.2649  0.1716
 6891TIP3    H120618   6.014   1.806   0.102 -1.2814  0.9682  2.2704
 6891TIP3    H220619   5.909   1.729   0.025  1.2162 -0.9273  0.5932
 6892TIP3   OH220620   0.020   4.687   2.990 -0.3082  0.6625  0.0979
 6892TIP3    H120621  -0.026   4.743   3.054 -0.4205  1.8220 -0.9488
 6892TIP3    H220622   0.012   4.599   3.026 -0.3916  1.2663  1.6668
 6893TIP3   OH220623   4.034   3.271   6.105 -0.0535 -0.5628  0.2318
 6893TIP3    H120624   4.120   3.243   6.075 -0.2312 -2.4528  1.3244
 6893TIP3    H220625   4.039   3.266   6.200 -0.6357  1.7170  0.4404
 6894TIP3   OH220626   1.181   3.250   2.134 -0.0847 -0.1325 -0.0464
 6894TIP3    H120627   1.253   3.311   2.117 -1.5529  1.5554 -0.4943
 6894TIP3    H220628   1.114   3.273   2.069 -1.6917 -0.5332  1.3925
 6895TIP3   OH220629   7.291   5.323   6.620  0.3959 -0.0039 -0.1593
 6895TIP3    H120630   7.204   5.329   6.582  0.2947 -1.6985 -0.2597
 6895TIP3    H220631   7.311   5.229   6.621  1.0575  0.0640  2.4286
 6896TIP3   OH220632   0.162   4.451   4.051 -0.4532 -0.0363 -0.6402
 6896TIP3    H120633   0.111   4.406   4.118  0.6498 -1.0451 -0.4300
 6896TIP3    H220634   0.246   4.404   4.049  0.1066  0.9404 -1.6506
 6897TIP3   OH220635   8.260   0.888   4.288  0.4414  0.0260 -0.2676
 6897TIP3    H120636   8.235   0.967   4.337  2.6992  0.6767 -0.0454
 6897TIP3    H220637   8.205   0.819   4.325 -0.1455  1.1029  0.9861
 6898TIP3   OH220638   8.119   5.843   2.306  0.5702  0.2925  0.2183
 6898TIP3    H120639   8.024   5.850   2.315  0.4301 -0.1945 -0.7758
 6898TIP3    H220640   8.148   5.812   2.392 -0.1018  0.9662  0.7064
 6899TIP3   OH220641   4.344   7.455   1.866  0.0913 -0.5850 -0.2687
 6899TIP3    H120642   4.291   7.377   1.886  0.0843 -0.3549  0.6475
 6899TIP3    H220643   4.284   7.528   1.878  0.9259 -0.2115  2.1850
 6900TIP3   OH220644   1.241   3.281   3.926  0.2190  0.2640  0.1969
 6900TIP3    H120645   1.198   3.342   3.866 -1.3352  0.4091  1.3938
 6900TIP3    H220646   1.173   3.218   3.950  0.8947 -0.0286  1.4840
 6901TIP3   OH220647   5.317   3.133   1.731  0.2331  0.0884  0.1366
 6901TIP3    H120648   5.256   3.060   1.737  0.7928 -0.4500 -0.5318
 6901TIP3    H220649   5.262   3.211   1.739 -0.4680 -0.3972  0.1040
 6902TIP3   OH220650   2.569   3.346   0.604  0.3308  0.4735  0.3409
 6902TIP3    H120651   2.638   3.291   0.641  0.4067 -0.4393 -1.0688
 6902TIP3    H220652   2.496   3.286   0.589  1.0111  0.2206 -2.8853
 6903TIP3   OH220653   2.277   2.480   2.867  0.4658  0.4443 -0.0313
 6903TIP3    H120654   2.329   2.417   2.917  0.9155  1.1945  0.4752
 6903TIP3    H220655   2.279   2.448   2.777 -0.0415 -0.7273  0.3622
 6904TIP3   OH220656   0.623   7.685   4.744 -0.4498  1.2005 -0.2358
 6904TIP3    H120657   0.554   7.683   4.678 -0.9722  1.9205  0.2783
 6904TIP3    H220658   0.597   7.754   4.804  0.7407  1.5037 -0.0515
 6905TIP3   OH220659   5.912   6.660   3.061  0.4050 -0.1136 -0.5269
 6905TIP3    H120660   5.935   6.707   2.981  1.2521 -0.1202 -0.2972
 6905TIP3    H220661   5.881   6.727   3.121 -0.4041 -0.1310 -0.9121
 6906TIP3   OH220662   3.039   0.879   6.203 -0.6151 -0.3574  0.1200
 6906TIP3    H120663   3.055   0.963   6.161 -2.0405  0.3737  0.9534
 6906TIP3    H220664   3.013   0.821   6.132 -1.1548  0.3394 -0.2630
 6907TIP3   OH220665   2.012   4.810   0.264 -0.2008  0.1128 -0.2581
 6907TIP3    H120666   1.963   4.868   0.206  0.6750  1.5761  0.4039
 6907TIP3    H220667   1.954   4.796   0.339 -0.6778 -0.4227 -0.7228
 6908TIP3   OH220668   5.314   6.085   1.564 -0.5356 -0.1354  0.5565
 6908TIP3    H120669   5.221   6.099   1.547 -0.1963  0.7523 -0.7547
 6908TIP3    H220670   5.317   6.049   1.653 -2.0853  0.3918  0.8609
 6909TIP3   OH220671   1.267   2.437   4.629  0.6097  0.0233  0.5019
 6909TIP3    H120672   1.236   2.377   4.561  0.4438  1.0037 -0.3064
 6909TIP3    H220673   1.196   2.500   4.640  1.1897  0.6646  0.6236
 6910TIP3   OH220674   5.239   3.443   0.513  0.2750  0.2776 -0.5324
 6910TIP3    H120675   5.286   3.396   0.582 -0.6566 -1.3321 -0.9680
 6910TIP3    H220676   5.184   3.506   0.560  1.4135  0.8605  0.0588
 6911TIP3   OH220677   6.537   0.062   6.719  0.2858  0.2362  0.4133
 6911TIP3    H120678   6.542   0.080   6.626  0.1630 -0.6705  0.2257
 6911TIP3    H220679   6.444   0.059   6.739  0.2827 -0.7318  0.3185
 6912TIP3   OH220680   5.104   6.483   4.973  0.6376  0.0162  0.1370
 6912TIP3    H120681   5.192   6.462   4.942  0.6891 -0.5887  0.6763
 6912TIP3    H220682   5.110   6.473   5.068 -0.6972 -2.6891  0.0279
 6913TIP3   OH220683   2.228   5.313   3.151  0.2600 -0.1863 -0.2065
 6913TIP3    H120684   2.194   5.227   3.127  1.0684 -0.3108 -0.9797
 6913TIP3    H220685   2.192   5.372   3.085  2.8725 -0.6045 -2.1815
 6914TIP3   OH220686   3.613   6.355   1.411 -0.0656 -0.2424  0.2665
 6914TIP3    H120687   3.619   6.423   1.345  0.9791 -0.9695 -0.4274
 6914TIP3    H220688   3.519   6.339   1.421 -0.2817  0.7410 -0.1311
 6915TIP3   OH220689   6.200   2.910   0.528 -0.0738 -0.3438  0.0741
 6915TIP3    H120690   6.149   2.835   0.558 -0.7427  0.5252  1.1752
 6915TIP3    H220691   6.152   2.986   0.559  0.3353  0.5754 -1.4401
 6916TIP3   OH220692   4.079   2.809   1.162  0.3356  0.1717  0.2185
 6916TIP3    H120693   4.095   2.868   1.089 -0.4705 -0.7119 -0.7138
 6916TIP3    H220694   4.163   2.801   1.206  0.9900  0.2534 -0.9824
 6917TIP3   OH220695   0.714   7.661   2.716 -0.6149  0.0538 -0.1510
 6917TIP3    H120696   0.665   7.601   2.772 -2.2061 -0.5886 -2.0889
 6917TIP3    H220697   0.749   7.605   2.646  0.1653  0.9976 -0.5411
 6918TIP3   OH220698   5.131   2.896   3.211 -0.1833  0.2697 -0.0353
 6918TIP3    H120699   5.178   2.813   3.198 -0.2925  0.2721 -0.4643
 6918TIP3    H220700   5.175   2.937   3.285 -0.9250 -0.7599  1.0195
 6919TIP3   OH220701   6.368   1.132   4.222  0.1804  0.6990 -0.4970
 6919TIP3    H120702   6.324   1.089   4.148 -0.4228 -0.4118  0.4756
 6919TIP3    H220703   6.331   1.091   4.299 -0.2659  2.8494  0.5107
 6920TIP3   OH220704   2.639   0.799   5.909 -0.7308  0.4017 -0.1573
 6920TIP3    H120705   2.699   0.841   5.971 -3.3144  1.0192  2.1265
 6920TIP3    H220706   2.581   0.870   5.881 -2.8832 -0.8222  0.9236
 6921TIP3   OH220707   1.931   7.647   0.182 -0.5352 -0.0198 -0.3365
 6921TIP3    H120708   1.873   7.707   0.136  0.1842  0.6954 -0.3139
 6921TIP3    H220709   1.871   7.584   0.223 -1.4109  1.5641  0.9261
 6922TIP3   OH220710   7.123   1.784   0.710 -0.0564  0.6715 -0.0874
 6922TIP3    H120711   7.081   1.865   0.740  0.4785  1.4102 -1.2418
 6922TIP3    H220712   7.186   1.762   0.779 -0.8075  0.7595  0.6320
 6923TIP3   OH220713   4.251   7.379   6.569 -0.2076  0.1849 -0.3050
 6923TIP3    H120714   4.173   7.365   6.622 -0.1613  0.6656 -0.1035
 6923TIP3    H220715   4.223   7.360   6.479 -0.4902  0.1185 -0.2033
 6924TIP3   OH220716   5.011   0.457   3.980 -0.1506  0.1869 -0.1149
 6924TIP3    H120717   4.983   0.365   3.977 -0.6638  0.2928  1.1411
 6924TIP3    H220718   5.106   0.452   3.989 -0.1848 -0.2302  0.0477
 6925TIP3   OH220719   1.139   3.325   5.381  0.6454  0.4880  0.1278
 6925TIP3    H120720   1.196   3.314   5.457  1.3277  0.4748 -0.3741
 6925TIP3    H220721   1.123   3.419   5.376 -0.7967  0.3280  1.2735
 6926TIP3   OH220722   3.790   7.634   6.454 -0.1778 -0.1374  0.0351
 6926TIP3    H120723   3.785   7.548   6.412  1.7155  0.6480 -1.9928
 6926TIP3    H220724   3.706   7.676   6.434 -0.8148 -1.1927  0.4055
 6927TIP3   OH220725   4.028   0.717   3.708  0.3139 -0.0722  0.0637
 6927TIP3    H120726   4.055   0.635   3.666  1.4093  0.2963  0.0245
 6927TIP3    H220727   4.021   0.780   3.636 -1.7574 -0.3994 -0.0854
 6928TIP3   OH220728   7.944   1.121   3.901  0.4963  0.3855 -0.2437
 6928TIP3    H120729   7.870   1.079   3.945 -0.3495  1.3107 -0.7405
 6928TIP3    H220730   7.911   1.142   3.814  1.8173 -0.4905 -0.9898
 6929TIP3   OH220731   5.408   1.669   1.919 -0.2124 -0.1011 -0.0279
 6929TIP3    H120732   5.332   1.726   1.932 -1.2468 -1.1220 -1.3691
 6929TIP3    H220733   5.380   1.584   1.953 -0.0120 -0.7133 -1.3561
 6930TIP3   OH220734   4.801   0.129   1.048  0.3135  0.1648  0.9323
 6930TIP3    H120735   4.713   0.097   1.030  0.2021  1.1242 -0.3846
 6930TIP3    H220736   4.791   0.224   1.059  1.3193  0.4428 -0.3572
 6931TIP3   OH220737   7.451   4.151   1.163 -0.3102  0.1937  0.0343
 6931TIP3    H120738   7.420   4.230   1.120  1.3237  1.0348  0.3179
 6931TIP3    H220739   7.387   4.135   1.233 -0.7191  1.1828 -0.1016
 6932TIP3   OH220740   0.994   4.760   2.085 -0.0338  0.1175  0.0642
 6932TIP3    H120741   0.949   4.751   2.001  1.0936  1.9241 -0.7945
 6932TIP3    H220742   0.959   4.689   2.139 -2.1438  0.0233 -1.3147
 6933TIP3   OH220743   2.598   6.250   4.446 -0.3256  0.7679 -0.7954
 6933TIP3    H120744   2.669   6.211   4.396  0.9661  1.1896  0.6182
 6933TIP3    H220745   2.641   6.289   4.522 -2.0066  1.6168 -0.2264
 6934TIP3   OH220746   5.494   3.698   5.212 -0.0226  0.0310  0.6839
 6934TIP3    H120747   5.425   3.632   5.216 -0.2967  0.2341 -0.2985
 6934TIP3    H220748   5.466   3.757   5.142  1.8568 -0.6907 -0.7557
 6935TIP3   OH220749   0.343   1.230   2.521  0.0290  0.0265 -0.0218
 6935TIP3    H120750   0.280   1.194   2.459  0.2619 -0.0006 -0.2436
 6935TIP3    H220751   0.363   1.317   2.488  0.5822 -0.1966 -0.3100
 6936TIP3   OH220752   4.293   0.697   3.533 -0.3032 -0.0314 -0.3600
 6936TIP3    H120753   4.297   0.777   3.584  0.3231 -1.0499  1.2704
 6936TIP3    H220754   4.350   0.713   3.458  1.7544  0.2367  1.1804
 6937TIP3   OH220755   1.591   3.717   3.919 -0.1801 -0.3626 -0.3828
 6937TIP3    H120756   1.512   3.772   3.924 -1.6456 -2.4486  1.1513
 6937TIP3    H220757   1.659   3.769   3.960 -0.8910  1.2322 -1.1375
 6938TIP3   OH220758   4.853   1.746   4.396  0.3661  0.3675  0.1096
 6938TIP3    H120759   4.794   1.704   4.333  0.1576 -1.7818  1.6599
 6938TIP3    H220760   4.800   1.757   4.475  1.3529  0.6277  0.7517
 6939TIP3   OH220761   3.324   6.938   5.661 -0.4379  0.1332 -0.1700
 6939TIP3    H120762   3.335   6.981   5.746  0.5197 -1.7120  0.7134
 6939TIP3    H220763   3.402   6.961   5.611 -0.1877 -0.1227  0.0984
 6940TIP3   OH220764   1.882   5.879   5.909 -0.1894  0.2083 -0.1658
 6940TIP3    H120765   1.879   5.866   5.814  1.9287  0.7016 -0.3491
 6940TIP3    H220766   1.913   5.969   5.920  0.5393 -0.1565  0.9768
 6941TIP3   OH220767   7.919   5.802   1.600 -0.1035  0.2440  0.3297
 6941TIP3    H120768   7.976   5.877   1.582 -0.4874  0.6303  0.7177
 6941TIP3    H220769   7.968   5.726   1.565  1.0584  0.4415  1.4500
 6942TIP3   OH220770   2.790   5.742   2.231 -0.5399  0.0602  0.5222
 6942TIP3    H120771   2.702   5.704   2.235 -0.2300 -0.6966  0.3956
 6942TIP3    H220772   2.816   5.730   2.140 -0.6524  1.0996  0.3476
 6943TIP3   OH220773   8.157   4.292   2.542 -0.0125  0.1363 -0.1706
 6943TIP3    H120774   8.143   4.291   2.637 -0.3822 -0.2402 -0.2262
 6943TIP3    H220775   8.069   4.293   2.505  0.1096 -0.8607 -0.5142
 6944TIP3   OH220776   2.150   0.366   3.522  0.2952 -0.1176  0.5851
 6944TIP3    H120777   2.109   0.311   3.455  0.8139 -1.4605  1.3422
 6944TIP3    H220778   2.078   0.416   3.559 -0.1264  0.0405 -0.4044
 6945TIP3   OH220779   1.700   5.928   1.025 -0.0066 -0.4199 -0.2045
 6945TIP3    H120780   1.760   5.920   0.951 -0.1275 -0.6997 -0.2725
 6945TIP3    H220781   1.657   5.843   1.031 -0.1598 -0.3267  0.0489
 6946TIP3   OH220782   6.854   6.537   4.121 -0.5467 -0.1960  0.1005
 6946TIP3    H120783   6.833   6.624   4.155 -4.0913 -1.7766  2.6629
 6946TIP3    H220784   6.795   6.525   4.047 -1.2421 -0.9232  0.7497
 6947TIP3   OH220785   0.400   6.405   3.704  0.2289 -0.3221  0.1560
 6947TIP3    H120786   0.387   6.357   3.786  0.3712 -0.3489  0.1646
 6947TIP3    H220787   0.454   6.346   3.651 -0.9804 -0.8904 -0.4884
 6948TIP3   OH220788   8.129   6.003   4.341 -0.4780 -0.2454  0.0352
 6948TIP3    H120789   8.181   5.990   4.262  0.7165 -1.6911  1.0099
 6948TIP3    H220790   8.191   5.994   4.413 -1.5624  0.8888  1.1638
 6949TIP3   OH220791   6.566   3.423   0.667  0.7651  0.1809 -0.2119
 6949TIP3    H120792   6.649   3.457   0.701  1.4660 -0.4629 -1.2120
 6949TIP3    H220793   6.560   3.334   0.703  0.2985  0.3789  0.2002
 6950TIP3   OH220794   3.778   3.303   3.997 -0.3554  0.3665  0.6335
 6950TIP3    H120795   3.848   3.335   4.054 -1.9514  1.5866  2.0092
 6950TIP3    H220796   3.821   3.290   3.912  1.5051  1.1963  1.3813
 6951TIP3   OH220797   2.768   2.368   3.633  0.1084 -0.2610 -0.0560
 6951TIP3    H120798   2.847   2.355   3.581 -0.2241 -0.1729 -0.5885
 6951TIP3    H220799   2.697   2.364   3.570 -0.2964 -0.0937  0.3855
 6952TIP3   OH220800   2.527   1.820   5.699  0.1493 -0.0615 -0.2313
 6952TIP3    H120801   2.605   1.776   5.733  0.8866  0.1492 -1.5896
 6952TIP3    H220802   2.536   1.911   5.728  1.5903  0.4973 -2.1986
 6953TIP3   OH220803   2.934   4.510   1.908  0.2816  0.0658 -0.1040
 6953TIP3    H120804   2.871   4.528   1.977 -0.4087 -1.1333 -0.3872
 6953TIP3    H220805   3.019   4.512   1.951 -0.0485  0.4736  0.5390
 6954TIP3   OH220806   1.688   7.239   6.642 -0.0849 -0.8308 -0.4907
 6954TIP3    H120807   1.690   7.165   6.702 -0.5667  0.1187  0.7515
 6954TIP3    H220808   1.597   7.247   6.615  0.1319 -1.2602 -1.3792
 6955TIP3   OH220809   6.487   1.712   3.128  0.0069  0.9087 -0.1186
 6955TIP3    H120810   6.401   1.675   3.150  0.0054  0.5806 -0.6549
 6955TIP3    H220811   6.538   1.704   3.208 -0.2808  0.5525  0.0333
 6956TIP3   OH220812   1.111   2.441   6.268  0.6469  0.4513 -0.0308
 6956TIP3    H120813   1.057   2.408   6.340  0.9983  2.4134  1.2164
 6956TIP3    H220814   1.198   2.452   6.307  0.9315  1.2209 -0.8575
 6957TIP3   OH220815   3.219   3.277   5.484 -0.2191 -0.3347 -0.0586
 6957TIP3    H120816   3.308   3.258   5.452 -0.3451 -0.7307 -0.1820
 6957TIP3    H220817   3.194   3.358   5.440  0.4964  0.3768  0.7976
 6958TIP3   OH220818   7.067   6.332   0.508 -1.0317 -0.9043  0.0880
 6958TIP3    H120819   7.071   6.345   0.413  0.1256  0.2531  0.2682
 6958TIP3    H220820   6.994   6.387   0.537 -0.4349 -0.0707  0.0359
 6959TIP3   OH220821   4.124   1.772   2.200 -0.2815 -0.0404  0.4183
 6959TIP3    H120822   4.050   1.801   2.254 -1.2601 -2.3234  0.4187
 6959TIP3    H220823   4.130   1.838   2.131 -1.4429  0.9040  1.1684
 6960TIP3   OH220824   2.372   5.059   4.030  0.2169  0.0497 -0.3580
 6960TIP3    H120825   2.431   5.122   4.069 -2.0528  2.5637 -0.6803
 6960TIP3    H220826   2.405   5.047   3.941 -0.3496  2.3603 -0.9379
 6961TIP3   OH220827   4.040   7.318   0.436  0.0807 -0.3153  0.1357
 6961TIP3    H120828   4.082   7.275   0.362 -0.1472 -0.6406  0.1938
 6961TIP3    H220829   4.068   7.409   0.430 -0.2446 -0.2548 -0.5804
 6962TIP3   OH220830   4.027   7.246   4.869  0.4151 -0.2721 -0.6620
 6962TIP3    H120831   4.024   7.340   4.883 -1.8453 -0.3450 -0.2712
 6962TIP3    H220832   4.077   7.212   4.944  0.1350  0.5116 -0.1081
 6963TIP3   OH220833   6.712   4.893   3.508 -0.6277 -0.6316 -0.0008
 6963TIP3    H120834   6.725   4.959   3.440 -2.5142 -0.5690 -0.3755
 6963TIP3    H220835   6.752   4.931   3.587  3.6858 -1.6755 -1.4136
 6964TIP3   OH220836   5.529   4.899   2.024 -0.4712  0.4625  0.5019
 6964TIP3    H120837   5.443   4.873   2.056 -0.4769  0.7938  0.7632
 6964TIP3    H220838   5.574   4.817   2.005 -0.3298  0.2387  1.7223
 6965TIP3   OH220839   0.089   2.742   6.124  0.1512  0.2070  0.8575
 6965TIP3    H120840   0.109   2.803   6.195 -1.6241  3.3032 -1.1015
 6965TIP3    H220841   0.001   2.711   6.143 -0.8193  1.9780 -0.4802
 6966TIP3   OH220842   7.911   4.018   2.380 -0.4997 -0.1086 -0.5006
 6966TIP3    H120843   7.938   4.028   2.471 -1.0479 -0.3727 -0.3008
 6966TIP3    H220844   7.898   4.107   2.348 -3.0038 -0.0175  0.5324
 6967TIP3   OH220845   5.760   5.158   6.255  0.1308 -0.4136 -0.3527
 6967TIP3    H120846   5.717   5.088   6.305 -0.7035 -1.2333 -2.0775
 6967TIP3    H220847   5.851   5.155   6.282 -0.1771 -1.2087  0.6640
 6968TIP3   OH220848   3.375   3.950   3.057 -0.1579  0.3203 -0.2125
 6968TIP3    H120849   3.405   3.888   2.990  0.0167 -1.0871  1.1211
 6968TIP3    H220850   3.447   3.955   3.120 -0.3679  1.5283 -0.0365
 6969TIP3   OH220851   1.754   0.214   1.505 -0.1441 -0.2179  0.2374
 6969TIP3    H120852   1.685   0.177   1.451 -1.4980  2.4663 -0.0804
 6969TIP3    H220853   1.834   0.206   1.453 -0.7463 -0.8418 -0.6026
 6970TIP3   OH220854   4.316   2.976   6.559 -0.3913  0.2532 -0.6609
 6970TIP3    H120855   4.373   2.908   6.595 -0.8425  0.2941  0.1387
 6970TIP3    H220856   4.277   2.935   6.481 -0.7572 -0.4527 -0.1174
 6971TIP3   OH220857   5.666   6.057   4.648  0.2211 -0.3291  0.1169
 6971TIP3    H120858   5.629   5.993   4.709  1.3401 -2.7974 -1.6038
 6971TIP3    H220859   5.652   6.142   4.690 -3.0045 -1.4831  1.7099
 6972TIP3   OH220860   1.125   0.877   0.569  0.9599  0.2149 -0.5423
 6972TIP3    H120861   1.030   0.886   0.580  1.0382  1.1262 -0.5555
 6972TIP3    H220862   1.161   0.895   0.655  1.1796  0.9632 -0.7807
 6973TIP3   OH220863   0.857   4.802   5.334 -0.6375  0.2122  0.1973
 6973TIP3    H120864   0.933   4.816   5.389 -0.3166 -0.8381  0.0536
 6973TIP3    H220865   0.808   4.733   5.378 -0.6992 -0.1957 -0.4882
 6974TIP3   OH220866   1.439   1.047   2.548 -0.3457 -0.0986  0.1422
 6974TIP3    H120867   1.440   1.002   2.463  1.1725  0.2684 -0.0537
 6974TIP3    H220868   1.379   1.120   2.536 -1.1004 -0.7581 -0.2200
 6975TIP3   OH220869   6.332   3.155   3.805 -0.2589 -0.3298  1.1651
 6975TIP3    H120870   6.419   3.189   3.781 -0.9135  1.1058  0.6743
 6975TIP3    H220871   6.325   3.072   3.758  1.3533 -1.1373  2.2755
 6976TIP3   OH220872   3.705   7.017   1.560 -0.1391  0.1422  0.0071
 6976TIP3    H120873   3.734   6.936   1.604  0.3270  0.7177  0.7914
 6976TIP3    H220874   3.620   7.036   1.598 -0.1646  0.1172 -0.0379
 6977TIP3   OH220875   7.612   0.501   2.325 -0.5022 -0.4229 -0.0639
 6977TIP3    H120876   7.645   0.443   2.256 -1.7952 -0.9548 -0.2646
 6977TIP3    H220877   7.682   0.504   2.390  0.8345  0.2442 -1.4754
 6978TIP3   OH220878   4.910   4.876   4.671 -1.1602  0.0037  0.4719
 6978TIP3    H120879   4.821   4.846   4.654 -0.9260 -1.3279  1.4126
 6978TIP3    H220880   4.906   4.916   4.758 -1.2295  1.7880 -0.3143
 6979TIP3   OH220881   3.895   1.438   0.515 -0.1766 -0.2869  0.3893
 6979TIP3    H120882   3.980   1.476   0.495  0.7288 -1.7707  1.2818
 6979TIP3    H220883   3.912   1.375   0.584 -2.0737 -0.3474  0.8693
 6980TIP3   OH220884   7.070   0.020   4.957  0.0929  0.0919 -0.2469
 6980TIP3    H120885   6.988   0.067   4.969 -0.8933 -1.3446 -1.1204
 6980TIP3    H220886   7.077   0.008   4.862 -0.7845 -3.3087  0.0051
 6981TIP3   OH220887   5.467   4.090   1.684  0.3965 -0.1899  0.4485
 6981TIP3    H120888   5.415   4.167   1.706 -0.0353  0.2205 -1.7959
 6981TIP3    H220889   5.479   4.095   1.590  0.2007 -2.9702  0.1947
 6982TIP3   OH220890   2.826   5.181   4.879 -0.4527 -0.2278 -0.1492
 6982TIP3    H120891   2.892   5.243   4.847  0.4128 -1.1048 -0.1383
 6982TIP3    H220892   2.850   5.167   4.971  0.9469 -2.4434 -0.7632
 6983TIP3   OH220893   2.705   0.023   0.016  0.2826  0.1926 -0.3688
 6983TIP3    H120894   2.657  -0.005   0.094  1.8238 -1.1095  0.1502
 6983TIP3    H220895   2.751   0.103   0.043  2.5999 -1.4415  0.8468
 6984TIP3   OH220896   6.466   3.867   0.340  0.1315  0.1266 -0.1855
 6984TIP3    H120897   6.519   3.800   0.384  2.0984  1.3459 -0.5803
 6984TIP3    H220898   6.426   3.821   0.266 -0.7795 -1.2265  1.0920
 6985TIP3   OH220899   4.356   1.417   3.840 -0.0116  0.3354  0.0777
 6985TIP3    H120900   4.441   1.415   3.885  0.4693 -0.7304 -0.8470
 6985TIP3    H220901   4.374   1.460   3.756 -0.9292  2.4269  0.8687
 6986TIP3   OH220902   3.996   1.865   3.213 -0.2816  0.1265 -0.0834
 6986TIP3    H120903   3.959   1.787   3.172  1.1413 -0.3650 -0.4933
 6986TIP3    H220904   3.996   1.931   3.144 -0.5851  0.2058 -0.0119
 6987TIP3   OH220905   5.589   6.747   0.867 -0.2339 -0.9709  0.0557
 6987TIP3    H120906   5.542   6.665   0.853  0.6728 -1.6881  1.0596
 6987TIP3    H220907   5.637   6.734   0.949 -0.1358  0.5968  0.2876
 6988TIP3   OH220908   5.837   3.618   0.043  0.1623  0.2887  0.1641
 6988TIP3    H120909   5.763   3.619   0.103  0.5306 -2.2948  0.7863
 6988TIP3    H220910   5.808   3.563  -0.030  1.0929  0.1183 -0.0902
 6989TIP3   OH220911   6.570   5.509   4.156 -0.0550 -0.0930  0.3166
 6989TIP3    H120912   6.551   5.428   4.108  0.4023 -0.3294  0.5238
 6989TIP3    H220913   6.599   5.479   4.242  3.2196  0.0974 -0.5944
 6990TIP3   OH220914   0.546   2.616   2.867 -0.1004  0.3885 -0.3701
 6990TIP3    H120915   0.576   2.691   2.919 -0.4718  0.6320 -0.5028
 6990TIP3    H220916   0.626   2.568   2.846  0.2391  1.1798 -0.9525
 6991TIP3   OH220917   7.790   0.126   0.916  0.6801 -0.2456 -0.1655
 6991TIP3    H120918   7.840   0.066   0.972  0.4600 -0.1807  0.0996
 6991TIP3    H220919   7.715   0.074   0.888  0.7676 -0.2640 -0.3702
 6992TIP3   OH220920   3.006   7.047   5.032 -0.9302 -0.5103  0.0640
 6992TIP3    H120921   2.933   7.058   5.093  1.2698 -0.2557  2.8623
 6992TIP3    H220922   3.014   6.952   5.022 -0.2787 -0.6487  1.6228
 6993TIP3   OH220923   6.227   3.684   3.744  0.8764 -0.3646 -0.4053
 6993TIP3    H120924   6.216   3.673   3.649  2.4154  1.4277 -0.8345
 6993TIP3    H220925   6.286   3.759   3.753  0.5546 -0.3396  1.9935
 6994TIP3   OH220926   4.414   5.905   4.891  0.3130 -0.6098 -0.0866
 6994TIP3    H120927   4.335   5.943   4.854 -0.0400  0.1718  1.3791
 6994TIP3    H220928   4.484   5.966   4.867  0.1303 -0.2472  0.2942
 6995TIP3   OH220929   7.533   0.398   3.006  0.1230  0.2816 -0.6794
 6995TIP3    H120930   7.587   0.452   2.948  0.9554  0.7473  0.4759
 6995TIP3    H220931   7.522   0.452   3.085  1.1832 -1.2871  0.6109
 6996TIP3   OH220932   6.572   1.298   2.734  0.1414  0.5127 -0.2817
 6996TIP3    H120933   6.586   1.331   2.823  0.2847 -0.2853  0.0006
 6996TIP3    H220934   6.480   1.273   2.732  0.5989 -1.3650  0.3119
 6997TIP3   OH220935   3.271   0.856   4.120 -0.8471 -0.0469  0.4056
 6997TIP3    H120936   3.218   0.816   4.189 -0.5897 -0.3742  0.4137
 6997TIP3    H220937   3.290   0.944   4.153 -2.1733  0.4174 -0.0047
 6998TIP3   OH220938   7.546   3.250   1.201  0.5713 -0.2571 -0.3091
 6998TIP3    H120939   7.580   3.215   1.119  0.4540 -0.2717 -0.3524
 6998TIP3    H220940   7.567   3.343   1.199  0.9932 -0.3480 -0.1382
 6999TIP3   OH220941   4.017   5.072   2.349 -0.4816  0.1939 -0.1740
 6999TIP3    H120942   4.056   5.148   2.392  1.6131 -0.6777 -0.4006
 6999TIP3    H220943   3.966   5.109   2.277 -0.2066  1.4384  0.2458
 7000TIP3   OH220944   6.739   3.195   3.587  0.4504 -0.2587 -0.4390
 7000TIP3    H120945   6.670   3.239   3.636  1.0629 -0.1068  0.2869
 7000TIP3    H220946   6.695   3.166   3.506 -0.6331 -0.7346  0.2889
 7001TIP3   OH220947   1.344   7.346   1.244  0.1950 -0.0807  0.1029
 7001TIP3    H120948   1.268   7.323   1.296  0.8368 -0.9539  0.6907
 7001TIP3    H220949   1.325   7.313   1.156  0.1625 -0.9002  0.4075
 7002TIP3   OH220950   7.944   4.832   3.099  0.2705  0.1929  0.0829
 7002TIP3    H120951   7.908   4.850   3.012 -0.7545 -1.4146  0.1351
 7002TIP3    H220952   7.883   4.874   3.159  0.3802  0.3690  0.0738
 7003TIP3   OH220953   2.475   4.925   0.754 -0.1894  0.0308 -0.1020
 7003TIP3    H120954   2.492   4.860   0.822 -1.0765 -0.2950 -0.1795
 7003TIP3    H220955   2.527   4.895   0.679 -0.3058 -0.3942 -0.0176
 7004TIP3   OH220956   0.347   3.722   6.625  0.4465 -0.3381 -0.1763
 7004TIP3    H120957   0.390   3.735   6.709  2.2924 -0.0738 -1.0917
 7004TIP3    H220958   0.303   3.637   6.633  1.0771 -0.5847  0.8707
 7005TIP3   OH220959   4.468   2.361   2.685  0.0006  0.3012  0.2709
 7005TIP3    H120960   4.391   2.305   2.696 -0.2119  0.0638 -2.0381
 7005TIP3    H220961   4.539   2.301   2.664 -0.6378  0.8026 -4.3097
 7006TIP3   OH220962   3.020   7.556   4.166  0.1379 -0.2635  0.3207
 7006TIP3    H120963   2.968   7.577   4.244 -0.4740  0.6981 -0.3239
 7006TIP3    H220964   2.962   7.501   4.113  0.9088 -1.7573  0.9574
 7007TIP3   OH220965   5.897   4.901   0.337 -0.3235  0.5155  0.2251
 7007TIP3    H120966   5.872   4.890   0.245  0.4253  0.1559  0.0540
 7007TIP3    H220967   5.842   4.973   0.369  0.4525  1.6494 -0.9119
 7008TIP3   OH220968   7.869   1.744   2.694  0.3844 -0.1692  0.0229
 7008TIP3    H120969   7.819   1.825   2.706  0.4211 -0.1145 -0.1973
 7008TIP3    H220970   7.804   1.678   2.672  0.5694  0.2467 -1.9274
 7009TIP3   OH220971   7.921   5.154   2.277  0.0502  0.3709  0.2275
 7009TIP3    H120972   7.960   5.096   2.343 -1.2131 -1.4786 -0.5754
 7009TIP3    H220973   7.835   5.117   2.260 -0.5763  2.1759 -0.7753
 7010TIP3   OH220974   3.627   6.356   3.944 -0.0760 -0.6670 -0.6714
 7010TIP3    H120975   3.618   6.388   3.854 -3.0075 -0.6471 -0.4830
 7010TIP3    H220976   3.671   6.426   3.991  0.4628 -0.1883 -1.8524
 7011TIP3   OH220977   2.318   6.488   1.660 -0.4304 -0.0894 -0.6461
 7011TIP3    H120978   2.333   6.426   1.588 -1.5997 -0.8477 -0.2679
 7011TIP3    H220979   2.330   6.436   1.739  0.1859  0.5817 -0.2898
 7012TIP3   OH220980   5.097   5.009   6.027 -0.3865  0.6331 -0.0169
 7012TIP3    H120981   5.128   5.097   6.007 -0.1921  0.7539  0.7652
 7012TIP3    H220982   5.103   4.962   5.944 -3.7211  2.2318 -1.3571
 7013TIP3   OH220983   2.772   2.694   1.303 -0.1766 -0.2254  0.8346
 7013TIP3    H120984   2.804   2.630   1.367  0.3493  0.6027  1.4167
 7013TIP3    H220985   2.845   2.755   1.293  0.5159 -1.3424 -1.9786
 7014TIP3   OH220986   4.064   3.701   0.569  0.0067  0.9335 -0.2294
 7014TIP3    H120987   4.049   3.618   0.614 -0.6869  1.2199  0.0768
 7014TIP3    H220988   4.157   3.719   0.582 -0.3226  1.3893  1.7506
 7015TIP3   OH220989   4.300   0.367   3.095  0.2443  0.4569 -0.2683
 7015TIP3    H120990   4.361   0.295   3.111 -0.6146  0.1337  1.8954
 7015TIP3    H220991   4.214   0.330   3.112 -0.1262  2.2904  2.4945
 7016TIP3   OH220992   6.084   3.997   5.830  0.3505  0.0588  0.0210
 7016TIP3    H120993   6.135   3.951   5.897 -1.4454  0.5332  1.8300
 7016TIP3    H220994   5.996   3.961   5.839 -0.4730  1.8400 -0.4313
 7017TIP3   OH220995   7.238   6.067   6.187 -0.4167 -0.2312  0.0330
 7017TIP3    H120996   7.177   6.138   6.169 -0.1012 -0.3918 -1.8204
 7017TIP3    H220997   7.263   6.034   6.101  0.7886 -1.4493  0.8099
 7018TIP3   OH220998   7.589   3.426   3.216  0.3910 -0.4186  0.9339
 7018TIP3    H120999   7.639   3.472   3.283 -0.3050 -0.4512  1.4857
 7018TIP3    H221000   7.499   3.457   3.228  0.5546  1.2787 -1.3877
 7019TIP3   OH221001   1.581   7.380   4.216 -0.3077 -0.3227  0.2817
 7019TIP3    H121002   1.569   7.355   4.124 -3.0982 -1.3417  0.8341
 7019TIP3    H221003   1.675   7.394   4.224  0.1012 -0.6905 -2.6006
 7020TIP3   OH221004   4.639   6.072   4.920  0.8395 -0.0950 -0.1709
 7020TIP3    H121005   4.589   6.078   5.001 -1.0077 -1.1562 -1.1584
 7020TIP3    H221006   4.709   6.009   4.939 -0.5904 -1.6615  0.1582
 7021TIP3   OH221007   0.494   7.750   1.029  0.3463 -0.6302 -0.3192
 7021TIP3    H121008   0.479   7.723   0.938  0.9707  0.9161 -0.9042
 7021TIP3    H221009   0.407   7.772   1.062  0.3611  1.0307 -1.2948
 7022TIP3   OH221010   6.579   1.610   2.873  0.4591 -0.4025  0.4635
 7022TIP3    H121011   6.536   1.657   2.945 -2.3769 -2.6003  0.3747
 7022TIP3    H221012   6.570   1.518   2.897 -2.5821 -1.4071 -3.5796
 7023TIP3   OH221013   6.152   0.888   4.557  0.5228 -0.4083  0.3463
 7023TIP3    H121014   6.113   0.843   4.483 -0.1295  1.3990 -0.4725
 7023TIP3    H221015   6.080   0.939   4.595  0.5693 -2.1083  2.9302
 7024TIP3   OH221016   4.515   1.392   6.591 -0.1028 -0.5871  0.1609
 7024TIP3    H121017   4.469   1.409   6.673  0.1830  1.3573 -0.0354
 7024TIP3    H221018   4.489   1.463   6.533  2.2112 -0.0342 -0.3308
 7025TIP3   OH221019   0.659   0.353   5.020 -0.1618  0.2127 -0.3578
 7025TIP3    H121020   0.607   0.319   4.948 -0.3859 -0.8372  0.2838
 7025TIP3    H221021   0.620   0.439   5.039  0.1755  0.7013 -1.7396
 7026TIP3   OH221022   7.170   6.461   6.500  0.0696  0.2126 -0.0503
 7026TIP3    H121023   7.243   6.523   6.498  0.1072  0.1807  0.2622
 7026TIP3    H221024   7.103   6.501   6.445  0.9332 -0.5355 -1.7129
 7027TIP3   OH221025   3.340   0.259   5.418  0.0195  0.2918 -0.1449
 7027TIP3    H121026   3.334   0.247   5.323  0.2854  1.3385 -0.3017
 7027TIP3    H221027   3.404   0.194   5.447 -0.3736 -0.3168 -0.6107
 7028TIP3   OH221028   3.347   7.729   4.022 -0.9967 -0.1639 -0.4438
 7028TIP3    H121029   3.419   7.779   3.984 -1.4447 -0.1192 -1.2553
 7028TIP3    H221030   3.354   7.745   4.116 -1.1303  1.4502 -0.6798
 7029TIP3   OH221031   6.100   6.333   2.198  0.2530  0.3445  0.5012
 7029TIP3    H121032   6.114   6.239   2.207  0.0559  0.2346 -0.2924
 7029TIP3    H221033   6.174   6.363   2.145  0.1629  0.5925  0.5149
 7030TIP3   OH221034   4.861   2.012   5.433  0.1471  0.0391  0.0906
 7030TIP3    H121035   4.907   2.025   5.350 -0.6577  0.3216 -0.3150
 7030TIP3    H221036   4.858   2.098   5.474 -0.6910  0.1730 -0.2397
 7031TIP3   OH221037   6.357   0.611   5.001  0.3274 -0.7856 -0.4891
 7031TIP3    H121038   6.292   0.641   4.937  0.0412 -1.2473 -0.4190
 7031TIP3    H221039   6.399   0.691   5.032  0.8793 -0.5911 -1.6792
 7032TIP3   OH221040   4.925   1.207   6.441  0.1326 -0.0654 -0.3146
 7032TIP3    H121041   4.863   1.208   6.368  2.1903 -1.0502 -2.2197
 7032TIP3    H221042   4.964   1.294   6.440 -0.9463  0.4588  0.7022
 7033TIP3   OH221043   3.602   4.398   0.415  0.3123 -0.0163 -0.2668
 7033TIP3    H121044   3.684   4.441   0.436 -0.5121  1.6048 -0.1589
 7033TIP3    H221045   3.582   4.344   0.491  1.2133 -0.3334 -0.2540
 7034TIP3   OH221046   3.545   7.326   6.218 -0.3723  0.0893  0.2312
 7034TIP3    H121047   3.468   7.344   6.272 -1.2502  0.0024 -0.9563
 7034TIP3    H221048   3.531   7.376   6.137  0.7765 -0.0040 -0.0547
 7035TIP3   OH221049   4.225   3.244   1.109 -0.1919 -0.1278 -0.4865
 7035TIP3    H121050   4.270   3.186   1.048 -0.4830 -0.5745 -0.2832
 7035TIP3    H221051   4.159   3.289   1.057  0.8963  1.0133 -0.9284
 7036TIP3   OH221052   5.772   1.821   5.564  0.1979  0.2267 -0.0115
 7036TIP3    H121053   5.811   1.807   5.650 -2.3301  0.3730  1.2721
 7036TIP3    H221054   5.744   1.734   5.536 -2.0514  0.5418  0.9988
 7037TIP3   OH221055   6.308   6.470   5.162  0.4330  0.5259 -0.1232
 7037TIP3    H121056   6.293   6.394   5.105  1.3201  0.6074 -0.5000
 7037TIP3    H221057   6.384   6.513   5.122 -0.0429  1.5919  0.1078
 7038TIP3   OH221058   5.111   7.524   2.048  0.4839  0.3024  0.0003
 7038TIP3    H121059   5.033   7.578   2.060  1.1162  1.4841 -0.9943
 7038TIP3    H221060   5.159   7.533   2.130  0.8528  1.7510 -0.3414
 7039TIP3   OH221061   2.845   4.845   1.838  0.3558 -0.7666  0.5080
 7039TIP3    H121062   2.853   4.751   1.817  0.7358 -0.6953  0.3295
 7039TIP3    H221063   2.935   4.875   1.850  0.2871 -0.2425 -0.2337
 7040TIP3   OH221064   0.668   6.063   1.432 -0.3109 -0.0035 -0.0835
 7040TIP3    H121065   0.579   6.036   1.410 -1.0892  2.3942 -0.1764
 7040TIP3    H221066   0.722   6.032   1.359 -1.0289 -1.5424  0.0079
 7041TIP3   OH221067   7.038   6.948   0.720 -0.0211 -0.2266 -0.0845
 7041TIP3    H121068   7.130   6.947   0.746 -0.0296 -0.0329 -0.0390
 7041TIP3    H221069   7.030   7.026   0.664  0.0811 -0.8566 -0.9997
 7042TIP3   OH221070   7.797   1.971   5.503  0.1782  0.9647 -0.6356
 7042TIP3    H121071   7.828   1.892   5.459 -1.5015  0.2292 -0.5469
 7042TIP3    H221072   7.742   2.015   5.438 -2.7789 -0.4068  0.7537
 7043TIP3   OH221073   3.110   6.746   6.452 -0.3773  0.1523  0.4574
 7043TIP3    H121074   3.152   6.712   6.373 -1.0768 -1.2555  0.6499
 7043TIP3    H221075   3.029   6.785   6.421 -0.7168 -0.5210  0.4667
 7044TIP3   OH221076   4.066   1.141   5.499 -0.9110 -0.0031 -0.5934
 7044TIP3    H121077   3.978   1.105   5.487 -0.5460 -1.8281  1.4679
 7044TIP3    H221078   4.052   1.221   5.550 -1.4240  0.1539 -0.9757
 7045TIP3   OH221079   0.080   0.174   3.374  0.4356 -0.4904 -0.2147
 7045TIP3    H121080  -0.015   0.162   3.379  0.2122  1.0072 -0.3974
 7045TIP3    H221081   0.103   0.218   3.456  1.1107 -1.5115  0.1701
 7046TIP3   OH221082   6.072   4.728   2.705  0.6457  0.1827  0.2625
 7046TIP3    H121083   6.001   4.752   2.646  1.1183  0.5952 -0.1458
 7046TIP3    H221084   6.149   4.774   2.671  0.6401  1.6278  2.0174
 7047TIP3   OH221085   7.404   1.216   2.384 -0.1494 -0.5651 -0.1439
 7047TIP3    H121086   7.431   1.125   2.371  2.3058 -0.1032  1.1566
 7047TIP3    H221087   7.347   1.235   2.309 -0.5676 -3.0737 -0.5534
 7048TIP3   OH221088   7.484   5.398   2.383 -0.1155 -0.3562 -0.4273
 7048TIP3    H121089   7.475   5.330   2.450  0.3979  1.2743  1.3651
 7048TIP3    H221090   7.572   5.386   2.347  0.9349  0.8049  1.6137
 7049TIP3   OH221091   8.028   4.738   1.305  0.2498  0.0794 -0.3200
 7049TIP3    H121092   7.950   4.711   1.353  1.5787 -0.9422  1.3884
 7049TIP3    H221093   7.998   4.749   1.215 -1.6785 -1.1652  0.1007
 7050TIP3   OH221094   1.974   5.232   1.250  0.4855 -0.2269 -0.0724
 7050TIP3    H121095   2.068   5.245   1.238  0.4938 -0.5416 -0.3334
 7050TIP3    H221096   1.937   5.242   1.162  0.5802 -2.8211 -0.4713
 7051TIP3   OH221097   7.443   6.652   4.940 -0.1473  0.3177 -0.2967
 7051TIP3    H121098   7.480   6.632   5.025  2.3686 -1.5299 -1.7008
 7051TIP3    H221099   7.393   6.573   4.917 -1.7633  1.2444 -0.1187
 7052TIP3   OH221100   3.315   4.016   2.503  0.4743 -0.3077  0.3083
 7052TIP3    H121101   3.341   3.930   2.534  1.6890 -0.1182 -0.1340
 7052TIP3    H221102   3.260   3.998   2.426  0.4119 -0.6895  0.4408
 7053TIP3   OH221103   6.689   7.130   1.097  0.2159 -0.0878  0.2069
 7053TIP3    H121104   6.783   7.133   1.079  0.4131 -0.1548  1.2045
 7053TIP3    H221105   6.680   7.068   1.169 -0.7801 -1.3420 -0.9247
 7054TIP3   OH221106   0.986   6.791   0.947 -0.0480  0.0080  0.0714
 7054TIP3    H121107   1.044   6.719   0.922  0.2823 -0.0716  0.9940
 7054TIP3    H221108   1.039   6.844   1.007 -1.2590 -0.6955  1.8592
 7055TIP3   OH221109   0.998   5.656   3.213 -0.2721  0.3543 -0.5178
 7055TIP3    H121110   1.004   5.717   3.139  0.2451 -0.4149 -1.1327
 7055TIP3    H221111   1.043   5.701   3.284  2.1303 -0.1529 -1.5839
 7056TIP3   OH221112   4.905   5.353   4.318 -0.7526 -0.4356  0.5271
 7056TIP3    H121113   4.887   5.344   4.411  0.5005  1.7280  1.0379
 7056TIP3    H221114   4.914   5.447   4.304  0.4238 -0.7955 -1.5243
 7057TIP3   OH221115   5.562   4.950   3.714  0.7009 -0.0631  0.1577
 7057TIP3    H121116   5.592   4.952   3.804 -0.7275  0.2597  0.6505
 7057TIP3    H221117   5.550   4.857   3.694 -1.1820 -0.0553  1.0916
 7058TIP3   OH221118   0.179   7.035   4.601 -0.0018  0.4420 -0.0243
 7058TIP3    H121119   0.152   6.978   4.673 -1.6455  0.8618 -0.2601
 7058TIP3    H221120   0.098   7.054   4.554  0.8955  0.9362 -1.4473
 7059TIP3   OH221121   5.224   4.702   4.228 -0.8158  0.4365  0.3623
 7059TIP3    H121122   5.133   4.723   4.248 -0.6126  0.4634  1.3166
 7059TIP3    H221123   5.233   4.723   4.135 -1.7134  0.6710  0.3128
 7060TIP3   OH221124   4.896   5.301   3.777  0.2539 -0.3065  0.1436
 7060TIP3    H121125   4.962   5.242   3.741  0.2168 -0.5771  0.5125
 7060TIP3    H221126   4.888   5.276   3.869  0.2220  0.2642  0.3013
 7061TIP3   OH221127   2.315   6.711   2.480  0.4018 -0.6632  0.2966
 7061TIP3    H121128   2.248   6.652   2.447  1.3042  0.2193 -3.6589
 7061TIP3    H221129   2.301   6.793   2.432  4.1206 -0.4017 -0.6399
 7062TIP3   OH221130   6.984   5.475   1.374 -0.0117 -0.1170 -0.1447
 7062TIP3    H121131   6.917   5.409   1.392 -2.1858  1.7748 -0.7732
 7062TIP3    H221132   6.949   5.556   1.411  1.5409  1.1224 -1.2221
 7063TIP3   OH221133   7.600   3.866   0.024  0.9886 -0.2352 -0.0076
 7063TIP3    H121134   7.570   3.787   0.068  2.7773 -0.5699  0.6901
 7063TIP3    H221135   7.680   3.891   0.071  0.6375  1.8277 -0.3841
 7064TIP3   OH221136   0.236   1.596   2.222  0.1336  0.2353 -0.1509
 7064TIP3    H121137   0.183   1.648   2.282  0.3300  1.6961 -1.1941
 7064TIP3    H221138   0.299   1.551   2.278  0.2611  1.5041  0.7505
 7065TIP3   OH221139   4.649   5.340   4.629  0.1000 -0.2741 -0.3541
 7065TIP3    H121140   4.576   5.310   4.576 -2.0726  3.1516  0.3260
 7065TIP3    H221141   4.624   5.318   4.719 -0.5053  1.4686 -0.0573
 7066TIP3   OH221142   3.211   7.500   1.015 -0.2423 -0.0241  0.1097
 7066TIP3    H121143   3.166   7.458   1.088  0.7519 -0.5763  0.4255
 7066TIP3    H221144   3.143   7.551   0.970 -0.8658  0.3220  1.4132
 7067TIP3   OH221145   7.940   4.636   4.181  0.0342 -0.1660  0.3583
 7067TIP3    H121146   7.926   4.727   4.157 -1.1955 -0.4787 -0.1443
 7067TIP3    H221147   7.964   4.593   4.099  1.1213 -0.2128  0.6822
 7068TIP3   OH221148   3.965   6.855   2.167  0.4714 -0.0368 -0.1318
 7068TIP3    H121149   3.943   6.910   2.242  1.9331 -1.5584  1.4823
 7068TIP3    H221150   4.003   6.776   2.205 -1.3628 -2.1400 -2.3602
 7069TIP3   OH221151   2.549   7.796   6.200 -0.0016  0.5121 -0.0202
 7069TIP3    H121152   2.553   7.739   6.277 -1.3748  3.1177  2.1414
 7069TIP3    H221153   2.467   7.773   6.157 -0.3618  0.5854  0.6224
 7070TIP3   OH221154   2.078   5.190   0.460 -0.1991  0.3218  1.0274
 7070TIP3    H121155   2.057   5.260   0.398 -0.2544  0.0877  0.7742
 7070TIP3    H221156   2.018   5.203   0.533 -0.4880  0.3005  0.7979
 7071TIP3   OH221157   7.482   4.357   2.384 -0.5569 -0.1265  0.0481
 7071TIP3    H121158   7.537   4.384   2.458 -0.2508 -0.4950 -0.0392
 7071TIP3    H221159   7.454   4.268   2.407 -1.6240  0.2869  0.3770
 7072TIP3   OH221160   1.528   0.594   4.019  0.4660 -0.6135 -0.1242
 7072TIP3    H121161   1.490   0.681   4.028  1.4169 -0.1489 -0.4677
 7072TIP3    H221162   1.519   0.554   4.106  0.0601 -0.1646  0.0409
 7073TIP3   OH221163   7.095   1.557   6.665 -0.2112 -0.1786  0.1934
 7073TIP3    H121164   7.079   1.636   6.614 -0.5396  0.9525  1.9443
 7073TIP3    H221165   7.008   1.529   6.695  0.1191  0.3841  1.7830
 7074TIP3   OH221166   4.203   4.809   2.472 -0.5433  0.0464  0.7011
 7074TIP3    H121167   4.219   4.901   2.494 -2.3162  0.5020  0.2549
 7074TIP3    H221168   4.195   4.766   2.557 -1.9443  0.7549  0.9533
 7075TIP3   OH221169   4.843   5.890   4.992  0.6537 -0.2915 -0.6737
 7075TIP3    H121170   4.831   5.857   4.903  0.5937 -0.9751 -0.4235
 7075TIP3    H221171   4.860   5.811   5.044 -0.0654  0.0216  0.0479
 7076TIP3   OH221172   7.807   6.277   6.441  0.4075 -0.3535  0.5530
 7076TIP3    H121173   7.807   6.184   6.422  0.2675 -0.7630  2.3559
 7076TIP3    H221174   7.719   6.295   6.475  0.0342  0.7112 -0.8789
 7077TIP3   OH221175   6.484   0.547   3.351  0.3357 -0.5145 -0.1485
 7077TIP3    H121176   6.522   0.539   3.438 -0.5840 -2.0967  0.1484
 7077TIP3    H221177   6.498   0.462   3.310 -1.4413 -0.6582 -0.5764
 7078TIP3   OH221178   0.658   1.780   1.409  0.5603 -0.3613  0.5595
 7078TIP3    H121179   0.743   1.792   1.451  0.5012  2.1734  0.1561
 7078TIP3    H221180   0.595   1.818   1.470  0.1613  0.9270 -0.5938
 7079TIP3   OH221181   3.553   3.035   1.459  0.0176 -0.0969 -0.2134
 7079TIP3    H121182   3.642   3.011   1.486  0.1796 -0.2215 -0.8595
 7079TIP3    H221183   3.517   3.080   1.536  0.4230 -0.5785  0.2753
 7080TIP3   OH221184   3.266   1.139   4.233  0.2245  0.7087 -0.9108
 7080TIP3    H121185   3.349   1.126   4.278 -0.0690 -0.2356 -0.6045
 7080TIP3    H221186   3.270   1.228   4.198  1.1878  0.8138 -0.5467
 7081TIP3   OH221187   5.833   2.896   1.886  0.1083 -0.4692 -0.4223
 7081TIP3    H121188   5.916   2.921   1.927 -0.4767  1.3592 -0.2391
 7081TIP3    H221189   5.795   2.832   1.946 -0.6565  2.0205  1.9838
 7082TIP3   OH221190   6.547   3.560   2.987 -0.0354 -0.0122  0.0767
 7082TIP3    H121191   6.541   3.648   2.951 -0.6687  0.2818  0.8560
 7082TIP3    H221192   6.548   3.573   3.082 -0.7621 -0.8743  0.2139
 7083TIP3   OH221193   6.828   7.429   4.820  0.0873 -0.1232 -0.0836
 7083TIP3    H121194   6.781   7.363   4.769  0.0274 -0.2926  0.1873
 7083TIP3    H221195   6.817   7.401   4.911 -1.6754  1.3539  0.2247
 7084TIP3   OH221196   2.847   0.756   2.195  0.1574 -0.1301 -0.4824
 7084TIP3    H121197   2.920   0.706   2.157 -0.5378  1.4854 -4.2967
 7084TIP3    H221198   2.769   0.712   2.164 -0.4969  0.4666  0.2766
 7085TIP3   OH221199   1.085   2.792   2.994 -0.4773  0.2956 -0.1058
 7085TIP3    H121200   1.124   2.752   3.071 -2.4878  0.2768  0.9714
 7085TIP3    H221201   1.050   2.876   3.026 -0.5246  0.7127 -1.2124
 7086TIP3   OH221202   5.806   6.914   0.371  0.0395  0.4182 -0.2889
 7086TIP3    H121203   5.744   6.848   0.340  0.3997  0.6526 -1.5405
 7086TIP3    H221204   5.823   6.970   0.296  1.3120  0.7240  0.1882
 7087TIP3   OH221205   0.641   1.299   2.958 -0.4333  0.2184 -0.1143
 7087TIP3    H121206   0.591   1.230   3.002 -0.8545  0.9407  0.5933
 7087TIP3    H221207   0.598   1.310   2.873  0.3399 -1.1461 -0.7117
 7088TIP3   OH221208   1.648   1.829   3.284  0.1528  0.0941 -0.1490
 7088TIP3    H121209   1.716   1.879   3.239 -1.3209  0.5134 -2.0463
 7088TIP3    H221210   1.679   1.822   3.374  2.5446  0.5123 -0.8579
 7089TIP3   OH221211   6.837   1.218   1.798 -0.0018 -0.1249  0.8140
 7089TIP3    H121212   6.768   1.190   1.737 -1.4410 -0.3814  2.4981
 7089TIP3    H221213   6.792   1.234   1.880  2.0974 -1.2755  2.2767
 7090TIP3   OH221214   2.968   0.212   2.108  0.2054 -0.1014  0.0814
 7090TIP3    H121215   2.923   0.142   2.156  1.7480 -0.5563  0.9292
 7090TIP3    H221216   3.061   0.195   2.123  0.6334  1.8231 -0.1524
 7091TIP3   OH221217   7.970   5.383   1.777 -0.1289  0.2722  0.5374
 7091TIP3    H121218   7.973   5.479   1.780 -0.8787  0.3453 -0.5911
 7091TIP3    H221219   7.879   5.363   1.754 -0.3716 -0.7654  2.2174
 7092TIP3   OH221220   1.558   3.053   1.920 -0.6012  0.4346 -0.4942
 7092TIP3    H121221   1.616   2.977   1.919 -0.7496  0.3275 -0.8703
 7092TIP3    H221222   1.475   3.019   1.953 -0.3338  0.6749  0.4532
 7093TIP3   OH221223   6.186   5.503   3.434 -0.0804 -0.6103  0.2435
 7093TIP3    H121224   6.093   5.505   3.415 -0.4378 -0.5113  1.8915
 7093TIP3    H221225   6.192   5.465   3.522  1.1926  2.1662  1.4705
 7094TIP3   OH221226   5.409   0.995   2.027  0.1926  0.0913 -0.1457
 7094TIP3    H121227   5.349   1.066   2.053 -2.9583 -1.6716 -1.9582
 7094TIP3    H221228   5.404   0.932   2.099 -1.6979 -0.8375 -0.9920
 7095TIP3   OH221229   6.325   5.554   4.858  0.1992 -0.0823 -0.2854
 7095TIP3    H121230   6.396   5.601   4.813  0.8971  0.4319  1.2941
 7095TIP3    H221231   6.363   5.526   4.941 -1.2005 -0.5816  0.2210
 7096TIP3   OH221232   1.799   1.357   4.401 -0.4062  0.0064  0.4116
 7096TIP3    H121233   1.814   1.279   4.347  0.3028  0.1661  0.3665
 7096TIP3    H221234   1.878   1.410   4.389 -2.4199  2.6722 -2.7879
 7097TIP3   OH221235   8.320   2.729   3.175 -0.1409 -0.0549 -0.2673
 7097TIP3    H121236   8.269   2.649   3.190 -0.6735  0.0919 -1.1847
 7097TIP3    H221237   8.323   2.737   3.080  1.3275  0.1341 -0.2229
 7098TIP3   OH221238   7.632   7.044   6.137  0.0221 -0.2010 -0.0777
 7098TIP3    H121239   7.574   6.972   6.163  0.5836 -0.8396 -0.5349
 7098TIP3    H221240   7.576   7.105   6.090 -0.9827  0.9048  2.4031
 7099TIP3   OH221241   2.180   1.363   6.370 -0.0905  0.3185  0.8460
 7099TIP3    H121242   2.105   1.305   6.352  0.3690 -0.6135  1.7855
 7099TIP3    H221243   2.152   1.415   6.445 -0.1232  0.6246  0.6259
 7100TIP3   OH221244   2.579   5.116   4.291 -0.1512 -0.5157  0.7928
 7100TIP3    H121245   2.617   5.115   4.203  0.8041 -1.8081  1.1871
 7100TIP3    H221246   2.629   5.181   4.339  0.0716 -0.6122  0.6921
 7101TIP3   OH221247   6.231   7.661   3.877  0.6377  0.5237  0.4262
 7101TIP3    H121248   6.199   7.728   3.816  0.9796  0.1537 -0.1710
 7101TIP3    H221249   6.194   7.686   3.962 -2.0397 -0.3734 -0.3798
 7102TIP3   OH221250   2.728   4.938   2.122  0.3936  0.0516 -0.5978
 7102TIP3    H121251   2.716   4.861   2.066 -0.1666 -0.1997 -0.1452
 7102TIP3    H221252   2.642   4.980   2.124  0.4200  0.0760  0.0459
 7103TIP3   OH221253   6.313   6.723   3.204 -0.7560 -0.4614 -0.4006
 7103TIP3    H121254   6.367   6.796   3.234  0.4781 -1.9727  1.3647
 7103TIP3    H221255   6.319   6.725   3.108 -1.3072  2.0651 -0.4399
 7104TIP3   OH221256   6.988   6.089   5.386 -0.6184  0.0953  0.4551
 7104TIP3    H121257   7.018   6.158   5.445 -2.7292  0.7689  0.8374
 7104TIP3    H221258   6.966   6.135   5.305 -1.3963 -0.2056  0.4851
 7105TIP3   OH221259   0.330   1.587   6.767  0.1664  0.0024  0.4519
 7105TIP3    H121260   0.311   1.647   6.695 -0.2208 -0.3634  0.2400
 7105TIP3    H221261   0.326   1.500   6.726  2.0375 -0.1136  0.4577
 7106TIP3   OH221262   4.173   1.094   1.992  0.2565 -0.2611 -0.0089
 7106TIP3    H121263   4.211   1.170   2.035  1.7248 -0.3910 -0.9869
 7106TIP3    H221264   4.085   1.086   2.029 -0.3684  2.5564 -0.6509
 7107TIP3   OH221265   4.673   7.042   2.951 -0.2961  0.2842 -0.1179
 7107TIP3    H121266   4.622   6.966   2.977  0.1943 -0.9024 -2.3319
 7107TIP3    H221267   4.616   7.090   2.891 -1.2449  2.6927  2.4893
 7108TIP3   OH221268   3.298   3.290   6.414 -0.2389  0.0785  0.2343
 7108TIP3    H121269   3.234   3.342   6.364 -2.5402 -0.1881  2.6925
 7108TIP3    H221270   3.259   3.203   6.421  0.0959  0.0472  2.2463
 7109TIP3   OH221271   1.284   7.480   6.274  0.2929  0.1715 -0.7345
 7109TIP3    H121272   1.322   7.395   6.255  1.4827  1.2143 -3.5920
 7109TIP3    H221273   1.228   7.465   6.350  0.5169 -3.1107 -1.0728
 7110TIP3   OH221274   7.740   5.003   3.945  0.2496 -0.4966  0.2153
 7110TIP3    H121275   7.756   5.056   3.867  0.0789 -2.5286 -1.2745
 7110TIP3    H221276   7.645   4.991   3.946 -0.0568  1.5043  2.1712
 7111TIP3   OH221277   0.322   7.468   1.715  0.7817 -0.0522 -0.3048
 7111TIP3    H121278   0.283   7.412   1.782 -0.8410  1.2556 -0.0639
 7111TIP3    H221279   0.384   7.523   1.762  0.4222  0.1451 -0.0596
 7112TIP3   OH221280   1.327   1.589   4.320  0.0244  0.1954  0.7402
 7112TIP3    H121281   1.275   1.581   4.400 -1.3326  0.6750 -0.0609
 7112TIP3    H221282   1.387   1.662   4.338 -0.1805  0.2217  1.3529
 7113TIP3   OH221283   6.948   4.798   5.658 -0.1581 -0.1998 -0.3738
 7113TIP3    H121284   6.964   4.886   5.623  2.2286 -0.1345  0.6641
 7113TIP3    H221285   6.871   4.809   5.715  0.0162  1.1990 -0.3707
 7114TIP3   OH221286   7.874   7.016   1.377 -0.0509  0.3565 -0.3746
 7114TIP3    H121287   7.941   7.046   1.317  0.6428  1.4471  0.8916
 7114TIP3    H221288   7.856   7.092   1.433  0.4235 -1.0358  1.7608
 7115TIP3   OH221289   3.943   6.595   1.569 -0.4137  0.8298 -0.4131
 7115TIP3    H121290   3.922   6.671   1.515 -0.5488  1.0356 -0.0778
 7115TIP3    H221291   4.014   6.624   1.626 -1.0355  0.9811  0.3062
 7116TIP3   OH221292   1.051   1.275   1.429 -0.1982 -0.1985  0.6504
 7116TIP3    H121293   1.051   1.357   1.479  0.5516 -0.9728  1.9684
 7116TIP3    H221294   0.964   1.238   1.445  0.6717 -1.4053  3.1217
 7117TIP3   OH221295   0.381   3.997   5.094 -0.0354 -0.1887  0.0511
 7117TIP3    H121296   0.376   4.075   5.040 -2.4845  0.9718  1.7435
 7117TIP3    H221297   0.296   3.954   5.082  1.4471 -3.0580 -1.3327
 7118TIP3   OH221298   3.769   3.668   5.649 -0.2251  0.0519 -0.6295
 7118TIP3    H121299   3.791   3.761   5.646  2.4837 -0.4433  0.5494
 7118TIP3    H221300   3.844   3.627   5.692 -2.6234 -2.3110  1.6817
 7119TIP3   OH221301   1.303   5.609   1.346  0.0600 -0.1444  0.2633
 7119TIP3    H121302   1.344   5.694   1.358 -0.3584  0.2242 -0.8044
 7119TIP3    H221303   1.233   5.606   1.410 -0.4801  0.6798 -0.2800
 7120TIP3   OH221304   8.077   1.661   0.800  0.2489  0.0802  0.0403
 7120TIP3    H121305   8.085   1.715   0.879 -1.8765  1.1591 -0.4167
 7120TIP3    H221306   8.165   1.661   0.763  0.6232  2.1529  0.7893
 7121TIP3   OH221307   4.412   7.520   6.318  0.0105  0.0823 -0.2155
 7121TIP3    H121308   4.325   7.482   6.317 -0.6210  1.2675  2.0835
 7121TIP3    H221309   4.407   7.590   6.383  2.6333  0.3052 -0.1300
 7122TIP3   OH221310   1.471   4.096   5.565 -0.1618 -0.7048  0.1133
 7122TIP3    H121311   1.544   4.080   5.506  0.1944 -1.0379  0.6327
 7122TIP3    H221312   1.407   4.027   5.545  0.2813 -1.2666  0.6285
 7123TIP3   OH221313   7.091   5.477   1.845  0.3198 -0.2106 -0.0165
 7123TIP3    H121314   7.055   5.411   1.904  0.5772 -0.7514 -0.4540
 7123TIP3    H221315   7.086   5.559   1.894  1.2801 -0.7783  1.0848
 7124TIP3   OH221316   7.240   2.935   3.107 -0.1305  0.2659  0.0153
 7124TIP3    H121317   7.255   3.029   3.099  1.4823 -0.0832 -1.6020
 7124TIP3    H221318   7.322   2.901   3.144 -0.4452 -0.5900 -0.0518
 7125TIP3   OH221319   1.429   2.525   4.202  0.0865  0.0205  0.0199
 7125TIP3    H121320   1.441   2.495   4.292 -3.0791 -0.5399  0.3795
 7125TIP3    H221321   1.397   2.615   4.211 -0.1108  0.0087 -0.5442
 7126TIP3   OH221322   6.566   7.663   1.196  0.5329 -0.2369  0.5233
 7126TIP3    H121323   6.652   7.622   1.203  0.5324 -0.3625 -0.1932
 7126TIP3    H221324   6.549   7.668   1.102 -0.8629 -1.5206  0.6680
 7127TIP3   OH221325   7.610   2.207   5.488 -0.5323 -0.2830  0.2907
 7127TIP3    H121326   7.591   2.173   5.576 -0.8820 -1.4456 -0.2106
 7127TIP3    H221327   7.559   2.151   5.430  1.8646 -1.4033 -0.8807
 7128TIP3   OH221328   4.878   7.584   3.626  0.1126 -1.1457 -0.2529
 7128TIP3    H121329   4.922   7.500   3.613  0.7600 -0.7123 -0.8786
 7128TIP3    H221330   4.840   7.605   3.540 -0.8594 -1.2451  0.1333
 7129TIP3   OH221331   1.019   1.027   4.029  0.2552  0.2447 -0.2701
 7129TIP3    H121332   1.033   0.988   3.943  2.9344  0.2384  0.0606
 7129TIP3    H221333   1.031   1.121   4.015  1.3047  0.1921  0.1418
 7130TIP3   OH221334   2.684   3.045   3.765 -0.1496  0.4972  0.0978
 7130TIP3    H121335   2.635   2.983   3.818  1.0501  0.8087  1.6400
 7130TIP3    H221336   2.652   3.131   3.791 -0.1991  0.6210 -0.3581
 7131TIP3   OH221337   1.043   2.303   6.736 -0.2595 -0.1007 -0.7703
 7131TIP3    H121338   1.110   2.321   6.802  0.3547 -2.2388 -0.7348
 7131TIP3    H221339   0.961   2.300   6.786 -0.2190  1.1572 -0.5946
 7132TIP3   OH221340   4.579   2.772   0.430  0.6659 -0.4477  0.0754
 7132TIP3    H121341   4.596   2.853   0.479  1.4341  0.1286 -1.1031
 7132TIP3    H221342   4.485   2.758   0.440  0.3602  1.0561 -0.3662
 7133TIP3   OH221343   6.752   6.010   1.474 -0.3931  0.2757  0.0129
 7133TIP3    H121344   6.796   6.020   1.558 -1.0156  0.4502  0.3233
 7133TIP3    H221345   6.823   6.011   1.409  0.1757 -0.8741  0.5994
 7134TIP3   OH221346   7.874   7.093   1.764 -0.2222 -0.2008 -0.3433
 7134TIP3    H121347   7.944   7.155   1.782  0.1732 -0.8548  0.4117
 7134TIP3    H221348   7.911   7.008   1.785 -0.9909 -0.6320 -0.6848
 7135TIP3   OH221349   1.253   1.847   3.054 -0.4272  0.3701  0.2660
 7135TIP3    H121350   1.210   1.920   3.099 -1.3337 -1.5222  2.6920
 7135TIP3    H221351   1.202   1.836   2.973  0.2382  2.8515 -0.5771
 7136TIP3   OH221352   5.954   2.918   6.293 -0.2075 -0.6914  0.2304
 7136TIP3    H121353   6.045   2.891   6.307  0.6233  0.6699 -1.9612
 7136TIP3    H221354   5.902   2.855   6.342  1.8903 -1.9183  0.9957
 7137TIP3   OH221355   3.199   4.533   1.991 -0.5763  0.1231  0.2054
 7137TIP3    H121356   3.278   4.577   1.959 -0.3800  1.0235  1.8189
 7137TIP3    H221357   3.232   4.457   2.038 -0.7624 -0.2522 -0.2646
 7138TIP3   OH221358   6.984   6.696   1.594  0.3757  0.2809  0.4240
 7138TIP3    H121359   7.044   6.743   1.536  0.3789  1.5022  1.3709
 7138TIP3    H221360   6.903   6.689   1.544  0.4202  1.2088  0.2020
 7139TIP3   OH221361   4.261   6.241   5.298  0.0188 -0.1339  0.0315
 7139TIP3    H121362   4.225   6.217   5.213 -3.3583 -0.8098  1.5087
 7139TIP3    H221363   4.261   6.160   5.349 -0.2640  0.6862  1.3950
 7140TIP3   OH221364   4.959   4.535   3.415  0.6367  0.1966  0.2256
 7140TIP3    H121365   4.984   4.622   3.386 -1.5112  0.2436 -1.7312
 7140TIP3    H221366   4.931   4.489   3.336 -4.3436 -0.0942  1.7720
 7141TIP3   OH221367   7.453   2.774   5.290  0.1983  0.1973 -0.2131
 7141TIP3    H121368   7.489   2.692   5.258 -0.5721  0.3344 -1.5483
 7141TIP3    H221369   7.359   2.768   5.271 -0.4091  0.1347  2.4924
 7142TIP3   OH221370   1.701   2.003   5.866 -0.3241 -0.1184 -0.0628
 7142TIP3    H121371   1.761   2.060   5.818  0.3878 -0.5311  0.3224
 7142TIP3    H221372   1.729   2.011   5.958  0.3486 -1.7460 -0.0943
 7143TIP3   OH221373   2.342   3.534   0.598 -0.5125 -0.1718  0.1178
 7143TIP3    H121374   2.326   3.619   0.638  0.7378 -0.7347  1.9465
 7143TIP3    H221375   2.429   3.509   0.627 -0.9526 -2.2186 -0.1220
 7144TIP3   OH221376   2.064   4.042   6.271 -0.2695 -0.7103  0.1786
 7144TIP3    H121377   2.031   3.955   6.249  1.9719 -1.3601 -0.8687
 7144TIP3    H221378   2.113   4.030   6.352 -3.0470  0.4191  2.2123
 7145TIP3   OH221379   0.475   5.451   6.410 -0.2917 -0.0386  0.4780
 7145TIP3    H121380   0.514   5.461   6.497  1.8279 -0.3496 -0.3756
 7145TIP3    H221381   0.414   5.378   6.420  3.2463 -3.2522  0.7647
 7146TIP3   OH221382   5.811   5.457   0.837 -0.2856 -1.0258  0.8172
 7146TIP3    H121383   5.825   5.450   0.931  0.3531 -2.6577  0.6443
 7146TIP3    H221384   5.816   5.551   0.819  1.0754 -0.7829  2.2058
 7147TIP3   OH221385   5.739   2.907   1.608  0.2044 -0.3451  0.0805
 7147TIP3    H121386   5.786   2.898   1.691  0.7407 -0.1030 -0.1972
 7147TIP3    H221387   5.804   2.889   1.541 -0.3692 -1.1330 -0.2829
 7148TIP3   OH221388   7.500   2.016   6.318  0.9895 -0.4627 -0.4849
 7148TIP3    H121389   7.448   2.097   6.322  0.6398 -0.6641 -0.9796
 7148TIP3    H221390   7.590   2.046   6.330  0.6343 -0.3249  2.7148
 7149TIP3   OH221391   2.481   5.090   6.038 -0.1550  0.2218 -0.1090
 7149TIP3    H121392   2.558   5.146   6.025  0.8237 -1.2103 -0.6592
 7149TIP3    H221393   2.481   5.030   5.964 -1.3125 -0.3765  0.3438
 7150TIP3   OH221394   4.233   1.148   3.036 -0.0900 -0.4091  0.0774
 7150TIP3    H121395   4.157   1.107   2.996 -1.3764  0.4299  1.5420
 7150TIP3    H221396   4.285   1.181   2.963 -1.2633 -0.7711 -0.9391
 7151TIP3   OH221397   6.460   7.520   3.938  0.0908 -0.1257  0.5805
 7151TIP3    H121398   6.391   7.586   3.930 -0.9599 -0.9199  2.3322
 7151TIP3    H221399   6.521   7.557   4.003  0.0226 -0.4443  0.8307
 7152TIP3   OH221400   0.328   3.232   6.046  0.0506  0.5947  0.0697
 7152TIP3    H121401   0.403   3.253   6.102 -0.3297  1.7105  0.1981
 7152TIP3    H221402   0.255   3.220   6.107 -0.1688  0.9148 -0.1220
 7153TIP3   OH221403   7.305   7.422   6.185  0.4926  0.6280  0.0250
 7153TIP3    H121404   7.306   7.328   6.205 -1.3651  0.4743 -0.3636
 7153TIP3    H221405   7.272   7.427   6.096 -0.1292  1.6711  0.2913
 7154TIP3   OH221406   7.306   5.058   1.309  0.9177  0.1701  0.4938
 7154TIP3    H121407   7.389   5.013   1.293 -0.1736 -2.2663  1.0810
 7154TIP3    H221408   7.300   5.062   1.405  1.3152  2.3386  0.4603
 7155TIP3   OH221409   1.148   1.785   2.011 -0.4927  0.0758  0.0140
 7155TIP3    H121410   1.091   1.796   1.936 -0.1637 -0.7264 -0.3674
 7155TIP3    H221411   1.161   1.690   2.018 -2.4432 -0.1067  2.5361
 7156TIP3   OH221412   7.692   4.637   3.041  0.2141 -0.3797  0.3745
 7156TIP3    H121413   7.743   4.712   3.009 -0.5158 -1.0825 -2.7315
 7156TIP3    H221414   7.603   4.655   3.012 -0.0655 -2.2062  0.0133
 7157TIP3   OH221415   7.470   4.816   6.026  0.2062 -0.1679  0.2080
 7157TIP3    H121416   7.483   4.744   6.088 -0.6524  0.2571  0.9081
 7157TIP3    H221417   7.479   4.895   6.079 -0.1131  0.2096 -0.2959
 7158TIP3   OH221418   8.311   0.986   0.973  0.3647  0.3996  0.2666
 7158TIP3    H121419   8.277   1.060   1.024  0.3307  1.3512 -1.1008
 7158TIP3    H221420   8.238   0.924   0.970 -0.1165  0.9572  0.1996
 7159TIP3   OH221421   4.008   6.172   4.737  0.2575 -0.0197 -0.5010
 7159TIP3    H121422   4.064   6.153   4.812 -0.2293  0.1325 -0.1014
 7159TIP3    H221423   3.934   6.221   4.773 -0.6941 -1.1522 -0.8550
 7160TIP3   OH221424   6.645   4.562   6.287  0.1366 -0.5049  0.5816
 7160TIP3    H121425   6.692   4.480   6.273  0.7553 -0.0919  0.1565
 7160TIP3    H221426   6.692   4.626   6.233  0.7550  0.5233  2.2726
 7161TIP3   OH221427   2.899   6.540   0.888 -0.1225  0.4101 -0.1801
 7161TIP3    H121428   2.838   6.564   0.818 -0.6130  1.6690  0.6459
 7161TIP3    H221429   2.982   6.521   0.843 -0.7220  0.1299 -1.1828
 7162TIP3   OH221430   4.921   3.515   1.796 -0.5079 -0.4013  0.0034
 7162TIP3    H121431   4.948   3.428   1.768 -0.5371 -0.0352 -1.1790
 7162TIP3    H221432   4.826   3.516   1.783 -0.5863 -0.3807  0.5517
 7163TIP3   OH221433   5.510   2.313   2.048  0.0532  0.1081  0.1608
 7163TIP3    H121434   5.522   2.405   2.075  1.1889 -0.2954  1.0959
 7163TIP3    H221435   5.593   2.271   2.070 -0.3849 -1.1029 -0.4677
 7164TIP3   OH221436   4.315   6.758   5.216  0.3352 -0.6840 -0.2669
 7164TIP3    H121437   4.256   6.727   5.147  0.6991  0.9571 -1.3435
 7164TIP3    H221438   4.260   6.758   5.295 -0.2461 -2.0204 -0.6356
 7165TIP3   OH221439   4.652   6.105   6.326 -0.3361 -0.9563  0.6686
 7165TIP3    H121440   4.587   6.045   6.363  0.0394 -1.4885  0.4858
 7165TIP3    H221441   4.725   6.102   6.388  0.1525 -1.5878  0.0827
 7166TIP3   OH221442   6.344   3.857   3.538 -0.1796  0.4044  0.5928
 7166TIP3    H121443   6.305   3.916   3.474  1.6970  0.2252 -0.8017
 7166TIP3    H221444   6.421   3.903   3.570  0.4487 -0.6367  0.6440
 7167TIP3   OH221445   0.683   0.935   4.548  0.0737 -0.1603  0.0955
 7167TIP3    H121446   0.640   0.988   4.615 -0.2325 -0.3605  0.0587
 7167TIP3    H221447   0.718   0.999   4.486 -1.6043 -0.0140 -0.7702
 7168TIP3   OH221448   2.083   2.298   3.845  0.5002 -0.0197  0.6958
 7168TIP3    H121449   2.094   2.249   3.764  3.4720  0.6949  0.5526
 7168TIP3    H221450   2.008   2.258   3.888 -1.3123 -0.2776 -2.4755
 7169TIP3   OH221451   4.143   0.797   4.569  0.2792 -0.3291 -1.2614
 7169TIP3    H121452   4.083   0.871   4.574 -1.4797 -1.6800 -1.4040
 7169TIP3    H221453   4.226   0.830   4.604  0.0606  2.1659 -2.8327
 7170TIP3   OH221454   6.629   2.211   4.538  0.0821  0.1082 -0.2916
 7170TIP3    H121455   6.617   2.165   4.455 -1.7733 -2.0452  1.0475
 7170TIP3    H221456   6.721   2.237   4.537  1.1421 -3.1421 -1.4799
 7171TIP3   OH221457   6.094   4.379   0.235  0.7621  0.1328  0.2812
 7171TIP3    H121458   6.021   4.432   0.267  1.5384  2.6028 -1.7105
 7171TIP3    H221459   6.068   4.288   0.253 -1.9261  1.0133  1.2851
 7172TIP3   OH221460   1.743   4.369   4.895  0.1126  0.1538  0.4656
 7172TIP3    H121461   1.655   4.408   4.894  0.2872  0.5505  0.8217
 7172TIP3    H221462   1.796   4.430   4.945  0.3716 -0.5626  1.0792
 7173TIP3   OH221463   7.449   5.532   0.604  0.0417  0.2212 -0.2106
 7173TIP3    H121464   7.363   5.554   0.569  1.0772  1.6959 -1.9746
 7173TIP3    H221465   7.500   5.613   0.596  2.5926 -1.4382 -2.4519
 7174TIP3   OH221466   1.719   5.834   0.311  0.4975 -0.2165 -0.1608
 7174TIP3    H121467   1.706   5.868   0.400 -0.2745 -0.6742 -0.0949
 7174TIP3    H221468   1.686   5.903   0.254  0.2483 -0.2642 -0.0721
 7175TIP3   OH221469   3.533   6.453   3.476 -0.0279  0.3771  0.4687
 7175TIP3    H121470   3.629   6.450   3.470 -0.0810 -1.8008 -0.0277
 7175TIP3    H221471   3.516   6.520   3.543  1.9135 -0.4604  1.9023
 7176TIP3   OH221472   1.645   2.040   1.367  0.4340 -0.0117 -0.1489
 7176TIP3    H121473   1.706   2.105   1.402  0.5638 -0.5725  0.6921
 7176TIP3    H221474   1.574   2.037   1.431 -0.4732  0.6008 -1.0982
 7177TIP3   OH221475   1.506   3.616   2.601 -0.2113  0.0699  0.8412
 7177TIP3    H121476   1.513   3.699   2.647 -0.3192 -0.3355  1.5986
 7177TIP3    H221477   1.515   3.549   2.669 -0.1094 -0.5411  0.2420
 7178TIP3   OH221478   4.120   2.329   2.569 -0.4052  0.3363 -0.4915
 7178TIP3    H121479   4.148   2.346   2.659 -2.4491 -0.1820  0.3029
 7178TIP3    H221480   4.190   2.275   2.532  1.0222  1.4893  0.3691
 7179TIP3   OH221481   5.881   3.296   2.029  0.5426  0.5997 -0.0922
 7179TIP3    H121482   5.866   3.374   2.083  0.9535  0.8527 -0.3352
 7179TIP3    H221483   5.924   3.234   2.088 -2.1131 -0.4724  0.8705
 7180TIP3   OH221484   6.644   6.896   0.678 -0.2953  0.2728  0.8189
 7180TIP3    H121485   6.578   6.894   0.747  0.6977  1.1919  1.8359
 7180TIP3    H221486   6.671   6.988   0.673 -2.2491  0.8743 -2.7227
 7181TIP3   OH221487   6.753   1.822   5.347  0.4659  0.1344  0.4503
 7181TIP3    H121488   6.691   1.801   5.417  0.4255 -1.6778 -0.0923
 7181TIP3    H221489   6.715   1.784   5.268  1.3498  0.6699 -0.2546
 7182TIP3   OH221490   7.241   6.006   0.933  0.1336  0.4221 -0.1745
 7182TIP3    H121491   7.316   5.956   0.965 -0.4403  0.0985  0.6829
 7182TIP3    H221492   7.171   5.941   0.923 -1.1307  1.2160  2.5242
 7183TIP3   OH221493   2.933   6.717   5.425 -0.3270 -0.4119 -0.1189
 7183TIP3    H121494   2.996   6.777   5.385 -0.1578 -0.7017 -0.2932
 7183TIP3    H221495   2.876   6.773   5.477 -0.8966  0.0532 -1.1926
 7184TIP3   OH221496   4.009   1.735   0.730  0.0984  0.2409  0.6735
 7184TIP3    H121497   4.066   1.808   0.754  1.2874 -0.9779  1.7141
 7184TIP3    H221498   3.998   1.685   0.811  0.4016 -1.4456 -0.2774
 7185TIP3   OH221499   0.286   4.165   4.019 -0.0260  0.3156  0.0890
 7185TIP3    H121500   0.329   4.250   4.030 -1.0035  0.9596 -0.7412
 7185TIP3    H221501   0.214   4.184   3.958  1.2409 -1.6198 -2.1503
 7186TIP3   OH221502   7.484   1.666   0.799 -0.0341  0.4142  0.0002
 7186TIP3    H121503   7.396   1.657   0.836  0.0368 -0.5223 -0.0424
 7186TIP3    H221504   7.498   1.584   0.751 -0.2684  1.7279 -2.4546
 7187TIP3   OH221505   1.356   1.347   4.865  0.1627 -0.3929  0.0660
 7187TIP3    H121506   1.367   1.399   4.944 -0.1636 -0.5951  0.2445
 7187TIP3    H221507   1.410   1.391   4.799 -0.9111  0.7610 -0.0684
 7188TIP3   OH221508   6.696   5.132   5.597  0.2541  0.7164  0.1974
 7188TIP3    H121509   6.725   5.041   5.599 -2.5116 -0.2887  3.0494
 7188TIP3    H221510   6.692   5.154   5.504  2.7166 -1.3904 -0.5248
 7189TIP3   OH221511   1.461   4.000   3.601  0.2050  0.1685 -0.4845
 7189TIP3    H121512   1.404   4.042   3.537 -0.8164  0.9136  0.8466
 7189TIP3    H221513   1.468   4.064   3.673  3.5942  0.5882 -0.9931
 7190TIP3   OH221514   1.415   6.087   1.452 -0.1385  0.6567 -0.3970
 7190TIP3    H121515   1.445   6.156   1.513 -2.3432 -0.5779  2.2968
 7190TIP3    H221516   1.392   6.014   1.509 -1.5451 -0.9230 -2.8477
 7191TIP3   OH221517   7.936   0.400   1.238  0.7926  0.0954  0.5043
 7191TIP3    H121518   7.950   0.453   1.316  2.3937  1.5726 -0.7156
 7191TIP3    H221519   7.981   0.317   1.258  1.8423  0.7338  0.9019
 7192TIP3   OH221520   1.265   1.735   4.748  0.0671  1.0882 -0.7888
 7192TIP3    H121521   1.352   1.694   4.744  0.8061  2.2587  1.5314
 7192TIP3    H221522   1.208   1.674   4.700  1.2637 -2.2171  1.5741
 7193TIP3   OH221523   3.722   6.336   0.430  0.1370 -0.7351 -0.2496
 7193TIP3    H121524   3.768   6.406   0.384 -0.9589  0.0767 -0.1636
 7193TIP3    H221525   3.788   6.297   0.487  0.7618  0.2713 -0.2497
 7194TIP3   OH221526   3.367   7.808   5.362  0.0876 -0.3922 -0.1161
 7194TIP3    H121527   3.339   7.780   5.449 -1.5167 -1.8577 -1.0433
 7194TIP3    H221528   3.291   7.792   5.306  1.5494 -0.8884 -2.0653
 7195TIP3   OH221529   6.996   0.717   3.310  0.5803 -0.7434  0.6038
 7195TIP3    H121530   6.963   0.643   3.362 -2.7389 -0.6952 -1.1285
 7195TIP3    H221531   6.944   0.714   3.229 -0.7572  4.1877  0.9531
 7196TIP3   OH221532   8.269   2.057   1.355 -0.3398  0.0764  0.4815
 7196TIP3    H121533   8.275   2.125   1.288  0.8295  0.5852  1.0843
 7196TIP3    H221534   8.180   2.065   1.390 -0.3729  0.9677  0.2086
 7197TIP3   OH221535   1.867   0.733   4.885 -0.7489 -0.8002  0.2946
 7197TIP3    H121536   1.795   0.687   4.928 -0.7133  0.0345  1.2997
 7197TIP3    H221537   1.842   0.825   4.889  0.6634 -0.4240  1.2836
 7198TIP3   OH221538   6.476   1.741   0.126 -0.3045  0.3982  0.4550
 7198TIP3    H121539   6.467   1.696   0.210 -0.7825  0.9898  0.7293
 7198TIP3    H221540   6.529   1.818   0.146  0.6719 -0.1241 -0.0484
 7199TIP3   OH221541   4.763   6.203   0.744 -0.0743 -0.2581  0.3178
 7199TIP3    H121542   4.837   6.256   0.714 -0.6023  0.8017  0.8188
 7199TIP3    H221543   4.774   6.199   0.839 -0.0754 -1.0103  0.2892
 7200TIP3   OH221544   3.812   5.942   4.884  0.3916  0.2261 -0.6276
 7200TIP3    H121545   3.792   5.994   4.806 -1.0850 -1.8643 -1.7364
 7200TIP3    H221546   3.791   5.852   4.859  3.0435 -0.9944  1.1144
 7201TIP3   OH221547   5.701   6.898   6.486 -0.6389  0.4853  0.1947
 7201TIP3    H121548   5.684   6.981   6.531  2.1852  1.0442  0.4329
 7201TIP3    H221549   5.722   6.837   6.557  0.0548  0.3414 -0.1269
 7202TIP3   OH221550   6.897   1.246   3.742 -0.5255 -0.4741 -0.2589
 7202TIP3    H121551   6.835   1.174   3.740  1.6109 -2.4064 -1.3976
 7202TIP3    H221552   6.881   1.294   3.660 -0.4234 -1.0769 -0.6363
 7203TIP3   OH221553   4.594   0.484   2.057 -0.2164 -0.4434  0.5074
 7203TIP3    H121554   4.684   0.507   2.081 -0.3841  0.3002  0.4383
 7203TIP3    H221555   4.578   0.401   2.103  0.5923 -0.7285  0.2960
 7204TIP3   OH221556   6.060   5.672   1.165 -0.3435 -0.0142  0.0737
 7204TIP3    H121557   6.040   5.713   1.249  0.8409  0.7295  0.0196
 7204TIP3    H221558   6.024   5.731   1.100  1.3492  1.0167 -0.0036
 7205TIP3   OH221559   2.947   0.626   6.629  0.7608  0.5229  0.2674
 7205TIP3    H121560   2.903   0.654   6.549 -0.7477  0.0271  0.9016
 7205TIP3    H221561   3.038   0.610   6.602 -0.1807 -1.8476 -1.9068
 7206TIP3   OH221562   5.415   4.190   0.901  0.3205  0.2216  0.0744
 7206TIP3    H121563   5.329   4.160   0.871  0.1893  1.6320 -1.0674
 7206TIP3    H221564   5.408   4.192   0.996 -0.7683 -0.0835  0.0131
 7207TIP3   OH221565   3.641   1.461   2.357 -0.0505  0.2500  0.2813
 7207TIP3    H121566   3.607   1.530   2.413  0.9375  0.1605  1.0189
 7207TIP3    H221567   3.704   1.505   2.300 -0.0904  0.1048  0.1231
 7208TIP3   OH221568   6.511   1.728   4.622 -0.3254 -0.0251 -0.1815
 7208TIP3    H121569   6.492   1.798   4.683  0.4624  0.3419 -0.3494
 7208TIP3    H221570   6.584   1.760   4.569  1.7102 -1.8575  1.3021
 7209TIP3   OH221571   3.253   0.496   0.701 -0.5942  0.4482 -0.7941
 7209TIP3    H121572   3.192   0.570   0.698  0.2681  1.2656  0.6576
 7209TIP3    H221573   3.340   0.537   0.696 -0.0471 -0.2851  1.5600
 7210TIP3   OH221574   5.522   7.337   1.577  0.4393  0.7111  0.1944
 7210TIP3    H121575   5.612   7.342   1.610 -0.0729  1.5698  1.5306
 7210TIP3    H221576   5.469   7.381   1.643 -1.0797 -0.4417 -0.1903
 7211TIP3   OH221577   1.663   3.503   1.587  0.7560 -0.3893 -0.3511
 7211TIP3    H121578   1.751   3.468   1.606  0.7117 -0.7870 -0.8596
 7211TIP3    H221579   1.617   3.430   1.546  0.1087 -0.2519  0.1197
 7212TIP3   OH221580   1.432   3.723   0.202 -0.0324 -0.3894  0.2411
 7212TIP3    H121581   1.526   3.721   0.183  0.1001 -0.4295  0.8960
 7212TIP3    H221582   1.391   3.728   0.115  0.5916  0.3759 -0.0190
 7213TIP3   OH221583   2.999   7.390   4.661  0.1105 -0.3778  0.1252
 7213TIP3    H121584   2.992   7.455   4.730  3.5129  0.6306 -0.3132
 7213TIP3    H221585   3.004   7.306   4.707  0.6925  0.1316  1.0096
 7214TIP3   OH221586   5.585   2.291   0.513  0.0036 -0.2065 -0.0612
 7214TIP3    H121587   5.493   2.284   0.535  0.1648 -1.9991  0.1439
 7214TIP3    H221588   5.586   2.338   0.429 -1.2921 -2.3464 -1.3451
 7215TIP3   OH221589   0.807   6.103   5.387  0.2711  0.4728  0.3553
 7215TIP3    H121590   0.832   6.180   5.337  0.8974  0.2583  0.3370
 7215TIP3    H221591   0.744   6.136   5.452  1.4221  1.2121  1.1177
 7216TIP3   OH221592   3.043   7.742   3.255 -0.3370 -0.5116 -0.6360
 7216TIP3    H121593   2.970   7.802   3.242  0.4455  0.7426  0.4185
 7216TIP3    H221594   3.121   7.795   3.237  0.3517 -1.4900 -0.6142
 7217TIP3   OH221595   3.803   3.260   0.888  0.0872  0.2517 -0.6109
 7217TIP3    H121596   3.751   3.199   0.940 -0.2549 -0.6392 -1.9338
 7217TIP3    H221597   3.745   3.334   0.872 -0.3592 -0.1866 -1.0483
 7218TIP3   OH221598   7.337   6.223   2.254 -0.1929  0.1742  0.4141
 7218TIP3    H121599   7.339   6.304   2.203  1.0175  0.0562  0.2446
 7218TIP3    H221600   7.376   6.158   2.197  0.4051 -0.1509  1.1796
 7219TIP3   OH221601   7.869   0.563   6.688 -0.1675  0.5623 -0.5208
 7219TIP3    H121602   7.907   0.525   6.767 -2.3797 -0.9635 -0.0931
 7219TIP3    H221603   7.779   0.584   6.713 -0.9184  0.0646 -2.6078
 7220TIP3   OH221604   0.443   2.394   0.008 -0.0442 -1.1353  0.3937
 7220TIP3    H121605   0.484   2.478   0.028 -0.0248 -0.5986 -1.6420
 7220TIP3    H221606   0.514   2.330   0.020 -0.1223 -0.9458  2.1932
 7221TIP3   OH221607   5.989   5.724   2.719  0.1876 -0.1255 -0.5747
 7221TIP3    H121608   6.020   5.721   2.628 -0.3487  2.0288 -0.8903
 7221TIP3    H221609   5.894   5.733   2.711  0.1545  0.2419  0.1975
 7222TIP3   OH221610   5.881   3.178   4.192  0.5117 -0.2786 -0.3407
 7222TIP3    H121611   5.939   3.208   4.122 -1.2381  1.2187 -1.2383
 7222TIP3    H221612   5.808   3.240   4.191 -1.1767 -2.1176  0.6296
 7223TIP3   OH221613   1.068   5.473   6.730 -0.5030  0.0489 -0.4767
 7223TIP3    H121614   1.048   5.385   6.764 -2.2958 -0.3879 -2.4387
 7223TIP3    H221615   1.060   5.530   6.806  0.4258 -1.4267  0.8020
 7224TIP3   OH221616   2.677   5.307   4.450 -0.2237  0.2170  0.0119
 7224TIP3    H121617   2.770   5.328   4.465 -0.4891  2.2158 -0.7725
 7224TIP3    H221618   2.632   5.347   4.524 -0.4884 -0.5383  0.2605
 7225TIP3   OH221619   2.428   1.280   1.232 -0.1786  0.2131 -0.5086
 7225TIP3    H121620   2.410   1.201   1.284  0.0963  0.5993  0.1832
 7225TIP3    H221621   2.497   1.253   1.172  0.0058 -0.0401 -0.1892
 7226TIP3   OH221622   0.956   2.451   4.296  0.2985 -0.0237  0.2078
 7226TIP3    H121623   0.989   2.539   4.274  2.0656 -0.7019 -0.0405
 7226TIP3    H221624   0.954   2.449   4.391 -0.4527  0.5162  0.2125
 7227TIP3   OH221625   1.227   7.402   4.715  0.7019  0.3484 -0.2444
 7227TIP3    H121626   1.139   7.399   4.753  0.4606  2.6164 -0.4965
 7227TIP3    H221627   1.271   7.325   4.751 -1.8397 -1.7906 -1.3783
 7228TIP3   OH221628   6.493   2.856   0.578  0.0609  0.2865  0.4979
 7228TIP3    H121629   6.406   2.891   0.599 -0.4908 -2.3312  3.3078
 7228TIP3    H221630   6.477   2.792   0.508  0.1224  1.2660 -0.4405
 7229TIP3   OH221631   1.407   4.319   3.160 -0.0939  0.4540 -0.5474
 7229TIP3    H121632   1.421   4.289   3.070 -3.4488 -0.3801 -0.9019
 7229TIP3    H221633   1.312   4.327   3.168  0.1905  1.9492  2.5027
 7230TIP3   OH221634   3.459   5.569   2.529 -0.4860  0.5477  0.3276
 7230TIP3    H121635   3.440   5.531   2.443  1.7507 -2.1728  0.9252
 7230TIP3    H221636   3.373   5.598   2.561 -2.1658 -2.5789 -0.9140
 7231TIP3   OH221637   0.284   5.285   1.428 -0.4485 -0.2035 -0.0981
 7231TIP3    H121638   0.361   5.272   1.373  0.0096  2.6866 -0.3111
 7231TIP3    H221639   0.318   5.283   1.518 -0.4733 -0.7189 -0.0943
 7232TIP3   OH221640   4.237   2.980   0.433  0.2361  0.3694 -0.1572
 7232TIP3    H121641   4.170   2.923   0.470  0.7524  0.4857  0.9954
 7232TIP3    H221642   4.189   3.056   0.400 -0.0681  1.2744  2.2386
 7233TIP3   OH221643   8.119   7.264   1.435  0.5984  0.4081  0.5202
 7233TIP3    H121644   8.055   7.267   1.506  1.1542  2.9820  0.9973
 7233TIP3    H221645   8.067   7.276   1.356  0.3213  0.8772  0.7679
 7234TIP3   OH221646   7.984   4.795   3.492  0.2147  0.3032  0.1207
 7234TIP3    H121647   8.065   4.798   3.544  0.0682  0.3864  0.3424
 7234TIP3    H221648   7.976   4.883   3.456  0.2536  0.2783  0.0506
 7235TIP3   OH221649   0.852   2.197   5.438 -0.1603 -0.1914  0.1398
 7235TIP3    H121650   0.760   2.196   5.411 -0.2135  2.2175 -0.0381
 7235TIP3    H221651   0.896   2.246   5.368  1.1690 -0.8868  0.4778
 7236TIP3   OH221652   5.058   0.966   2.518  0.0195 -0.1093 -0.1798
 7236TIP3    H121653   5.085   0.955   2.609  0.3378  0.9081 -0.1308
 7236TIP3    H221654   4.964   0.979   2.522  0.2316  1.5729  0.1955
 7237TIP3   OH221655   1.734   6.250   0.518  0.4167 -0.4281 -0.1568
 7237TIP3    H121656   1.649   6.254   0.474  0.3385 -0.8514 -0.0437
 7237TIP3    H221657   1.749   6.157   0.534  0.9591 -0.3654 -0.2844
 7238TIP3   OH221658   0.790   1.870   5.936 -0.2570  0.5869 -0.2025
 7238TIP3    H121659   0.734   1.944   5.960 -0.5215  0.1780  0.4668
 7238TIP3    H221660   0.856   1.866   6.005 -0.0396  0.4062 -0.4198
 7239TIP3   OH221661   6.839   6.305   2.357 -0.2194  0.0951 -0.3222
 7239TIP3    H121662   6.933   6.302   2.378 -0.3885 -2.5719  0.4577
 7239TIP3    H221663   6.796   6.293   2.442 -1.3620  2.6102 -0.4761
 7240TIP3   OH221664   0.595   3.433   5.971  0.3301 -0.0612 -0.1471
 7240TIP3    H121665   0.586   3.365   6.037  2.4332 -1.1809 -0.9297
 7240TIP3    H221666   0.557   3.511   6.011 -1.7099 -1.5414  0.9542
 7241TIP3   OH221667   7.196   0.573   3.998  0.1712 -0.2743  0.0239
 7241TIP3    H121668   7.172   0.482   4.015  0.0224 -0.0068  1.2961
 7241TIP3    H221669   7.292   0.573   3.999  0.1795 -0.5075 -0.5117
 7242TIP3   OH221670   3.391   7.198   2.877 -0.0043  0.3133 -0.5540
 7242TIP3    H121671   3.426   7.282   2.908 -0.4198  0.1027  0.5636
 7242TIP3    H221672   3.316   7.181   2.935  0.0246 -0.7900 -0.8146
 7243TIP3   OH221673   7.862   3.561   4.010 -0.1081 -0.4913 -0.2357
 7243TIP3    H121674   7.818   3.610   4.079 -0.9317  2.2050 -2.4947
 7243TIP3    H221675   7.797   3.497   3.981 -0.8341  0.2808 -0.3718
 7244TIP3   OH221676   2.507   7.611   5.166  0.1664  0.1304 -0.3078
 7244TIP3    H121677   2.537   7.646   5.250 -0.7447  0.3993 -0.0885
 7244TIP3    H221678   2.530   7.679   5.102 -1.0322  0.8807  0.0300
 7245TIP3   OH221679   7.310   6.680   0.940  0.5605  0.5767  0.7380
 7245TIP3    H121680   7.332   6.642   1.025  0.2306  0.9461  0.9901
 7245TIP3    H221681   7.282   6.605   0.887  1.9131  0.1631  0.5651
 7246TIP3   OH221682   3.964   1.292   4.884  0.4116 -0.3544  0.2749
 7246TIP3    H121683   4.011   1.347   4.947  0.8080 -0.1694 -0.1740
 7246TIP3    H221684   3.939   1.352   4.814  0.8347 -0.7335 -0.2128
 7247TIP3   OH221685   0.736   0.943   3.647 -0.1184 -0.0662 -0.5599
 7247TIP3    H121686   0.721   0.848   3.639 -1.4837 -0.0123  0.7747
 7247TIP3    H221687   0.684   0.968   3.723 -0.8818  2.0103 -1.7091
 7248TIP3   OH221688   5.501   1.310   3.686 -0.3567 -0.4315 -0.1720
 7248TIP3    H121689   5.536   1.285   3.600  0.8021  0.5558 -0.0156
 7248TIP3    H221690   5.416   1.348   3.667 -1.2979 -2.5946 -0.6079
 7249TIP3   OH221691   2.669   0.622   2.014 -0.4293  0.1022  0.2785
 7249TIP3    H121692   2.727   0.551   1.986  0.1552  0.0259  1.5802
 7249TIP3    H221693   2.581   0.583   2.013 -0.3035 -0.1792 -0.4420
 7250TIP3   OH221694   4.017   3.172   0.392  0.1943 -0.5648  0.1651
 7250TIP3    H121695   3.956   3.230   0.439  2.0821  0.6318  1.3010
 7250TIP3    H221696   3.980   3.163   0.305 -1.0358  1.0410  0.4711
 7251TIP3   OH221697   2.525   5.722   4.360  0.0435  0.2772  0.4407
 7251TIP3    H121698   2.545   5.775   4.283  1.9172  0.8040  1.2305
 7251TIP3    H221699   2.525   5.632   4.327  0.3121  0.5306 -0.2740
 7252TIP3   OH221700   0.133   4.584   5.592  0.5672  0.2131 -0.3620
 7252TIP3    H121701   0.054   4.545   5.555  0.9390 -0.0190 -0.9255
 7252TIP3    H221702   0.205   4.548   5.540  0.9868  1.0247 -0.3725
 7253TIP3   OH221703   2.778   0.397   1.450  0.6810 -0.5383 -0.4215
 7253TIP3    H121704   2.848   0.422   1.390  1.3112 -2.5657 -0.5876
 7253TIP3    H221705   2.798   0.307   1.476 -1.2376 -0.7787  0.4460
 7254TIP3   OH221706   1.235   6.369   5.256 -0.3742  0.0615 -0.3832
 7254TIP3    H121707   1.144   6.345   5.274 -0.6115  0.8522 -0.4973
 7254TIP3    H221708   1.238   6.383   5.162  0.8394 -3.9570 -1.1064
 7255TIP3   OH221709   0.451   5.128   0.716  0.5923 -0.6691 -0.6429
 7255TIP3    H121710   0.429   5.035   0.717  0.7785 -0.7194 -0.9597
 7255TIP3    H221711   0.431   5.159   0.804 -0.0882 -0.8657 -0.7231
 7256TIP3   OH221712   1.480   2.411   1.179  0.1584  0.2107  0.2383
 7256TIP3    H121713   1.536   2.488   1.166  0.9826 -0.1505  1.4414
 7256TIP3    H221714   1.513   2.347   1.116  0.6750  0.2232  0.4909
 7257TIP3   OH221715   6.139   2.465   3.946  0.0959  0.2697  0.0206
 7257TIP3    H121716   6.178   2.454   4.033  1.3529  2.2401 -0.2302
 7257TIP3    H221717   6.135   2.560   3.934 -2.4609  0.1055 -1.0509
 7258TIP3   OH221718   5.552   3.716   0.550  0.2263 -0.5264  0.1166
 7258TIP3    H121719   5.613   3.677   0.613 -0.7132  0.9518  2.0586
 7258TIP3    H221720   5.547   3.808   0.576 -1.5969 -0.2596 -1.0112
 7259TIP3   OH221721   4.825   3.511   5.214 -0.4314 -0.4783 -0.4430
 7259TIP3    H121722   4.786   3.586   5.168 -1.9548 -0.9691 -0.0149
 7259TIP3    H221723   4.837   3.541   5.304  1.2953  0.0415 -0.8176
 7260TIP3   OH221724   2.791   4.623   2.123  0.3707 -0.2895 -0.8173
 7260TIP3    H121725   2.803   4.643   2.216 -0.1377 -0.5298 -0.6950
 7260TIP3    H221726   2.700   4.591   2.117  0.2560  0.1369 -1.4632
 7261TIP3   OH221727   1.720   6.306   3.745 -0.3428 -0.3228  0.2430
 7261TIP3    H121728   1.691   6.359   3.670 -2.2479 -0.0413  1.1145
 7261TIP3    H221729   1.726   6.368   3.817 -1.6828 -1.0780  1.0524
 7262TIP3   OH221730   1.967   1.385   1.611  0.1766  0.2703 -0.5725
 7262TIP3    H121731   1.926   1.326   1.548 -1.1901  0.9555 -0.3521
 7262TIP3    H221732   2.061   1.371   1.599 -0.0467  0.3461 -2.7132
 7263TIP3   OH221733   0.892   2.333   3.666 -0.2373  0.0412  0.0517
 7263TIP3    H121734   0.973   2.282   3.674 -1.1767 -1.4404  0.5446
 7263TIP3    H221735   0.876   2.366   3.754 -1.1918 -1.3475  0.4297
 7264TIP3   OH221736   8.145   4.297   1.911 -0.1899 -0.4217 -0.1835
 7264TIP3    H121737   8.186   4.213   1.893  2.2275  0.5256  0.5561
 7264TIP3    H221738   8.107   4.324   1.827  0.8209 -1.3170 -0.9503
 7265TIP3   OH221739   2.179   6.061   5.928 -0.1576  0.0572 -0.3053
 7265TIP3    H121740   2.198   5.987   5.871  0.7709  0.7892 -0.9743
 7265TIP3    H221741   2.108   6.108   5.885 -0.8524 -0.5128  0.1974
 7266TIP3   OH221742   7.291   1.103   4.895 -0.9344  0.5679  0.2679
 7266TIP3    H121743   7.332   1.120   4.980  0.2724 -0.8462  0.0144
 7266TIP3    H221744   7.355   1.133   4.831 -0.5759 -0.9848 -0.1341
 7267TIP3   OH221745   3.206   2.585   1.743 -0.6896  0.1258  0.2784
 7267TIP3    H121746   3.118   2.618   1.764 -1.7751 -3.3334  1.9291
 7267TIP3    H221747   3.195   2.539   1.660 -0.3285  0.0796  0.2565
 7268TIP3   OH221748   6.141   2.627   5.610  0.2390  0.1455  0.2578
 7268TIP3    H121749   6.190   2.680   5.672  0.4340  2.1131 -1.4797
 7268TIP3    H221750   6.207   2.594   5.549 -0.0813 -0.8600  0.4342
 7269TIP3   OH221751   4.952   5.501   2.576  0.1500 -0.8784  0.3696
 7269TIP3    H121752   4.863   5.536   2.583  0.9219  0.9397  1.7293
 7269TIP3    H221753   4.963   5.483   2.483 -1.3541 -0.3624  0.0572
 7270TIP3   OH221754   6.290   0.070   5.980  0.1319 -0.4376  0.0177
 7270TIP3    H121755   6.215   0.010   5.974 -0.1332 -0.0773 -0.3696
 7270TIP3    H221756   6.269   0.126   6.055 -1.2184  1.2846 -1.5575
 7271TIP3   OH221757   2.557   4.786   1.554  0.0687 -0.6061  0.1245
 7271TIP3    H121758   2.499   4.740   1.493 -0.0726 -1.5776  0.9668
 7271TIP3    H221759   2.507   4.862   1.583 -0.0508 -0.4077 -0.5877
 7272TIP3   OH221760   1.523   1.591   0.088 -0.1481  0.4070 -0.3386
 7272TIP3    H121761   1.570   1.595   0.172 -1.6033 -0.1480  0.5325
 7272TIP3    H221762   1.489   1.679   0.076  0.8836  0.7531 -0.8640
 7273TIP3   OH221763   4.810   6.963   6.174  0.7346 -0.0630  0.5768
 7273TIP3    H121764   4.749   6.949   6.247  0.6900 -1.5165  0.2904
 7273TIP3    H221765   4.893   6.926   6.205  0.8910 -0.0866  0.1363
 7274TIP3   OH221766   4.542   1.206   6.386 -0.3199  0.1297 -0.1990
 7274TIP3    H121767   4.530   1.275   6.451  0.9077 -1.0854  1.3905
 7274TIP3    H221768   4.466   1.149   6.396 -1.7942  1.6091 -2.1129
 7275TIP3   OH221769   0.325   0.383   0.762 -0.2565 -0.1779  0.3132
 7275TIP3    H121770   0.295   0.295   0.739 -2.0455 -0.3246  2.8612
 7275TIP3    H221771   0.364   0.373   0.849  1.1238  1.2713 -0.0932
 7276TIP3   OH221772   0.872   4.084   4.060  0.4713  0.3222 -0.1703
 7276TIP3    H121773   0.912   4.008   4.017  1.7789  0.5942  0.4929
 7276TIP3    H221774   0.826   4.047   4.135 -0.2882  0.0305 -0.7720
 7277TIP3   OH221775   4.286   5.941   4.580 -0.3656 -0.3287  0.3431
 7277TIP3    H121776   4.352   5.876   4.553 -1.0644 -0.1218 -2.0551
 7277TIP3    H221777   4.258   5.911   4.666  1.8913 -1.1714  0.8727
 7278TIP3   OH221778   3.171   6.403   6.352  0.8892 -0.1705  0.3110
 7278TIP3    H121779   3.146   6.432   6.265 -1.6353 -2.1176  0.2467
 7278TIP3    H221780   3.111   6.451   6.411  2.3481  0.8883  0.9994
 7279TIP3   OH221781   1.941   4.289   1.466 -0.8540  0.1665 -0.0857
 7279TIP3    H121782   1.872   4.319   1.525 -1.2650 -2.5207  0.9493
 7279TIP3    H221783   1.972   4.207   1.505  0.0309 -0.8640 -2.7373
 7280TIP3   OH221784   2.678   0.326   4.999 -0.7891 -0.2648  0.1200
 7280TIP3    H121785   2.767   0.358   4.980 -0.7948 -0.0924  0.3781
 7280TIP3    H221786   2.658   0.267   4.926  0.7566 -2.8031  1.5695
 7281TIP3   OH221787   3.564   6.790   5.433  0.1478  0.0308 -0.3393
 7281TIP3    H121788   3.624   6.730   5.477 -1.4871 -1.0752  0.4533
 7281TIP3    H221789   3.604   6.876   5.445  0.4296 -0.3904  2.2269
 7282TIP3   OH221790   4.180   4.363   0.826  0.6019  0.1641 -0.0578
 7282TIP3    H121791   4.224   4.314   0.895 -0.8700 -0.5923  0.3658
 7282TIP3    H221792   4.119   4.301   0.787  1.1919  0.6466 -1.8897
 7283TIP3   OH221793   0.134   1.234   3.445  0.2330 -0.0818  0.1684
 7283TIP3    H121794   0.176   1.180   3.378  2.4723  1.5593  0.1436
 7283TIP3    H221795   0.153   1.190   3.527  0.5395 -0.2490  0.0090
 7284TIP3   OH221796   5.319   2.425   2.320  0.5555 -0.3766  0.0035
 7284TIP3    H121797   5.349   2.513   2.301 -0.0641 -0.1804 -0.0888
 7284TIP3    H221798   5.263   2.435   2.398  1.6270 -0.9002  0.8563
 7285TIP3   OH221799   1.089   3.862   1.638  0.0107 -0.2599  0.3524
 7285TIP3    H121800   1.083   3.781   1.586  1.2554 -0.4762  0.5258
 7285TIP3    H221801   1.169   3.852   1.689  0.0508  0.9893  0.5585
 7286TIP3   OH221802   3.681   2.306   5.811  0.0714 -0.0529 -0.2394
 7286TIP3    H121803   3.716   2.394   5.798  1.0690 -0.5050 -0.7045
 7286TIP3    H221804   3.757   2.249   5.806 -0.6135 -0.9805 -0.2964
 7287TIP3   OH221805   7.304   6.925   0.805  0.3809 -0.1716 -0.0188
 7287TIP3    H121806   7.301   6.832   0.826  0.2058 -0.1760 -0.0635
 7287TIP3    H221807   7.375   6.933   0.741  1.3536 -0.0665  1.0368
 7288TIP3   OH221808   1.816   0.736   2.600  0.2433 -0.4883 -0.2606
 7288TIP3    H121809   1.787   0.823   2.624  0.3879 -0.7515  0.8887
 7288TIP3    H221810   1.911   0.736   2.617 -0.2562 -1.9772  3.4062
 7289TIP3   OH221811   0.068   7.650   6.170 -0.1273 -0.0603 -0.7664
 7289TIP3    H121812   0.135   7.719   6.171 -0.2718  0.0792  0.5549
 7289TIP3    H221813   0.053   7.630   6.262 -1.9696 -0.0437 -1.0349
 7290TIP3   OH221814   1.733   6.046   2.914  0.6078 -0.0149  0.5209
 7290TIP3    H121815   1.719   6.133   2.878  1.8801  0.5360  1.3167
 7290TIP3    H221816   1.774   5.997   2.842  0.0748  0.0895  0.1393
 7291TIP3   OH221817   1.051   6.624   6.698  0.6244 -0.6066 -0.5947
 7291TIP3    H121818   1.122   6.619   6.634 -0.8235 -0.3918 -2.3038
 7291TIP3    H221819   1.018   6.713   6.691  2.1380  0.3364  2.4973
 7292TIP3   OH221820   0.521   5.628   1.778  0.0116 -0.1738 -0.2266
 7292TIP3    H121821   0.520   5.714   1.736 -1.2921  0.3672  0.8481
 7292TIP3    H221822   0.598   5.584   1.741  0.9170  1.5794 -0.5191
 7293TIP3   OH221823   7.493   2.489   1.124 -0.2575 -0.2626  0.2490
 7293TIP3    H121824   7.467   2.490   1.032  0.5745  0.5027  0.0085
 7293TIP3    H221825   7.443   2.417   1.163 -3.2866  1.5176 -0.0272
 7294TIP3   OH221826   1.255   5.658   5.670 -0.3681 -0.1003 -0.3911
 7294TIP3    H121827   1.210   5.582   5.707  1.7944 -1.4617 -0.4037
 7294TIP3    H221828   1.198   5.686   5.598 -1.4541 -1.3933 -0.0848
 7295TIP3   OH221829   7.064   3.978   4.223  0.4670  0.3048  0.5491
 7295TIP3    H121830   7.144   4.021   4.195 -0.7245  2.5389  0.3363
 7295TIP3    H221831   7.016   4.045   4.272 -1.8460 -0.4833 -0.4543
 7296TIP3   OH221832   7.954   0.469   0.451 -0.3336  0.3285  0.8053
 7296TIP3    H121833   7.935   0.508   0.537 -1.7697  0.1698  0.5803
 7296TIP3    H221834   7.904   0.388   0.450 -0.4553  0.4102 -0.2507
 7297TIP3   OH221835   6.433   2.333   3.945 -0.4617 -0.4570 -0.1469
 7297TIP3    H121836   6.379   2.259   3.975  1.4948 -2.2513 -0.7794
 7297TIP3    H221837   6.460   2.308   3.856  1.4937  0.2510  0.2006
 7298TIP3   OH221838   1.620   1.283   0.981  0.0491 -0.2534  0.2595
 7298TIP3    H121839   1.700   1.240   1.011 -0.2133 -1.0435 -0.1607
 7298TIP3    H221840   1.622   1.368   1.025  0.3775 -0.8290  1.4129
 7299TIP3   OH221841   4.662   6.060   0.385  0.1368 -0.3719  0.3338
 7299TIP3    H121842   4.630   6.036   0.472 -0.4088 -1.3380 -0.1098
 7299TIP3    H221843   4.583   6.084   0.336  0.3580 -0.5047 -0.0962
 7300TIP3   OH221844   0.748   7.574   1.673  0.2066  0.1149  0.1254
 7300TIP3    H121845   0.701   7.505   1.626  0.6742 -0.9458  1.1681
 7300TIP3    H221846   0.727   7.654   1.626 -0.2750 -0.7530 -1.1729
 7301TIP3   OH221847   2.418   3.467   1.426 -0.3266 -0.1066  0.3675
 7301TIP3    H121848   2.507   3.471   1.460 -0.2097  0.5920  0.0126
 7301TIP3    H221849   2.427   3.489   1.333 -1.0704  2.0356  0.7421
 7302TIP3   OH221850   5.777   5.045   2.207 -0.0989 -0.2406 -0.2098
 7302TIP3    H121851   5.691   5.004   2.197  0.9144 -2.1084 -2.0889
 7302TIP3    H221852   5.833   4.976   2.242  0.4178  1.3428  2.3307
 7303TIP3   OH221853   5.553   0.426   0.319  0.0757 -0.0840  0.2772
 7303TIP3    H121854   5.556   0.402   0.412  2.7748 -0.9990  0.0411
 7303TIP3    H221855   5.593   0.512   0.315 -0.5817  0.2203 -0.0137
 7304TIP3   OH221856   5.883   0.380   6.301  0.6687  1.0276  0.2974
 7304TIP3    H121857   5.956   0.435   6.328  1.1942  0.5897 -0.2053
 7304TIP3    H221858   5.876   0.393   6.206 -1.5568  3.0369  0.6471
 7305TIP3   OH221859   3.367   2.156   5.982 -0.1244  0.4385 -0.1675
 7305TIP3    H121860   3.341   2.080   6.035 -1.7103 -0.0294 -1.5409
 7305TIP3    H221861   3.430   2.203   6.038  0.6727 -1.6804  0.8502
 7306TIP3   OH221862   7.191   4.294   2.231 -0.2487  0.2201  0.2439
 7306TIP3    H121863   7.172   4.327   2.143  0.2859  0.1469  0.0982
 7306TIP3    H221864   7.208   4.373   2.283 -0.3677  0.2526  0.2337
 7307TIP3   OH221865   2.583   4.601   4.014  0.1572  0.6779 -0.1717
 7307TIP3    H121866   2.524   4.651   3.957  0.0209 -0.3059 -0.9322
 7307TIP3    H221867   2.578   4.511   3.979  0.0061  0.0278  1.4516
 7308TIP3   OH221868   3.609   4.295   2.771 -0.1888  0.2188 -0.1393
 7308TIP3    H121869   3.623   4.239   2.695  2.8708  0.5628  0.0290
 7308TIP3    H221870   3.523   4.269   2.805 -0.1937 -2.2520 -1.7843
 7309TIP3   OH221871   7.178   3.837   5.261  0.1657 -0.2157 -0.4281
 7309TIP3    H121872   7.223   3.860   5.180  0.0885  0.6237 -0.2374
 7309TIP3    H221873   7.152   3.745   5.249  1.2608 -0.4811 -0.8391
 7310TIP3   OH221874   6.248   0.272   6.150  0.0503 -0.0294 -0.2808
 7310TIP3    H121875   6.200   0.253   6.230  1.0085  0.2574  0.3747
 7310TIP3    H221876   6.250   0.367   6.145  0.3740 -0.0400 -0.4067
 7311TIP3   OH221877   7.474   1.644   6.694 -0.5106  0.6143  0.6275
 7311TIP3    H121878   7.421   1.651   6.614 -2.3128 -0.4260  1.6521
 7311TIP3    H221879   7.423   1.692   6.760  0.6431  0.9529  1.2862
 7312TIP3   OH221880   2.300   3.975   2.199  0.4415  0.1736  0.2394
 7312TIP3    H121881   2.358   3.948   2.271 -2.4120 -2.1440  1.8754
 7312TIP3    H221882   2.276   3.893   2.156  0.5172  1.3475 -2.2231
 7313TIP3   OH221883   0.352   1.477   4.322 -0.8375 -0.3153  0.2806
 7313TIP3    H121884   0.315   1.522   4.246 -0.0268  0.0268  0.0778
 7313TIP3    H221885   0.362   1.547   4.388 -1.8237 -0.6657  0.8202
 7314TIP3   OH221886   3.360   0.101   5.989  0.0087  0.5681 -0.0891
 7314TIP3    H121887   3.364   0.016   6.033 -1.1548  0.1412 -0.7626
 7314TIP3    H221888   3.368   0.165   6.060 -0.6733 -0.1032  0.6170
 7315TIP3   OH221889   4.770   4.359   1.654  0.0722  0.2351 -0.4703
 7315TIP3    H121890   4.845   4.405   1.618  1.8094  0.1604  2.7232
 7315TIP3    H221891   4.806   4.299   1.719 -2.7017  0.3842  1.4277
 7316TIP3   OH221892   4.145   2.836   3.351  0.1162  0.2523  0.2707
 7316TIP3    H121893   4.200   2.828   3.430  0.4542 -0.3390 -0.0110
 7316TIP3    H221894   4.205   2.867   3.284  0.3032 -1.1146 -0.2261
 7317TIP3   OH221895   7.162   2.033   5.624 -0.6884  0.2441 -0.0112
 7317TIP3    H121896   7.175   1.991   5.539 -0.1793 -0.6887  0.5062
 7317TIP3    H221897   7.070   2.016   5.646 -0.7193  0.1563 -0.2112
 7318TIP3   OH221898   5.143   6.017   6.534  0.3829 -0.1316  0.5036
 7318TIP3    H121899   5.092   5.944   6.570 -2.1562  1.1308 -0.3202
 7318TIP3    H221900   5.113   6.093   6.584  0.4141  0.8608 -0.9442
 7319TIP3   OH221901   5.359   2.190   4.175 -0.1507  0.2563  0.2977
 7319TIP3    H121902   5.389   2.122   4.235  2.7726  0.1631 -1.1026
 7319TIP3    H221903   5.413   2.179   4.097 -0.8861  2.9968 -0.7199
 7320TIP3   OH221904   3.650   0.171   0.162 -0.1296 -0.1170  0.2424
 7320TIP3    H121905   3.624   0.256   0.126 -0.6288 -1.0586 -1.7558
 7320TIP3    H221906   3.722   0.142   0.106  0.6536 -0.6427  1.4661
 7321TIP3   OH221907   4.354   6.588   0.153 -0.4566 -0.2887 -0.4389
 7321TIP3    H121908   4.403   6.661   0.117 -0.2110  0.0780  0.6073
 7321TIP3    H221909   4.421   6.527   0.185 -0.6708 -0.2644  0.0643
 7322TIP3   OH221910   3.860   5.362   0.932 -0.2353  0.6245  0.3408
 7322TIP3    H121911   3.778   5.407   0.911 -0.7569 -0.4316  0.0455
 7322TIP3    H221912   3.900   5.343   0.847 -0.0932  0.4035  0.4560
 7323TIP3   OH221913   6.629   6.644   1.576 -0.1616 -0.6093 -0.4681
 7323TIP3    H121914   6.639   6.551   1.596 -0.1555 -0.5999 -0.4273
 7323TIP3    H221915   6.539   6.652   1.545 -1.2356 -0.1248  2.4453
 7324TIP3   OH221916   1.289   6.293   2.116  0.4086 -0.4275 -0.3791
 7324TIP3    H121917   1.202   6.315   2.147  0.1583 -1.3143 -0.4227
 7324TIP3    H221918   1.348   6.345   2.171  0.0159 -2.3099  2.0327
 7325TIP3   OH221919   6.991   0.058   3.858 -0.3573 -0.1061 -0.0350
 7325TIP3    H121920   6.996  -0.013   3.923 -2.2485 -1.0132 -0.7848
 7325TIP3    H221921   6.897   0.078   3.853  0.0716  2.1507 -0.2089
 7326TIP3   OH221922   5.311   0.138   1.258 -0.3568  0.5737  0.4960
 7326TIP3    H121923   5.279   0.082   1.329  0.0927 -0.0028  0.2609
 7326TIP3    H221924   5.262   0.109   1.181  0.4021 -0.0259  0.2205
 7327TIP3   OH221925   7.809   6.641   0.621  0.5360  0.6763 -0.5471
 7327TIP3    H121926   7.725   6.596   0.621  0.5151  0.6921  0.3205
 7327TIP3    H221927   7.824   6.666   0.530 -0.6451  1.1215 -0.6323
 7328TIP3   OH221928   6.656   1.113   4.140 -0.1288  0.3596 -0.0258
 7328TIP3    H121929   6.606   1.056   4.081  0.4075 -1.8555  1.5562
 7328TIP3    H221930   6.590   1.172   4.177 -1.0364 -0.3942 -0.3964
 7329TIP3   OH221931   2.254   3.041   4.333  0.2436 -0.2359  0.3626
 7329TIP3    H121932   2.255   2.973   4.400  0.9472 -1.8112 -1.1434
 7329TIP3    H221933   2.230   3.121   4.379 -1.2071 -1.5988  2.1214
 7330TIP3   OH221934   0.976   0.391   4.807  0.3803  0.4633 -0.3661
 7330TIP3    H121935   1.027   0.374   4.886 -0.3396 -0.4217 -0.0787
 7330TIP3    H221936   0.960   0.486   4.809 -1.4221  0.1777  1.6846
 7331TIP3   OH221937   6.260   4.522   3.902 -0.0209 -0.5044  0.2527
 7331TIP3    H121938   6.331   4.467   3.870 -0.3588 -0.4564 -0.6330
 7331TIP3    H221939   6.303   4.603   3.932  0.2562 -0.2055 -0.8881
 7332TIP3   OH221940   5.523   4.844   6.568  0.5140  0.2656  0.3244
 7332TIP3    H121941   5.513   4.749   6.570  1.0527  0.1993 -0.0209
 7332TIP3    H221942   5.588   4.863   6.636 -0.9276  0.5744  1.6722
 7333TIP3   OH221943   6.022   2.426   5.466 -0.3190  0.0781  0.1344
 7333TIP3    H121944   5.948   2.486   5.459 -0.0376  0.2823 -1.5832
 7333TIP3    H221945   6.092   2.478   5.506 -0.7958  0.1686  0.8629
 7334TIP3   OH221946   5.799   2.122   5.148 -0.3525 -0.0200  0.5523
 7334TIP3    H121947   5.795   2.190   5.080 -0.0690 -1.2214 -0.7094
 7334TIP3    H221948   5.762   2.164   5.226 -0.3710  1.5131 -0.2411
 7335TIP3   OH221949   8.178   4.763   0.115  0.8567 -0.0095  0.9454
 7335TIP3    H121950   8.189   4.734   0.024 -1.0927 -0.2744  0.7659
 7335TIP3    H221951   8.099   4.719   0.145 -0.2915  2.4357  1.7636
 7336TIP3   OH221952   1.464   3.376   5.769 -0.9430  0.3829 -0.3364
 7336TIP3    H121953   1.490   3.415   5.853 -2.2056  2.2306 -0.7278
 7336TIP3    H221954   1.488   3.284   5.776  0.3334  0.8051  1.4702
 7337TIP3   OH221955   0.407   6.991   6.411  0.1577 -0.4148 -0.2172
 7337TIP3    H121956   0.398   6.952   6.498  1.8263 -2.6821 -0.9733
 7337TIP3    H221957   0.409   6.916   6.351  0.0471  1.0414 -2.1294
 7338TIP3   OH221958   6.936   6.897   2.250 -0.3934 -0.4653 -0.0017
 7338TIP3    H121959   6.955   6.986   2.279  0.0119 -0.4732 -0.2330
 7338TIP3    H221960   6.864   6.907   2.188  0.6400 -0.1193 -1.1775
 7339TIP3   OH221961   4.490   5.545   0.728  0.2293 -1.1186 -0.4643
 7339TIP3    H121962   4.502   5.454   0.754  0.6724 -0.9429 -0.0365
 7339TIP3    H221963   4.469   5.541   0.635 -1.7630 -1.7834 -0.0271
 7340TIP3   OH221964   0.585   6.630   2.950  0.2309 -0.6718  0.1290
 7340TIP3    H121965   0.557   6.629   2.859  0.0172  1.9878  0.0728
 7340TIP3    H221966   0.505   6.615   3.000 -0.3426  1.2464 -0.1286
 7341TIP3   OH221967   3.155   1.985   4.379 -0.4537 -0.4361 -0.0733
 7341TIP3    H121968   3.083   1.930   4.410 -0.0927 -0.5066  0.6614
 7341TIP3    H221969   3.219   1.923   4.342 -0.5161 -0.4171 -0.2164
 7342TIP3   OH221970   1.198   2.659   3.231 -0.1367 -0.4892 -0.0239
 7342TIP3    H121971   1.126   2.666   3.294 -0.2852 -1.5758 -0.0441
 7342TIP3    H221972   1.233   2.571   3.245 -0.1012 -0.7126 -1.3653
 7343TIP3   OH221973   3.765   7.685   2.090 -0.7025 -0.5551  0.1859
 7343TIP3    H121974   3.700   7.615   2.089  0.1041 -1.3184  0.7191
 7343TIP3    H221975   3.826   7.661   2.159 -0.8650  1.0979  0.9636
 7344TIP3   OH221976   3.045   0.107   2.421  0.1000  0.0260 -0.2666
 7344TIP3    H121977   3.096   0.067   2.492  1.8167  0.3441 -1.2815
 7344TIP3    H221978   3.110   0.142   2.361 -1.2883 -1.3803 -2.7102
 7345TIP3   OH221979   6.753   7.225   2.206  0.4285 -0.3799  0.2162
 7345TIP3    H121980   6.824   7.222   2.271  1.4157 -2.6465 -0.8518
 7345TIP3    H221981   6.798   7.222   2.122 -0.9079 -2.0457 -0.4804
 7346TIP3   OH221982   0.103   2.254   3.002  0.7462 -0.0058 -0.0808
 7346TIP3    H121983   0.143   2.337   2.977  1.1103  0.1433  0.9721
 7346TIP3    H221984   0.153   2.224   3.078 -1.0043  0.1102  1.1896
 7347TIP3   OH221985   8.025   3.466   2.310  0.1235  0.5532  0.0536
 7347TIP3    H121986   7.936   3.462   2.345  0.3262  0.3935  0.5746
 7347TIP3    H221987   8.023   3.413   2.231  0.3388 -1.6024  1.4039
 7348TIP3   OH221988   3.904   1.010   5.221 -0.4178  0.4306  0.3431
 7348TIP3    H121989   3.939   0.929   5.260 -0.4551 -0.0919 -0.6714
 7348TIP3    H221990   3.980   1.069   5.217 -0.4132  0.4968  1.1899
 7349TIP3   OH221991   6.117   4.388   3.473 -0.4188 -0.1996  0.6691
 7349TIP3    H121992   6.076   4.389   3.560  0.5215 -0.0502  1.1297
 7349TIP3    H221993   6.133   4.295   3.455 -2.4187 -0.4077 -0.2511
 7350TIP3   OH221994   7.864   1.014   0.717  0.6431 -0.0398  0.3078
 7350TIP3    H121995   7.957   0.994   0.723  0.0983 -3.1536  0.2440
 7350TIP3    H221996   7.846   1.017   0.623  0.6854  0.7946  0.3171
 7351TIP3   OH221997   2.744   2.498   3.868  0.5604  0.0435 -0.6021
 7351TIP3    H121998   2.832   2.504   3.907  0.9375  3.1507 -1.6621
 7351TIP3    H221999   2.756   2.440   3.793  1.7233  0.4345 -0.7431
 7352TIP3   OH222000   0.221   7.757   1.005  0.5344  0.1222  0.2292
 7352TIP3    H122001   0.228   7.661   1.011 -2.9640 -0.2101  0.8332
 7352TIP3    H222002   0.207   7.786   1.095  1.9838  1.3134  0.1047
 7353TIP3   OH222003   6.899   0.167   2.262  0.0602  0.7072 -0.2399
 7353TIP3    H122004   6.841   0.217   2.320 -0.9413  1.4245 -1.8043
 7353TIP3    H222005   6.871   0.076   2.274 -0.5542  0.9154 -0.0391
 7354TIP3   OH222006   5.358   6.190   5.278  0.4803  0.1421 -0.1995
 7354TIP3    H122007   5.295   6.187   5.349 -2.6348 -0.1360 -2.7325
 7354TIP3    H222008   5.419   6.260   5.302 -0.5493  0.1797  2.5750
 7355TIP3   OH222009   0.579   7.498   2.958  0.1812  0.0869 -0.6342
 7355TIP3    H122010   0.519   7.564   2.992  0.6648  0.1373  0.1399
 7355TIP3    H222011   0.666   7.533   2.976  0.4645  0.2859 -2.2754
 7356TIP3   OH222012   4.010   3.180   3.239  0.1508 -0.1551  0.1182
 7356TIP3    H122013   3.963   3.099   3.261 -3.0401  0.8297 -2.3622
 7356TIP3    H222014   4.065   3.156   3.164 -0.7693 -0.0944 -0.5957
 7357TIP3   OH222015   6.231   0.289   4.915  0.1442 -0.0166  0.5575
 7357TIP3    H122016   6.259   0.347   4.844  0.8668  1.0820  1.6834
 7357TIP3    H222017   6.212   0.349   4.988  1.0442 -1.1955  1.8213
 7358TIP3   OH222018   0.976   7.467   3.636  0.4644 -0.0515  0.9122
 7358TIP3    H122019   0.965   7.433   3.548  0.5741 -0.0106  0.8828
 7358TIP3    H222020   1.048   7.529   3.630 -0.7074  1.3376  0.6504
 7359TIP3   OH222021   6.018   1.823   2.729  0.0815 -0.1171  0.6927
 7359TIP3    H122022   5.979   1.737   2.744  0.0317  0.2325  3.0411
 7359TIP3    H222023   6.107   1.815   2.765  0.4077  0.5425  0.0587
 7360TIP3   OH222024   3.181   2.001   3.796  0.4187 -0.1661  0.0236
 7360TIP3    H122025   3.125   1.934   3.835 -0.4522  0.4088 -0.2168
 7360TIP3    H222026   3.203   1.967   3.709  0.0186 -0.1665 -0.0790
 7361TIP3   OH222027   5.687   7.200   5.071  0.5723  0.2065  0.3437
 7361TIP3    H122028   5.627   7.160   5.134  1.2407 -0.2316  0.7057
 7361TIP3    H222029   5.643   7.190   4.986  0.6247 -1.1113  0.4526
 7362TIP3   OH222030   7.700   0.371   1.042 -0.1683 -0.0895 -0.0380
 7362TIP3    H122031   7.724   0.289   1.000  0.2252  0.2759 -0.5417
 7362TIP3    H222032   7.780   0.400   1.085 -0.1922  0.2388 -0.2145
 7363TIP3   OH222033   4.696   7.444   2.790 -0.5825 -0.2722 -0.1898
 7363TIP3    H122034   4.680   7.407   2.877 -1.1990  1.0885  0.3092
 7363TIP3    H222035   4.785   7.480   2.796 -0.3602 -0.7844 -0.3567
 7364TIP3   OH222036   4.361   6.537   5.462 -0.1535  0.1921 -0.4061
 7364TIP3    H122037   4.286   6.595   5.450  0.3404  0.9777  0.2238
 7364TIP3    H222038   4.323   6.450   5.474 -0.9410  0.5176 -0.5176
 7365TIP3   OH222039   6.163   6.657   1.748 -0.8079 -0.1070 -0.1533
 7365TIP3    H122040   6.106   6.582   1.731  0.5978 -1.0168 -1.0773
 7365TIP3    H222041   6.210   6.634   1.828 -2.3330  1.0525  1.1434
 7366TIP3   OH222042   1.828   1.099   3.101  0.3341  0.0587  0.1326
 7366TIP3    H122043   1.872   1.087   3.185 -0.9848  1.3388  1.0528
 7366TIP3    H222044   1.798   1.011   3.077 -1.8981  0.0582  2.5487
 7367TIP3   OH222045   0.441   4.541   6.676  0.0991 -0.1650  0.1262
 7367TIP3    H122046   0.441   4.504   6.765  0.2026 -2.3691 -0.7121
 7367TIP3    H222047   0.505   4.612   6.680  0.2227 -0.3154  1.7818
 7368TIP3   OH222048   1.804   3.529   4.615  1.1262  0.5167 -0.2980
 7368TIP3    H122049   1.889   3.560   4.645 -0.4249  2.6947  2.3135
 7368TIP3    H222050   1.818   3.507   4.522  4.9023 -1.1251  0.4547
 7369TIP3   OH222051   2.280   0.207   5.462 -0.5087 -0.6451 -0.0364
 7369TIP3    H122052   2.346   0.185   5.396 -0.4484 -1.0492  0.1558
 7369TIP3    H222053   2.204   0.237   5.411  0.3858  1.4926 -0.2290
 7370TIP3   OH222054   4.977   0.011   0.436  0.2631  0.1895 -0.3360
 7370TIP3    H122055   5.034   0.015   0.512  2.9226 -0.5163 -2.1534
 7370TIP3    H222056   4.947   0.101   0.424  2.2363  0.9121 -0.1540
 7371TIP3   OH222057   5.566   0.614   4.440  0.6813 -0.2218 -0.3552
 7371TIP3    H122058   5.485   0.643   4.482  1.4647  0.1750  0.9184
 7371TIP3    H222059   5.570   0.663   4.358  1.2892  2.3420  1.1094
 7372TIP3   OH222060   2.802   7.614   6.172 -0.0642  0.6646  0.1054
 7372TIP3    H122061   2.828   7.705   6.189  1.3863  0.0303  1.5992
 7372TIP3    H222062   2.741   7.619   6.098  0.1185  2.8196  0.0499
 7373TIP3   OH222063   1.160   2.477   3.835 -0.1872 -0.1869 -0.2516
 7373TIP3    H122064   1.085   2.444   3.885 -1.1376  0.6794 -1.0625
 7373TIP3    H222065   1.231   2.482   3.899 -1.2315  0.4474  0.9059
 7374TIP3   OH222066   3.040   3.386   4.593 -0.1078 -0.2329  0.0466
 7374TIP3    H122067   2.971   3.375   4.527  0.7966  1.3203 -1.2297
 7374TIP3    H222068   3.121   3.377   4.543  0.6171 -0.5803  1.2661
 7375TIP3   OH222069   0.537   2.612   6.302  0.0002  0.3533  0.0842
 7375TIP3    H122070   0.582   2.533   6.330 -0.5367  0.2378  0.6619
 7375TIP3    H222071   0.582   2.640   6.223  1.1538  0.3066  0.7032
 7376TIP3   OH222072   1.955   0.002   0.634 -0.3129 -0.4531 -0.2737
 7376TIP3    H122073   2.039  -0.019   0.674 -0.9830 -0.3731  1.2981
 7376TIP3    H222074   1.975   0.067   0.567  1.1183 -2.0647 -1.4853
 7377TIP3   OH222075   3.253   4.279   0.702  0.2919 -0.1986  0.0777
 7377TIP3    H122076   3.304   4.206   0.665  0.8183  0.2129 -0.0094
 7377TIP3    H222077   3.289   4.357   0.660 -0.3494  0.1063  0.0859
 7378TIP3   OH222078   4.271   4.035   3.273  0.2299  0.7919 -0.1891
 7378TIP3    H122079   4.242   4.010   3.186  1.6428 -0.2494 -0.4126
 7378TIP3    H222080   4.329   4.109   3.259 -0.0074  1.0008 -0.0694
 7379TIP3   OH222081   5.564   5.698   2.300 -0.0702 -0.2578  0.1396
 7379TIP3    H122082   5.625   5.770   2.314 -0.8133  0.1094  1.7850
 7379TIP3    H222083   5.527   5.681   2.387 -2.2953 -0.4440 -0.7631
 7380TIP3   OH222084   6.222   1.675   3.700 -0.5052  0.1784 -0.1361
 7380TIP3    H122085   6.245   1.767   3.691 -1.2854  0.3074 -0.8259
 7380TIP3    H222086   6.208   1.663   3.794 -0.4151  0.7608 -0.0468
 7381TIP3   OH222087   2.807   0.512   4.762 -0.1664 -0.4268 -0.4257
 7381TIP3    H122088   2.731   0.503   4.704 -0.5907 -1.3796  0.2523
 7381TIP3    H222089   2.872   0.454   4.723 -0.4294 -1.0179 -0.0011
 7382TIP3   OH222090   0.264   5.611   5.422  0.0619 -0.0830  0.4566
 7382TIP3    H122091   0.349   5.568   5.418 -0.2993 -0.9137  1.5680
 7382TIP3    H222092   0.282   5.697   5.461  0.3155 -0.4857  1.2435
 7383TIP3   OH222093   0.636   5.498   3.997 -0.0746  0.0140 -0.0517
 7383TIP3    H122094   0.639   5.483   4.092 -1.0156 -0.4120 -0.0769
 7383TIP3    H222095   0.562   5.445   3.967  1.2056 -1.1663 -1.2740
 7384TIP3   OH222096   7.512   3.382   5.761  0.3490 -0.2591  0.1872
 7384TIP3    H122097   7.443   3.374   5.695  0.7038 -1.9139 -0.0377
 7384TIP3    H222098   7.505   3.301   5.812  1.6219 -0.0863  0.6594
 7385TIP3   OH222099   6.321   2.622   5.383 -0.1749  0.4068 -0.5544
 7385TIP3    H122100   6.408   2.654   5.408  0.4969 -0.7511 -1.3464
 7385TIP3    H222101   6.334   2.582   5.297 -1.2973 -0.6420 -0.2595
 7386TIP3   OH222102   0.082   0.166   0.809  0.7785  0.3070 -0.0962
 7386TIP3    H122103   0.047   0.214   0.734  0.0907  1.4959  0.9365
 7386TIP3    H222104   0.061   0.075   0.792 -0.6047  0.7122 -0.7058
 7387TIP3   OH222105   0.600   2.468   0.713 -0.7202  0.6456 -0.9087
 7387TIP3    H122106   0.539   2.499   0.780 -0.3705 -2.2368  0.9522
 7387TIP3    H222107   0.607   2.374   0.730  2.9250  0.5564 -2.1292
 7388TIP3   OH222108   1.701   6.779   6.673 -0.2099  0.1875  0.7002
 7388TIP3    H122109   1.638   6.709   6.656  1.1528 -1.1519  0.8512
 7388TIP3    H222110   1.757   6.744   6.743  0.4697  1.4524  0.8124
 7389TIP3   OH222111   2.835   0.225   0.134 -0.1185 -0.0662  0.2703
 7389TIP3    H122112   2.882   0.308   0.133 -2.1827  1.1761  0.3691
 7389TIP3    H222113   2.759   0.241   0.191 -2.2825 -0.9614 -2.1442
 7390TIP3   OH222114   4.582   0.912   1.421 -0.4330 -0.4916 -0.4594
 7390TIP3    H122115   4.583   0.996   1.375 -1.1942  0.2194  0.7533
 7390TIP3    H222116   4.490   0.897   1.442 -0.1728 -1.0332  0.3511
 7391TIP3   OH222117   3.977   1.716   6.337  0.5590 -0.0404 -0.3487
 7391TIP3    H122118   3.924   1.752   6.266 -0.2059  2.2593  1.2430
 7391TIP3    H222119   3.934   1.635   6.362 -1.6156  1.1877  0.1238
 7392TIP3   OH222120   7.027   4.136   0.346  0.1295 -0.0178 -0.4659
 7392TIP3    H122121   7.122   4.132   0.334  0.3110 -0.8533  0.9814
 7392TIP3    H222122   6.995   4.052   0.315 -0.0374 -0.0660 -0.1645
 7393TIP3   OH222123   5.260   3.477   2.598 -0.5308 -0.1346  0.2709
 7393TIP3    H122124   5.191   3.431   2.550 -1.3722  1.6596 -0.3127
 7393TIP3    H222125   5.332   3.485   2.535 -0.8935  0.5060 -0.0694
 7394TIP3   OH222126   7.232   1.910   5.129  0.3493  0.3238 -0.5755
 7394TIP3    H122127   7.156   1.868   5.091 -0.6728  1.6884 -0.1305
 7394TIP3    H222128   7.217   2.004   5.115  0.4923  0.8169  2.0329
 7395TIP3   OH222129   4.870   2.260   5.074  0.5668  0.0865  0.1386
 7395TIP3    H122130   4.923   2.182   5.091  0.2781 -0.1254  0.0728
 7395TIP3    H222131   4.845   2.252   4.982 -1.5702 -1.0561  0.7434
 7396TIP3   OH222132   2.609   1.173   1.521 -0.0150  0.5004 -0.3549
 7396TIP3    H122133   2.581   1.137   1.605  0.5309  0.1672 -0.3094
 7396TIP3    H222134   2.654   1.255   1.544  1.3783 -0.2755 -0.1711
 7397TIP3   OH222135   6.587   1.246   3.226  0.2094  0.0473  0.3678
 7397TIP3    H122136   6.669   1.197   3.226 -0.1645 -0.6075  1.2382
 7397TIP3    H222137   6.520   1.181   3.244 -0.5874  0.4770 -0.9045
 7398TIP3   OH222138   0.986   4.294   0.635 -0.0436  0.3309 -0.2427
 7398TIP3    H122139   1.073   4.334   0.632  0.0328  0.1257 -0.9782
 7398TIP3    H222140   0.996   4.210   0.590 -0.3875 -0.1690  0.5909
 7399TIP3   OH222141   1.933   1.697   3.216 -0.0187 -0.4270 -0.3186
 7399TIP3    H122142   1.913   1.786   3.186 -1.8078 -0.9446 -0.8217
 7399TIP3    H222143   1.864   1.677   3.279 -1.0790 -2.2404 -1.9177
 7400TIP3   OH222144   8.218   5.908   6.765  0.0464  0.0628 -0.0768
 7400TIP3    H122145   8.272   5.969   6.714  1.5082  0.0491  1.3955
 7400TIP3    H222146   8.212   5.830   6.709  2.1714 -0.2016 -0.0135
 7401TIP3   OH222147   1.315   4.810   6.602 -0.6378 -0.3479 -0.5173
 7401TIP3    H122148   1.256   4.800   6.528 -0.5876 -0.7036 -0.5076
 7401TIP3    H222149   1.393   4.852   6.565 -0.2985 -1.2310 -0.8177
 7402TIP3   OH222150   3.088   3.123   4.327 -0.2432 -1.0004 -0.5707
 7402TIP3    H122151   3.148   3.162   4.264  0.7605 -0.2272  0.7911
 7402TIP3    H222152   3.025   3.192   4.347 -1.0722 -1.5155 -1.3174
 7403TIP3   OH222153   1.790   4.387   4.255 -0.4862  0.1391  0.1081
 7403TIP3    H122154   1.772   4.447   4.327 -3.2214  1.3481 -1.4396
 7403TIP3    H222155   1.728   4.315   4.267  1.5100 -1.5388  0.9071
 7404TIP3   OH222156   7.402   4.136   2.591 -0.4179 -0.5136  0.0630
 7404TIP3    H122157   7.481   4.110   2.544  0.5835  3.1798 -0.5990
 7404TIP3    H222158   7.428   4.211   2.644 -2.9600 -0.7175  1.8004
 7405TIP3   OH222159   8.157   2.856   3.948  0.9045 -0.1364 -0.2672
 7405TIP3    H122160   8.144   2.905   3.867  1.4788 -3.2778 -2.4064
 7405TIP3    H222161   8.080   2.799   3.955  1.1465 -0.3391  1.1175
 7406TIP3   OH222162   2.812   3.601   1.190 -0.2875  0.1327 -0.0847
 7406TIP3    H122163   2.906   3.597   1.209  0.4723 -1.5557 -3.4606
 7406TIP3    H222164   2.804   3.666   1.121 -1.8443  1.1186  0.9634
 7407TIP3   OH222165   4.702   6.402   3.710  0.1477 -0.4493  0.6194
 7407TIP3    H122166   4.653   6.434   3.634  0.5804 -1.5076 -0.1374
 7407TIP3    H222167   4.634   6.374   3.772 -0.2150 -0.4623  0.2225
 7408TIP3   OH222168   0.786   5.659   2.223 -0.1249 -0.2145  0.4341
 7408TIP3    H122169   0.816   5.574   2.257  0.1776  0.0519  0.8361
 7408TIP3    H222170   0.824   5.723   2.282 -1.2318  0.1522  0.7680
 7409TIP3   OH222171   5.162   3.038   3.433  0.4638 -0.6126  0.0608
 7409TIP3    H122172   5.132   2.973   3.496  0.1384 -0.7702 -0.2544
 7409TIP3    H222173   5.118   3.119   3.458 -0.5637 -0.9350 -0.6452
 7410TIP3   OH222174   2.165   6.550   0.420 -0.5321  0.0476  0.5510
 7410TIP3    H122175   2.257   6.561   0.397 -0.8197  0.7286 -0.3294
 7410TIP3    H222176   2.165   6.478   0.483  0.7140  0.7643  1.4120
 7411TIP3   OH222177   5.162   4.596   0.097 -0.4575 -0.2638 -0.0248
 7411TIP3    H122178   5.192   4.639   0.017 -3.1317  1.6326 -0.1313
 7411TIP3    H222179   5.161   4.503   0.075  1.3879 -0.0421 -1.2614
 7412TIP3   OH222180   5.261   5.403   6.763 -0.4626  0.2204  0.1650
 7412TIP3    H122181   5.275   5.334   6.698  0.1052 -0.4428  0.9777
 7412TIP3    H222182   5.273   5.360   6.847 -1.4659  1.0064  0.7328
 7413TIP3   OH222183   4.793   6.821   1.456 -0.1537 -0.5447 -0.2306
 7413TIP3    H122184   4.751   6.907   1.451 -0.3695 -0.5759  0.8158
 7413TIP3    H222185   4.813   6.810   1.549 -2.0120 -2.5198  0.0019
 7414TIP3   OH222186   0.660   4.552   3.916  0.1827  0.2520 -0.5236
 7414TIP3    H122187   0.667   4.586   4.005 -1.5460 -0.2962 -0.1263
 7414TIP3    H222188   0.611   4.619   3.868 -0.5259 -0.2666 -0.5461
 7415TIP3   OH222189   2.747   3.872   4.828  0.0860  0.4600 -0.2794
 7415TIP3    H122190   2.747   3.867   4.923  0.0011  1.1300 -0.2400
 7415TIP3    H222191   2.818   3.932   4.807 -0.7087  1.3178 -0.5757
 7416TIP3   OH222192   3.797   3.509   2.120 -0.6312  0.3795  0.6209
 7416TIP3    H122193   3.834   3.588   2.159  0.9183  0.5299 -1.0478
 7416TIP3    H222194   3.861   3.440   2.137 -1.6355 -0.4004  1.4354
 7417TIP3   OH222195   2.562   6.766   0.821  0.6121  0.2116  0.4619
 7417TIP3    H122196   2.473   6.739   0.802  1.1301 -1.7264  0.5634
 7417TIP3    H222197   2.558   6.803   0.910 -0.2285  1.0780  0.0846
 7418TIP3   OH222198   3.515   5.262   1.087  0.3061 -0.4902  0.4883
 7418TIP3    H122199   3.503   5.355   1.068 -1.2795 -0.1633  2.7254
 7418TIP3    H222200   3.600   5.256   1.129 -0.3024  0.2594  1.8782
 7419TIP3   OH222201   6.432   5.653   5.228  0.4369  0.7861 -0.4298
 7419TIP3    H122202   6.398   5.742   5.230 -0.7681  0.3408  1.1504
 7419TIP3    H222203   6.476   5.641   5.312 -1.7288 -0.8849  0.5754
 7420TIP3   OH222204   0.236   0.300   3.184 -0.2840  0.2007 -0.8092
 7420TIP3    H122205   0.299   0.347   3.238 -0.9220  0.5352 -0.3549
 7420TIP3    H222206   0.173   0.264   3.246 -2.7902  3.1211 -1.4079
 7421TIP3   OH222207   2.402   6.207   6.432 -0.2611  0.1989 -0.2603
 7421TIP3    H122208   2.364   6.211   6.344 -0.0990  2.5321 -0.2782
 7421TIP3    H222209   2.343   6.151   6.482 -1.2426  0.1652 -1.4296
 7422TIP3   OH222210   6.609   7.317   1.592  0.5396  0.0609  0.1318
 7422TIP3    H122211   6.581   7.399   1.552  1.5853  0.3390 -0.0702
 7422TIP3    H222212   6.581   7.249   1.531  2.2982  0.4947 -1.2338
 7423TIP3   OH222213   3.354   2.184   5.425  0.1561  0.2906 -0.8408
 7423TIP3    H122214   3.293   2.257   5.434 -0.0194 -0.0465  1.1569
 7423TIP3    H222215   3.400   2.181   5.508 -0.5298 -2.4810 -0.4749
 7424TIP3   OH222216   5.163   5.706   4.629 -0.5019 -0.6038 -0.4739
 7424TIP3    H122217   5.219   5.753   4.690 -0.9030 -1.4028  0.5305
 7424TIP3    H222218   5.131   5.774   4.569 -1.4745  0.5352  1.2309
 7425TIP3   OH222219   7.969   2.204   2.615 -0.1562 -0.3511  0.1172
 7425TIP3    H122220   7.902   2.171   2.555 -1.8280  0.5531  1.4229
 7425TIP3    H222221   8.001   2.284   2.574  0.3030 -0.8838 -0.5982
 7426TIP3   OH222222   6.335   5.841   5.952  0.1310  0.5355 -0.2431
 7426TIP3    H122223   6.298   5.847   5.863  1.1249 -0.9078 -0.7768
 7426TIP3    H222224   6.269   5.792   6.001  1.4882 -2.6456 -1.3689
 7427TIP3   OH222225   0.167   3.221   5.130 -0.0281 -0.4741  0.5357
 7427TIP3    H122226   0.149   3.262   5.215 -0.3688  0.8401 -0.1480
 7427TIP3    H222227   0.136   3.131   5.141 -1.1976 -0.0018  1.4408
 7428TIP3   OH222228   6.001   7.700   0.413 -0.2054 -0.3109  0.3138
 7428TIP3    H122229   5.937   7.635   0.443  1.0518 -1.3131  0.9261
 7428TIP3    H222230   6.033   7.665   0.330 -0.6847  0.3658 -0.1668
 7429TIP3   OH222231   6.903   3.950   0.031 -0.4760 -0.1735  0.1349
 7429TIP3    H122232   6.812   3.955   0.002 -0.6210  0.6537  0.7175
 7429TIP3    H222233   6.939   4.037   0.014 -0.3096  0.0525  1.5694
 7430TIP3   OH222234   0.998   6.295   3.940  0.4130  0.9044  0.9735
 7430TIP3    H122235   1.019   6.345   4.019  3.1039  0.0005  0.9107
 7430TIP3    H222236   1.006   6.204   3.967 -0.5835  0.5483  0.1208
 7431TIP3   OH222237   8.317   6.344   6.672  0.1765  0.2750  0.1069
 7431TIP3    H122238   8.304   6.429   6.632  0.9415 -0.5856 -2.1193
 7431TIP3    H222239   8.257   6.343   6.747 -0.6922  2.2911 -0.4988
 7432TIP3   OH222240   2.347   4.678   1.392 -0.1038  0.1819  0.2013
 7432TIP3    H122241   2.281   4.709   1.330 -1.0026 -2.6170 -0.3988
 7432TIP3    H222242   2.306   4.690   1.478 -0.9579 -0.4439 -0.1006
 7433TIP3   OH222243   6.814   1.038   4.637 -0.2902  0.3664  1.0287
 7433TIP3    H122244   6.853   1.080   4.561  3.3318 -0.1000  2.4345
 7433TIP3    H222245   6.784   1.110   4.693 -4.2351  0.7178 -1.1900
 7434TIP3   OH222246   6.412   7.240   3.389  0.0258  0.2568 -0.1280
 7434TIP3    H122247   6.373   7.295   3.320  0.9945  1.4623  0.2387
 7434TIP3    H222248   6.375   7.273   3.470  0.1757 -0.0174  0.0535
 7435TIP3   OH222249   1.145   1.742   0.997  0.1879 -0.2145  0.2205
 7435TIP3    H122250   1.223   1.798   1.002 -0.8779  1.4162 -0.6906
 7435TIP3    H222251   1.127   1.719   1.088 -0.1382  2.1044  0.8091
 7436TIP3   OH222252   1.135   2.718   6.421  0.2558 -0.3304 -0.5838
 7436TIP3    H122253   1.046   2.715   6.386  0.1142  0.5227 -0.3180
 7436TIP3    H222254   1.145   2.635   6.467  0.3661 -1.3772 -2.4228
 7437TIP3   OH222255   0.781   1.010   0.165  0.3553 -0.2373  0.7249
 7437TIP3    H122256   0.735   1.053   0.093 -1.7065  0.8694  2.5601
 7437TIP3    H222257   0.845   1.075   0.195  0.7572 -0.4416  0.3133
 7438TIP3   OH222258   3.304   6.087   0.154 -0.2830  0.0932  0.3157
 7438TIP3    H122259   3.294   6.079   0.059  0.0171 -1.8313  0.3966
 7438TIP3    H222260   3.361   6.163   0.166  1.5705 -0.9635 -1.1970
 7439TIP3   OH222261   2.627   5.828   3.899 -0.1969  0.0134 -0.4230
 7439TIP3    H122262   2.656   5.755   3.845  0.9144  0.1576 -0.0484
 7439TIP3    H222263   2.541   5.852   3.864 -0.5276 -1.3871 -0.6176
 7440TIP3   OH222264   2.354   2.780   0.828  0.2885  0.5758 -0.3103
 7440TIP3    H122265   2.426   2.735   0.784  0.3634 -0.1956  0.5784
 7440TIP3    H222266   2.335   2.726   0.905  1.7352  3.1215  1.9692
 7441TIP3   OH222267   1.653   1.160   1.477  0.4461  0.3135 -0.6713
 7441TIP3    H122268   1.573   1.165   1.425 -1.2882 -2.5462  1.4304
 7441TIP3    H222269   1.641   1.225   1.546 -0.8333 -1.0195  0.4387
 7442TIP3   OH222270   6.214   0.706   5.596  0.2722  0.5282  0.2522
 7442TIP3    H122271   6.130   0.669   5.569  0.1817  0.7602  0.2119
 7442TIP3    H222272   6.279   0.656   5.547  0.0554  1.7488 -1.3928
 7443TIP3   OH222273   7.297   3.297   3.810  0.0712 -0.1024 -0.2562
 7443TIP3    H122274   7.361   3.368   3.822 -0.1482  0.0283  0.1555
 7443TIP3    H222275   7.338   3.221   3.852  0.0711 -0.0828 -0.2200
 7444TIP3   OH222276   6.787   0.274   0.301  0.2084  0.1809  0.0256
 7444TIP3    H122277   6.739   0.355   0.317 -0.8362 -0.3988 -0.0814
 7444TIP3    H222278   6.838   0.260   0.382  0.4202  0.9420  0.0335
 7445TIP3   OH222279   1.497   3.147   0.066 -0.0511  0.3439 -0.0714
 7445TIP3    H122280   1.579   3.177   0.105 -0.1189  0.8899 -0.3464
 7445TIP3    H222281   1.522   3.109  -0.018  0.0800 -0.7250  0.4357
 7446TIP3   OH222282   1.097   6.121   3.447 -0.1463  0.4978 -0.0805
 7446TIP3    H122283   1.097   6.103   3.541 -0.2112 -0.3420 -0.2377
 7446TIP3    H222284   1.161   6.060   3.411  0.3726  1.2834 -0.4987
 7447TIP3   OH222285   7.961   3.585   2.021  0.0828  0.1119 -0.3580
 7447TIP3    H122286   7.980   3.584   1.927  4.2309 -1.1139  0.2986
 7447TIP3    H222287   7.948   3.493   2.043 -2.4156  0.5137  0.1458
 7448TIP3   OH222288   7.011   5.115   2.426  0.9639 -0.4641 -0.2249
 7448TIP3    H122289   7.092   5.164   2.435  0.0193  1.3834 -1.2566
 7448TIP3    H222290   7.016   5.077   2.338 -0.1671  1.4430 -1.1647
 7449TIP3   OH222291   0.590   7.297   4.559  0.6731 -0.0151 -0.7659
 7449TIP3    H122292   0.612   7.359   4.628  1.5080 -0.0091 -1.0325
 7449TIP3    H222293   0.582   7.350   4.480  2.7351 -0.3812 -1.2713
 7450TIP3   OH222294   5.748   2.510   2.812  0.2133  0.2828 -0.1911
 7450TIP3    H122295   5.692   2.438   2.841 -1.9816  1.8026 -0.4071
 7450TIP3    H222296   5.737   2.513   2.717  1.4885 -0.0227 -0.3626
 7451TIP3   OH222297   3.109   4.659   1.484 -0.1318 -0.1890  0.0213
 7451TIP3    H122298   3.022   4.690   1.460  0.3758  1.2687 -0.0555
 7451TIP3    H222299   3.128   4.588   1.423 -1.6611 -1.2063  0.6956
 7452TIP3   OH222300   1.112   5.314   5.542 -0.4700 -0.1333  1.2061
 7452TIP3    H122301   1.069   5.392   5.507  0.3096 -0.0244  0.4690
 7452TIP3    H222302   1.172   5.347   5.609 -0.4573 -0.1384  1.1972
 7453TIP3   OH222303   3.621   4.556   6.367 -0.6307  0.0877 -0.4491
 7453TIP3    H122304   3.587   4.509   6.443 -1.4876  1.1376 -0.1680
 7453TIP3    H222305   3.688   4.614   6.403  0.3061 -0.7563 -0.7742
 7454TIP3   OH222306   2.531   6.696   1.421  0.5514  0.1551  0.2639
 7454TIP3    H122307   2.557   6.625   1.363 -0.5756  0.0771 -0.1821
 7454TIP3    H222308   2.558   6.775   1.376  3.1038  0.0233  1.4157
 7455TIP3   OH222309   4.223   6.190   1.029 -0.4079  0.7420  0.3132
 7455TIP3    H122310   4.263   6.189   1.116 -0.0882  0.4503  0.1628
 7455TIP3    H222311   4.269   6.260   0.982 -0.1815  0.5168  0.1946
 7456TIP3   OH222312   1.557   7.404   3.934 -0.0731  0.2171  0.5083
 7456TIP3    H122313   1.469   7.441   3.922 -0.0701  0.1819  0.3683
 7456TIP3    H222314   1.616   7.479   3.929 -0.1647  0.3789  1.6018
 7457TIP3   OH222315   0.322   2.595   3.299  0.3393  0.0870  0.0376
 7457TIP3    H122316   0.286   2.529   3.359 -1.6499  0.5562 -0.5650
 7457TIP3    H222317   0.411   2.609   3.330 -0.7447  0.7893  3.3419
 7458TIP3   OH222318   1.492   6.364   0.165  0.0248 -0.4367  0.0878
 7458TIP3    H122319   1.587   6.353   0.172 -0.0138 -0.1321  1.4184
 7458TIP3    H222320   1.458   6.276   0.149  0.6333 -0.3120 -2.1643
 7459TIP3   OH222321   2.512   0.306   5.606 -0.3626  0.0144  0.0287
 7459TIP3    H122322   2.432   0.359   5.609 -0.0524  0.4645  0.5860
 7459TIP3    H222323   2.503   0.253   5.527 -0.6225  1.0085 -0.6285
 7460TIP3   OH222324   1.274   3.075   3.047 -0.3950 -0.1406 -0.9930
 7460TIP3    H122325   1.193   3.063   3.097 -0.9712  0.0916 -1.8577
 7460TIP3    H222326   1.311   3.156   3.081 -0.5335 -0.2355 -0.6106
 7461TIP3   OH222327   5.450   0.414   4.105  0.3332 -0.2035  0.2381
 7461TIP3    H122328   5.455   0.326   4.141 -0.8120  0.4727  2.1753
 7461TIP3    H222329   5.372   0.414   4.050  1.2292 -0.7990 -1.1021
 7462TIP3   OH222330   3.891   3.905   0.630 -0.2575  0.3199 -0.4422
 7462TIP3    H122331   3.962   3.856   0.591 -0.2235  0.5748 -0.7055
 7462TIP3    H222332   3.837   3.933   0.556 -0.4984  0.3342 -0.2653
 7463TIP3   OH222333   6.765   4.065   1.532 -0.2424  0.5732 -0.3657
 7463TIP3    H122334   6.693   4.042   1.590 -0.7120  1.6447 -0.5034
 7463TIP3    H222335   6.724   4.114   1.461  0.6197  1.1390 -0.4850
 7464TIP3   OH222336   7.334   2.248   6.068  0.1518  0.2234 -0.0464
 7464TIP3    H122337   7.339   2.167   6.017 -1.0445 -0.6720  1.1770
 7464TIP3    H222338   7.304   2.313   6.005 -1.6640 -0.9364 -0.4954
 7465TIP3   OH222339   6.093   4.671   2.967 -0.3732  0.4973  0.1429
 7465TIP3    H122340   6.058   4.716   2.890  0.7964  4.6061  1.7588
 7465TIP3    H222341   6.187   4.664   2.951 -0.3807 -0.3630  0.4313
 7466TIP3   OH222342   7.650   2.029   3.015 -0.6230 -0.1322  0.0475
 7466TIP3    H122343   7.563   2.063   3.038 -0.6222 -0.3506  0.3874
 7466TIP3    H222344   7.652   1.942   3.054 -0.0527  0.0759  0.4941
 7467TIP3   OH222345   4.391   0.402   0.101  0.6498  0.0088 -0.0633
 7467TIP3    H122346   4.328   0.388   0.030  2.0350  1.3316 -1.6578
 7467TIP3    H222347   4.339   0.396   0.181 -1.0607 -1.1222 -1.2028
 7468TIP3   OH222348   1.882   0.305   5.609 -0.0897  0.2175  0.2241
 7468TIP3    H122349   1.829   0.226   5.612 -1.4138  0.9867 -1.5161
 7468TIP3    H222350   1.819   0.376   5.622  0.8193  1.0637  0.1032
 7469TIP3   OH222351   0.642   7.239   3.362  0.2848 -0.2772 -0.3312
 7469TIP3    H122352   0.612   7.265   3.449  1.1636 -0.0484 -0.0871
 7469TIP3    H222353   0.584   7.285   3.301 -0.2730 -0.3628  0.1251
 7470TIP3   OH222354   2.786   1.648   5.540  0.7330 -0.3843  0.1603
 7470TIP3    H122355   2.878   1.622   5.540  0.7893 -0.2204 -0.7501
 7470TIP3    H222356   2.781   1.719   5.476 -0.1217 -0.7633 -0.2190
 7471TIP3   OH222357   7.093   2.249   6.483  0.1346 -0.2831  0.4344
 7471TIP3    H122358   7.031   2.184   6.517  1.1648 -0.8575  1.3130
 7471TIP3    H222359   7.058   2.333   6.512 -1.4518 -0.3719 -1.0923
 7472TIP3   OH222360   2.704   3.506   4.109  0.6670 -0.5647  0.0118
 7472TIP3    H122361   2.751   3.590   4.103  0.2079 -0.1513  1.6791
 7472TIP3    H222362   2.709   3.483   4.201 -1.0251 -1.3344 -0.0576
 7473TIP3   OH222363   2.561   2.216   4.823 -0.3558 -0.7326  0.5386
 7473TIP3    H122364   2.642   2.189   4.866 -2.2266 -2.0392  3.5928
 7473TIP3    H222365   2.508   2.136   4.820 -2.3090  0.4840  0.6337
 7474TIP3   OH222366   3.106   5.424   6.603 -0.4213  0.2310 -0.0810
 7474TIP3    H122367   3.112   5.467   6.518  1.5287 -0.2686 -0.2534
 7474TIP3    H222368   3.050   5.348   6.588  0.8798 -0.5468 -1.2675
 7475TIP3   OH222369   3.525   2.480   6.678  0.1467 -0.3435 -0.2633
 7475TIP3    H122370   3.442   2.433   6.677  0.3749 -0.7522 -0.2377
 7475TIP3    H222371   3.585   2.426   6.626  0.1664  0.3859 -1.0423
 7476TIP3   OH222372   6.714   1.139   0.980 -0.5221  0.1030  0.7420
 7476TIP3    H122373   6.671   1.057   0.954 -0.9762  0.2671  0.9619
 7476TIP3    H222374   6.788   1.111   1.035  1.4288 -0.3612 -1.9122
 7477TIP3   OH222375   7.530   4.682   1.870 -0.2348 -0.2310  0.2645
 7477TIP3    H122376   7.608   4.672   1.925 -0.1553 -1.2559 -0.0183
 7477TIP3    H222377   7.457   4.669   1.931 -0.1614 -0.2316  0.3524
 7478TIP3   OH222378   1.562   0.902   1.630 -0.4427  0.0882  0.2462
 7478TIP3    H122379   1.597   0.969   1.688 -0.8470  0.2259  0.3371
 7478TIP3    H222380   1.483   0.941   1.593 -0.4843 -0.2023  0.0240
 7479TIP3   OH222381   7.448   6.028   1.219 -0.0066  0.2283 -0.7898
 7479TIP3    H122382   7.463   6.003   1.127 -0.2064  0.3012 -0.8437
 7479TIP3    H222383   7.521   6.086   1.240  1.8786 -2.2807  0.1009
 7480TIP3   OH222384   1.373   5.757   0.429 -0.0597  0.1919  0.1613
 7480TIP3    H122385   1.433   5.682   0.438 -2.2537 -1.6785  0.1453
 7480TIP3    H222386   1.369   5.773   0.335  0.0992  0.0366  0.1264
 7481TIP3   OH222387   4.907   2.502   2.021 -0.0142  0.5430  0.1748
 7481TIP3    H122388   4.913   2.462   2.108  0.2455  0.3115  0.0522
 7481TIP3    H222389   4.891   2.595   2.039  0.6882  0.6090  0.4773
 7482TIP3   OH222390   7.554   2.828   0.514  0.1810 -0.2222  0.3957
 7482TIP3    H122391   7.506   2.835   0.597 -0.4268 -0.2817  0.0528
 7482TIP3    H222392   7.521   2.748   0.473 -0.9792  0.8242 -0.8046
 7483TIP3   OH222393   5.383   7.250   4.924  0.0693  0.6025 -0.0239
 7483TIP3    H122394   5.326   7.176   4.942 -1.9802  1.9889 -0.3493
 7483TIP3    H222395   5.406   7.285   5.010 -2.0653  1.7279  0.1784
 7484TIP3   OH222396   6.924   3.382   2.613  0.0120 -0.3818  0.2446
 7484TIP3    H122397   6.905   3.463   2.659  0.4728  0.1192 -0.4186
 7484TIP3    H222398   7.020   3.382   2.602  0.0324 -1.0618  0.3274
 7485TIP3   OH222399   3.819   5.940   2.661 -0.0129 -0.5703 -0.5810
 7485TIP3    H122400   3.873   5.895   2.726 -1.6856 -0.3282  1.0541
 7485TIP3    H222401   3.803   6.027   2.699  0.4612  0.2590 -2.1782
 7486TIP3   OH222402   0.210   5.196   0.099 -0.2903  0.8944  0.2278
 7486TIP3    H122403   0.196   5.103   0.081  0.3331  0.7975  0.2246
 7486TIP3    H222404   0.270   5.197   0.173 -1.6731  1.3006  1.3966
 7487TIP3   OH222405   5.824   4.090   4.533  0.4194  0.2668  0.2787
 7487TIP3    H122406   5.775   4.012   4.558  0.4117 -0.1140 -0.8471
 7487TIP3    H222407   5.833   4.140   4.614 -0.3450 -0.4732  0.8404
 7488TIP3   OH222408   4.694   4.976   0.020 -0.9236  0.6558 -0.3172
 7488TIP3    H122409   4.747   4.926   0.082  0.4003  0.3180 -1.6516
 7488TIP3    H222410   4.661   5.050   0.071 -0.4016  0.0673  0.9333
 7489TIP3   OH222411   4.254   3.907   5.976 -0.3976  0.2530  0.5833
 7489TIP3    H122412   4.319   3.870   6.036  0.6372  0.3530 -0.4406
 7489TIP3    H222413   4.290   3.993   5.953 -1.2253  0.5848  0.4899
 7490TIP3   OH222414   5.007   5.685   0.447  0.0625  0.3629 -0.2093
 7490TIP3    H122415   4.944   5.613   0.453  0.0433  0.4537  1.1070
 7490TIP3    H222416   4.953   5.762   0.426 -0.1922  0.3230  0.2694
 7491TIP3   OH222417   1.292   3.506   3.679  0.3620 -0.3298 -0.0553
 7491TIP3    H122418   1.336   3.556   3.611  0.3647  0.5910  0.6043
 7491TIP3    H222419   1.362   3.458   3.723  0.5112 -0.0235  0.0400
 7492TIP3   OH222420   3.951   3.157   4.270 -0.2990  0.5140 -0.1602
 7492TIP3    H122421   3.997   3.108   4.337  0.9879  1.4464 -0.3314
 7492TIP3    H222422   3.885   3.096   4.237  1.4798 -1.2600 -0.6302
 7493TIP3   OH222423   1.022   0.784   1.440 -0.1973  0.2628  0.5105
 7493TIP3    H122424   1.019   0.851   1.372 -1.1583  0.3511  0.6200
 7493TIP3    H222425   0.999   0.703   1.394  1.8566 -0.1763  0.1933
 7494TIP3   OH222426   1.533   4.966   0.442 -0.2212 -0.1611  0.6317
 7494TIP3    H122427   1.620   4.953   0.480 -0.3175 -1.0556  0.5869
 7494TIP3    H222428   1.524   4.895   0.379 -0.2342  1.0601 -0.7776
 7495TIP3   OH222429   7.717   3.591   6.364 -0.2874  0.0007 -0.0909
 7495TIP3    H122430   7.781   3.574   6.432 -0.3587 -0.8788 -0.2347
 7495TIP3    H222431   7.764   3.577   6.282 -0.5321 -0.1696 -0.2035
 7496TIP3   OH222432   1.261   2.407   5.482 -0.4120  0.9506  0.1706
 7496TIP3    H122433   1.351   2.385   5.460 -1.0171  0.0449 -1.6014
 7496TIP3    H222434   1.268   2.464   5.559  1.6118  0.3717  0.4668
 7497TIP3   OH222435   1.874   4.845   5.102  0.1745 -0.2996 -0.2996
 7497TIP3    H122436   1.795   4.796   5.123 -0.2728  0.0235 -1.1786
 7497TIP3    H222437   1.884   4.907   5.174  0.1385 -0.9424  0.2693
 7498TIP3   OH222438   1.122   6.007   3.682  0.4391  0.3624 -0.5401
 7498TIP3    H122439   1.207   5.963   3.683 -0.1577 -0.8559  0.3307
 7498TIP3    H222440   1.078   5.975   3.760 -0.4972  1.6527 -0.5119
 7499TIP3   OH222441   5.537   1.037   1.509  0.3030  0.6635 -0.2354
 7499TIP3    H122442   5.609   1.083   1.553  0.9345 -0.3098 -0.2170
 7499TIP3    H222443   5.466   1.037   1.573  0.2217  1.7535 -0.3026
 7500TIP3   OH222444   7.048   2.964   4.071  0.0596  0.0465 -0.2707
 7500TIP3    H122445   7.094   2.889   4.107 -1.3600 -0.4779  0.5351
 7500TIP3    H222446   6.975   2.979   4.132 -1.3319  0.3123 -1.9385
 7501TIP3   OH222447   2.353   0.687   3.010  0.2678 -0.2646  0.2124
 7501TIP3    H122448   2.327   0.694   3.102  0.0510 -0.0970  0.1398
 7501TIP3    H222449   2.341   0.594   2.988 -0.0911 -0.2275  0.2360
 7502TIP3   OH222450   7.052   6.188   4.633 -0.1024  0.6608  0.6495
 7502TIP3    H122451   6.976   6.155   4.682  0.7736 -1.0349  0.9216
 7502TIP3    H222452   7.061   6.128   4.559  1.5862  0.1791  1.2032
 7503TIP3   OH222453   6.257   6.141   0.878 -0.1103 -0.5522 -0.2716
 7503TIP3    H122454   6.263   6.067   0.939  0.9842  0.0768  0.4147
 7503TIP3    H222455   6.336   6.133   0.824  0.6129  0.7134  0.5404
 7504TIP3   OH222456   3.661   2.551   4.397  0.1161  0.0012 -0.1973
 7504TIP3    H122457   3.600   2.623   4.381  0.8789  0.6453 -0.2577
 7504TIP3    H222458   3.626   2.478   4.345  0.1657  0.7701 -1.3429
 7505TIP3   OH222459   5.923   4.951   3.706 -0.2252  0.2218  0.3079
 7505TIP3    H122460   6.015   4.939   3.727 -0.2803  1.2675  1.2551
 7505TIP3    H222461   5.885   4.864   3.709  1.3047 -0.7678 -3.2456
 7506TIP3   OH222462   8.227   3.017   2.652  0.2406 -0.3315  0.2554
 7506TIP3    H122463   8.206   2.977   2.737  2.6553 -1.3026  0.4722
 7506TIP3    H222464   8.256   3.106   2.675  0.1602 -0.3274  0.3477
 7507TIP3   OH222465   4.988   4.655   1.301 -0.0510 -0.0368  0.0768
 7507TIP3    H122466   5.067   4.690   1.259  0.2246 -1.3520 -0.5414
 7507TIP3    H222467   4.991   4.690   1.390  1.4874 -0.4409  0.2131
 7508TIP3   OH222468   5.089   4.060   0.544 -0.6115 -0.3064  0.0095
 7508TIP3    H122469   5.110   4.066   0.451 -1.2627 -1.6948 -0.2539
 7508TIP3    H222470   5.093   4.150   0.576  0.3298  0.0997 -1.1963
 7509TIP3   OH222471   8.178   0.316   4.062  0.6807 -0.4566  0.2595
 7509TIP3    H122472   8.253   0.318   4.122  0.2946  0.8917  0.7510
 7509TIP3    H222473   8.110   0.366   4.108 -0.1415 -0.7056 -0.6523
 7510TIP3   OH222474   2.946   4.766   6.249 -0.4015 -0.1982  0.4604
 7510TIP3    H122475   2.981   4.839   6.198 -1.3929 -0.4205 -0.5739
 7510TIP3    H222476   2.854   4.761   6.225 -0.7500 -0.7384  1.7953
 7511TIP3   OH222477   7.139   4.156   5.448 -0.0194  0.5200 -0.6502
 7511TIP3    H122478   7.086   4.078   5.467 -2.0883  1.6839 -1.3891
 7511TIP3    H222479   7.141   4.161   5.352  2.2925 -0.0052 -0.6854
 7512TIP3   OH222480   1.162   5.485   0.296 -0.1114 -0.0068 -0.0289
 7512TIP3    H122481   1.251   5.459   0.319  0.1271  0.6515 -0.1792
 7512TIP3    H222482   1.113   5.478   0.378  0.0040 -0.6555 -0.0112
 7513TIP3   OH222483   3.023   7.633   3.847  0.3308 -0.0808  0.2108
 7513TIP3    H122484   3.048   7.690   3.919  0.6253 -1.3288  1.1221
 7513TIP3    H222485   2.973   7.562   3.888 -2.4582  0.8999 -1.2142
 7514TIP3   OH222486   2.967   0.065   6.569  0.0838  0.0065  0.3312
 7514TIP3    H122487   2.988   0.090   6.659  1.1102 -0.2921  0.1836
 7514TIP3    H222488   2.933   0.146   6.530 -0.2638  0.1688  0.9427
 7515TIP3   OH222489   7.747   5.080   2.544 -0.3680  0.0303 -0.0268
 7515TIP3    H122490   7.802   5.004   2.563  1.0471  0.9244 -0.4119
 7515TIP3    H222491   7.797   5.155   2.575 -0.8617  0.9680 -1.3788
 7516TIP3   OH222492   8.022   0.977   6.324  0.0959  0.3807 -0.2965
 7516TIP3    H122493   7.999   0.950   6.413  2.1374  1.1478  0.5321
 7516TIP3    H222494   8.003   1.070   6.322 -0.1198  0.3251 -0.7177
 7517TIP3   OH222495   8.156   0.705   0.861  0.0602 -0.3434 -0.5804
 7517TIP3    H122496   8.235   0.702   0.807 -0.2837  2.4611 -1.4155
 7517TIP3    H222497   8.164   0.631   0.920  3.5082  0.0265 -0.4042
 7518TIP3   OH222498   8.193   1.577   2.708 -0.4043  0.1224 -0.3738
 7518TIP3    H122499   8.102   1.549   2.717  0.2753 -2.4020 -0.5374
 7518TIP3    H222500   8.213   1.562   2.615  0.0850  1.0165 -0.4212
 7519TIP3   OH222501   1.428   7.712   0.443 -0.5956  0.3857 -0.6259
 7519TIP3    H122502   1.463   7.631   0.480 -0.4046  0.7172 -0.0588
 7519TIP3    H222503   1.495   7.743   0.383  0.2489  1.1683  0.6670
 7520TIP3   OH222504   5.337   0.950   5.663 -0.1939 -0.2404 -0.1389
 7520TIP3    H122505   5.409   0.961   5.725 -0.7291 -1.9698  0.8699
 7520TIP3    H222506   5.315   1.039   5.636  1.4652  0.4091  0.5052
 7521TIP3   OH222507   3.104   1.550   6.161  0.2449 -0.4944  0.0265
 7521TIP3    H122508   3.017   1.585   6.144 -0.2985 -1.3581  0.9312
 7521TIP3    H222509   3.135   1.598   6.238  0.3949 -0.4892 -0.0361
 7522TIP3   OH222510   4.918   0.165   5.154  0.1303  0.6292  0.3062
 7522TIP3    H122511   4.927   0.125   5.241 -0.3392 -0.6187 -0.1945
 7522TIP3    H222512   4.852   0.233   5.166 -1.0181 -0.4815  0.6587
 7523TIP3   OH222513   4.201   6.613   6.662  0.2961  0.5313  0.1545
 7523TIP3    H122514   4.207   6.629   6.756 -0.0556  2.3164 -0.0732
 7523TIP3    H222515   4.291   6.611   6.631  0.3950  2.2954  0.2305
 7524TIP3   OH222516   8.069   1.203   4.932  0.2067  0.2097  0.4186
 7524TIP3    H122517   8.160   1.230   4.926 -0.2691  1.7101 -0.9157
 7524TIP3    H222518   8.061   1.129   4.873  0.2179  1.1768 -0.8289
 7525TIP3   OH222519   3.422   6.750   6.229  0.0111  0.2605  0.5295
 7525TIP3    H122520   3.328   6.736   6.219  0.0856  0.7220 -1.0888
 7525TIP3    H222521   3.432   6.782   6.319 -2.0024  4.9208 -0.6065
 7526TIP3   OH222522   4.598   6.990   3.550  0.0570  0.2388 -0.0437
 7526TIP3    H122523   4.579   6.896   3.551 -0.1983  0.2705  1.8180
 7526TIP3    H222524   4.691   6.996   3.529  0.0882 -0.4406 -0.1079
 7527TIP3   OH222525   1.772   4.743   0.380 -0.6569 -0.3302 -0.3835
 7527TIP3    H122526   1.696   4.743   0.321 -0.5200 -1.2274 -0.5869
 7527TIP3    H222527   1.812   4.657   0.366 -0.9761 -0.8249  1.4623
 7528TIP3   OH222528   7.863   2.744   5.477  0.5311  0.2869  0.5136
 7528TIP3    H122529   7.886   2.827   5.436  0.4687 -0.5156 -1.1946
 7528TIP3    H222530   7.773   2.757   5.508  0.3775  0.7341 -0.0990
 7529TIP3   OH222531   1.294   5.431   0.033  0.3436 -0.0584 -0.3717
 7529TIP3    H122532   1.293   5.335   0.035  0.0522 -0.0785 -1.2870
 7529TIP3    H222533   1.207   5.456   0.063  0.8745 -0.0312  1.2499
 7530TIP3   OH222534   6.961   1.746   0.012  0.0519 -0.0783  0.0215
 7530TIP3    H122535   7.036   1.757   0.069  0.5674 -1.2428 -0.4044
 7530TIP3    H222536   6.946   1.652   0.008 -0.1440 -0.0161 -1.5200
 7531TIP3   OH222537   2.169   0.344   5.680 -0.0061 -0.2926  0.1181
 7531TIP3    H122538   2.213   0.289   5.615 -0.2514  0.2221 -0.4935
 7531TIP3    H222539   2.076   0.325   5.668 -0.1544  0.8273 -0.6410
 7532TIP3   OH222540   0.658   2.777   4.402 -0.2865  0.5386 -0.6019
 7532TIP3    H122541   0.593   2.843   4.376  0.6147  0.9753 -1.8213
 7532TIP3    H222542   0.741   2.810   4.368  0.2345 -1.0904 -1.0054
 7533TIP3   OH222543   5.776   1.138   1.948  0.0699 -0.0224 -0.5766
 7533TIP3    H122544   5.681   1.124   1.946  0.2802 -1.6289 -1.4435
 7533TIP3    H222545   5.811   1.073   1.887  1.7868  0.1035  0.2061
 7534TIP3   OH222546   3.984   2.510   1.261 -0.4417  0.6737 -0.5762
 7534TIP3    H122547   4.063   2.497   1.209 -0.8276  1.2706 -1.3378
 7534TIP3    H222548   3.914   2.517   1.196 -1.1766 -0.1902  0.1023
 7535TIP3   OH222549   7.323   5.312   4.333 -0.6426 -0.4025 -0.1429
 7535TIP3    H122550   7.309   5.390   4.280 -1.7214 -0.3864  0.1318
 7535TIP3    H222551   7.296   5.239   4.277 -0.1720 -0.5329 -0.2034
 7536TIP3   OH222552   6.944   1.221   2.927  0.6578  0.6441 -0.3712
 7536TIP3    H122553   6.911   1.171   2.852  0.0730  2.1644 -1.1850
 7536TIP3    H222554   6.871   1.278   2.951  1.3838  1.2958  0.3356
 7537TIP3   OH222555   6.917   2.331   2.207  0.0065 -0.7723 -0.1695
 7537TIP3    H122556   6.905   2.347   2.301  2.1660 -0.1215  0.0327
 7537TIP3    H222557   6.845   2.271   2.184 -0.9219 -0.4664  1.7437
 7538TIP3   OH222558   5.708   2.166   6.297  0.1781  0.2780 -0.1079
 7538TIP3    H122559   5.643   2.103   6.267 -0.1475  0.9555 -0.8994
 7538TIP3    H222560   5.686   2.183   6.388  0.6220 -1.1584  0.2828
 7539TIP3   OH222561   8.157   1.396   4.225 -0.3731  0.4965  0.4831
 7539TIP3    H122562   8.200   1.322   4.182  0.4363  0.5775  1.1300
 7539TIP3    H222563   8.067   1.395   4.191  0.3125  0.7435 -1.4203
 7540TIP3   OH222564   6.819   7.582   1.388  0.1127  0.0212 -0.1482
 7540TIP3    H122565   6.786   7.494   1.370  3.8490 -1.1478 -2.2734
 7540TIP3    H222566   6.890   7.568   1.451  0.6619  1.5160 -0.4115
 7541TIP3   OH222567   1.112   5.159   0.553  0.1400  0.0756  0.1191
 7541TIP3    H122568   1.054   5.183   0.480 -0.0643  1.3429  0.6688
 7541TIP3    H222569   1.140   5.243   0.590  0.7464 -0.5425  1.1148
 7542TIP3   OH222570   1.299   7.680   1.538  0.2318 -0.2392  0.0501
 7542TIP3    H122571   1.375   7.649   1.587  0.1599 -1.5498 -0.6126
 7542TIP3    H222572   1.240   7.604   1.534  0.7044 -0.5833 -2.9509
 7543TIP3   OH222573   3.573   4.386   0.142 -0.6910  0.4342  0.5827
 7543TIP3    H122574   3.584   4.393   0.237  0.3979 -0.5925  0.5514
 7543TIP3    H222575   3.480   4.363   0.131 -1.1237  1.7311  1.3118
 7544TIP3   OH222576   4.894   5.980   6.386 -0.4415  0.5283  0.0823
 7544TIP3    H122577   4.913   5.893   6.352 -0.3668  0.6692 -0.2414
 7544TIP3    H222578   4.980   6.016   6.409 -0.4119  0.7646 -0.3957
 7545TIP3   OH222579   6.119   1.035   4.830  0.2081 -0.2860 -0.3505
 7545TIP3    H122580   6.079   1.039   4.917 -0.5530 -0.7253 -0.6655
 7545TIP3    H222581   6.061   1.088   4.775  0.3055 -0.5669 -0.7262
 7546TIP3   OH222582   6.844   3.358   6.250 -0.2967  0.2441  0.2605
 7546TIP3    H122583   6.894   3.346   6.331 -0.9730  1.5188  0.8939
 7546TIP3    H222584   6.774   3.294   6.255 -0.8281  0.8769  1.1017
 7547TIP3   OH222585   0.096   4.209   5.736  0.1508  0.1286  0.1243
 7547TIP3    H122586   0.086   4.284   5.796 -0.2417 -0.2802  0.5732
 7547TIP3    H222587   0.190   4.191   5.737  0.1875  0.3216  0.3849
 7548TIP3   OH222588   3.072   2.726   5.194  0.2464 -0.1046 -0.7392
 7548TIP3    H122589   3.115   2.643   5.173  1.2122  0.5737 -1.5438
 7548TIP3    H222590   3.127   2.792   5.152 -0.5881  0.9334 -0.2274
 7549TIP3   OH222591   2.371   4.198   6.592 -0.5715  0.4913 -0.7919
 7549TIP3    H122592   2.355   4.292   6.598  0.0392  0.5530 -0.0034
 7549TIP3    H222593   2.404   4.174   6.678  1.5791  0.0117 -1.6849
 7550TIP3   OH222594   6.470   3.317   4.011  0.5155  0.8285 -0.3358
 7550TIP3    H122595   6.413   3.271   3.950  0.3878  0.5668 -0.0231
 7550TIP3    H222596   6.413   3.343   4.083  0.7722  0.6593 -0.0706
 7551TIP3   OH222597   1.383   6.697   0.674  0.3637 -0.4784  0.1727
 7551TIP3    H122598   1.295   6.732   0.684  0.5050 -0.5278  2.0030
 7551TIP3    H222599   1.371   6.603   0.664  0.1111 -0.2435 -2.3600
 7552TIP3   OH222600   6.063   7.451   4.508 -0.1090  0.0102  0.2718
 7552TIP3    H122601   6.034   7.479   4.421  0.3314  1.0184  0.4338
 7552TIP3    H222602   6.000   7.384   4.534 -2.6417  2.4228  0.8140
 7553TIP3   OH222603   7.259   5.005   0.148 -0.0815 -0.2464 -0.0815
 7553TIP3    H122604   7.244   5.021   0.054  0.5796 -0.5097 -0.2336
 7553TIP3    H222605   7.181   4.956   0.176 -0.9516  1.0331 -0.1699
 7554TIP3   OH222606   7.975   4.393   5.724 -0.0820  0.9184 -0.5317
 7554TIP3    H122607   7.886   4.429   5.734 -0.5010 -0.3496  0.5356
 7554TIP3    H222608   7.965   4.318   5.667  0.0254 -0.1271  0.7755
 7555TIP3   OH222609   4.657   5.296   2.446 -0.2954 -0.4593 -0.5911
 7555TIP3    H122610   4.733   5.341   2.409 -1.0476  0.7924 -0.6911
 7555TIP3    H222611   4.630   5.235   2.377  1.0365 -1.4577 -0.2639
 7556TIP3   OH222612   4.529   3.262   0.402 -0.1996  0.5990  0.1495
 7556TIP3    H122613   4.437   3.277   0.380 -0.8437  0.1459  2.3639
 7556TIP3    H222614   4.569   3.349   0.397 -0.4467  0.6511 -1.8809
 7557TIP3   OH222615   1.097   2.078   2.822  0.0590  0.0295 -0.0838
 7557TIP3    H122616   1.108   1.983   2.826  0.5889  0.1197  1.1132
 7557TIP3    H222617   1.185   2.112   2.839 -0.1937  0.7355 -0.1827
 7558TIP3   OH222618   1.450   0.681   0.102 -0.2767  0.3085  0.0558
 7558TIP3    H122619   1.441   0.599   0.149  0.9229  0.2518  0.2226
 7558TIP3    H222620   1.378   0.681   0.039 -1.8361  0.3089  1.7411
 7559TIP3   OH222621   7.293   5.235   2.199  0.7325 -0.5797  0.3655
 7559TIP3    H122622   7.339   5.246   2.116  0.9075 -0.3439  0.4906
 7559TIP3    H222623   7.351   5.275   2.264 -0.5592  1.5810  0.2657
 7560TIP3   OH222624   6.845   6.232   2.951  0.3583  0.3682 -0.3082
 7560TIP3    H122625   6.853   6.327   2.942 -1.5666  0.5717 -0.3914
 7560TIP3    H222626   6.899   6.196   2.880  5.6793  1.0931  2.8380
 7561TIP3   OH222627   3.299   4.492   2.652 -0.1994 -0.1555 -0.3576
 7561TIP3    H122628   3.267   4.409   2.619  1.8869 -1.0911 -0.1345
 7561TIP3    H222629   3.329   4.540   2.574  1.2161 -0.8080 -0.2399
 7562TIP3   OH222630   0.945   0.533   1.336  0.1016 -0.0086  0.1866
 7562TIP3    H122631   0.998   0.484   1.399  0.7484  0.3130 -0.1034
 7562TIP3    H222632   0.862   0.485   1.333  0.0198  0.0271  1.3611
 7563TIP3   OH222633   0.786   3.529   0.549  0.7278  0.1834 -0.4143
 7563TIP3    H122634   0.846   3.487   0.488 -0.6715  0.2456 -1.8861
 7563TIP3    H222635   0.703   3.535   0.502 -0.0658  1.3941  1.0344
 7564TIP3   OH222636   7.032   0.208   1.485 -0.1789  0.2681  0.2168
 7564TIP3    H122637   7.090   0.266   1.535  0.7812  1.5986 -2.2877
 7564TIP3    H222638   7.039   0.123   1.529  0.7325  1.2926  2.1894
 7565TIP3   OH222639   5.081   3.882   1.602  0.0439 -0.1931 -0.4132
 7565TIP3    H122640   5.109   3.825   1.674 -0.6092 -0.6706 -0.5235
 7565TIP3    H222641   4.985   3.872   1.600 -0.2168  1.7342  0.2509
 7566TIP3   OH222642   0.674   7.630   3.463 -0.4162  0.6103 -0.0214
 7566TIP3    H122643   0.743   7.572   3.430 -1.4323  1.0973 -3.4025
 7566TIP3    H222644   0.612   7.570   3.505  0.1274 -0.3562 -0.5446
 7567TIP3   OH222645   6.087   1.494   4.212  0.1116  0.3986  0.3623
 7567TIP3    H122646   6.106   1.432   4.282 -0.9117  0.0705  0.3564
 7567TIP3    H222647   5.993   1.511   4.218  0.5088  2.6553  0.9218
 7568TIP3   OH222648   1.645   3.515   4.132 -0.0655  0.2256 -0.1311
 7568TIP3    H122649   1.669   3.563   4.053  0.3530  0.3395  0.0619
 7568TIP3    H222650   1.551   3.498   4.122 -0.1170  0.6518 -0.4321
 7569TIP3   OH222651   0.650   5.772   4.396 -0.4004 -0.0002 -0.4587
 7569TIP3    H122652   0.576   5.831   4.388 -2.0473 -1.9732 -0.4189
 7569TIP3    H222653   0.612   5.685   4.403  1.8904 -1.0265  0.4718
 7570TIP3   OH222654   7.492   5.229   3.159 -0.2571  0.2059 -0.4338
 7570TIP3    H122655   7.508   5.155   3.100 -2.1812 -0.4652 -0.1912
 7570TIP3    H222656   7.420   5.200   3.214 -0.2220  1.8153  0.5209
 7571TIP3   OH222657   0.596   5.528   6.646 -0.0883 -0.2539  0.1142
 7571TIP3    H122658   0.613   5.539   6.740 -1.4194  0.9535  0.2655
 7571TIP3    H222659   0.660   5.585   6.603 -1.1918  1.3276  0.4676
 7572TIP3   OH222660   2.084   4.922   0.899  0.4438  0.2155  0.2999
 7572TIP3    H122661   2.016   4.855   0.888 -2.2150  2.4062  2.0469
 7572TIP3    H222662   2.108   4.946   0.810 -0.1786 -1.4398 -0.3608
 7573TIP3   OH222663   8.216   7.245   5.579  0.6195 -0.5712 -0.3645
 7573TIP3    H122664   8.228   7.227   5.486 -0.3455 -1.5602 -0.3188
 7573TIP3    H222665   8.272   7.182   5.623  0.1621 -0.9138 -0.2654
 7574TIP3   OH222666   6.205   3.760   1.658 -0.2782  0.0981 -0.0851
 7574TIP3    H122667   6.190   3.770   1.564  0.0704 -0.5712 -0.2199
 7574TIP3    H222668   6.122   3.726   1.692  0.1668 -1.4618 -0.4666
 7575TIP3   OH222669   7.912   0.075   0.166  0.2457 -0.0639 -0.4747
 7575TIP3    H122670   7.937   0.060   0.075 -0.6653  1.2005 -0.9682
 7575TIP3    H222671   7.833   0.022   0.179  0.6975 -0.6876 -0.2365
 7576TIP3   OH222672   2.860   4.902   0.657 -0.1141  0.2729 -0.5215
 7576TIP3    H122673   2.901   4.987   0.650  0.3891  0.0588 -0.2010
 7576TIP3    H222674   2.832   4.896   0.748  0.0629  0.0021 -0.4835
 7577TIP3   OH222675   6.207   3.981   2.565  0.0457  0.2993  0.0124
 7577TIP3    H122676   6.144   3.972   2.494  0.6501  0.8269 -0.6080
 7577TIP3    H222677   6.286   3.936   2.533  0.3109  0.5098  0.3630
 7578TIP3   OH222678   1.886   1.686   1.483 -0.2557 -0.2398 -0.4481
 7578TIP3    H122679   1.953   1.620   1.464  0.9801  0.6789  0.5589
 7578TIP3    H222680   1.914   1.764   1.434  0.1027  0.5211  0.9210
 7579TIP3   OH222681   3.400   2.442   2.929 -0.1910  0.3934  0.1824
 7579TIP3    H122682   3.390   2.503   2.856  1.0799  1.1439  0.5983
 7579TIP3    H222683   3.447   2.492   2.995 -0.6393 -0.5163  1.2214
 7580TIP3   OH222684   5.741   4.380   0.075  0.1459 -0.1962 -0.1947
 7580TIP3    H122685   5.745   4.432  -0.005 -1.2527 -1.0653 -0.8731
 7580TIP3    H222686   5.797   4.304   0.057  0.1789 -0.1785 -0.1684
 7581TIP3   OH222687   1.700   4.042   4.143  0.5882 -0.0767  0.2400
 7581TIP3    H122688   1.756   4.047   4.221  0.9285 -0.9909  0.0710
 7581TIP3    H222689   1.616   4.008   4.176  0.6802 -0.3088  0.2393
 7582TIP3   OH222690   1.359   7.793   3.411 -0.1067 -0.1942 -0.9038
 7582TIP3    H122691   1.376   7.807   3.318 -1.4923 -0.4421 -1.2168
 7582TIP3    H222692   1.296   7.722   3.414  0.0109 -0.2819  0.2411
 7583TIP3   OH222693   5.871   3.613   5.009 -0.1865  0.1557  0.7998
 7583TIP3    H122694   5.886   3.521   5.030  0.8281  0.3059  0.7860
 7583TIP3    H222695   5.881   3.618   4.914 -0.0849  0.3017  0.8173
 7584TIP3   OH222696   7.364   5.562   6.518 -0.3712 -0.3320  0.1339
 7584TIP3    H122697   7.322   5.486   6.559  1.1905 -1.3428 -0.0510
 7584TIP3    H222698   7.411   5.525   6.443  2.0445  0.4928  1.1758
 7585TIP3   OH222699   5.411   3.906   3.091  0.3306 -0.2803  0.2593
 7585TIP3    H122700   5.472   3.844   3.133 -1.1998 -1.7854  0.3823
 7585TIP3    H222701   5.402   3.873   3.002 -1.0569 -0.7017  0.5298
 7586TIP3   OH222702   5.759   2.399   3.658 -0.4668 -0.1352 -0.5575
 7586TIP3    H122703   5.766   2.472   3.719  0.5754 -0.4855 -0.2316
 7586TIP3    H222704   5.812   2.424   3.582  0.3771 -0.7738 -0.1983
 7587TIP3   OH222705   5.728   6.756   6.066 -1.0533  0.3269  0.1585
 7587TIP3    H122706   5.669   6.771   6.139 -1.0195 -1.5619  0.6233
 7587TIP3    H222707   5.677   6.704   6.004 -0.4813  0.3039 -0.3035
 7588TIP3   OH222708   2.047   4.319   3.853 -0.2405  0.4365  0.3027
 7588TIP3    H122709   1.991   4.277   3.918 -1.8747  2.3030  0.1989
 7588TIP3    H222710   2.127   4.341   3.901 -0.4857 -0.2661  1.0584
 7589TIP3   OH222711   7.920   6.839   5.148 -0.2489  0.0212 -0.5410
 7589TIP3    H122712   7.850   6.787   5.187 -0.4723 -0.1100 -1.1169
 7589TIP3    H222713   7.892   6.930   5.161 -0.7228 -0.0370 -1.1256
 7590TIP3   OH222714   3.894   5.427   0.656 -0.2106  0.2792 -0.2360
 7590TIP3    H122715   3.895   5.418   0.560 -1.8546 -0.7321 -0.1835
 7590TIP3    H222716   3.809   5.394   0.683 -0.0429  1.1847  1.5446
 7591TIP3   OH222717   5.014   4.597   6.143  0.9820 -0.5099  0.5860
 7591TIP3    H122718   4.981   4.541   6.074 -0.2742  0.7240  0.1405
 7591TIP3    H222719   5.006   4.545   6.223  0.4939 -1.2020  0.0935
 7592TIP3   OH222720   6.400   2.209   4.703  0.1897  0.8604 -0.0606
 7592TIP3    H122721   6.444   2.237   4.622  0.1253 -1.0755 -0.8350
 7592TIP3    H222722   6.309   2.198   4.677  0.4029 -1.0455 -0.1145
 7593TIP3   OH222723   2.927   2.288   5.810  0.1770 -0.1152 -0.1075
 7593TIP3    H122724   2.897   2.326   5.728  1.6712 -0.8492 -1.0418
 7593TIP3    H222725   3.010   2.246   5.788 -0.1201 -1.6299  1.4551
 7594TIP3   OH222726   7.127   6.286   2.420  0.2533 -0.4019 -0.0829
 7594TIP3    H122727   7.189   6.262   2.350  0.3857 -0.7774  0.1609
 7594TIP3    H222728   7.107   6.203   2.463  2.9593  0.1859  2.6595
 7595TIP3   OH222729   6.092   3.080   2.862 -0.0426  0.2019  0.6055
 7595TIP3    H122730   6.115   3.129   2.941 -0.4563  1.3495  0.0296
 7595TIP3    H222731   6.103   3.142   2.791 -1.3649 -0.3033 -0.0650
 7596TIP3   OH222732   4.485   0.893   0.976  0.0376 -0.8194  0.0560
 7596TIP3    H122733   4.455   0.929   1.059  1.5770  1.1708 -0.1847
 7596TIP3    H222734   4.416   0.832   0.950 -2.0001  0.8844  1.2256
 7597TIP3   OH222735   7.861   0.001   4.175 -0.1786 -0.0526  0.1071
 7597TIP3    H122736   7.876   0.083   4.222 -0.8846 -0.2019  0.6007
 7597TIP3    H222737   7.894   0.019   4.086 -1.9516  1.3865 -0.3167
 7598TIP3   OH222738   2.524   0.716   2.786 -0.2911  0.9950  0.4886
 7598TIP3    H122739   2.471   0.724   2.866 -0.1016  1.1049  0.6050
 7598TIP3    H222740   2.534   0.806   2.755 -0.9618  0.8864 -0.0563
 7599TIP3   OH222741   2.855   7.548   6.446  0.1444  0.2443 -0.2150
 7599TIP3    H122742   2.888   7.594   6.369 -0.8472  1.8780  0.2735
 7599TIP3    H222743   2.762   7.573   6.451  0.5280  1.5224  2.3622
 7600TIP3   OH222744   0.566   4.320   0.010 -0.1193  0.4548  0.0606
 7600TIP3    H122745   0.613   4.296   0.090 -1.4099 -0.5153  0.5630
 7600TIP3    H222746   0.558   4.415   0.014  1.5871  0.6157  0.0670
 7601TIP3   OH222747   7.559   0.544   3.259 -0.7927 -0.0694 -0.5759
 7601TIP3    H122748   7.519   0.560   3.344  0.6817  0.2548  0.0817
 7601TIP3    H222749   7.636   0.491   3.278  0.4418  1.3309 -1.5123
 7602TIP3   OH222750   6.667   0.087   4.495  0.3096  0.1087 -0.0677
 7602TIP3    H122751   6.576   0.067   4.473  0.6244 -0.9252 -0.5032
 7602TIP3    H222752   6.707   0.001   4.511  1.3185  0.5108 -0.3383
 7603TIP3   OH222753   6.228   2.461   6.158 -0.0568 -0.3128 -0.3167
 7603TIP3    H122754   6.158   2.396   6.152 -0.2585 -0.2091  0.6911
 7603TIP3    H222755   6.270   2.459   6.072 -0.2308 -1.5808 -0.3993
 7604TIP3   OH222756   1.722   6.038   1.319 -0.3179 -0.2952  0.0925
 7604TIP3    H122757   1.729   6.028   1.224  0.6746  1.1097 -0.0197
 7604TIP3    H222758   1.769   5.962   1.354  0.4070 -0.1746 -0.5743
 7605TIP3   OH222759   5.393   3.380   3.041  0.3213 -0.6819  0.3667
 7605TIP3    H122760   5.415   3.451   3.102  1.2094 -0.6403  0.0048
 7605TIP3    H222761   5.390   3.302   3.097  0.6235 -0.5619  0.5558
 7606TIP3   OH222762   1.816   0.400   4.514 -0.4256  0.6915  0.4418
 7606TIP3    H122763   1.802   0.384   4.421 -1.0563  3.0507  0.0812
 7606TIP3    H222764   1.770   0.482   4.532  0.8551  1.0239  2.5327
 7607TIP3   OH222765   7.503   7.791   1.275 -0.7132  0.5372 -0.6665
 7607TIP3    H122766   7.473   7.859   1.214 -1.8441  0.9018  0.2552
 7607TIP3    H222767   7.428   7.733   1.285 -0.2567  0.0025 -0.2839
 7608TIP3   OH222768   2.872   6.932   3.551  0.3609 -0.4360  0.2094
 7608TIP3    H122769   2.831   6.930   3.464 -0.2493 -0.6990  0.5035
 7608TIP3    H222770   2.853   6.847   3.589 -1.2074  0.4072  1.4385
 7609TIP3   OH222771   2.232   4.969   0.342  0.1650  0.1352  0.2289
 7609TIP3    H122772   2.179   5.048   0.351  1.5732  0.9997  1.1834
 7609TIP3    H222773   2.172   4.905   0.303 -0.5834  2.0730 -1.9770
 7610TIP3   OH222774   0.413   0.278   5.146 -0.5051  0.1275 -0.0691
 7610TIP3    H122775   0.346   0.211   5.137  0.4069 -0.9905  1.1630
 7610TIP3    H222776   0.411   0.326   5.063 -1.9870 -0.6508 -0.5036
 7611TIP3   OH222777   6.283   2.211   6.498  0.0307 -0.4688  0.5978
 7611TIP3    H122778   6.230   2.268   6.553  0.4309  0.2998  0.1981
 7611TIP3    H222779   6.338   2.270   6.447  0.6507 -1.2219  0.3698
 7612TIP3   OH222780   3.571   7.856   3.266 -0.1519 -0.4528 -0.8417
 7612TIP3    H122781   3.504   7.822   3.207  0.1994 -0.3026 -1.3335
 7612TIP3    H222782   3.608   7.778   3.308  1.2082 -0.7950 -2.5613
 7613TIP3   OH222783   0.448   4.412   2.064  0.0503  0.0409  0.3605
 7613TIP3    H122784   0.398   4.488   2.033 -1.5592 -0.8059  0.7267
 7613TIP3    H222785   0.537   4.445   2.077 -0.3876  1.6234 -0.3674
 7614TIP3   OH222786   4.649   5.984   1.462 -0.1573  0.0078  0.1269
 7614TIP3    H122787   4.561   6.019   1.448 -0.1279 -0.4337 -1.2522
 7614TIP3    H222788   4.637   5.913   1.525 -0.6757  0.3717  0.4463
 7615TIP3   OH222789   4.550   3.126   6.382  0.2208 -0.2178  0.3192
 7615TIP3    H122790   4.472   3.088   6.422 -0.5663 -0.4111 -1.3544
 7615TIP3    H222791   4.519   3.164   6.300  2.1371 -1.6354 -1.1352
 7616TIP3   OH222792   7.759   3.641   4.247  1.2978 -0.2355  0.4680
 7616TIP3    H122793   7.739   3.558   4.290 -0.0853 -0.6426 -0.8719
 7616TIP3    H222794   7.816   3.686   4.308  1.4324 -1.8317  1.5913
 7617TIP3   OH222795   5.995   4.328   6.783 -0.1691  0.0827 -0.4600
 7617TIP3    H122796   5.950   4.307   6.702 -1.5937  0.4583  0.1968
 7617TIP3    H222797   5.986   4.423   6.791 -3.1293 -0.2331  1.7786
 7618TIP3   OH222798   3.125   5.156   1.215  0.4460 -0.1389  0.4551
 7618TIP3    H122799   3.171   5.138   1.297  0.8300 -0.5528  0.1525
 7618TIP3    H222800   3.047   5.101   1.218  0.2750  0.1167  0.7030
 7619TIP3   OH222801   4.989   5.882   1.981 -0.3880 -0.0152  0.5400
 7619TIP3    H122802   4.957   5.970   1.961  0.0948 -0.0185 -0.3012
 7619TIP3    H222803   4.916   5.840   2.027 -1.4001  0.1793 -0.8013
 7620TIP3   OH222804   1.296   3.471   2.513  0.0670  0.2729 -0.0851
 7620TIP3    H122805   1.323   3.385   2.482  0.4799  0.5301 -0.4724
 7620TIP3    H222806   1.378   3.519   2.523 -0.2137  0.9806 -0.9868
 7621TIP3   OH222807   2.135   1.336   3.727 -0.4834 -0.2066  0.1393
 7621TIP3    H122808   2.108   1.408   3.669 -0.7603 -0.6240 -0.2498
 7621TIP3    H222809   2.166   1.268   3.667  0.9830  0.0685  0.5455
 7622TIP3   OH222810   2.143   2.173   6.141  0.0514 -0.1325  0.4383
 7622TIP3    H122811   2.067   2.144   6.090  0.2370 -0.7212  0.4993
 7622TIP3    H222812   2.218   2.148   6.088  0.1982  1.1999 -0.0279
 7623TIP3   OH222813   6.046   5.398   2.692 -0.2181 -0.0695  0.8078
 7623TIP3    H122814   6.006   5.482   2.714  0.5057  0.1508  1.2910
 7623TIP3    H222815   5.982   5.356   2.633 -0.8538  0.5558  1.0388
 7624TIP3   OH222816   5.479   7.278   5.490  0.4305 -0.0730  0.3564
 7624TIP3    H122817   5.516   7.210   5.547  0.4827 -0.3904 -0.0539
 7624TIP3    H222818   5.386   7.282   5.514  0.5948  0.2939  0.9575
 7625TIP3   OH222819   3.406   3.699   0.678  0.0661  0.4928  0.1518
 7625TIP3    H122820   3.408   3.794   0.693  0.8022  0.6151 -0.6336
 7625TIP3    H222821   3.498   3.672   0.686 -0.0652 -0.0633 -0.1686
 7626TIP3   OH222822   7.757   2.198   1.210  0.5808 -0.0695  0.0587
 7626TIP3    H122823   7.837   2.145   1.201  0.1480 -0.6585 -0.4811
 7626TIP3    H222824   7.693   2.153   1.155  0.0609  0.7668 -0.0378
 7627TIP3   OH222825   4.889   6.936   3.870 -0.1511 -0.5770  0.3624
 7627TIP3    H122826   4.822   6.994   3.906 -1.1458 -0.3512 -1.6800
 7627TIP3    H222827   4.899   6.867   3.936 -0.6162  0.6834  1.8036
 7628TIP3   OH222828   0.709   7.083   4.474 -0.1007  0.0046 -0.3794
 7628TIP3    H122829   0.645   7.032   4.425  0.6834 -1.4788  0.0994
 7628TIP3    H222830   0.657   7.144   4.526 -1.2747 -2.4310  1.4361
 7629TIP3   OH222831   1.461   4.614   2.360  0.3199  0.2699 -0.3042
 7629TIP3    H122832   1.525   4.542   2.355  1.0063  0.9002 -0.7774
 7629TIP3    H222833   1.428   4.610   2.449  0.8197 -0.2416 -0.1313
 7630TIP3   OH222834   1.529   1.710   0.841 -0.3290  0.0500 -0.2811
 7630TIP3    H122835   1.611   1.660   0.836 -0.4570 -0.1386 -0.5370
 7630TIP3    H222836   1.521   1.753   0.756 -1.2452 -1.1424 -0.8316
 7631TIP3   OH222837   0.741   0.599   2.677  0.4252  0.0573  0.2898
 7631TIP3    H122838   0.668   0.645   2.718 -0.1595  0.3527 -1.0223
 7631TIP3    H222839   0.714   0.589   2.585  1.7161 -0.4831 -0.0495
 7632TIP3   OH222840   0.468   7.503   1.298 -0.8124 -0.4257  0.4523
 7632TIP3    H122841   0.381   7.483   1.263 -1.5910  1.1771  1.3179
 7632TIP3    H222842   0.461   7.594   1.327  1.6131  0.2346 -0.8102
 7633TIP3   OH222843   7.912   4.289   2.398 -0.3893 -0.3891  0.4524
 7633TIP3    H122844   7.839   4.314   2.456 -1.4288 -2.5144  0.1553
 7633TIP3    H222845   7.909   4.352   2.327 -3.2542 -1.4890 -0.5651
 7634TIP3   OH222846   1.494   5.904   1.719  0.5921  0.5475  0.1491
 7634TIP3    H122847   1.419   5.937   1.770 -0.0443  1.6446 -1.4166
 7634TIP3    H222848   1.498   5.811   1.740 -1.6146  0.3290 -0.1844
 7635TIP3   OH222849   8.080   5.172   1.925 -0.1777 -0.1225 -0.1974
 7635TIP3    H122850   8.045   5.244   1.872 -0.8271 -0.0987  0.2508
 7635TIP3    H222851   8.173   5.192   1.934 -0.2846  0.4800 -0.3654
 7636TIP3   OH222852   4.869   1.571   6.421  0.2350  0.2199 -0.2079
 7636TIP3    H122853   4.786   1.579   6.468 -0.4914 -0.5942 -1.3038
 7636TIP3    H222854   4.936   1.573   6.490 -0.8066 -1.4338  0.9087
 7637TIP3   OH222855   2.530   1.120   6.275 -1.2988 -0.3743 -0.1012
 7637TIP3    H122856   2.448   1.168   6.260 -0.7025  0.9303  0.6482
 7637TIP3    H222857   2.585   1.182   6.323 -0.0197 -1.3804 -0.2301
 7638TIP3   OH222858   0.033   7.726   1.243  0.2116 -0.3895 -0.2610
 7638TIP3    H122859  -0.043   7.707   1.188  1.0210  1.6267 -2.2469
 7638TIP3    H222860   0.070   7.640   1.265 -1.9568 -1.3533 -0.1746
 7639TIP3   OH222861   7.069   3.592   0.892  0.4500  0.1084 -0.2720
 7639TIP3    H122862   7.014   3.514   0.900 -0.0593  0.4478 -0.3990
 7639TIP3    H222863   7.060   3.637   0.976 -0.9476  1.1045 -0.8930
 7640TIP3   OH222864   2.721   0.286   4.325  0.7787 -0.0431  0.1067
 7640TIP3    H122865   2.642   0.331   4.296  1.0076  1.1387  1.2260
 7640TIP3    H222866   2.782   0.356   4.347  1.7855 -0.9283  0.2289
 7641TIP3   OH222867   7.668   0.063   3.428 -0.3723 -0.1283  0.1260
 7641TIP3    H122868   7.692   0.063   3.335  0.8488 -0.6362  0.4203
 7641TIP3    H222869   7.580   0.026   3.429  0.2755 -1.8561 -0.7021
 7642TIP3   OH222870   6.673   1.192   1.568 -0.0080  0.4418  0.3408
 7642TIP3    H122871   6.605   1.125   1.579  0.0129  0.0373 -1.7061
 7642TIP3    H222872   6.625   1.273   1.554 -0.0435  0.4595  0.5540
 7643TIP3   OH222873   3.737   3.276   1.572 -0.0916 -0.1334 -0.2117
 7643TIP3    H122874   3.770   3.205   1.516  0.7668  1.8530 -2.4130
 7643TIP3    H222875   3.813   3.332   1.588 -1.0977  1.2737 -0.1433
 7644TIP3   OH222876   2.166   3.206   2.840 -0.1092  0.0425  0.6119
 7644TIP3    H122877   2.115   3.142   2.789 -0.2074 -0.3951  1.2361
 7644TIP3    H222878   2.213   3.152   2.904  1.8124  0.3546 -0.4877
 7645TIP3   OH222879   7.225   6.837   5.001  0.5877 -0.0945 -0.9974
 7645TIP3    H122880   7.282   6.761   4.990  0.5925 -0.3471  0.5795
 7645TIP3    H222881   7.284   6.908   5.025  0.3780 -0.0598 -0.5789
 7646TIP3   OH222882   3.820   4.166   5.316 -0.1610 -0.5763  0.2678
 7646TIP3    H122883   3.824   4.143   5.223 -0.3189 -0.1198  0.1471
 7646TIP3    H222884   3.727   4.162   5.338 -0.1435 -0.4936  0.3572
 7647TIP3   OH222885   1.387   6.351   4.461  0.2340 -0.0041  0.5666
 7647TIP3    H122886   1.337   6.383   4.386 -2.1310  1.6257  2.6699
 7647TIP3    H222887   1.454   6.294   4.423 -0.6935  0.9021 -2.7509
 7648TIP3   OH222888   6.953   3.238   6.489  0.2605 -0.2422 -0.3070
 7648TIP3    H122889   6.988   3.252   6.577 -0.0328  2.1028 -0.4871
 7648TIP3    H222890   6.903   3.157   6.495  0.7656 -0.4547  1.5140
 7649TIP3   OH222891   1.466   0.281   2.160 -0.3793 -0.0283 -0.0722
 7649TIP3    H122892   1.528   0.353   2.172 -0.1672 -0.0958 -0.7608
 7649TIP3    H222893   1.468   0.235   2.244 -0.0017  0.3656  0.1404
 7650TIP3   OH222894   0.580   2.393   6.001  0.1584 -0.3063 -0.0437
 7650TIP3    H122895   0.490   2.424   6.015  0.2735 -0.3969  1.0188
 7650TIP3    H222896   0.605   2.429   5.916 -0.8296 -0.1528 -0.2860
 7651TIP3   OH222897   5.490   1.086   5.372  0.3370 -0.3484  0.3070
 7651TIP3    H122898   5.412   1.039   5.339  2.0779 -2.7645 -0.6941
 7651TIP3    H222899   5.487   1.170   5.327 -0.6688 -1.1656 -1.2980
 7652TIP3   OH222900   6.446   7.182   5.174  0.0718 -0.0230  0.2095
 7652TIP3    H122901   6.445   7.275   5.196 -0.4461  0.3471 -1.2815
 7652TIP3    H222902   6.381   7.172   5.104  1.5451 -1.1048 -1.0946
 7653TIP3   OH222903   5.419   5.703   6.423 -0.3957  0.3882  0.0086
 7653TIP3    H122904   5.461   5.704   6.337  0.4365  0.7931  0.4140
 7653TIP3    H222905   5.366   5.622   6.423 -0.0691  0.1678 -0.7147
 7654TIP3   OH222906   4.207   2.975   0.980  0.0864  0.2771  0.7054
 7654TIP3    H122907   4.138   2.987   0.914 -1.2846 -0.3180  1.9931
 7654TIP3    H222908   4.285   2.955   0.928 -0.6470  1.1018 -0.8050
 7655TIP3   OH222909   0.853   3.895   5.613  0.4252  0.3035  0.1580
 7655TIP3    H122910   0.844   3.926   5.703  1.1524  2.0401 -0.3284
 7655TIP3    H222911   0.948   3.894   5.598  0.4272 -1.9826  0.0489
 7656TIP3   OH222912   6.637   2.514   5.146  0.3722  0.4870 -0.1674
 7656TIP3    H122913   6.599   2.427   5.135 -0.9320  1.1095 -0.7476
 7656TIP3    H222914   6.590   2.551   5.220 -1.8084  2.0786 -2.2044
 7657TIP3   OH222915   5.705   2.089   2.949 -0.2107  0.0723 -0.0157
 7657TIP3    H122916   5.682   2.081   3.042  1.8298 -1.1518  0.4454
 7657TIP3    H222917   5.660   2.016   2.907 -0.2145 -0.0566  0.2095
 7658TIP3   OH222918   1.593   2.771   1.282  0.3542  0.3508  0.1429
 7658TIP3    H122919   1.553   2.745   1.199  0.4670 -0.2416  0.2675
 7658TIP3    H222920   1.645   2.695   1.308  0.4854  0.6117  0.6535
 7659TIP3   OH222921   6.139   2.844   5.169 -0.5707 -0.5557 -1.1387
 7659TIP3    H122922   6.170   2.903   5.238  1.2089 -0.0832 -2.2623
 7659TIP3    H222923   6.045   2.833   5.186 -0.3333  0.1436  0.8784
 7660TIP3   OH222924   3.099   7.351   0.407  0.3460 -0.3350 -0.6018
 7660TIP3    H122925   3.128   7.263   0.431 -0.9176 -0.7572 -0.5465
 7660TIP3    H222926   3.014   7.338   0.364 -1.7370  1.0623  2.6654
 7661TIP3   OH222927   3.485   6.565   2.612  0.2010  0.2348 -0.5175
 7661TIP3    H122928   3.497   6.655   2.642  0.6280 -0.3665  1.2739
 7661TIP3    H222929   3.496   6.569   2.517  1.4532  1.8835 -0.3525
 7662TIP3   OH222930   2.353   0.976   5.610  0.4749 -0.0354  0.0860
 7662TIP3    H122931   2.412   1.049   5.591  0.0152  0.8927  1.9261
 7662TIP3    H222932   2.328   0.941   5.524  2.0181  0.8996 -0.7773
 7663TIP3   OH222933   7.617   2.925   3.891 -0.5190  0.3432  0.2483
 7663TIP3    H122934   7.666   2.951   3.969 -0.3664  0.1931  0.2026
 7663TIP3    H222935   7.604   2.831   3.901  0.0293  0.2182 -0.2028
 7664TIP3   OH222936   2.444   2.071   0.698  0.1215  0.0579 -0.3046
 7664TIP3    H122937   2.457   2.147   0.641 -0.1029  0.2784 -0.0649
 7664TIP3    H222938   2.444   2.107   0.787  1.0420 -0.3582 -0.1254
 7665TIP3   OH222939   0.758   5.746   6.531 -0.1807 -0.6817  0.3383
 7665TIP3    H122940   0.772   5.836   6.500 -1.8054 -0.7504 -0.7401
 7665TIP3    H222941   0.814   5.693   6.475  1.7046 -0.2694  1.7739
 7666TIP3   OH222942   8.149   2.921   2.904  0.3807 -0.2347 -0.1816
 7666TIP3    H122943   8.079   2.876   2.857 -1.3585  1.0415  1.0524
 7666TIP3    H222944   8.213   2.852   2.924 -0.7667 -1.5481 -0.8798
 7667TIP3   OH222945   3.929   4.584   2.751 -0.3838  0.0305  0.4970
 7667TIP3    H122946   3.855   4.615   2.699 -0.0915  1.0425  0.6806
 7667TIP3    H222947   3.909   4.610   2.841  1.0552  2.0225  0.3013
 7668TIP3   OH222948   6.100   0.236   5.409 -0.0921 -0.2349 -0.1437
 7668TIP3    H122949   6.156   0.159   5.418 -1.0147 -0.7160  2.9850
 7668TIP3    H222950   6.023   0.204   5.361  0.6200 -0.5544 -1.1040
 7669TIP3   OH222951   1.799   7.273   2.298 -0.0566  0.1451 -0.0148
 7669TIP3    H122952   1.840   7.325   2.229 -2.5346 -1.9477 -3.4585
 7669TIP3    H222953   1.820   7.182   2.274 -1.7772 -0.7006  1.4357
 7670TIP3   OH222954   6.019   4.888   5.624  0.3194  0.2167  0.1799
 7670TIP3    H122955   6.055   4.800   5.636 -0.1592 -0.0302 -0.1427
 7670TIP3    H222956   6.078   4.931   5.563  0.8887  0.3272  0.7971
 7671TIP3   OH222957   6.713   4.690   3.257 -0.3152 -0.0361 -0.1678
 7671TIP3    H122958   6.690   4.708   3.348  0.7596  0.3798  0.0356
 7671TIP3    H222959   6.778   4.620   3.261 -0.1325  0.1030 -0.5961
 7672TIP3   OH222960   1.404   3.825   1.623 -0.1048  0.1977 -0.3431
 7672TIP3    H122961   1.369   3.911   1.599  0.7119  0.3184 -1.1575
 7672TIP3    H222962   1.477   3.812   1.563  1.7982  0.3264  1.8311
 7673TIP3   OH222963   2.607   7.237   4.027  0.4475 -0.1195  0.4970
 7673TIP3    H122964   2.518   7.267   4.045 -0.3733 -1.0496 -1.7500
 7673TIP3    H222965   2.604   7.142   4.041  0.5829 -0.4142 -1.2590
 7674TIP3   OH222966   4.880   7.414   2.291 -0.2617 -0.0498  0.3105
 7674TIP3    H122967   4.907   7.465   2.368 -0.8015  0.3107  0.2714
 7674TIP3    H222968   4.824   7.475   2.241 -0.6150 -0.5604  0.0751
 7675TIP3   OH222969   5.832   7.309   6.435 -0.0136 -0.0346 -0.4359
 7675TIP3    H122970   5.742   7.332   6.414  0.0310 -1.0125 -1.8367
 7675TIP3    H222971   5.885   7.383   6.405 -0.3218  0.4576  0.2182
 7676TIP3   OH222972   1.772   0.913   3.545  0.3271 -0.4920 -0.1463
 7676TIP3    H122973   1.837   0.947   3.483 -0.0877  1.1799  0.3124
 7676TIP3    H222974   1.693   0.903   3.492  0.2455 -0.0284 -0.1119
 7677TIP3   OH222975   6.930   6.652   6.525 -0.5090 -1.2114 -0.0112
 7677TIP3    H122976   6.941   6.596   6.602 -2.3013 -2.0055 -0.2684
 7677TIP3    H222977   6.853   6.616   6.481 -1.6988  1.4002 -0.2365
 7678TIP3   OH222978   0.193   7.439   1.294  0.2009  0.3582 -0.4598
 7678TIP3    H122979   0.167   7.356   1.332 -0.8585  1.9238  2.5148
 7678TIP3    H222980   0.161   7.436   1.204  0.1093 -2.3442 -0.3993
 7679TIP3   OH222981   0.219   0.885   5.674 -0.4281  0.2986  0.1576
 7679TIP3    H122982   0.296   0.890   5.618 -0.5570  0.8225  0.0250
 7679TIP3    H222983   0.197   0.791   5.676 -1.1522  0.3701 -1.6733
 7680TIP3   OH222984   7.750   2.999   1.054 -0.0569 -0.1120  0.3840
 7680TIP3    H122985   7.809   3.022   0.983  1.2802  0.2425  1.5558
 7680TIP3    H222986   7.807   2.964   1.122 -1.4629 -1.9198  0.7160
 7681TIP3   OH222987   7.179   4.495   6.326 -0.0988  0.6896  0.2129
 7681TIP3    H122988   7.250   4.481   6.264  0.0884 -1.3028  0.8057
 7681TIP3    H222989   7.114   4.427   6.303  0.2599 -0.5389  2.5297
 7682TIP3   OH222990   5.402   0.516   0.980  0.1507  0.0638  0.4830
 7682TIP3    H122991   5.427   0.457   0.909  0.3079  1.3528 -0.5553
 7682TIP3    H222992   5.306   0.518   0.978  0.1361 -0.3692  0.7016
 7683TIP3   OH222993   4.095   7.577   5.003  0.6518 -1.0186  0.7014
 7683TIP3    H122994   4.157   7.559   4.932 -0.4454  1.4851 -1.0407
 7683TIP3    H222995   4.009   7.564   4.964  0.0239 -0.7809  1.9544
 7684TIP3   OH222996   8.275   2.896   3.632  0.1431 -0.1423  0.6045
 7684TIP3    H122997   8.194   2.881   3.584  0.3629  1.4280 -0.3501
 7684TIP3    H222998   8.332   2.823   3.607 -0.9033 -1.1542  1.1421
 7685TIP3   OH222999   2.267   3.875   3.365 -0.6952  0.4352 -0.0261
 7685TIP3    H123000   2.234   3.903   3.451  1.4376  0.0515  0.9937
 7685TIP3    H223001   2.250   3.780   3.363  1.2169  0.0251  0.9890
 7686TIP3   OH223002   4.231   2.101   4.423  0.1120 -0.1531  0.0246
 7686TIP3    H123003   4.219   2.196   4.419 -0.1120 -0.1742  0.2247
 7686TIP3    H223004   4.219   2.072   4.332  1.0209  0.1082 -0.1921
 7687TIP3   OH223005   3.997   1.372   5.649 -0.9818 -0.5687  0.2831
 7687TIP3    H123006   3.904   1.374   5.674 -0.9123  1.3009  0.5031
 7687TIP3    H223007   4.037   1.440   5.702  0.4553 -1.0450 -0.1502
 7688TIP3   OH223008   3.405   6.186   5.223 -0.1318 -0.0744 -0.1296
 7688TIP3    H123009   3.500   6.178   5.210 -0.3375 -0.5677 -1.5884
 7688TIP3    H223010   3.378   6.100   5.255  0.1259  0.6105  2.0903
 7689TIP3   OH223011   7.076   0.935   5.647 -0.1349  0.8134 -0.3739
 7689TIP3    H123012   7.094   1.028   5.661  0.5703  0.5740  0.3684
 7689TIP3    H223013   7.109   0.917   5.559 -0.8489  1.3983 -0.7720
 7690TIP3   OH223014   3.682   6.644   2.949  0.0604 -0.7040  0.4044
 7690TIP3    H123015   3.667   6.609   2.861  1.3449 -0.7093  0.1761
 7690TIP3    H223016   3.771   6.617   2.971  0.4552  0.9427  0.9293
 7691TIP3   OH223017   2.895   1.064   5.464  0.0806 -0.0575 -0.5727
 7691TIP3    H123018   2.938   0.998   5.410  0.7021 -0.2116  0.0953
 7691TIP3    H223019   2.805   1.066   5.432  0.1912 -0.8575 -0.9525
 7692TIP3   OH223020   3.053   5.391   5.363 -0.1334 -0.1663  0.1198
 7692TIP3    H123021   3.073   5.315   5.418 -1.3265  2.0793  4.0652
 7692TIP3    H223022   2.957   5.398   5.366 -0.0376  1.5303 -0.0667
 7693TIP3   OH223023   0.759   4.319   0.837  0.8454 -0.0879  0.1748
 7693TIP3    H123024   0.694   4.317   0.767  0.0195 -0.6361  0.9271
 7693TIP3    H223025   0.843   4.324   0.792  0.2646  2.2499 -0.8054
 7694TIP3   OH223026   4.193   4.704   0.828  0.3747 -0.3668 -0.1960
 7694TIP3    H123027   4.134   4.715   0.754 -1.5432 -0.2300  1.2772
 7694TIP3    H223028   4.183   4.612   0.854  1.0651 -0.4286 -0.1360
 7695TIP3   OH223029   1.371   5.075   5.773 -0.1913 -0.0574  0.9809
 7695TIP3    H123030   1.357   5.005   5.835  0.5341 -0.9997  0.1173
 7695TIP3    H223031   1.450   5.050   5.725  1.2101  2.2437  1.8719
 7696TIP3   OH223032   5.596   1.321   5.772  0.8308 -0.3485  0.0188
 7696TIP3    H123033   5.567   1.231   5.762 -1.2961  0.4306 -1.5883
 7696TIP3    H223034   5.518   1.369   5.800  1.1090  1.4301 -1.9540
 7697TIP3   OH223035   3.818   6.180   2.825 -0.4431 -0.1597  0.1823
 7697TIP3    H123036   3.756   6.204   2.894 -0.9939 -1.5244  0.2035
 7697TIP3    H223037   3.901   6.219   2.852 -1.4656  2.7000 -0.4098
 7698TIP3   OH223038   8.067   7.234   2.630  0.3338 -0.2259  0.7847
 7698TIP3    H123039   8.048   7.300   2.563  1.6347  0.7251  1.3320
 7698TIP3    H223040   8.104   7.161   2.581 -1.2289 -0.6498  0.1602
 7699TIP3   OH223041   7.165   1.513   4.160  0.0288  0.3442 -0.2809
 7699TIP3    H123042   7.223   1.481   4.092  1.2193 -1.7708  1.6230
 7699TIP3    H223043   7.141   1.436   4.211 -0.8025  1.8191  1.7235
 7700TIP3   OH223044   6.419   7.008   3.784  0.1166  0.2717 -0.4049
 7700TIP3    H123045   6.485   6.956   3.830 -0.8743 -0.6370  0.0315
 7700TIP3    H223046   6.366   6.944   3.736 -1.2615  0.8086  0.3156
 7701TIP3   OH223047   0.147   0.726   6.103 -0.9564  0.2138 -0.1633
 7701TIP3    H123048   0.082   0.765   6.161 -1.0777 -1.6535  1.0273
 7701TIP3    H223049   0.100   0.716   6.020 -1.3010  1.3793 -0.1381
 7702TIP3   OH223050   4.773   0.068   4.930 -0.0043 -0.6514 -0.6799
 7702TIP3    H123051   4.792  -0.022   4.903 -2.1954 -1.3085 -0.2457
 7702TIP3    H223052   4.837   0.086   4.999 -0.3920 -2.4202  0.2257
 7703TIP3   OH223053   0.965   5.766   5.023  0.4586  0.1962 -0.3509
 7703TIP3    H123054   0.912   5.802   4.952  0.8671 -0.7288 -1.1490
 7703TIP3    H223055   1.054   5.795   5.005  0.4591  0.5373  0.1766
 7704TIP3   OH223056   7.028   5.456   3.514 -0.0081  0.2894 -0.5781
 7704TIP3    H123057   7.082   5.424   3.442 -1.0828 -0.7974 -0.9303
 7704TIP3    H223058   7.005   5.546   3.488  0.5215  0.2972 -1.0487
 7705TIP3   OH223059   5.636   3.717   6.735 -0.3860 -0.0959  0.2793
 7705TIP3    H123060   5.721   3.748   6.765  0.2016  0.9705 -2.2527
 7705TIP3    H223061   5.579   3.794   6.742 -0.0710  0.3826 -1.7521
 7706TIP3   OH223062   4.389   1.618   6.352  0.2996  0.1653  0.3465
 7706TIP3    H123063   4.483   1.635   6.350  0.5953 -1.1013  1.6984
 7706TIP3    H223064   4.370   1.582   6.266  1.2509 -0.4032  0.3510
 7707TIP3   OH223065   3.594   5.671   0.795 -0.1117 -0.5786  0.6581
 7707TIP3    H123066   3.675   5.673   0.846 -1.2603 -1.0028  2.5773
 7707TIP3    H223067   3.591   5.583   0.759  0.0271 -0.7301  1.0148
 7708TIP3   OH223068   3.798   3.148   0.188  0.2085  0.4754 -0.8962
 7708TIP3    H123069   3.789   3.070   0.244 -0.2554  1.9365  1.1842
 7708TIP3    H223070   3.831   3.114   0.105 -0.6568 -2.0229 -0.3046
 7709TIP3   OH223071   4.883   6.200   6.188 -0.2061 -0.6716 -0.0538
 7709TIP3    H123072   4.841   6.135   6.245 -0.3369  1.1818  2.0730
 7709TIP3    H223073   4.826   6.205   6.112 -1.5364 -1.2915  0.8605
 7710TIP3   OH223074   4.318   7.748   5.216  0.2194 -0.6302 -0.2368
 7710TIP3    H123075   4.411   7.759   5.234  0.7355 -3.3630 -0.7960
 7710TIP3    H223076   4.306   7.782   5.128  0.4029  0.7635  0.2448
 7711TIP3   OH223077   6.366   4.391   5.334  0.2628 -0.0700  0.2278
 7711TIP3    H123078   6.388   4.310   5.380 -0.2464 -0.4516 -0.1837
 7711TIP3    H223079   6.316   4.362   5.258  2.5549  0.3987 -1.5619
 7712TIP3   OH223080   5.626   1.286   6.473  0.2088 -0.1315  0.2657
 7712TIP3    H123081   5.722   1.286   6.465  0.2806 -1.1894  0.9853
 7712TIP3    H223082   5.607   1.355   6.535  0.4818  0.2571 -0.0762
 7713TIP3   OH223083   6.348   0.118   3.525  0.3202 -0.2258  0.4128
 7713TIP3    H123084   6.442   0.124   3.506  0.7651 -0.1849  2.4345
 7713TIP3    H223085   6.311   0.072   3.449  2.0110 -0.4891 -0.2940
 7714TIP3   OH223086   1.209   0.935   0.856 -0.7935 -0.3862  0.1252
 7714TIP3    H123087   1.167   0.875   0.918 -0.8157 -0.5307 -0.0285
 7714TIP3    H223088   1.269   0.987   0.909 -0.1614 -1.1050  0.1303
 7715TIP3   OH223089   3.659   2.326   6.487 -0.3509 -0.3061 -0.0689
 7715TIP3    H123090   3.653   2.235   6.457 -1.1975 -0.0712 -0.6330
 7715TIP3    H223091   3.716   2.369   6.423 -0.4557 -0.2966 -0.1567
 7716TIP3   OH223092   6.136   7.056   3.133  0.4946  0.2111 -0.0691
 7716TIP3    H123093   6.093   7.133   3.169 -0.7846 -0.7933  0.6487
 7716TIP3    H223094   6.214   7.044   3.187  1.0774  1.3563 -0.6165
 7717TIP3   OH223095   0.066   1.361   1.927  0.0527 -0.1300 -0.1291
 7717TIP3    H123096   0.004   1.432   1.915  0.4085  0.1431 -0.3652
 7717TIP3    H223097   0.132   1.375   1.859  1.3575  0.6380  1.2370
 7718TIP3   OH223098   1.212   2.315   2.206  0.1503 -0.2864 -0.6101
 7718TIP3    H123099   1.170   2.329   2.291  0.8823 -0.4765 -0.2098
 7718TIP3    H223100   1.219   2.403   2.168  0.0516 -0.1721 -0.3645
 7719TIP3   OH223101   0.917   1.549   2.402 -0.9300 -0.2618  0.0555
 7719TIP3    H123102   0.909   1.622   2.342 -1.2821  0.4302  0.9256
 7719TIP3    H223103   0.827   1.524   2.422 -0.8172 -1.3677 -0.7390
 7720TIP3   OH223104   7.228   1.181   3.717  0.0157  0.2672 -0.6185
 7720TIP3    H123105   7.178   1.216   3.791 -0.3936  0.6027 -1.0538
 7720TIP3    H223106   7.180   1.102   3.691  1.6741 -1.5160  1.2488
 7721TIP3   OH223107   1.167   2.275   4.377  0.1037  0.1083  0.3381
 7721TIP3    H123108   1.085   2.324   4.381 -1.1907 -1.9322  0.4666
 7721TIP3    H223109   1.148   2.192   4.421  1.8107 -1.0117 -0.8678
 7722TIP3   OH223110   1.678   3.822   0.197 -0.0407 -0.6042 -0.6496
 7722TIP3    H123111   1.771   3.832   0.177  0.3355 -1.1194  0.7216
 7722TIP3    H223112   1.634   3.876   0.132  1.3116  1.2374 -0.1172
 7723TIP3   OH223113   0.582   4.826   3.565 -0.1735 -0.1309  0.7899
 7723TIP3    H123114   0.632   4.908   3.564 -0.1245 -0.1548 -0.0027
 7723TIP3    H223115   0.497   4.849   3.601  0.7160 -0.2944  3.1499
 7724TIP3   OH223116   7.318   5.883   4.567  0.0009 -0.3271 -0.5446
 7724TIP3    H123117   7.224   5.888   4.550  0.3130  0.7526 -2.1564
 7724TIP3    H223118   7.345   5.973   4.585  1.1856 -0.0866 -3.0650
 7725TIP3   OH223119   6.546   7.431   6.451  0.1864 -0.0137 -0.3810
 7725TIP3    H123120   6.613   7.494   6.423  0.4437 -1.0664 -2.3675
 7725TIP3    H223121   6.582   7.346   6.424 -0.4034 -0.9753  1.7158
 7726TIP3   OH223122   7.342   4.810   0.500 -0.0611 -0.4828 -0.2433
 7726TIP3    H123123   7.305   4.789   0.414  2.5263 -1.8847 -1.1021
 7726TIP3    H223124   7.369   4.902   0.493 -1.9512  0.1353 -0.0624
 7727TIP3   OH223125   8.194   1.533   0.230 -0.3458 -0.0650 -0.1952
 7727TIP3    H123126   8.288   1.542   0.242 -0.4805 -0.4259  1.3144
 7727TIP3    H223127   8.155   1.579   0.304 -1.2866 -1.6569  0.3719
 7728TIP3   OH223128   7.938   2.178   5.918  0.4265 -0.2011 -0.1086
 7728TIP3    H123129   7.868   2.175   5.983  2.3556 -0.4509  2.1000
 7728TIP3    H223130   7.922   2.103   5.861 -0.8561 -0.4723  0.5793
 7729TIP3   OH223131   3.110   1.798   1.829  0.8754 -0.1998  0.3311
 7729TIP3    H123132   3.202   1.816   1.853  2.0418 -0.5725 -3.2997
 7729TIP3    H223133   3.106   1.703   1.821 -0.1120 -0.2496  1.2496
 7730TIP3   OH223134   4.699   2.853   0.200  0.6556 -0.0095 -0.1238
 7730TIP3    H123135   4.712   2.947   0.210 -0.4857  0.1980 -0.4196
 7730TIP3    H223136   4.651   2.826   0.278 -0.6877  0.0253 -0.9061
 7731TIP3   OH223137   0.890   6.182   5.838  0.2677  0.3329 -0.0506
 7731TIP3    H123138   0.828   6.156   5.770  0.7030 -0.2038 -0.2492
 7731TIP3    H223139   0.975   6.187   5.794  0.1754  2.3616 -0.0782
 7732TIP3   OH223140   1.599   0.548   2.693  0.1898  0.5372  0.3975
 7732TIP3    H123141   1.606   0.642   2.712  0.7201  0.6850 -0.4381
 7732TIP3    H223142   1.687   0.514   2.712 -0.2063  0.0566  1.4221
 7733TIP3   OH223143   2.033   2.102   2.065 -0.2745  0.2407 -0.3727
 7733TIP3    H123144   2.029   2.049   2.144  1.4521 -0.2650 -0.5755
 7733TIP3    H223145   1.999   2.187   2.091  1.0517  0.3493  1.1757
 7734TIP3   OH223146   2.048   1.680   2.574  0.1163 -0.6145  0.1828
 7734TIP3    H123147   2.119   1.633   2.618  0.0026 -1.4288 -0.4798
 7734TIP3    H223148   2.007   1.732   2.643  1.0657 -0.4921  0.6661
 7735TIP3   OH223149   6.101   2.705   0.943 -0.1971  0.2090  0.1531
 7735TIP3    H123150   6.115   2.610   0.936  0.4938  0.3684 -0.8961
 7735TIP3    H223151   6.040   2.715   1.017  1.4862 -0.8914  1.7858
 7736TIP3   OH223152   7.451   6.614   5.279 -0.1948 -0.7071 -0.5331
 7736TIP3    H123153   7.403   6.553   5.222 -0.9167 -0.5778 -0.0762
 7736TIP3    H223154   7.414   6.598   5.366 -0.5899  0.5857 -0.4529
 7737TIP3   OH223155   3.027   6.102   0.490  0.5705  0.3471 -0.0367
 7737TIP3    H123156   3.047   6.129   0.580  0.2894 -1.2641  0.5551
 7737TIP3    H223157   2.944   6.054   0.498  1.1388 -0.8331 -0.9479
 7738TIP3   OH223158   6.547   2.453   2.800  0.3831 -0.0261 -0.1352
 7738TIP3    H123159   6.541   2.535   2.751  0.8081 -0.5778 -1.1277
 7738TIP3    H223160   6.559   2.481   2.891  0.1415  1.0081 -0.4043
 7739TIP3   OH223161   7.451   3.268   2.179 -0.6954  0.0551 -0.0520
 7739TIP3    H123162   7.446   3.182   2.139 -0.4023  0.3279 -0.6837
 7739TIP3    H223163   7.524   3.311   2.135 -0.2874  0.3250  0.8497
 7740TIP3   OH223164   7.500   6.202   5.577 -0.1684 -0.2878  0.2361
 7740TIP3    H123165   7.420   6.238   5.617 -1.6119 -0.5278 -2.2481
 7740TIP3    H223166   7.524   6.128   5.633 -2.1992 -0.7277  0.5960
 7741TIP3   OH223167   3.960   4.483   5.774  0.0841 -0.2779  0.4125
 7741TIP3    H123168   3.926   4.546   5.838 -1.5811 -0.2722 -0.4219
 7741TIP3    H223169   4.049   4.466   5.802 -0.6026 -0.3250  2.7744
 7742TIP3   OH223170   3.901   4.569   5.249 -0.2827 -0.1567 -0.1076
 7742TIP3    H123171   3.814   4.531   5.235  1.4052 -3.6680 -2.5905
 7742TIP3    H223172   3.924   4.609   5.166 -0.2992  2.8592  1.2280
 7743TIP3   OH223173   8.230   5.727   1.798 -0.0800 -0.2233  0.2384
 7743TIP3    H123174   8.180   5.806   1.778  1.5263  0.9281  0.5468
 7743TIP3    H223175   8.273   5.748   1.881 -1.1404 -2.2064  1.3622
 7744TIP3   OH223176   4.835   2.540   5.090 -0.1085  0.0697  0.0899
 7744TIP3    H123177   4.904   2.570   5.030  0.7888  0.3645  1.2459
 7744TIP3    H223178   4.836   2.445   5.081 -0.5179  0.1441 -0.9257
 7745TIP3   OH223179   3.366   6.383   0.222  0.4293  0.2552  0.1851
 7745TIP3    H123180   3.314   6.439   0.164 -1.8034  1.5871  3.1896
 7745TIP3    H223181   3.455   6.415   0.214  0.1989  0.4740 -2.2876
 7746TIP3   OH223182   1.175   3.734   2.390  0.5709  0.0971  0.3826
 7746TIP3    H123183   1.106   3.784   2.435 -1.2540 -2.2761  0.4480
 7746TIP3    H223184   1.199   3.666   2.452  1.6713 -0.2090 -0.3588
 7747TIP3   OH223185   6.315   3.233   2.338 -0.9775  0.1072 -0.2702
 7747TIP3    H123186   6.341   3.201   2.424  0.7299  1.2117 -0.3278
 7747TIP3    H223187   6.234   3.280   2.353 -0.4645  0.6609  0.8297
 7748TIP3   OH223188   3.673   0.793   3.361 -0.1233  0.1684  0.2801
 7748TIP3    H123189   3.758   0.750   3.364 -0.8770 -1.3249  0.8903
 7748TIP3    H223190   3.685   0.873   3.413  1.1422  0.4923 -0.4472
 7749TIP3   OH223191   1.354   6.957   4.204 -0.1022  0.1361  0.2423
 7749TIP3    H123192   1.439   6.990   4.233 -0.1212 -0.3599  0.8836
 7749TIP3    H223193   1.335   7.007   4.125  1.0082 -0.0861 -0.1897
 7750TIP3   OH223194   4.656   7.482   5.507 -0.2401 -0.0494  0.0622
 7750TIP3    H123195   4.740   7.473   5.461  0.0159  0.3513  0.4492
 7750TIP3    H223196   4.676   7.458   5.597 -0.6195 -0.2725  0.0899
 7751TIP3   OH223197   6.076   3.789   6.697 -0.6584  0.2592  0.3535
 7751TIP3    H123198   6.120   3.840   6.764  1.4540 -1.9877  0.8047
 7751TIP3    H223199   6.125   3.805   6.617 -0.1108 -0.8263  0.4499
 7752TIP3   OH223200   2.512   6.971   2.585 -0.2720 -0.4498  0.5202
 7752TIP3    H123201   2.515   7.048   2.642  0.0749  1.1055 -1.4980
 7752TIP3    H223202   2.587   6.919   2.611 -0.8210 -0.4328  2.2950
 7753TIP3   OH223203   3.475   0.961   2.289  0.1885 -0.7715 -0.2038
 7753TIP3    H123204   3.388   0.949   2.252  0.4359  0.4524 -1.2548
 7753TIP3    H223205   3.476   1.053   2.318  1.0300 -0.8548  0.0686
 7754TIP3   OH223206   2.002   1.590   6.102 -0.4955  0.6671  0.2001
 7754TIP3    H123207   2.047   1.553   6.025 -0.7868 -0.7766  0.7066
 7754TIP3    H223208   1.962   1.670   6.069 -1.4447 -0.4185 -1.4366
 7755TIP3   OH223209   2.912   6.903   0.341  0.1802  0.0080  0.0095
 7755TIP3    H123210   3.003   6.872   0.334  0.5654  1.2629 -0.9611
 7755TIP3    H223211   2.907   6.943   0.428  0.4375 -0.4353  0.2304
 7756TIP3   OH223212   7.358   4.572   4.870 -0.6148  0.5603 -0.2978
 7756TIP3    H123213   7.290   4.607   4.929  0.1794  0.5682  0.6411
 7756TIP3    H223214   7.406   4.650   4.841 -0.6016  0.4942 -0.4548
 7757TIP3   OH223215   2.510   4.632   2.077 -0.0480 -0.3779  0.0717
 7757TIP3    H123216   2.530   4.621   1.984 -1.7758  0.9701 -0.4998
 7757TIP3    H223217   2.479   4.546   2.105 -0.4342 -0.5476 -0.8499
 7758TIP3   OH223218   5.931   2.854   3.634  0.5305  0.3441  0.3448
 7758TIP3    H123219   5.931   2.937   3.682  0.6833  0.4104  0.2319
 7758TIP3    H223220   6.008   2.859   3.577 -0.8548  1.2434 -1.5546
 7759TIP3   OH223221   2.794   4.409   1.681 -0.0264 -0.9715  0.1995
 7759TIP3    H123222   2.848   4.434   1.755 -1.0999 -0.0340  0.7022
 7759TIP3    H223223   2.850   4.421   1.605  0.8286 -1.1525  0.7828
 7760TIP3   OH223224   4.024   4.180   3.810  0.3218 -0.1426 -0.2137
 7760TIP3    H123225   3.998   4.236   3.736 -0.0686 -0.5155 -0.3672
 7760TIP3    H223226   4.083   4.116   3.772  2.5052  1.3980  0.3434
 7761TIP3   OH223227   0.500   2.251   1.048  0.2220  0.6270 -0.8844
 7761TIP3    H123228   0.445   2.191   1.098 -0.1708  0.6851 -1.2421
 7761TIP3    H223229   0.442   2.322   1.022  0.5433  0.8586 -0.9850
 7762TIP3   OH223230   0.327   5.434   6.093 -0.7238 -0.0251 -0.0104
 7762TIP3    H123231   0.421   5.447   6.092 -0.8152  0.6548 -0.2882
 7762TIP3    H223232   0.295   5.495   6.160 -0.8690 -1.0189  0.8574
 7763TIP3   OH223233   7.666   0.653   1.225  0.7362 -0.1286 -0.5854
 7763TIP3    H123234   7.710   0.679   1.144  0.2061  0.0313 -0.8307
 7763TIP3    H223235   7.573   0.647   1.201  0.4261  0.9372  0.2483
 7764TIP3   OH223236   7.912   0.083   3.546 -0.4131  0.1656  0.3935
 7764TIP3    H123237   7.918  -0.005   3.584  0.5063 -0.2843 -0.7350
 7764TIP3    H223238   7.828   0.084   3.501 -0.1646 -0.3546 -0.0934
 7765TIP3   OH223239   5.499   3.989   6.116  0.4664  0.3519 -0.3358
 7765TIP3    H123240   5.429   3.955   6.061 -0.9807  1.9746  0.4273
 7765TIP3    H223241   5.496   3.935   6.196  1.1515 -0.5884 -0.9231
 7766TIP3   OH223242   1.108   0.105   2.481 -0.0640  0.3840  0.0572
 7766TIP3    H123243   1.041   0.055   2.435 -0.5876 -1.7329  2.8218
 7766TIP3    H223244   1.066   0.189   2.501 -0.7503  0.2862 -0.9450
 7767TIP3   OH223245   5.427   5.669   0.292 -0.0751  0.2199 -0.0510
 7767TIP3    H123246   5.510   5.634   0.323  0.0641  0.0895 -0.5620
 7767TIP3    H223247   5.371   5.592   0.280 -1.0540  0.4344  2.4495
 7768TIP3   OH223248   3.841   7.623   0.583 -0.5040  0.5082  0.1405
 7768TIP3    H123249   3.763   7.647   0.633 -1.1725  0.7623 -0.9930
 7768TIP3    H223250   3.824   7.655   0.494  0.0646 -1.0793 -0.5971
 7769TIP3   OH223251   7.975   4.906   4.035  0.5348 -0.3180  0.0741
 7769TIP3    H123252   8.005   4.866   3.953  1.6233 -1.1014  0.8226
 7769TIP3    H223253   7.896   4.954   4.011  1.2680  0.1299 -1.5836
 7770TIP3   OH223254   5.625   4.564   6.377  0.2084  0.1039 -0.5113
 7770TIP3    H123255   5.588   4.492   6.428  0.3320  0.1628 -0.3375
 7770TIP3    H223256   5.564   4.577   6.305 -0.6724  0.9037  0.3576
 7771TIP3   OH223257   7.586   2.763   0.928 -0.4127  0.2322  0.9299
 7771TIP3    H123258   7.657   2.745   0.866 -0.5355  1.2037  0.4963
 7771TIP3    H223259   7.626   2.754   1.014 -0.1906 -0.9388  0.7336
 7772TIP3   OH223260   5.327   5.073   1.840  0.3806  0.0147 -0.4128
 7772TIP3    H123261   5.374   5.136   1.785 -0.5586 -0.5726 -1.9657
 7772TIP3    H223262   5.343   4.989   1.798 -1.3693 -0.3040 -0.5292
 7773TIP3   OH223263   3.003   6.425   1.619 -0.0305  0.0812 -0.2375
 7773TIP3    H123264   3.030   6.466   1.537  1.8795 -0.3638  0.1170
 7773TIP3    H223265   3.043   6.480   1.687  1.6105 -1.6536  0.2765
 7774TIP3   OH223266   4.455   1.944   6.737  0.0449 -0.5548  0.2445
 7774TIP3    H123267   4.502   1.868   6.770  0.6970 -0.5290 -0.5693
 7774TIP3    H223268   4.363   1.922   6.747  0.2205 -1.6217 -0.3119
 7775TIP3   OH223269   5.265   4.602   1.041 -0.7220 -0.0027  0.2395
 7775TIP3    H123270   5.272   4.697   1.033  0.1717 -0.2262 -2.5319
 7775TIP3    H223271   5.328   4.568   0.977  2.2133 -2.5428  3.9918
 7776TIP3   OH223272   0.700   5.292   5.505 -0.1752  0.5554  0.2186
 7776TIP3    H123273   0.739   5.207   5.482  0.2110  1.3992 -2.6509
 7776TIP3    H223274   0.717   5.301   5.599  4.2784 -0.3408 -0.2778
 7777TIP3   OH223275   1.366   0.238   5.759  0.6596 -0.2159 -0.8963
 7777TIP3    H123276   1.373   0.283   5.675  0.4885 -0.3819 -0.9987
 7777TIP3    H223277   1.402   0.300   5.822 -1.4999  0.9754 -0.7160
 7778TIP3   OH223278   6.916   4.510   2.872  0.6952 -0.0598  0.4516
 7778TIP3    H123279   6.901   4.435   2.930  0.8444  0.4701  1.1840
 7778TIP3    H223280   6.828   4.541   2.852  0.5513 -1.3014 -1.0487
 7779TIP3   OH223281   8.036   0.370   2.351 -0.2914  0.1803 -0.3101
 7779TIP3    H123282   8.101   0.302   2.368  0.1873  0.9042  0.9395
 7779TIP3    H223283   7.961   0.324   2.315  0.3975 -0.8669 -0.4462
 7780TIP3   OH223284   1.767   3.685   6.346  0.1177  0.0716 -0.1098
 7780TIP3    H123285   1.682   3.725   6.366  0.9440  1.1133  1.5853
 7780TIP3    H223286   1.750   3.591   6.346 -1.1802  0.2797 -0.6132
 7781TIP3   OH223287   1.092   4.711   5.801  0.2501 -0.6597 -0.0854
 7781TIP3    H123288   1.010   4.663   5.816 -0.0058  0.1474  1.2764
 7781TIP3    H223289   1.159   4.643   5.793 -0.3499 -1.2931  0.1884
 7782TIP3   OH223290   1.674   3.817   5.309 -0.2008 -0.1489  0.4415
 7782TIP3    H123291   1.759   3.779   5.330 -0.6447 -0.7904  1.1197
 7782TIP3    H223292   1.628   3.750   5.260 -1.0422 -0.5921  1.7663
 7783TIP3   OH223293   3.645   4.236   3.854  0.2991 -0.0721 -0.4124
 7783TIP3    H123294   3.619   4.193   3.772  0.7954 -0.1470 -0.5399
 7783TIP3    H223295   3.690   4.316   3.825  1.4297 -0.6319 -0.2631
 7784TIP3   OH223296   0.561   2.394   3.752  0.0059 -0.3987 -0.0132
 7784TIP3    H123297   0.642   2.372   3.798  1.1898  0.4214 -1.5927
 7784TIP3    H223298   0.533   2.478   3.790 -0.0129 -0.5883  0.3999
 7785TIP3   OH223299   3.263   6.673   3.011  0.1788 -0.0631  0.4940
 7785TIP3    H123300   3.248   6.751   2.957 -1.3977 -0.4245  0.3648
 7785TIP3    H223301   3.188   6.671   3.071  0.7280 -0.9299  1.1724
 7786TIP3   OH223302   2.016   3.806   1.151 -0.3756  0.4908  0.3147
 7786TIP3    H123303   2.098   3.833   1.194  1.5025  0.8761 -3.1021
 7786TIP3    H223304   2.021   3.711   1.147 -0.0312  0.5166  0.0625
 7787TIP3   OH223305   0.859   0.755   0.161  0.0183 -0.3415  0.1817
 7787TIP3    H123306   0.945   0.763   0.202  0.1947  0.5019 -0.3391
 7787TIP3    H223307   0.827   0.844   0.153 -1.5047 -0.7146  1.5709
 7788TIP3   OH223308   3.634   7.500   1.562  0.2016 -0.0200  0.0351
 7788TIP3    H123309   3.544   7.470   1.574 -0.7634  1.7838 -2.0157
 7788TIP3    H223310   3.688   7.427   1.593 -1.8923 -0.5924  2.6580
 7789TIP3   OH223311   0.465   6.132   5.088 -0.0439 -0.1027 -0.4201
 7789TIP3    H123312   0.558   6.117   5.074  0.5827 -0.6128  3.3452
 7789TIP3    H223313   0.435   6.054   5.136 -1.2034  2.0411  2.6251
 7790TIP3   OH223314   1.645   6.136   3.344  0.3944 -0.4076 -0.7316
 7790TIP3    H123315   1.667   6.166   3.256  2.1879  0.9366  0.1002
 7790TIP3    H223316   1.613   6.215   3.389 -1.2054 -1.2350 -0.3740
 7791TIP3   OH223317   7.378   6.218   0.817 -0.0259  0.2597  0.3241
 7791TIP3    H123318   7.427   6.231   0.898 -1.2818  0.2125  1.1178
 7791TIP3    H223319   7.345   6.128   0.823 -1.1661  0.6606  0.3768
 7792TIP3   OH223320   3.614   7.389   1.285  0.7471 -0.1197  0.0525
 7792TIP3    H123321   3.647   7.409   1.372  0.8499  1.6702 -0.3484
 7792TIP3    H223322   3.531   7.437   1.280  1.2544  0.6855 -1.1762
 7793TIP3   OH223323   0.807   2.082   3.495  0.2048  0.4113  0.3926
 7793TIP3    H123324   0.762   2.003   3.525 -1.0303  0.3006 -1.5559
 7793TIP3    H223325   0.776   2.151   3.554 -0.3814 -0.1735  0.7864
 7794TIP3   OH223326   2.023   1.210   4.678  0.0494 -0.3620  0.3796
 7794TIP3    H123327   2.015   1.170   4.591  0.5748  1.8458 -0.7527
 7794TIP3    H223328   2.091   1.158   4.722  1.8158  0.1365 -1.5948
 7795TIP3   OH223329   1.457   2.651   6.205 -0.0842  0.5052 -0.3523
 7795TIP3    H123330   1.509   2.573   6.221 -0.6327  0.1978 -0.0203
 7795TIP3    H223331   1.505   2.722   6.248 -0.0907  0.1773  0.1966
 7796TIP3   OH223332   4.099   0.816   6.665  0.6418  0.1184  0.0909
 7796TIP3    H123333   4.089   0.723   6.646  1.1650 -0.0185  0.4843
 7796TIP3    H223334   4.188   0.825   6.699  0.7178  0.8175 -0.2727
 7797TIP3   OH223335   2.412   3.403   4.399 -0.0772  0.4940  0.2946
 7797TIP3    H123336   2.322   3.415   4.370 -0.0597 -1.0719 -0.5218
 7797TIP3    H223337   2.408   3.331   4.462  0.5229  0.8464  0.7522
 7798TIP3   OH223338   3.204   3.257   2.803  0.3366 -0.1883  0.5367
 7798TIP3    H123339   3.154   3.331   2.770 -2.5245 -2.0479  0.3201
 7798TIP3    H223340   3.215   3.199   2.728  2.1956 -0.2269  0.7793
 7799TIP3   OH223341   1.334   0.761   4.546  0.4592 -0.6568 -0.6108
 7799TIP3    H123342   1.301   0.763   4.636  0.5853  0.5032 -0.5718
 7799TIP3    H223343   1.375   0.847   4.534  0.3159 -0.7392 -1.8164
 7800TIP3   OH223344   8.255   1.770   5.568  0.0910 -0.3616  0.1177
 7800TIP3    H123345   8.330   1.712   5.580 -0.4587 -1.2488 -0.5928
 7800TIP3    H223346   8.190   1.739   5.632 -0.1957 -0.5128 -0.2468
 7801TIP3   OH223347   5.521   4.435   2.311  0.0286 -0.1569 -0.5097
 7801TIP3    H123348   5.555   4.360   2.359  1.2827  0.0426 -1.0530
 7801TIP3    H223349   5.450   4.399   2.257  0.0002 -0.7649 -0.0714
 7802TIP3   OH223350   7.175   6.378   1.172 -0.0019 -0.5589  0.2292
 7802TIP3    H123351   7.254   6.412   1.129  0.3024  0.2152  1.3505
 7802TIP3    H223352   7.205   6.299   1.217 -0.4725 -1.7579 -1.5014
 7803TIP3   OH223353   2.728   1.038   5.690 -0.1452 -0.4890  0.0107
 7803TIP3    H123354   2.701   1.129   5.702  2.3763  0.0463  2.5800
 7803TIP3    H223355   2.782   1.040   5.610 -3.9984 -0.8693 -2.9070
 7804TIP3   OH223356   2.522   1.575   1.020  0.2262  0.5168  0.2455
 7804TIP3    H123357   2.438   1.555   1.060 -0.2482 -0.0943 -1.0095
 7804TIP3    H223358   2.521   1.670   1.007  0.0739  0.6175  0.9550
 7805TIP3   OH223359   3.191   6.135   6.379  0.3810 -0.0285  0.0623
 7805TIP3    H123360   3.171   6.097   6.293 -1.0305 -0.1168  0.3986
 7805TIP3    H223361   3.183   6.229   6.366 -0.1082 -0.0560  0.1582
 7806TIP3   OH223362   1.333   5.630   0.854  0.7313 -0.2725  0.5854
 7806TIP3    H123363   1.290   5.570   0.792  0.7504 -1.8103  1.9880
 7806TIP3    H223364   1.276   5.630   0.930 -0.4990  3.3873 -0.1628
 7807TIP3   OH223365   4.389   6.471   6.281 -0.6845  0.0424  0.4740
 7807TIP3    H123366   4.401   6.540   6.216 -0.1710 -2.7539 -2.6818
 7807TIP3    H223367   4.294   6.457   6.283 -0.6008 -1.1952 -1.3717
 7808TIP3   OH223368   6.728   2.386   3.739 -0.1378 -0.3802  0.3175
 7808TIP3    H123369   6.821   2.400   3.719 -0.3948  1.8797  0.4048
 7808TIP3    H223370   6.688   2.472   3.727 -1.9006 -0.8877  2.0310
 7809TIP3   OH223371   0.181   3.250   1.959  0.3583  0.2459 -0.1209
 7809TIP3    H123372   0.238   3.213   2.027 -0.7810 -0.2593  0.5867
 7809TIP3    H223373   0.105   3.283   2.006 -0.8123 -0.7848 -1.2013
 7810TIP3   OH223374   6.569   7.243   2.418 -0.2557 -0.4568 -0.8940
 7810TIP3    H123375   6.623   7.219   2.343 -0.3928  1.1290 -1.5442
 7810TIP3    H223376   6.631   7.257   2.489 -0.1992 -2.9399 -0.3849
 7811TIP3   OH223377   2.391   1.653   2.175  0.3855 -1.1546  0.1986
 7811TIP3    H123378   2.339   1.725   2.140 -0.2158 -2.1785 -1.0956
 7811TIP3    H223379   2.380   1.660   2.270 -3.0050 -1.9003 -0.0181
 7812TIP3   OH223380   5.969   7.188   3.580  0.1036 -0.0415  0.6631
 7812TIP3    H123381   5.880   7.216   3.557  0.4284  1.1297  0.7404
 7812TIP3    H223382   5.957   7.127   3.653 -0.5925  0.9866  1.4493
 7813TIP3   OH223383   4.371   1.844   3.184  0.0490  0.0377 -0.4576
 7813TIP3    H123384   4.362   1.818   3.092  0.6412 -0.9283 -0.2626
 7813TIP3    H223385   4.402   1.765   3.228 -0.4321  0.4250  0.6200
 7814TIP3   OH223386   4.075   4.675   2.256  0.5299 -0.7420  0.5542
 7814TIP3    H123387   4.111   4.705   2.339  0.8273 -0.7327  0.4224
 7814TIP3    H223388   4.005   4.614   2.281 -0.3702  0.3608  0.8306
 7815TIP3   OH223389   3.973   2.584   6.159  0.4878 -0.1492  0.1213
 7815TIP3    H123390   3.978   2.581   6.254  1.7084 -1.8372  0.0463
 7815TIP3    H223391   4.046   2.530   6.129  0.5197  0.8678 -1.7868
 7816TIP3   OH223392   6.878   7.442   5.231 -0.1784  0.4275 -0.2098
 7816TIP3    H123393   6.802   7.418   5.285  0.1891 -1.3836 -0.4340
 7816TIP3    H223394   6.843   7.451   5.143 -0.0980 -0.8508 -0.3947
 7817TIP3   OH223395   3.259   1.211   4.929  0.1438  0.3679 -0.7435
 7817TIP3    H123396   3.352   1.189   4.931  0.2479  0.7827 -0.7552
 7817TIP3    H223397   3.242   1.250   5.014 -0.0775  0.0731 -0.6524
 7818TIP3   OH223398   8.082   6.736   5.616 -0.4790  0.2916 -0.2426
 7818TIP3    H123399   8.064   6.824   5.583 -1.2771  0.0353 -0.4967
 7818TIP3    H223400   8.113   6.687   5.540  1.3365  0.7059  0.1666
 7819TIP3   OH223401   3.234   7.848   0.302  0.3355 -0.6606 -0.3281
 7819TIP3    H123402   3.257   7.765   0.344 -0.3289 -0.0393  1.3556
 7819TIP3    H223403   3.147   7.869   0.335  0.5750  0.8131 -0.5578
 7820TIP3   OH223404   6.289   1.606   4.082  0.3378 -0.5731 -0.4286
 7820TIP3    H123405   6.327   1.549   4.015  1.0344 -0.3263 -0.2506
 7820TIP3    H223406   6.227   1.550   4.128  0.4997 -0.9922 -0.7085
 7821TIP3   OH223407   0.743   5.520   1.112  0.4963 -0.1104  0.0505
 7821TIP3    H123408   0.818   5.485   1.064  0.2769 -3.4367  1.8151
 7821TIP3    H223409   0.777   5.538   1.200 -0.0072  1.9921 -0.1345
 7822TIP3   OH223410   2.261   6.428   2.862  0.0048 -0.1201  0.2324
 7822TIP3    H123411   2.260   6.392   2.773  0.3522  1.5495 -0.4895
 7822TIP3    H223412   2.351   6.416   2.892 -0.0877 -0.5978  0.3143
 7823TIP3   OH223413   4.466   1.101   5.199  0.3666  0.0185 -0.6477
 7823TIP3    H123414   4.550   1.086   5.241  0.1982 -1.1302 -0.6972
 7823TIP3    H223415   4.403   1.053   5.252 -0.4348  1.6647 -0.0388
 7824TIP3   OH223416   1.024   6.252   2.715 -0.5639  0.0202  0.7372
 7824TIP3    H123417   0.984   6.233   2.630  1.3473 -1.4761  0.1085
 7824TIP3    H223418   0.955   6.231   2.779 -2.4294  2.2595 -0.3926
 7825TIP3   OH223419   8.202   2.714   2.519 -0.5309  0.0113  0.1801
 7825TIP3    H123420   8.246   2.672   2.445 -3.5150  0.3937 -1.9886
 7825TIP3    H223421   8.208   2.650   2.589  1.1351 -0.9976 -0.7902
 7826TIP3   OH223422   1.711   0.098   5.748  0.6231  0.7362  0.0207
 7826TIP3    H123423   1.687   0.015   5.707  0.3322  2.1035 -2.8063
 7826TIP3    H223424   1.655   0.103   5.825 -0.0838 -1.2111 -0.3024
 7827TIP3   OH223425   1.888   1.899   6.419 -0.2483 -0.6272 -0.2819
 7827TIP3    H123426   1.881   1.803   6.412 -1.3607 -0.7737  1.8958
 7827TIP3    H223427   1.876   1.931   6.330  2.3014 -2.5746 -1.4657
 7828TIP3   OH223428   0.153   7.509   4.186 -0.5698  0.4732  0.5246
 7828TIP3    H123429   0.202   7.431   4.211 -1.3725 -0.5659 -0.9732
 7828TIP3    H223430   0.115   7.541   4.268 -1.3651 -1.5267  0.9967
 7829TIP3   OH223431   6.010   6.846   1.556  0.3326 -0.0439  0.4852
 7829TIP3    H123432   6.060   6.782   1.608  1.2948 -1.5283 -2.0967
 7829TIP3    H223433   6.066   6.923   1.553  1.6228 -0.9888 -0.7194
 7830TIP3   OH223434   4.755   7.298   4.399  0.3321 -0.0832 -0.0133
 7830TIP3    H123435   4.686   7.255   4.450 -0.5252  1.2446 -0.0205
 7830TIP3    H223436   4.748   7.390   4.422  2.3788  0.0393  0.2822
 7831TIP3   OH223437   4.036   1.595   2.535 -0.3950 -0.5052  0.2926
 7831TIP3    H123438   4.007   1.504   2.526  1.0024 -0.9565  0.2505
 7831TIP3    H223439   4.000   1.623   2.619 -1.3557 -0.8826  0.0255
 7832TIP3   OH223440   4.570   7.448   0.029  0.0641  0.2160  0.0854
 7832TIP3    H123441   4.545   7.360  -0.001 -0.4201  0.2214  0.4574
 7832TIP3    H223442   4.489   7.485   0.064  0.1693  0.9817 -0.4688
 7833TIP3   OH223443   4.660   0.618   3.978  0.3147 -0.5584 -0.0224
 7833TIP3    H123444   4.581   0.671   3.982  0.6268 -0.0535 -0.3754
 7833TIP3    H223445   4.697   0.623   4.066  0.2185 -0.3835  0.0085
 7834TIP3   OH223446   4.856   0.845   6.678 -0.4458  0.1135  0.3064
 7834TIP3    H123447   4.941   0.871   6.643  0.1981  0.3203  1.9278
 7834TIP3    H223448   4.801   0.922   6.668 -0.4752 -0.0282 -0.7694
 7835TIP3   OH223449   3.741   6.531   5.010 -0.4490  0.5767 -0.3553
 7835TIP3    H123450   3.827   6.569   4.991  0.2339 -1.0286 -0.5578
 7835TIP3    H223451   3.680   6.584   4.958  0.6678  0.3495 -1.9721
 7836TIP3   OH223452   3.051   7.518   0.625 -0.2256 -0.0465  0.3352
 7836TIP3    H123453   3.028   7.453   0.559 -2.7540  0.9170  0.1837
 7836TIP3    H223454   3.111   7.578   0.580 -0.0978 -0.6849 -0.3667
 7837TIP3   OH223455   7.304   3.312   5.596  0.4296  0.1429 -0.6850
 7837TIP3    H123456   7.217   3.287   5.564  0.3727  1.0591 -1.2852
 7837TIP3    H223457   7.360   3.238   5.574 -0.4373 -1.0124  0.8667
 7838TIP3   OH223458   4.533   1.053   0.680 -0.2629 -0.1962  0.5258
 7838TIP3    H123459   4.574   1.053   0.766 -0.5390  1.6398  0.6807
 7838TIP3    H223460   4.573   1.126   0.633 -0.7638 -0.6090 -0.5923
 7839TIP3   OH223461   2.831   7.349   2.794  0.1100  0.4636  0.0336
 7839TIP3    H123462   2.861   7.263   2.764 -0.9709  0.1367 -0.1693
 7839TIP3    H223463   2.825   7.340   2.889 -1.7377 -0.3001 -0.1193
 7840TIP3   OH223464   4.610   7.053   0.606 -0.6778 -0.0519  0.1734
 7840TIP3    H123465   4.669   7.025   0.676 -0.3500  2.7497  1.1409
 7840TIP3    H223466   4.669   7.077   0.534 -0.6810  1.3218  0.6013
 7841TIP3   OH223467   3.915   7.336   5.708  0.2743 -0.4379  0.2209
 7841TIP3    H123468   3.874   7.417   5.739  0.6602 -0.8858  1.9617
 7841TIP3    H223469   4.006   7.342   5.736  0.7489 -0.7368 -1.1458
 7842TIP3   OH223470   7.510   5.700  -0.014  0.1840 -0.5404 -0.9622
 7842TIP3    H123471   7.526   5.606  -0.028  1.0705 -0.4581 -0.5700
 7842TIP3    H223472   7.441   5.703   0.051  1.1697 -0.9403  0.1319
 7843TIP3   OH223473   6.009   6.073   2.639 -0.4735 -0.7916  0.8067
 7843TIP3    H123474   6.004   5.993   2.691 -3.0233  0.7043  3.1030
 7843TIP3    H223475   6.059   6.134   2.692 -2.0202  0.3674  1.0035
 7844TIP3   OH223476   0.137   0.316   0.424 -0.2624 -0.1902  0.0178
 7844TIP3    H123477   0.228   0.288   0.431 -0.7774 -1.5086  2.2725
 7844TIP3    H223478   0.086   0.236   0.433 -1.7015  0.8249  1.5024
 7845TIP3   OH223479   6.702   1.895   4.906 -0.1815 -0.0270 -0.2300
 7845TIP3    H123480   6.623   1.908   4.853  1.4506  0.7173 -2.6230
 7845TIP3    H223481   6.775   1.907   4.845  1.8164 -1.3622  1.7354
 7846TIP3   OH223482   1.605   2.139   5.130  0.1126 -0.3270 -0.2369
 7846TIP3    H123483   1.700   2.140   5.113  0.0403 -1.6080 -0.8862
 7846TIP3    H223484   1.591   2.056   5.177 -0.7926 -0.5796 -0.9322
 7847TIP3   OH223485   1.052   6.472   3.025  0.0880 -0.4885 -0.1511
 7847TIP3    H123486   0.977   6.431   2.982 -0.4929  0.3572  0.0237
 7847TIP3    H223487   1.022   6.492   3.114  0.9265 -1.2409  0.3242
 7848TIP3   OH223488   4.732   5.505   1.407  0.5024 -0.2266 -0.0329
 7848TIP3    H123489   4.776   5.439   1.354  0.8654 -2.2853  2.6425
 7848TIP3    H223490   4.726   5.467   1.494 -2.4436  1.8840  0.8552
 7849TIP3   OH223491   3.717   0.457   3.201 -0.5541 -0.4165  0.0991
 7849TIP3    H123492   3.626   0.480   3.222 -0.1589  1.5371 -0.1636
 7849TIP3    H223493   3.749   0.414   3.281 -1.3300  0.0169  0.6574
 7850TIP3   OH223494   5.048   7.246   1.987 -0.0052  0.0287  0.7086
 7850TIP3    H123495   5.050   7.341   1.993  0.0024  0.1704 -1.0932
 7850TIP3    H223496   5.100   7.225   1.909 -0.3756 -1.4171  0.8084
 7851TIP3   OH223497   0.325   0.870   0.139  0.8330 -0.2666 -0.0856
 7851TIP3    H123498   0.342   0.859   0.233 -0.0924  0.7635  0.2323
 7851TIP3    H223499   0.394   0.821   0.096  2.4204  0.7807  1.1406
 7852TIP3   OH223500   3.911   4.449   3.308 -0.4256  0.3540 -0.6340
 7852TIP3    H123501   3.847   4.438   3.238  2.6561  1.0193 -3.8843
 7852TIP3    H223502   3.935   4.359   3.333  0.4416 -0.0271 -2.6173
 7853TIP3   OH223503   2.619   1.427   2.832 -0.2134  0.0615 -0.0211
 7853TIP3    H123504   2.563   1.358   2.865  1.0159 -0.5438  0.8645
 7853TIP3    H223505   2.700   1.383   2.807 -0.9580  0.4792 -3.7742
 7854TIP3   OH223506   1.365   4.724   2.954  0.0365 -0.0074  0.0382
 7854TIP3    H123507   1.366   4.744   2.860 -0.0761 -0.5397 -0.0786
 7854TIP3    H223508   1.402   4.802   2.995  1.6382 -0.4004 -0.5703
 7855TIP3   OH223509   0.040   2.463   3.566  0.4171 -0.0656 -0.1511
 7855TIP3    H123510   0.091   2.396   3.519  2.1023  1.2030 -0.2140
 7855TIP3    H223511   0.059   2.544   3.520 -0.5513  0.6893  0.7281
 7856TIP3   OH223512   4.215   4.435   5.879 -0.4138  0.2284 -0.4383
 7856TIP3    H123513   4.303   4.411   5.851  0.0071 -1.6320  2.1254
 7856TIP3    H223514   4.172   4.351   5.896 -2.4466  1.1173 -0.8928
 7857TIP3   OH223515   6.849   6.809   5.774 -0.6926  0.1582 -0.0994
 7857TIP3    H123516   6.875   6.828   5.684  0.9060  3.1603  0.8543
 7857TIP3    H223517   6.884   6.722   5.791  0.5085  0.2443 -1.8451
 7858TIP3   OH223518   6.551   6.503   3.095 -0.1779 -0.4264  0.1509
 7858TIP3    H123519   6.536   6.575   3.033  1.5409  0.0204  0.2099
 7858TIP3    H223520   6.551   6.546   3.180  3.6300  0.1119  0.0493
 7859TIP3   OH223521   2.427   7.178   1.196  0.1066 -0.2194  0.4109
 7859TIP3    H123522   2.415   7.173   1.290  1.2614 -0.5416  0.5524
 7859TIP3    H223523   2.405   7.268   1.173  3.0748  0.8948  1.5058
 7860TIP3   OH223524   5.171   2.918   0.027 -0.1252 -0.1137  0.5612
 7860TIP3    H123525   5.257   2.918   0.068  0.2628  1.7551 -0.1813
 7860TIP3    H223526   5.177   2.849  -0.040  0.2773 -0.9948  1.4775
 7861TIP3   OH223527   4.471   5.755   4.185 -0.4689  0.2020 -0.3300
 7861TIP3    H123528   4.492   5.792   4.271 -0.5041  0.6445 -0.5091
 7861TIP3    H223529   4.488   5.661   4.195 -0.4316  0.2545  0.1475
 7862TIP3   OH223530   2.403   2.719   2.767 -0.2131 -0.8285  0.3696
 7862TIP3    H123531   2.494   2.705   2.741  0.9252  1.0636  2.9293
 7862TIP3    H223532   2.356   2.644   2.731  1.4884  0.0666 -4.5553
 7863TIP3   OH223533   8.280   3.989   0.954  0.1937  0.2575 -0.1181
 7863TIP3    H123534   8.209   4.012   0.894  1.7910  0.3867 -2.0839
 7863TIP3    H223535   8.236   3.964   1.035 -1.9545  3.5584 -0.0680
 7864TIP3   OH223536   5.083   4.080   5.896 -0.0266 -0.5017 -0.1203
 7864TIP3    H123537   5.124   4.107   5.814 -2.6525  3.9194 -0.2662
 7864TIP3    H223538   5.012   4.020   5.869 -1.1746  1.2794 -1.2614
 7865TIP3   OH223539   6.181   4.282   4.915 -0.5972 -1.3929 -0.2588
 7865TIP3    H123540   6.128   4.278   4.995 -3.8475  1.8028 -1.9342
 7865TIP3    H223541   6.197   4.376   4.902  2.0089 -1.9927 -2.1190
 7866TIP3   OH223542   8.141   5.313   3.101  0.3861  0.5884 -0.2693
 7866TIP3    H123543   8.203   5.244   3.073  0.4868  0.5680  0.0027
 7866TIP3    H223544   8.196   5.377   3.147 -0.0472 -0.3436  1.6404
 7867TIP3   OH223545   1.665   5.735   3.971 -0.3200  0.1334 -0.0264
 7867TIP3    H123546   1.653   5.697   3.883  1.7172 -0.0758 -0.2459
 7867TIP3    H223547   1.575   5.746   4.003 -1.1776  0.9140 -2.4228
 7868TIP3   OH223548   1.962   6.184   1.620 -0.0046  0.1253  0.2523
 7868TIP3    H123549   2.014   6.156   1.695 -1.9328 -0.9704  1.2682
 7868TIP3    H223550   1.900   6.112   1.606 -1.8390  1.7248 -0.2865
 7869TIP3   OH223551   2.837   4.358   0.278  0.4489  0.1972 -0.2056
 7869TIP3    H123552   2.873   4.444   0.299  2.3480 -0.4144 -0.7102
 7869TIP3    H223553   2.913   4.299   0.281 -1.1455 -1.9308  2.4007
 7870TIP3   OH223554   5.254   2.698   3.052 -0.1761  1.0073 -0.5991
 7870TIP3    H123555   5.342   2.719   3.019 -0.4178 -1.9458 -3.8301
 7870TIP3    H223556   5.270   2.633   3.121  0.2262  1.2407 -0.4691
 7871TIP3   OH223557  -0.010   0.482   0.981  0.2233 -0.5423  0.0307
 7871TIP3    H123558   0.062   0.533   0.944  1.2262 -0.9464  1.3694
 7871TIP3    H223559   0.010   0.391   0.958 -1.0315 -0.4902 -1.4671
 7872TIP3   OH223560   5.876   6.642   2.476 -0.2644 -0.5274  0.3357
 7872TIP3    H123561   5.892   6.581   2.405  0.0459 -0.1919  0.1096
 7872TIP3    H223562   5.781   6.643   2.488 -0.2736 -1.0096  0.3087
 7873TIP3   OH223563   6.076   6.827   0.312 -0.2565 -0.4691 -0.1713
 7873TIP3    H123564   5.993   6.809   0.354  0.0185 -0.7727  0.2496
 7873TIP3    H223565   6.070   6.919   0.285 -0.2090 -0.0854  1.0678
 7874TIP3   OH223566   5.624   7.670   2.657 -0.0713 -0.2551  0.4771
 7874TIP3    H123567   5.591   7.746   2.609  1.8417  0.5990  0.4523
 7874TIP3    H223568   5.605   7.596   2.600  0.7604  0.5623 -0.9020
 7875TIP3   OH223569  -0.001   3.271   4.668 -0.2008  0.0799  0.2510
 7875TIP3    H123570   0.048   3.322   4.733 -1.3397 -0.1670  1.3286
 7875TIP3    H223571  -0.009   3.184   4.705  0.3919 -0.4854 -0.8930
 7876TIP3   OH223572   0.406   3.991   6.575  0.4376 -0.2090  0.2001
 7876TIP3    H123573   0.344   3.971   6.505  0.3386  0.6185  0.0438
 7876TIP3    H223574   0.430   3.905   6.610 -0.2897 -0.5785 -0.1699
 7877TIP3   OH223575   2.076   3.656   2.756  0.1304 -0.2744 -0.0617
 7877TIP3    H123576   2.052   3.748   2.766  1.5932  0.1297 -0.0001
 7877TIP3    H223577   2.155   3.658   2.702 -0.0704 -1.5303 -0.4240
 7878TIP3   OH223578   6.001   0.456   2.690 -0.3866 -0.9390 -0.5021
 7878TIP3    H123579   5.957   0.539   2.711 -1.2255 -1.4374 -0.2554
 7878TIP3    H223580   5.934   0.404   2.646  0.3300 -1.2489 -1.2493
 7879TIP3   OH223581   5.717   2.375   4.290  0.1555  0.3648 -0.2793
 7879TIP3    H123582   5.737   2.300   4.234 -0.0917  0.5094 -0.5627
 7879TIP3    H223583   5.625   2.363   4.314  0.6420 -0.4659  1.2762
 7880TIP3   OH223584   1.838   2.949   2.912 -0.1649 -1.0318 -0.3157
 7880TIP3    H123585   1.857   2.860   2.942 -0.8232 -1.2093 -0.3881
 7880TIP3    H223586   1.826   2.940   2.818 -1.5797 -1.1402 -0.1592
 7881TIP3   OH223587   0.989   2.687   3.432 -0.0390 -0.2768  0.2849
 7881TIP3    H123588   0.992   2.693   3.527  1.6076  0.4427  0.2151
 7881TIP3    H223589   0.915   2.742   3.406 -0.7021 -0.7405  1.1449
 7882TIP3   OH223590   6.497   2.581   3.652 -0.2340  0.0888 -0.1081
 7882TIP3    H123591   6.537   2.598   3.738 -1.2030  0.7624  0.2218
 7882TIP3    H223592   6.435   2.653   3.640 -0.9240 -0.6236 -0.8797
 7883TIP3   OH223593   5.821   5.345   0.568  0.1823 -0.1246 -0.1660
 7883TIP3    H123594   5.819   5.378   0.658 -0.5632  1.3584 -0.6931
 7883TIP3    H223595   5.913   5.344   0.544  0.2438  1.6834 -0.1334
 7884TIP3   OH223596   2.322   1.218   0.170  0.1250  0.4393  0.3308
 7884TIP3    H123597   2.394   1.218   0.233  1.1663  1.4859 -0.8209
 7884TIP3    H223598   2.271   1.140   0.192  2.1140 -0.8447  0.6186
 7885TIP3   OH223599   6.320   1.531   1.252 -0.1694 -0.2665  0.2548
 7885TIP3    H123600   6.346   1.441   1.275  1.0852  0.5521  2.4246
 7885TIP3    H223601   6.364   1.548   1.169 -0.6212 -1.7280 -0.3084
 7886TIP3   OH223602   6.851   4.767   6.449  0.0750  0.2911 -0.2323
 7886TIP3    H123603   6.851   4.764   6.353 -0.3805  0.4532 -0.2409
 7886TIP3    H223604   6.811   4.685   6.476 -0.5043  0.5751 -0.2022
 7887TIP3   OH223605   1.857   0.100   2.057  0.1603 -0.2600  0.4009
 7887TIP3    H123606   1.902   0.038   2.000 -2.5253 -1.4466 -0.6106
 7887TIP3    H223607   1.855   0.182   2.007 -1.3830 -1.0453 -0.9330
 7888TIP3   OH223608   3.679   6.443   5.253  0.7318 -0.0773 -0.0958
 7888TIP3    H123609   3.599   6.495   5.250  1.3250  0.8468 -0.2684
 7888TIP3    H223610   3.710   6.441   5.162  0.7657 -0.6684 -0.0767
 7889TIP3   OH223611   0.453   6.976   3.115 -0.0014 -0.0636 -0.2661
 7889TIP3    H123612   0.508   6.899   3.104 -0.5498 -0.3211 -1.4720
 7889TIP3    H223613   0.509   7.050   3.091  0.4134 -0.1118  0.5270
 7890TIP3   OH223614   5.581   4.984   6.345  1.0048  0.3694  0.2202
 7890TIP3    H123615   5.559   4.960   6.435 -1.2598  3.5606  0.6849
 7890TIP3    H223616   5.497   5.001   6.303  2.0274 -0.4825 -2.4129
 7891TIP3   OH223617   6.610   1.227   5.966  0.2806  0.4128  0.0665
 7891TIP3    H123618   6.521   1.203   5.990 -0.1516 -1.1635 -2.6884
 7891TIP3    H223619   6.601   1.277   5.885  1.9058 -1.1019 -1.1397
 7892TIP3   OH223620   6.225   1.901   4.602  0.1616  0.5645  0.0609
 7892TIP3    H123621   6.167   1.971   4.634 -0.8487 -0.4410  0.4999
 7892TIP3    H223622   6.278   1.879   4.678 -0.8923 -0.4764  0.5362
 7893TIP3   OH223623   8.100   3.640   5.999 -0.1571 -0.5545  0.2159
 7893TIP3    H123624   8.050   3.716   5.968  1.1207  0.0193 -0.4854
 7893TIP3    H223625   8.191   3.669   6.000  0.1389 -1.3840  2.0737
 7894TIP3   OH223626   5.602   6.766   1.917  0.3559 -0.1212  0.2139
 7894TIP3    H123627   5.595   6.691   1.857  2.0848  0.4379 -0.7494
 7894TIP3    H223628   5.675   6.745   1.974 -0.7826 -0.2888  1.6776
 7895TIP3   OH223629   2.535   4.086   5.996 -0.0064 -0.0400 -0.2368
 7895TIP3    H123630   2.505   4.003   6.032  0.4507 -0.3494 -0.5583
 7895TIP3    H223631   2.579   4.063   5.914  1.0054  0.3959  0.1590
 7896TIP3   OH223632   0.641   1.226   5.738 -0.4816  0.2287 -0.3051
 7896TIP3    H123633   0.610   1.294   5.678 -1.5195  0.7577  0.7808
 7896TIP3    H223634   0.698   1.272   5.799 -3.2217  0.8077  2.0657
 7897TIP3   OH223635   2.963   1.502   4.358 -0.2817  0.2948 -0.3062
 7897TIP3    H123636   3.018   1.477   4.283 -0.5998 -0.2337 -0.3722
 7897TIP3    H223637   2.916   1.422   4.380  0.4880  0.1800  1.0607
 7898TIP3   OH223638   5.382   7.058   1.106 -0.5544  0.3384 -0.0619
 7898TIP3    H123639   5.415   7.117   1.038 -1.7623 -1.2343 -2.1339
 7898TIP3    H223640   5.347   7.116   1.174 -1.6831  2.0190 -1.9808
 7899TIP3   OH223641   6.030   2.918   6.754  0.1793 -0.1935  0.0469
 7899TIP3    H123642   6.071   2.956   6.677  1.2526 -0.0259  0.6886
 7899TIP3    H223643   6.037   2.985   6.821 -1.2388 -0.1230  0.1663
 7900TIP3   OH223644   2.586   3.411   0.881  0.3916 -0.4167 -0.8425
 7900TIP3    H123645   2.657   3.351   0.903  0.6445 -0.0246 -0.5800
 7900TIP3    H223646   2.510   3.354   0.868  0.3478 -0.7128  0.5452
 7901TIP3   OH223647   1.222   4.070   5.851 -0.2653 -0.1127 -0.1923
 7901TIP3    H123648   1.221   4.148   5.795  2.2277 -0.1940 -0.4971
 7901TIP3    H223649   1.259   4.101   5.934 -3.3730 -0.1183  1.3141
 7902TIP3   OH223650   6.339   6.961   0.891 -0.5947 -0.2263 -0.0204
 7902TIP3    H123651   6.329   6.867   0.903  1.6038 -0.6043 -0.8499
 7902TIP3    H223652   6.315   6.976   0.799  1.3796 -0.3856 -0.5918
 7903TIP3   OH223653   5.408   1.691   2.332  0.1570  0.3214  0.3307
 7903TIP3    H123654   5.475   1.650   2.277 -1.5168  0.9504 -2.3418
 7903TIP3    H223655   5.325   1.659   2.297 -1.0411  0.6202  2.6774
 7904TIP3   OH223656   4.164   4.495   4.549 -0.6487 -0.3255 -0.3629
 7904TIP3    H123657   4.152   4.541   4.632  0.4592 -1.5274  0.5125
 7904TIP3    H223658   4.098   4.532   4.490 -0.3457  1.7373  0.5329
 7905TIP3   OH223659   2.010   5.195   3.448 -0.4353 -0.0005  0.1970
 7905TIP3    H123660   2.104   5.188   3.464 -0.5199  1.5324  1.5792
 7905TIP3    H223661   1.971   5.126   3.502 -0.1187 -0.7001 -0.4522
 7906TIP3   OH223662   1.913   2.142   5.361  0.0360  0.3214  0.2928
 7906TIP3    H123663   1.978   2.156   5.291  1.9134 -1.1055  1.6457
 7906TIP3    H223664   1.859   2.221   5.359  0.3598  0.5693 -2.3911
 7907TIP3   OH223665   3.128   5.613   0.751  0.2233  0.5306  0.4390
 7907TIP3    H123666   3.033   5.617   0.753  0.2624  1.6120  1.0260
 7907TIP3    H223667   3.156   5.702   0.728  1.0815 -0.0130 -0.7604
 7908TIP3   OH223668   2.819   0.858   3.719 -0.2312 -0.2533  0.0200
 7908TIP3    H123669   2.730   0.844   3.687  0.3189 -2.6305 -0.6982
 7908TIP3    H223670   2.825   0.804   3.797  0.7465 -0.6134 -0.2838
 7909TIP3   OH223671   1.388   5.741   2.324 -0.1805  0.0063  0.3921
 7909TIP3    H123672   1.373   5.761   2.416 -1.3502  1.0371  0.0030
 7909TIP3    H223673   1.475   5.777   2.306  0.4418 -0.9864  1.2853
 7910TIP3   OH223674   4.801   5.844   3.243 -0.4048  0.6817  0.0819
 7910TIP3    H123675   4.721   5.803   3.277  0.8199 -2.2136 -0.2730
 7910TIP3    H223676   4.861   5.842   3.317  0.1061  0.5801 -0.3350
 7911TIP3   OH223677   4.692   3.624   0.051  0.0145 -0.3787 -0.0769
 7911TIP3    H123678   4.639   3.690   0.006  0.6461 -0.0827 -0.3945
 7911TIP3    H223679   4.773   3.669   0.074  0.2744 -0.9210  0.1003
 7912TIP3   OH223680   2.221   5.474   6.594  0.4070 -0.0243  0.0960
 7912TIP3    H123681   2.297   5.421   6.571  0.4001 -0.0196  0.0617
 7912TIP3    H223682   2.214   5.466   6.689  0.2363 -0.3187  0.0620
 7913TIP3   OH223683   2.004   0.607   6.761 -0.2557 -0.3004  0.2833
 7913TIP3    H123684   1.929   0.641   6.810  0.3949  0.3871  0.8203
 7913TIP3    H223685   2.023   0.674   6.696  0.7168  0.1637  1.0174
 7914TIP3   OH223686   4.754   4.210   0.985  0.0323 -0.2831  0.4724
 7914TIP3    H123687   4.798   4.291   0.959 -1.9804  0.1293 -2.0341
 7914TIP3    H223688   4.666   4.218   0.950 -1.4807 -1.9572  3.5182
 7915TIP3   OH223689   0.636   5.266   5.775 -0.7464  0.6326 -0.0082
 7915TIP3    H123690   0.709   5.205   5.782 -0.6976  0.8494  1.7289
 7915TIP3    H223691   0.558   5.212   5.791 -0.9798  0.4506 -1.6016
 7916TIP3   OH223692   7.009   4.958   4.105  0.1174 -0.5033  0.0882
 7916TIP3    H123693   7.071   5.030   4.111  0.4606 -0.6662 -1.2812
 7916TIP3    H223694   6.926   4.996   4.134  0.2639  0.4850 -0.7440
 7917TIP3   OH223695   7.932   7.740   1.558 -0.5624 -0.0695  0.5652
 7917TIP3    H123696   7.987   7.792   1.500 -1.3811  0.4860  0.2569
 7917TIP3    H223697   7.842   7.760   1.530 -0.9306 -0.7696  1.1951
 7918TIP3   OH223698   1.578   0.936   6.255 -0.0466 -0.2657  0.3535
 7918TIP3    H123699   1.483   0.934   6.271 -0.2127 -0.6949 -0.6467
 7918TIP3    H223700   1.613   0.875   6.320 -0.5304 -0.6143  0.2990
 7919TIP3   OH223701   8.149   3.520   5.272 -0.0910  0.2190  0.3511
 7919TIP3    H123702   8.112   3.565   5.348  0.8512  2.0739 -0.2413
 7919TIP3    H223703   8.244   3.533   5.280  0.1811 -1.2572 -0.1291
 7920TIP3   OH223704   5.394   0.382   3.142  0.0655  0.0823  0.6798
 7920TIP3    H123705   5.391   0.327   3.063 -0.2311  1.4528 -0.3105
 7920TIP3    H223706   5.376   0.322   3.214 -0.6766 -1.0473 -0.3987
 7921TIP3   OH223707   2.302   1.295   2.131  0.7186  0.3898 -0.1714
 7921TIP3    H123708   2.298   1.310   2.225  0.3654 -1.3470  0.1235
 7921TIP3    H223709   2.226   1.239   2.112  0.2535  1.4592 -1.6483
 7922TIP3   OH223710   7.136   0.854   1.183 -0.0282  0.2046  0.4933
 7922TIP3    H123711   7.156   0.832   1.092 -0.3289  0.3965  0.3819
 7922TIP3    H223712   7.102   0.772   1.220  0.9678 -0.1325  0.6903
 7923TIP3   OH223713   6.503   4.705   3.881 -0.0173 -0.5955 -0.3712
 7923TIP3    H123714   6.488   4.735   3.791  1.4505  2.8237  0.3901
 7923TIP3    H223715   6.595   4.680   3.883  0.3595  0.7942  0.5051
 7924TIP3   OH223716   7.847   6.205   4.528 -0.4777 -0.1656 -0.5853
 7924TIP3    H123717   7.900   6.148   4.584 -1.5074 -0.8594 -0.3049
 7924TIP3    H223718   7.836   6.156   4.447 -1.1683 -0.2669 -0.4305
 7925TIP3   OH223719   1.030   2.913   5.269  0.2176 -0.6092 -0.1588
 7925TIP3    H123720   0.948   2.865   5.282 -0.9713  1.4605  0.3960
 7925TIP3    H223721   1.008   2.983   5.208  1.5691  0.0098  0.0164
 7926TIP3   OH223722   5.607   6.541   4.475  0.1214 -0.0461 -0.2352
 7926TIP3    H123723   5.653   6.613   4.431  0.8255 -0.5606 -0.3575
 7926TIP3    H223724   5.663   6.465   4.461  0.0840 -0.3347  1.1091
 7927TIP3   OH223725   5.691   3.435   1.487  0.0849  0.9649  0.4113
 7927TIP3    H123726   5.727   3.358   1.443  0.9121  0.7868  1.3653
 7927TIP3    H223727   5.603   3.407   1.514  0.4005  0.3181  0.8043
 7928TIP3   OH223728   3.445   3.127   2.167  0.3279  0.5947  0.1513
 7928TIP3    H123729   3.402   3.082   2.094  0.0800 -0.5351  0.9570
 7928TIP3    H223730   3.454   3.059   2.234  3.2685  0.7756  0.0776
 7929TIP3   OH223731   7.477   3.067   3.685  0.0906 -0.1467 -0.2135
 7929TIP3    H123732   7.497   2.985   3.640  0.1195 -0.4269  0.2980
 7929TIP3    H223733   7.481   3.045   3.778  1.7585  0.8031 -0.0136
 7930TIP3   OH223734   0.137   6.409   3.645 -0.3709  0.0367 -0.3409
 7930TIP3    H123735   0.232   6.396   3.641 -0.3809  0.2332 -2.3223
 7930TIP3    H223736   0.127   6.501   3.670  0.0430  0.5107 -1.7797
 7931TIP3   OH223737   1.555   4.114   5.187 -0.2152  0.0465 -0.1511
 7931TIP3    H123738   1.616   4.059   5.236  1.5010  0.0025 -2.2167
 7931TIP3    H223739   1.566   4.201   5.224  0.0703 -0.2219  0.4040
 7932TIP3   OH223740   7.310   4.601   4.079 -0.2915  0.2090  0.5600
 7932TIP3    H123741   7.377   4.573   4.016 -1.9823 -0.9784 -0.8335
 7932TIP3    H223742   7.340   4.687   4.109  0.1632  1.3394 -2.6502
 7933TIP3   OH223743   3.647   7.697   3.709  0.0420  0.5201  0.1404
 7933TIP3    H123744   3.590   7.716   3.783 -1.0921 -0.7946 -0.3581
 7933TIP3    H223745   3.613   7.751   3.637  0.8351  1.4210  0.4238
 7934TIP3   OH223746   7.751   3.338   3.911  0.2652  0.2500  0.6695
 7934TIP3    H123747   7.736   3.302   3.823 -0.8618  1.2181  0.4434
 7934TIP3    H223748   7.819   3.282   3.948 -0.4653 -1.2658 -0.1721
 7935TIP3   OH223749   4.951   1.694   2.973 -0.0150  0.1019 -0.0482
 7935TIP3    H123750   4.945   1.600   2.993  1.2781 -0.2868 -1.3586
 7935TIP3    H223751   4.995   1.698   2.888 -1.0113  1.8675 -0.5266
 7936TIP3   OH223752   7.523   0.882   4.485  0.5342  0.4928  0.2924
 7936TIP3    H123753   7.470   0.868   4.563 -0.7024  0.4332 -0.5226
 7936TIP3    H223754   7.503   0.807   4.428  0.3464  1.2336 -0.6455
 7937TIP3   OH223755   2.146   3.790   2.092  0.1874 -0.1825  0.2189
 7937TIP3    H123756   2.188   3.804   2.008  1.4156 -1.0552  0.6547
 7937TIP3    H223757   2.114   3.700   2.088  0.4567 -0.3061  0.7594
 7938TIP3   OH223758   6.496   1.389   4.555  0.1106 -0.2328 -0.5348
 7938TIP3    H123759   6.492   1.299   4.590  0.9829 -0.0162  0.1848
 7938TIP3    H223760   6.564   1.385   4.488  0.3824 -0.0393 -0.2716
 7939TIP3   OH223761   4.297   5.793   6.278 -0.1686  0.3839 -0.2048
 7939TIP3    H123762   4.341   5.861   6.228 -0.2964  1.9316  1.6643
 7939TIP3    H223763   4.240   5.841   6.338 -0.5781 -1.3959  0.8950
 7940TIP3   OH223764   0.802   5.697   2.980  0.1568 -0.8047  0.1896
 7940TIP3    H123765   0.786   5.728   2.891  0.0729 -0.4538  0.3273
 7940TIP3    H223766   0.766   5.765   3.037  0.4620 -0.8928  0.4948
 7941TIP3   OH223767   3.081   2.455   6.524  0.1256  0.1771 -0.1774
 7941TIP3    H123768   2.991   2.487   6.521 -0.4767 -1.3614  0.4903
 7941TIP3    H223769   3.103   2.437   6.432 -0.1978  0.6633 -0.3559
 7942TIP3   OH223770   0.022   0.605   0.004  0.2193  0.5566  0.0255
 7942TIP3    H123771   0.077   0.586   0.081  0.1199 -1.7384 -0.3792
 7942TIP3    H223772   0.079   0.588  -0.070 -0.2497  0.8293 -0.3998
 7943TIP3   OH223773   5.213   2.081   0.337 -0.3975  0.7403 -0.2717
 7943TIP3    H123774   5.215   2.140   0.262  0.3509  0.1102 -0.7724
 7943TIP3    H223775   5.295   2.032   0.330 -0.1539  0.9155  1.1631
 7944TIP3   OH223776   5.912   0.775   5.095  0.3299 -0.1382  0.6927
 7944TIP3    H123777   5.834   0.737   5.135 -0.1429  0.1136  0.0349
 7944TIP3    H223778   5.884   0.863   5.067  1.2143  0.4599  1.6009
 7945TIP3   OH223779   3.158   7.496   1.733 -0.1523 -0.6300 -0.1550
 7945TIP3    H123780   3.101   7.474   1.808 -0.0606 -0.1993  0.0476
 7945TIP3    H223781   3.110   7.564   1.686  0.0118 -0.5537 -0.2135
 7946TIP3   OH223782   2.617   3.773   1.350 -0.2478  0.0746  0.0491
 7946TIP3    H123783   2.603   3.731   1.266  0.9486  1.0031 -0.6399
 7946TIP3    H223784   2.701   3.819   1.341 -0.5376  0.9466  1.4338
 7947TIP3   OH223785   0.508   5.148   6.053  0.1802 -0.0585  0.1196
 7947TIP3    H123786   0.541   5.238   6.051  0.2519  0.0121  2.0706
 7947TIP3    H223787   0.581   5.097   6.089 -0.5969 -0.4945  1.1403
 7948TIP3   OH223788   3.872   7.387   3.916 -0.5185 -0.1664 -0.0543
 7948TIP3    H123789   3.834   7.373   3.830  0.4065  1.1513 -0.6987
 7948TIP3    H223790   3.881   7.482   3.924 -0.8921 -0.2284  1.6381
 7949TIP3   OH223791   4.265   7.018   5.390 -0.0886 -0.1142  0.3065
 7949TIP3    H123792   4.178   7.042   5.422  0.4053  0.1837  1.4584
 7949TIP3    H223793   4.321   7.093   5.412  0.8848 -1.1234  1.4197
 7950TIP3   OH223794   5.166   0.983   5.941  0.2089 -0.8154  0.2429
 7950TIP3    H123795   5.192   1.028   5.860 -1.4607  0.5432  0.3990
 7950TIP3    H223796   5.249   0.963   5.985  1.1082 -0.7258 -1.3388
 7951TIP3   OH223797   1.609   5.441   2.176  0.4805  0.1872 -0.1055
 7951TIP3    H123798   1.594   5.346   2.175  0.9792  0.0935  0.4965
 7951TIP3    H223799   1.569   5.470   2.258 -1.1063  0.7617 -1.0422
 7952TIP3   OH223800   3.981   3.467   5.526 -0.0124  0.4789  0.2047
 7952TIP3    H123801   3.896   3.447   5.567  0.2151 -0.0423  0.4282
 7952TIP3    H223802   4.009   3.384   5.488  0.4413  0.6328  0.2056
 7953TIP3   OH223803   3.501   2.862   0.167  0.0423  0.4361 -0.2638
 7953TIP3    H123804   3.545   2.828   0.088  0.6967  0.5391  0.0548
 7953TIP3    H223805   3.432   2.919   0.133 -0.5108 -0.5090 -0.7933
 7954TIP3   OH223806   0.325   6.289   0.917 -0.0712  0.0663 -0.1572
 7954TIP3    H123807   0.405   6.289   0.864 -0.9652  0.9920 -1.5628
 7954TIP3    H223808   0.321   6.201   0.953  0.4160 -0.7278 -1.9138
 7955TIP3   OH223809   1.266   4.527   6.333 -0.1183  0.3759 -0.1888
 7955TIP3    H123810   1.238   4.520   6.242 -2.2234  0.3891  0.4099
 7955TIP3    H223811   1.260   4.620   6.353  0.5172  0.3976 -0.0620
 7956TIP3   OH223812   0.711   1.708   0.437 -0.2004 -0.0005  0.0243
 7956TIP3    H123813   0.746   1.623   0.464  0.2650  0.1540 -0.0744
 7956TIP3    H223814   0.710   1.760   0.517 -0.5150 -0.1055  0.0910
 7957TIP3   OH223815   1.039   7.470   5.459  0.1471  0.7494 -0.3928
 7957TIP3    H123816   1.095   7.497   5.531 -0.0327 -0.4291  0.2238
 7957TIP3    H223817   1.039   7.374   5.464 -2.5419  0.7024  0.1509
 7958TIP3   OH223818   0.022   3.561   0.502  0.1741 -0.1488  0.2005
 7958TIP3    H123819   0.066   3.518   0.575 -1.3481 -1.8114  0.2338
 7958TIP3    H223820   0.088   3.564   0.433  1.7265  1.7018  1.6640
 7959TIP3   OH223821   4.203   0.014   5.102  0.0760  0.1105 -0.4215
 7959TIP3    H123822   4.265   0.024   5.175 -0.6465  1.2643  0.0518
 7959TIP3    H223823   4.259   0.007   5.025  0.8095  0.9600  0.0185
 7960TIP3   OH223824   4.776   4.642   3.918  0.6211  0.4856 -0.5439
 7960TIP3    H123825   4.684   4.652   3.894 -0.0372 -1.4262  0.9284
 7960TIP3    H223826   4.800   4.554   3.888  1.9485  0.8935 -0.7738
 7961TIP3   OH223827   7.448   5.228   5.494 -0.4533  0.0172 -0.3125
 7961TIP3    H123828   7.437   5.134   5.477 -0.9670 -0.1917  1.1121
 7961TIP3    H223829   7.401   5.270   5.422 -1.7703 -0.8376  0.0049
 7962TIP3   OH223830   7.887   4.076   1.310 -0.5474  0.3084  0.5356
 7962TIP3    H123831   7.823   4.007   1.330  0.2567 -0.6923 -0.2779
 7962TIP3    H223832   7.842   4.133   1.248 -1.3040  0.6792  1.3956
 7963TIP3   OH223833   2.822   5.935   5.844  0.0274  0.1413  0.0476
 7963TIP3    H123834   2.840   5.878   5.770  0.3269  1.3850 -0.8766
 7963TIP3    H223835   2.728   5.953   5.839 -0.3591 -1.3455  1.1740
 7964TIP3   OH223836   3.784   5.702   5.212 -0.5333 -0.0354  0.2231
 7964TIP3    H123837   3.770   5.615   5.175 -0.3977 -0.1544  0.4450
 7964TIP3    H223838   3.751   5.762   5.146  0.2886 -0.2212 -0.3740
 7965TIP3   OH223839   4.937   3.737   6.696 -0.0424  0.5803  0.0050
 7965TIP3    H123840   4.883   3.660   6.710  2.0648 -0.6838  1.6716
 7965TIP3    H223841   4.880   3.811   6.719 -1.3899 -0.6180  0.6137
 7966TIP3   OH223842   5.628   3.322   1.862 -0.0538  0.1426  0.1099
 7966TIP3    H123843   5.632   3.248   1.801  0.9529  0.7571 -0.5863
 7966TIP3    H223844   5.709   3.316   1.913 -0.8610 -0.3403  1.3910
 7967TIP3   OH223845   3.643   4.581   0.832  0.9704 -0.0165 -0.1851
 7967TIP3    H123846   3.576   4.621   0.888  2.7423  0.7596  1.5142
 7967TIP3    H223847   3.659   4.647   0.764 -0.1208 -0.3116 -0.7504
 7968TIP3   OH223848   5.859   4.184   2.395 -0.0011 -0.5090  0.2569
 7968TIP3    H123849   5.889   4.195   2.486 -0.0563  2.3612  0.0145
 7968TIP3    H223850   5.764   4.172   2.402  0.1402 -1.5039  0.6134
 7969TIP3   OH223851   6.331   5.508   5.697 -0.4034 -0.1358  0.0335
 7969TIP3    H123852   6.349   5.417   5.674  0.3807 -0.4314  1.7130
 7969TIP3    H223853   6.236   5.512   5.706 -0.3582 -1.1006  1.1343
 7970TIP3   OH223854   4.318   6.731   4.689  0.4304  0.7772  0.3539
 7970TIP3    H123855   4.366   6.802   4.645  1.5680 -1.5840 -2.5291
 7970TIP3    H223856   4.387   6.673   4.721 -0.4699 -0.7050 -0.3415
 7971TIP3   OH223857   0.672   0.445   3.264  0.4838 -0.7897  0.3432
 7971TIP3    H123858   0.724   0.398   3.329  1.7180  0.1294  0.0372
 7971TIP3    H223859   0.700   0.409   3.180  0.4760 -0.4290  0.1861
 7972TIP3   OH223860   0.086   3.241   6.270 -0.0450  0.4725 -0.6812
 7972TIP3    H123861  -0.002   3.214   6.295  0.0916  0.2909 -0.3869
 7972TIP3    H223862   0.126   3.272   6.352  0.2770  0.2341 -0.7449
 7973TIP3   OH223863   2.228   3.710   3.925  0.5165 -0.2759  0.8541
 7973TIP3    H123864   2.171   3.656   3.979 -0.4389 -0.2804 -0.1134
 7973TIP3    H223865   2.225   3.668   3.839 -0.1769  1.2327  0.1051
 7974TIP3   OH223866   7.036   3.266   0.168 -0.3007  0.1561  0.2459
 7974TIP3    H123867   7.089   3.210   0.111  0.1537  1.3042 -0.4906
 7974TIP3    H223868   7.021   3.213   0.246  2.6903  0.1049  0.8732
 7975TIP3   OH223869   2.806   6.457   0.442 -0.2124  0.1002  0.5318
 7975TIP3    H123870   2.856   6.386   0.480  1.2492  1.6722  1.6788
 7975TIP3    H223871   2.741   6.479   0.509 -1.2157 -0.6624 -0.1618
 7976TIP3   OH223872   5.086   5.679   0.061 -0.6198 -1.0288  0.0300
 7976TIP3    H123873   5.126   5.752   0.106  1.8505 -2.8074  0.9334
 7976TIP3    H223874   4.992   5.688   0.079 -0.1865  0.8554  1.6492
 7977TIP3   OH223875   7.980   6.260   0.802 -0.5856 -0.1953 -0.4246
 7977TIP3    H123876   7.895   6.218   0.818 -0.6529 -0.1140 -0.5568
 7977TIP3    H223877   8.022   6.263   0.888 -0.7812 -0.1010 -0.3301
 7978TIP3   OH223878   6.084   5.018   0.033  0.2763  0.4166  0.2878
 7978TIP3    H123879   6.148   4.966   0.083  1.2935  2.6146  1.3874
 7978TIP3    H223880   6.124   5.029  -0.053  0.8115  0.7294  0.5712
 7979TIP3   OH223881   8.006   3.863   5.898 -1.1969 -0.3341  0.0452
 7979TIP3    H123882   8.082   3.908   5.860 -0.9133  1.6812  2.6645
 7979TIP3    H223883   7.937   3.930   5.900 -1.8936 -1.0514  0.9349
 7980TIP3   OH223884   5.654   4.819   4.345  0.6431  0.3468 -0.6059
 7980TIP3    H123885   5.701   4.792   4.425 -0.8978  0.0441  0.2425
 7980TIP3    H223886   5.567   4.842   4.376  0.9408  3.4608 -1.7313
 7981TIP3   OH223887   0.637   3.146   3.449  0.4391  0.2386  0.0179
 7981TIP3    H123888   0.663   3.229   3.488  1.4745 -0.6319  1.2611
 7981TIP3    H223889   0.586   3.171   3.371  0.5665  2.0127  0.4574
 7982TIP3   OH223890   5.885   3.741   0.495 -0.8033 -0.2680  0.2368
 7982TIP3    H123891   5.913   3.829   0.520  2.4167 -1.2679  0.5341
 7982TIP3    H223892   5.846   3.705   0.574  0.4418 -0.0687  0.9566
 7983TIP3   OH223893   0.672   4.687   6.728  0.1908 -0.1531 -0.7714
 7983TIP3    H123894   0.644   4.758   6.670 -0.5120 -1.4734 -2.1241
 7983TIP3    H223895   0.686   4.729   6.813 -0.8594  1.4670 -1.3576
 7984TIP3   OH223896   4.505   5.974   4.374  0.4603  0.2105 -0.2328
 7984TIP3    H123897   4.445   6.024   4.319  1.4289  0.6289 -0.9268
 7984TIP3    H223898   4.507   6.021   4.457 -0.4712 -0.0388 -0.0529
 7985TIP3   OH223899   8.152   5.338   2.252  0.6416  0.5703 -0.2950
 7985TIP3    H123900   8.162   5.383   2.168 -3.2617  0.4995 -0.9904
 7985TIP3    H223901   8.113   5.254   2.230  2.5423 -0.8917  1.4511
 7986TIP3   OH223902   0.265   3.189   3.835  0.4405 -0.2764 -0.2779
 7986TIP3    H123903   0.240   3.158   3.748 -1.1198 -0.8793  0.3598
 7986TIP3    H223904   0.275   3.109   3.887  1.6309  0.0641  0.0608
 7987TIP3   OH223905   0.319   1.073   3.937  0.0847  0.1634  0.4305
 7987TIP3    H123906   0.287   1.000   3.990 -0.6462 -1.5660 -2.1557
 7987TIP3    H223907   0.413   1.060   3.932 -0.1816 -1.7070 -1.3061
 7988TIP3   OH223908   5.881   7.639   5.500  0.5597  0.2517 -0.4253
 7988TIP3    H123909   5.943   7.711   5.484  1.5816 -0.2386  1.1188
 7988TIP3    H223910   5.829   7.635   5.420  1.1113  2.0744 -0.9409
 7989TIP3   OH223911   7.828   1.447   3.256  0.1744 -0.0086  0.8248
 7989TIP3    H123912   7.842   1.535   3.221  0.9577 -0.4426 -0.0014
 7989TIP3    H223913   7.800   1.396   3.180  0.9517 -0.7552  1.0282
 7990TIP3   OH223914   6.634   5.229   3.051  0.1714  0.2754 -0.7006
 7990TIP3    H123915   6.728   5.229   3.030  0.3927  2.5169  0.0002
 7990TIP3    H223916   6.591   5.235   2.966  0.6227 -0.8608 -1.0369
 7991TIP3   OH223917   7.087   5.378   0.922 -0.0195 -0.1802 -0.0904
 7991TIP3    H123918   7.071   5.325   1.000  0.8038 -0.0698  0.1689
 7991TIP3    H223919   7.183   5.379   0.913 -0.0980 -0.1482 -1.0714
 7992TIP3   OH223920   5.005   1.475   4.691  0.2540 -0.4335 -0.1909
 7992TIP3    H123921   4.947   1.528   4.746  0.2391 -0.3507 -0.2865
 7992TIP3    H223922   5.077   1.450   4.749  1.0418  0.9574 -0.5448
 7993TIP3   OH223923   5.864   5.445   2.336 -0.1049 -0.7108 -0.3987
 7993TIP3    H123924   5.917   5.523   2.352 -0.6888 -0.3291 -0.2894
 7993TIP3    H223925   5.915   5.373   2.374  0.3674 -0.3658 -0.3670
 7994TIP3   OH223926   6.423   5.561   5.989  0.1192  0.3265 -0.6002
 7994TIP3    H123927   6.392   5.520   5.908 -3.4822  1.2657  0.1380
 7994TIP3    H223928   6.426   5.654   5.970  0.3450  0.4470  0.0019
 7995TIP3   OH223929   5.583   2.953   4.467 -0.3620  0.1099  0.1902
 7995TIP3    H123930   5.560   2.922   4.555  1.2059 -0.4690  0.4352
 7995TIP3    H223931   5.647   2.889   4.436  2.0450  2.3886  0.1950
 7996TIP3   OH223932   5.097   5.092   2.725  0.8300  0.2690 -0.1101
 7996TIP3    H123933   5.118   5.185   2.725  1.5985  0.1083 -0.2691
 7996TIP3    H223934   5.111   5.064   2.634  1.2456 -0.1311  0.0719
 7997TIP3   OH223935   3.327   6.014   1.014 -0.0526  0.0522  0.0216
 7997TIP3    H123936   3.416   5.978   1.010  0.1808  0.6384 -0.2654
 7997TIP3    H223937   3.271   5.939   1.034  0.6310 -0.1425  1.3503
 7998TIP3   OH223938   0.186   3.443   2.422  0.1945 -0.1510 -0.4678
 7998TIP3    H123939   0.186   3.537   2.440 -0.8012 -0.3072  0.4857
 7998TIP3    H223940   0.100   3.414   2.452  0.8685 -1.5333  0.1749
 7999TIP3   OH223941   5.951   1.320   1.449 -0.2332  0.4299 -0.5853
 7999TIP3    H123942   5.966   1.386   1.381  1.9102 -1.1745 -1.7834
 7999TIP3    H223943   6.032   1.270   1.452 -0.6405 -0.2283  2.4838
 8000TIP3   OH223944   4.874   0.340   1.492 -0.0046  0.1299  0.8086
 8000TIP3    H123945   4.867   0.352   1.586  1.1823  1.3740  0.7674
 8000TIP3    H223946   4.953   0.287   1.481  1.0560  1.7105  0.4546
 8001TIP3   OH223947   8.211   5.389   2.523 -0.0852  0.2045  0.0242
 8001TIP3    H123948   8.173   5.329   2.459 -0.4553 -0.5363  0.9363
 8001TIP3    H223949   8.229   5.469   2.472  1.5144 -1.0428 -1.4776
 8002TIP3   OH223950   0.790   7.761   3.987  0.1044 -0.3943  0.2185
 8002TIP3    H123951   0.813   7.830   4.049  2.3232 -1.2963  0.4941
 8002TIP3    H223952   0.698   7.742   4.004 -0.6433  2.6264 -0.0453
 8003TIP3   OH223953   2.680   4.735   6.189  0.4087  0.2368 -0.6165
 8003TIP3    H123954   2.620   4.725   6.116 -1.4641  2.2899  0.4973
 8003TIP3    H223955   2.643   4.681   6.258 -1.2525  2.7049  0.5919
 8004TIP3   OH223956   5.474   7.116   4.340 -0.0681 -0.2908  0.2601
 8004TIP3    H123957   5.568   7.136   4.334 -0.2534  0.2509 -1.3510
 8004TIP3    H223958   5.433   7.200   4.360 -0.3406 -0.1774 -0.7219
 8005TIP3   OH223959   1.765   0.585   6.099 -0.0951 -0.3322  0.2387
 8005TIP3    H123960   1.732   0.629   6.178 -0.0842  2.4851 -1.1726
 8005TIP3    H223961   1.701   0.515   6.082 -1.3293  0.4206  1.5510
 8006TIP3   OH223962   4.618   2.133   5.273  0.3131 -0.0569 -0.0965
 8006TIP3    H123963   4.667   2.055   5.246 -0.3864 -0.8257  0.7890
 8006TIP3    H223964   4.635   2.196   5.203  0.8480 -1.0135 -0.8753
 8007TIP3   OH223965   6.407   3.206   3.433 -0.5557  0.4071 -0.0991
 8007TIP3    H123966   6.380   3.264   3.504  0.7668  0.6728  0.2128
 8007TIP3    H223967   6.401   3.259   3.354 -0.2842  0.6739  0.0591
 8008TIP3   OH223968   0.866   3.314   2.013 -0.5432  0.0253 -0.2157
 8008TIP3    H123969   0.802   3.246   1.991 -1.0978 -0.0619  1.4661
 8008TIP3    H223970   0.925   3.317   1.939 -2.9538  0.6571 -2.2457
 8009TIP3   OH223971   8.043   7.139   0.580  0.7766  0.3203 -0.1829
 8009TIP3    H123972   8.064   7.092   0.661 -0.9496  2.1989  1.4614
 8009TIP3    H223973   8.109   7.109   0.518  1.6134 -1.9092  1.6180
 8010TIP3   OH223974   0.522   5.907   5.287 -0.0619  0.0553 -0.5908
 8010TIP3    H123975   0.591   5.843   5.275  0.1974  0.1346  0.4691
 8010TIP3    H223976   0.455   5.881   5.224  1.5199  0.8473 -2.7327
 8011TIP3   OH223977   1.947   5.002   4.239  0.0751  0.5215 -0.5143
 8011TIP3    H123978   2.020   4.940   4.232  0.0983  0.5872 -0.8770
 8011TIP3    H223979   1.988   5.084   4.267 -0.1517 -0.0147  1.6027
 8012TIP3   OH223980   2.573   3.617   1.604 -0.0604 -0.0178  0.1524
 8012TIP3    H123981   2.645   3.569   1.644  0.0552 -1.1440 -1.3495
 8012TIP3    H223982   2.613   3.663   1.530 -0.7158  0.1158 -0.1254
 8013TIP3   OH223983   7.319   2.371   3.268 -0.1767 -0.1737 -0.6579
 8013TIP3    H123984   7.345   2.439   3.331 -1.4548  1.1063 -1.4488
 8013TIP3    H223985   7.307   2.419   3.186 -2.6855 -1.0459 -0.8842
 8014TIP3   OH223986   2.520   7.722   3.031  0.2305  0.0425  0.7142
 8014TIP3    H123987   2.569   7.803   3.026  0.7483 -0.1831  1.7994
 8014TIP3    H223988   2.436   7.741   2.989 -0.7201  1.9586  3.2628
 8015TIP3   OH223989   4.534   5.757   3.179 -0.0980  0.4205 -0.3901
 8015TIP3    H123990   4.602   5.690   3.169 -0.1749  0.2094  0.4730
 8015TIP3    H223991   4.573   5.836   3.140 -0.2228 -0.2393 -1.9448
 8016TIP3   OH223992   1.249   7.370   3.833 -0.1233  0.2147  0.1543
 8016TIP3    H123993   1.204   7.407   3.757 -2.0400 -2.7581 -0.3350
 8016TIP3    H223994   1.302   7.299   3.797  0.3861 -0.0609  1.4035
 8017TIP3   OH223995   4.072   7.251   0.733  0.7885  0.1006  0.6053
 8017TIP3    H123996   4.073   7.244   0.638 -0.9435 -0.6274  0.5840
 8017TIP3    H223997   4.074   7.345   0.751 -1.6820  0.4127 -0.3170
 8018TIP3   OH223998   4.942   2.692   1.077  0.4932 -0.1196  0.3302
 8018TIP3    H123999   4.923   2.785   1.089 -0.7480 -0.1907 -0.7735
 8018TIP3    H224000   4.921   2.651   1.161 -0.5776  0.3790  0.3190
 8019TIP3   OH224001   5.533   0.988   3.174  0.2029 -0.7773  0.0984
 8019TIP3    H124002   5.549   0.908   3.124 -1.0826 -0.2630 -1.2055
 8019TIP3    H224003   5.455   0.970   3.226  0.1321 -0.5081  0.0897
 8020TIP3   OH224004   6.609   6.019   0.149  0.3623 -0.5221  0.4041
 8020TIP3    H124005   6.611   6.087   0.216  0.9368 -1.2954  1.1881
 8020TIP3    H224006   6.680   6.042   0.089  1.2552 -1.0089  1.2587
 8021TIP3   OH224007   7.404   5.739   1.461 -0.0650 -0.5643 -0.9164
 8021TIP3    H124008   7.457   5.812   1.493  0.1554 -1.3719  0.6450
 8021TIP3    H224009   7.404   5.676   1.532 -1.5543 -1.4285 -1.6280
 8022TIP3   OH224010   1.242   1.894   4.045  0.2764 -0.0962  0.2635
 8022TIP3    H124011   1.236   1.957   3.973  1.7113 -1.1396 -0.8229
 8022TIP3    H224012   1.216   1.944   4.122  0.4003  1.5384 -0.6964
 8023TIP3   OH224013   6.090   5.631   1.598 -0.2731 -0.0460 -0.3343
 8023TIP3    H124014   6.010   5.581   1.609 -0.5798  0.7971  1.8369
 8023TIP3    H224015   6.134   5.624   1.683  0.8132  1.3875 -0.7378
 8024TIP3   OH224016   7.391   2.366   0.602 -0.2682  0.1496 -0.0001
 8024TIP3    H124017   7.389   2.367   0.507 -1.8302  2.0306  0.0006
 8024TIP3    H224018   7.319   2.308   0.627  1.1003 -1.5868  0.0854
 8025TIP3   OH224019   2.887   6.249   1.279  0.2366  0.3345  0.3647
 8025TIP3    H124020   2.982   6.255   1.265  0.3547  1.9957  1.6096
 8025TIP3    H224021   2.849   6.295   1.204  0.2731 -1.7273 -1.0220
 8026TIP3   OH224022   0.052   7.374   5.114  0.1994  0.1366  0.4023
 8026TIP3    H124023   0.139   7.410   5.097 -0.2039  1.4653  1.0254
 8026TIP3    H224024   0.006   7.382   5.030  0.7512 -0.8535 -0.0135
 8027TIP3   OH224025   0.574   6.000   6.302  0.1112 -0.2063 -0.5877
 8027TIP3    H124026   0.668   6.007   6.323  0.3504  0.5227 -1.8160
 8027TIP3    H224027   0.531   6.052   6.369  0.5632 -0.6654  0.0760
 8028TIP3   OH224028   5.816   0.778   1.492 -0.2728 -0.1191  0.3304
 8028TIP3    H124029   5.780   0.780   1.403 -0.2426  0.3546  0.3272
 8028TIP3    H224030   5.813   0.686   1.517  0.5836 -0.3966 -0.5248
 8029TIP3   OH224031   2.651   1.065   4.909  0.3171  0.0926  0.0770
 8029TIP3    H124032   2.707   1.048   4.985  0.4079 -2.1221 -0.4180
 8029TIP3    H224033   2.565   1.081   4.947  0.6317  0.3556  0.7074
 8030TIP3   OH224034   2.484   0.528   4.690  0.7016  0.0671 -0.3120
 8030TIP3    H124035   2.455   0.479   4.613  1.1134 -0.5232 -0.0900
 8030TIP3    H224036   2.405   0.535   4.745  0.3490  0.6804 -0.8726
 8031TIP3   OH224037   7.156   6.808   2.573  0.6618  0.1884 -0.1852
 8031TIP3    H124038   7.140   6.721   2.537 -0.4937  0.3870 -0.1820
 8031TIP3    H224039   7.244   6.802   2.611  0.5807 -0.9885 -0.1303
 8032TIP3   OH224040   4.629   6.694   3.526  0.0400  0.1857  0.3249
 8032TIP3    H124041   4.695   6.694   3.457 -0.1571  1.2547  0.1126
 8032TIP3    H224042   4.679   6.699   3.607  0.2548  2.2118  0.1339
 8033TIP3   OH224043   7.701   4.315   3.856 -0.0225  0.0229  0.5606
 8033TIP3    H124044   7.664   4.283   3.774 -2.1548  1.9830  0.6776
 8033TIP3    H224045   7.682   4.245   3.919 -1.9069  0.1457  0.1929
 8034TIP3   OH224046   6.401   0.568   2.996 -0.2295 -0.1378  0.1516
 8034TIP3    H124047   6.458   0.506   3.041 -0.4071 -2.2294 -2.3009
 8034TIP3    H224048   6.314   0.528   2.998 -0.4063  0.1046 -1.2716
 8035TIP3   OH224049   1.786   2.695   3.786  0.2256  0.0303 -0.1272
 8035TIP3    H124050   1.792   2.646   3.868  1.4842 -0.2937 -0.3842
 8035TIP3    H224051   1.695   2.724   3.781  0.1502  0.1077  1.4087
 8036TIP3   OH224052   1.842   6.618   3.602 -0.5693 -0.9293 -0.4832
 8036TIP3    H124053   1.819   6.564   3.526 -1.0276 -1.3795 -0.0391
 8036TIP3    H224054   1.860   6.554   3.671 -0.7753 -0.5196 -0.0448
 8037TIP3   OH224055   8.238   0.223   1.330 -0.2998  0.4297 -0.1485
 8037TIP3    H124056   8.168   0.185   1.383  0.8334 -0.0975  1.0109
 8037TIP3    H224057   8.232   0.177   1.246  0.4755 -1.7131  0.9175
 8038TIP3   OH224058   8.119   1.864   2.663  0.2697 -0.3888  0.8326
 8038TIP3    H124059   8.027   1.840   2.669  0.1693 -0.4790 -0.7396
 8038TIP3    H224060   8.165   1.797   2.713 -0.3235 -1.7252 -0.3628
 8039TIP3   OH224061   5.472   0.273   4.975  0.1827 -0.4774  0.6217
 8039TIP3    H124062   5.485   0.238   4.887  0.0357 -0.3478  0.5497
 8039TIP3    H224063   5.377   0.284   4.983  0.2144 -0.2626  0.7098
 8040TIP3   OH224064   0.842   3.872   3.173  0.7013  0.0929  0.8875
 8040TIP3    H124065   0.932   3.839   3.177  1.0972  0.9812 -0.1155
 8040TIP3    H224066   0.792   3.802   3.131  0.7690 -0.6815  2.0605
 8041TIP3   OH224067   8.149   3.923   1.189 -0.0134  0.2825  0.7208
 8041TIP3    H124068   8.061   3.942   1.221  0.3136 -0.8826  2.4051
 8041TIP3    H224069   8.184   3.858   1.250  1.8094  0.2842 -0.2475
 8042TIP3   OH224070   7.333   5.840   5.584  0.0653 -0.1190 -0.2696
 8042TIP3    H124071   7.239   5.856   5.582  0.0402 -0.3475 -1.0378
 8042TIP3    H224072   7.368   5.891   5.511  0.5831  0.2222  0.2109
 8043TIP3   OH224073   4.535   6.038   2.076 -0.3909 -0.0869 -0.0555
 8043TIP3    H124074   4.574   5.980   2.011 -0.0042 -1.0294  0.9937
 8043TIP3    H224075   4.441   6.017   2.074 -0.2699 -0.6742  0.2305
 8044TIP3   OH224076   1.124   4.578   4.237 -0.1554 -0.2519  0.1133
 8044TIP3    H124077   1.192   4.542   4.181  0.4031 -2.4631  2.0530
 8044TIP3    H224078   1.124   4.672   4.217  1.8494 -0.5395 -1.6068
 8045TIP3   OH224079   0.924   2.865   2.343 -0.2287  0.0328 -0.2295
 8045TIP3    H124080   0.873   2.786   2.326  0.3183 -0.2666 -0.5007
 8045TIP3    H224081   0.862   2.937   2.329 -0.4781 -0.3082 -0.9466
 8046TIP3   OH224082   2.196   1.623   5.030 -0.0158  0.0041 -0.6453
 8046TIP3    H124083   2.204   1.614   4.935  1.7596  0.0886 -0.5404
 8046TIP3    H224084   2.269   1.572   5.065 -0.5223  0.1444  0.6763
 8047TIP3   OH224085   6.596   0.500   6.399  0.4154  0.0033  0.4978
 8047TIP3    H124086   6.595   0.460   6.312 -1.4244  1.7100 -0.3299
 8047TIP3    H224087   6.665   0.567   6.393  0.6866 -0.2670  0.5569
 8048TIP3   OH224088   6.593   6.235   3.085  0.0614 -0.8081  0.4016
 8048TIP3    H124089   6.673   6.232   3.032  0.4467  1.4745  0.7257
 8048TIP3    H224090   6.583   6.328   3.108 -2.6224 -1.0257  0.4773
 8049TIP3   OH224091   5.540   0.553   6.417  0.3870  0.0314  0.6482
 8049TIP3    H124092   5.461   0.607   6.419 -0.5218 -1.2224 -0.1458
 8049TIP3    H224093   5.607   0.608   6.458 -0.5230  1.6884  0.0165
 8050TIP3   OH224094   2.363   6.655   0.652 -0.1031  0.1868  0.0991
 8050TIP3    H124095   2.323   6.577   0.691 -0.9499  0.6674  0.2108
 8050TIP3    H224096   2.391   6.625   0.565  2.5630 -1.1230  1.3018
 8051TIP3   OH224097   6.915   1.999   1.732 -0.2837  0.4145  0.0168
 8051TIP3    H124098   6.899   1.985   1.826 -1.4613  0.1529 -0.2109
 8051TIP3    H224099   6.972   1.927   1.706 -1.2263 -0.4263  0.2063
 8052TIP3   OH224100   7.751   1.321   1.688  0.5471 -0.1402 -0.8142
 8052TIP3    H124101   7.658   1.344   1.681  0.1694 -0.7199  1.3239
 8052TIP3    H224102   7.752   1.226   1.676  0.5564 -0.3992  0.9085
 8053TIP3   OH224103   6.633   3.790   1.277  0.3697  0.2391 -0.0714
 8053TIP3    H124104   6.594   3.772   1.192  1.6846 -0.9787 -0.4539
 8053TIP3    H224105   6.669   3.878   1.269  1.0144 -0.1016 -0.9900
 8054TIP3   OH224106   5.771   6.215   3.605 -0.3454  0.3802  0.4916
 8054TIP3    H124107   5.824   6.203   3.527 -1.4795 -0.9900 -0.1163
 8054TIP3    H224108   5.797   6.301   3.639  1.1326  0.4059 -0.6116
 8055TIP3   OH224109   4.577   6.123   4.638  0.2008 -0.0185 -0.8590
 8055TIP3    H124110   4.601   6.087   4.723  1.8191  0.2494 -1.1775
 8055TIP3    H224111   4.492   6.165   4.653  0.7392  0.5758  0.7887
 8056TIP3   OH224112   0.469   0.347   1.000 -0.3535  0.1805 -0.2645
 8056TIP3    H124113   0.509   0.417   1.052  0.2898  0.6020 -1.2946
 8056TIP3    H224114   0.535   0.278   1.000  0.1585  0.6491 -1.4847
 8057TIP3   OH224115   7.710   2.861   5.816 -0.6748  0.3939 -0.4978
 8057TIP3    H124116   7.742   2.929   5.876 -1.0228  0.2665 -0.1603
 8057TIP3    H224117   7.750   2.780   5.848 -2.1290  0.0515  0.5951
 8058TIP3   OH224118   0.031   4.642   3.873  0.6900 -0.5938 -0.0941
 8058TIP3    H124119   0.054   4.589   3.797  0.0575 -1.3392  0.2193
 8058TIP3    H224120   0.052   4.586   3.948 -1.5537 -1.1184  0.2239
 8059TIP3   OH224121   1.227   2.260   5.098 -0.4710 -0.3131 -0.2430
 8059TIP3    H124122   1.284   2.296   5.030  0.4750 -0.2046  0.5735
 8059TIP3    H224123   1.234   2.165   5.088 -2.1542 -0.3203 -1.7407
 8060TIP3   OH224124   7.768   6.862   5.962  0.4965  0.0594  0.1423
 8060TIP3    H124125   7.718   6.918   6.022  1.8371 -0.0578  1.4435
 8060TIP3    H224126   7.706   6.837   5.894 -1.0183  0.4477  1.3346
 8061TIP3   OH224127   2.053   3.799   3.155 -0.0165  0.2275  0.2484
 8061TIP3    H124128   2.131   3.854   3.164  0.8219 -0.3640 -2.4995
 8061TIP3    H224129   2.071   3.724   3.212  0.9426  0.5718  0.4315
 8062TIP3   OH224130   1.962   4.511   5.301  0.2482 -0.3163 -0.4349
 8062TIP3    H124131   2.052   4.540   5.288  0.7114 -1.6405 -0.3995
 8062TIP3    H224132   1.913   4.551   5.230  0.7634  0.8315 -0.1610
 8063TIP3   OH224133   5.033   3.954   2.161  0.3646 -0.5692  0.0202
 8063TIP3    H124134   4.975   4.016   2.205  2.3858  1.0200  0.5561
 8063TIP3    H224135   5.031   3.876   2.216 -1.7514 -0.8275 -0.3398
 8064TIP3   OH224136   1.894   2.915   5.569  0.1842 -0.1180  0.0788
 8064TIP3    H124137   1.950   2.874   5.504 -0.3326 -2.9135  1.2374
 8064TIP3    H224138   1.805   2.892   5.541 -0.0774 -0.5714  1.2187
 8065TIP3   OH224139   4.494   3.090   1.397 -0.5906  0.1263  0.1582
 8065TIP3    H124140   4.530   3.027   1.459  3.0288  0.8861 -0.9106
 8065TIP3    H224141   4.449   3.036   1.332  1.1792 -1.3176  0.0322
 8066TIP3   OH224142   7.871   6.605   5.994 -0.3901 -0.1345 -0.4301
 8066TIP3    H124143   7.846   6.697   5.986 -1.9972 -0.5326 -0.3639
 8066TIP3    H224144   7.858   6.569   5.905 -0.9524 -0.5592 -0.1835
 8067TIP3   OH224145   8.098   7.534   1.278  0.3036  0.5171  0.5673
 8067TIP3    H124146   8.142   7.463   1.231  1.0968  1.5060 -0.2373
 8067TIP3    H224147   8.022   7.555   1.225 -1.3134 -1.2762  2.0230
 8068TIP3   OH224148   5.029   7.683   2.563  0.2072 -0.0006 -0.3983
 8068TIP3    H124149   5.123   7.668   2.555  0.5349  1.3678  0.6152
 8068TIP3    H224150   5.011   7.757   2.505 -0.1686  0.0160 -0.2653
 8069TIP3   OH224151   0.637   4.601   0.650 -0.0273 -0.1572 -0.2282
 8069TIP3    H124152   0.665   4.535   0.587  0.5363 -0.9682  0.8426
 8069TIP3    H224153   0.580   4.554   0.711 -1.0416  0.7461 -0.4497
 8070TIP3   OH224154   3.038   7.577   2.799 -0.7459  0.4212 -0.0596
 8070TIP3    H124155   2.955   7.546   2.835 -0.2940  1.0659  1.6418
 8070TIP3    H224156   3.084   7.497   2.774 -1.0224 -0.0916  0.9879
 8071TIP3   OH224157   1.995   2.769   1.301 -1.0505  0.4796  0.4821
 8071TIP3    H124158   1.947   2.801   1.224  0.7786  1.1062 -0.4614
 8071TIP3    H224159   2.016   2.848   1.351 -2.2870  0.0670  1.7037
 8072TIP3   OH224160   5.394   1.662   6.478 -0.0507 -0.5214  0.0472
 8072TIP3    H124161   5.424   1.673   6.568 -0.5969  0.0125  0.1715
 8072TIP3    H224162   5.301   1.685   6.481 -0.3088 -1.4597 -0.4651
 8073TIP3   OH224163   4.335   1.022   1.198 -0.1099  0.5792 -0.3413
 8073TIP3    H124164   4.258   1.043   1.144  0.1348  1.6860 -0.2917
 8073TIP3    H224165   4.298   0.994   1.282 -0.4734  0.8785 -0.3944
 8074TIP3   OH224166   4.491   1.571   2.447 -0.7001  0.0795 -0.2872
 8074TIP3    H124167   4.556   1.506   2.420 -2.1436 -1.6731  0.1677
 8074TIP3    H224168   4.461   1.611   2.365 -2.3507 -2.4957 -1.0802
 8075TIP3   OH224169   1.231   2.278   0.708  0.0193 -0.3034  0.2430
 8075TIP3    H124170   1.189   2.219   0.770 -0.2549  0.2225  0.5628
 8075TIP3    H224171   1.319   2.242   0.697 -0.2921 -1.0427  0.0649
 8076TIP3   OH224172   5.165   5.822   6.321  1.0191 -0.1267  0.4975
 8076TIP3    H124173   5.245   5.852   6.364  1.0009 -2.2077  2.1791
 8076TIP3    H224174   5.117   5.776   6.390 -0.6021 -0.8053 -1.0013
 8077TIP3   OH224175   5.885   2.152   4.661 -0.0769  0.3391  0.2364
 8077TIP3    H124176   5.847   2.196   4.585  2.4776 -0.7330 -1.8011
 8077TIP3    H224177   5.850   2.062   4.657 -1.0188  0.6345  1.2100
 8078TIP3   OH224178   0.932   3.303   4.168  0.0752  0.1983 -0.0378
 8078TIP3    H124179   0.944   3.209   4.181  1.4132  0.5159  1.3129
 8078TIP3    H224180   0.838   3.318   4.184 -0.1803 -0.9091 -0.4162
 8079TIP3   OH224181   7.459   1.555   4.489 -0.3772  0.3451 -0.5590
 8079TIP3    H124182   7.450   1.461   4.471 -1.2947  0.6541 -1.8675
 8079TIP3    H224183   7.369   1.584   4.506 -0.1183  1.0104 -0.3101
 8080TIP3   OH224184   7.802   4.368   4.269  0.6377  0.2027  0.1346
 8080TIP3    H124185   7.819   4.383   4.362  0.9711 -0.3218  0.1628
 8080TIP3    H224186   7.877   4.406   4.223  0.6092  0.2117  0.0945
 8081TIP3   OH224187   1.675   7.604   6.422  0.2995  0.0804 -0.0089
 8081TIP3    H124188   1.584   7.592   6.393 -0.2283  0.5855  1.3453
 8081TIP3    H224189   1.670   7.597   6.517  1.4215  1.7643  0.2006
 8082TIP3   OH224190   5.120   3.227   1.219  0.1332 -0.1564 -0.4962
 8082TIP3    H124191   5.189   3.273   1.171 -1.4424  0.6627 -2.1213
 8082TIP3    H224192   5.150   3.136   1.224  0.7989 -0.0845 -2.2947
 8083TIP3   OH224193   5.832   3.070   2.605  0.6742  0.0304 -0.2558
 8083TIP3    H124194   5.762   3.135   2.605  1.5649  1.0108 -0.1889
 8083TIP3    H224195   5.787   2.986   2.595 -0.6616  0.4741  1.4840
 8084TIP3   OH224196   1.872   7.524   3.176  0.2484  0.1698 -0.8111
 8084TIP3    H124197   1.915   7.545   3.093  0.5341  0.1842 -0.6592
 8084TIP3    H224198   1.818   7.448   3.156  1.2738 -0.6134 -0.7157
 8085TIP3   OH224199   2.146   6.823   4.219  0.2478 -0.9343 -0.1825
 8085TIP3    H124200   2.070   6.767   4.209  1.2346 -2.3912  0.0498
 8085TIP3    H224201   2.170   6.814   4.312 -0.1137  0.6166  0.0763
 8086TIP3   OH224202   4.094   7.504   3.580 -0.2817  0.1092 -0.0537
 8086TIP3    H124203   4.070   7.591   3.611 -0.5535  0.0608 -0.1271
 8086TIP3    H224204   4.142   7.519   3.498 -1.0421  0.1495 -0.5009
 8087TIP3   OH224205   6.280   1.761   1.397 -0.7022  0.1645 -0.0215
 8087TIP3    H124206   6.310   1.673   1.375  1.5738  0.6204  0.9100
 8087TIP3    H224207   6.276   1.807   1.313 -2.0202 -0.8180 -0.5247
 8088TIP3   OH224208   6.028   1.872   6.204 -0.6764  0.2081 -0.2875
 8088TIP3    H124209   6.068   1.827   6.278 -1.6192 -1.0228 -0.5062
 8088TIP3    H224210   6.012   1.961   6.236 -0.1576 -0.0156  0.6383
 8089TIP3   OH224211   7.304   7.524   0.083 -0.1789 -0.0321  0.0152
 8089TIP3    H124212   7.286   7.611   0.048 -0.6509  0.6275  1.7698
 8089TIP3    H224213   7.220   7.478   0.080 -0.2180  0.0215  0.2163
 8090TIP3   OH224214   3.967   2.245   3.510 -0.0508  0.0815  0.1295
 8090TIP3    H124215   3.968   2.290   3.595 -0.2640  0.2859  0.0265
 8090TIP3    H224216   3.982   2.315   3.447  0.8926 -0.1803  0.0388
 8091TIP3   OH224217   1.765   7.344   6.376 -0.4102 -0.1078 -0.4987
 8091TIP3    H124218   1.731   7.434   6.379 -0.5277 -0.1724  0.5471
 8091TIP3    H224219   1.759   7.314   6.466 -0.5212 -1.2306 -0.8727
 8092TIP3   OH224220   4.478   1.700   1.406 -1.1004  0.1050  0.5708
 8092TIP3    H124221   4.461   1.792   1.426 -1.1355 -0.1618  1.8985
 8092TIP3    H224222   4.396   1.668   1.370 -1.2452  0.4773  0.5567
 8093TIP3   OH224223   2.878   5.494   5.027  0.5331  0.4036  0.6511
 8093TIP3    H124224   2.791   5.506   4.989  0.7795  0.1045 -0.0073
 8093TIP3    H224225   2.861   5.465   5.117 -0.0629  2.2722  1.1865
 8094TIP3   OH224226   2.560   7.405   3.070  0.1608 -0.8579  0.2909
 8094TIP3    H124227   2.547   7.499   3.067 -0.6941 -0.9316  1.2394
 8094TIP3    H224228   2.499   7.370   3.005  0.4768 -0.7704 -0.0595
 8095TIP3   OH224229   2.448   4.121   5.324 -0.1794  0.1580 -0.2665
 8095TIP3    H124230   2.386   4.061   5.283  0.4902 -0.8640  0.1526
 8095TIP3    H224231   2.430   4.113   5.418  1.6778 -1.5080  0.0291
 8096TIP3   OH224232   6.924   2.995   3.424  0.0999  0.4027  0.3173
 8096TIP3    H124233   6.890   2.908   3.404  0.9148  0.0725  0.2915
 8096TIP3    H224234   6.847   3.049   3.442 -0.5029  0.0921 -1.2603
 8097TIP3   OH224235   5.228   1.155   2.388 -0.4077  0.0011  0.1557
 8097TIP3    H124236   5.176   1.079   2.416 -1.1878  0.5506  0.2422
 8097TIP3    H224237   5.233   1.209   2.467  2.0768 -0.9895  0.7501
 8098TIP3   OH224238   5.891   5.949   3.023 -1.2315  0.5988 -0.1538
 8098TIP3    H124239   5.898   5.857   2.999 -2.3018  0.6669 -0.8216
 8098TIP3    H224240   5.811   5.979   2.979 -0.4344  2.0714 -0.6707
 8099TIP3   OH224241   6.523   6.498   0.038  0.2907  0.6808  0.0343
 8099TIP3    H124242   6.582   6.543  -0.023  2.4006  0.8081  2.0358
 8099TIP3    H224243   6.446   6.477  -0.015  1.4390  1.9297 -2.3157
 8100TIP3   OH224244   3.989   5.771   4.533  0.4003 -0.4536 -0.6663
 8100TIP3    H124245   3.917   5.714   4.559 -0.3235  1.3258  1.6004
 8100TIP3    H224246   3.953   5.824   4.461 -0.0563 -0.5708 -0.5274
 8101TIP3   OH224247   1.169   3.578   6.226 -0.3200 -0.0895 -0.0560
 8101TIP3    H124248   1.196   3.665   6.254  0.9720  0.0122 -1.4828
 8101TIP3    H224249   1.140   3.589   6.136 -0.3517 -1.0878 -0.1860
 8102TIP3   OH224250   1.732   1.265   3.869 -0.2534  0.4214 -0.2928
 8102TIP3    H124251   1.746   1.173   3.846  0.2298  0.1146  1.1344
 8102TIP3    H224252   1.703   1.306   3.788 -0.2254 -0.9380 -1.0124
 8103TIP3   OH224253   5.154   5.868   2.456  0.0182 -0.1036  0.2985
 8103TIP3    H124254   5.173   5.816   2.378  0.0018  2.1447 -1.3023
 8103TIP3    H224255   5.240   5.894   2.489  0.0449 -1.5298  1.4136
 8104TIP3   OH224256   5.925   5.006   4.814 -0.1711 -0.5925  0.5662
 8104TIP3    H124257   5.902   4.928   4.765  2.2911 -0.1094 -1.5805
 8104TIP3    H224258   5.902   5.079   4.756  1.1335  0.0834  0.8548
 8105TIP3   OH224259   2.399   1.858   0.084  0.3189 -0.0107 -0.6226
 8105TIP3    H124260   2.416   1.846  -0.010 -0.9310 -2.4531 -0.5890
 8105TIP3    H224261   2.477   1.822   0.127  0.2064 -0.3267 -0.6855
 8106TIP3   OH224262   5.656   0.326   5.371  0.6670  0.1702 -0.4810
 8106TIP3    H124263   5.673   0.382   5.295 -0.8445  0.4482 -0.6474
 8106TIP3    H224264   5.667   0.384   5.447  0.6005  0.3042 -0.5736
 8107TIP3   OH224265   5.044   5.771   3.114 -0.6148  0.0085 -0.4575
 8107TIP3    H124266   4.983   5.800   3.045 -0.5504 -0.0608 -0.5429
 8107TIP3    H224267   5.005   5.805   3.195 -0.8624 -0.1904 -0.4927
 8108TIP3   OH224268   0.579   6.416   5.887 -0.7243  0.5304 -0.0707
 8108TIP3    H124269   0.534   6.486   5.840 -0.3581  0.6782 -0.2098
 8108TIP3    H224270   0.513   6.379   5.945 -1.0976  0.5510 -0.4793
 8109TIP3   OH224271   2.426   4.734   2.441  0.6084 -0.1559 -0.2226
 8109TIP3    H124272   2.466   4.701   2.360  0.1260  0.4828 -0.7330
 8109TIP3    H224273   2.387   4.657   2.482  0.4664 -0.4105 -0.8270
 8110TIP3   OH224274   3.676   3.105   1.063  0.2186 -0.1547  0.4143
 8110TIP3    H124275   3.726   3.024   1.059 -2.8194 -2.2367  1.2198
 8110TIP3    H224276   3.586   3.077   1.079 -1.0286  3.3941  0.4866
 8111TIP3   OH224277   2.420   4.443   3.172 -0.2783 -0.2129  0.0665
 8111TIP3    H124278   2.438   4.446   3.266 -0.1402  0.0822  0.0295
 8111TIP3    H224279   2.395   4.352   3.155 -1.0165 -0.1055  0.5215
 8112TIP3   OH224280   4.917   1.433   6.180 -0.1587  0.0773  0.7682
 8112TIP3    H124281   5.012   1.420   6.168 -0.1609  1.3750 -0.9200
 8112TIP3    H224282   4.911   1.496   6.252  0.4469  2.4740 -1.1634
 8113TIP3   OH224283   3.500   7.140   3.815 -0.5511 -0.2485 -0.3782
 8113TIP3    H124284   3.405   7.139   3.826 -0.4924  0.2173  0.2412
 8113TIP3    H224285   3.532   7.201   3.881  0.1789 -0.3467 -0.6191
 8114TIP3   OH224286   0.789   3.965   1.287 -0.1020 -0.0063  0.3469
 8114TIP3    H124287   0.878   3.962   1.319  0.0411  0.4174  0.0031
 8114TIP3    H224288   0.789   3.907   1.210  0.7054  2.3875 -1.5937
 8115TIP3   OH224289   2.773   6.356   1.014 -0.0714  0.1563 -0.2263
 8115TIP3    H124290   2.804   6.436   0.972 -1.7166  1.9613  1.7295
 8115TIP3    H224291   2.686   6.379   1.047 -0.3264 -2.2434  1.0070
 8116TIP3   OH224292   2.392   5.216   0.515 -0.0518  0.0311 -0.7150
 8116TIP3    H124293   2.298   5.210   0.499 -0.2642  0.2488  0.3555
 8116TIP3    H224294   2.429   5.137   0.475 -0.8291 -0.6013 -0.2122
 8117TIP3   OH224295   6.878   3.172   5.293 -0.1471  0.7294  0.6315
 8117TIP3    H124296   6.942   3.236   5.262  0.7800 -0.6505 -0.4386
 8117TIP3    H224297   6.793   3.207   5.266  0.2873  1.7707  0.5758
 8118TIP3   OH224298   0.264   3.622   4.625  0.1831 -1.1686  0.0872
 8118TIP3    H124299   0.233   3.706   4.661 -0.3304 -0.6651 -1.4633
 8118TIP3    H224300   0.210   3.608   4.548  2.0279 -1.6167 -1.1785
 8119TIP3   OH224301   5.611   5.431   2.238  0.1325 -0.0236 -0.4461
 8119TIP3    H124302   5.580   5.521   2.248 -0.6797 -0.4838  1.7018
 8119TIP3    H224303   5.697   5.431   2.281 -1.0101 -0.8090  1.9907
 8120TIP3   OH224304   6.971   2.027   3.300  0.2434 -0.2254  0.5481
 8120TIP3    H124305   6.939   1.962   3.363  2.8294 -1.1944  0.9917
 8120TIP3    H224306   7.056   2.055   3.335  1.5313 -0.3671 -2.1579
 8121TIP3   OH224307   6.379   6.991   4.701  0.4688  0.0607 -0.2546
 8121TIP3    H124308   6.286   7.004   4.722  0.1279 -1.8604 -0.3213
 8121TIP3    H224309   6.425   7.055   4.754 -0.8767  0.8838 -0.0185
 8122TIP3   OH224310   6.958   5.680   0.603 -0.3103  0.2585  0.1282
 8122TIP3    H124311   6.894   5.723   0.546 -1.4334 -1.4898  0.0109
 8122TIP3    H224312   6.908   5.657   0.682  0.7242  0.7874  0.9584
 8123TIP3   OH224313   4.466   3.137   5.518 -0.1980 -0.2154 -0.5334
 8123TIP3    H124314   4.541   3.082   5.544  0.2401  0.2771 -0.7528
 8123TIP3    H224315   4.391   3.095   5.560  0.4420  0.3642  1.3079
 8124TIP3   OH224316   3.818   2.123   0.309  0.4287  0.1361 -0.6354
 8124TIP3    H124317   3.751   2.110   0.241 -0.4730  2.3393 -0.2587
 8124TIP3    H224318   3.805   2.049   0.369 -0.9839 -0.0584 -1.1211
 8125TIP3   OH224319   6.355   2.866   6.737  0.3051 -0.0901 -0.3447
 8125TIP3    H124320   6.404   2.946   6.717  0.8429 -0.4754 -0.5537
 8125TIP3    H224321   6.270   2.880   6.695 -0.7241  1.6459  2.0241
 8126TIP3   OH224322   3.747   6.078   1.672 -0.0431 -0.4301 -0.4113
 8126TIP3    H124323   3.769   6.159   1.627 -0.7825  0.4139  0.6731
 8126TIP3    H224324   3.764   6.097   1.765  1.0221 -1.9537 -0.2510
 8127TIP3   OH224325   2.158   3.605   3.672  0.3343  0.2300  0.3732
 8127TIP3    H124326   2.174   3.512   3.684  0.2544  0.4110  2.2322
 8127TIP3    H224327   2.132   3.614   3.581  2.1642 -1.2835 -0.3534
 8128TIP3   OH224328   0.110   5.291   4.651 -0.1569  0.1730 -0.8288
 8128TIP3    H124329   0.205   5.285   4.665 -0.0924  0.8907 -0.9248
 8128TIP3    H224330   0.086   5.206   4.616  0.7831  0.6089 -2.6554
 8129TIP3   OH224331   0.950   1.847   6.162 -0.5202 -0.1363  0.3477
 8129TIP3    H124332   0.897   1.801   6.228 -1.4724  1.1335  0.5219
 8129TIP3    H224333   0.974   1.929   6.205 -0.0052  0.1193 -0.4174
 8130TIP3   OH224334   7.369   5.450   4.578 -0.2039  0.1193 -0.2055
 8130TIP3    H124335   7.340   5.411   4.496 -2.0060  0.9237  0.0040
 8130TIP3    H224336   7.409   5.378   4.626 -2.0872 -1.1376 -0.4517
 8131TIP3   OH224337   7.170   4.919   1.122  0.3912  0.3253  0.2211
 8131TIP3    H124338   7.194   4.962   1.205 -0.5273  0.5559  0.3827
 8131TIP3    H224339   7.085   4.878   1.141  0.2262  0.2941 -0.5786
 8132TIP3   OH224340   3.471   1.882   2.241  0.0086 -0.3317 -0.0207
 8132TIP3    H124341   3.547   1.941   2.239 -0.3777  0.1518 -0.5901
 8132TIP3    H224342   3.419   1.907   2.165 -0.8267 -0.5241  0.4749
 8133TIP3   OH224343   5.788   5.977   4.171  0.1734 -0.1861 -0.4768
 8133TIP3    H124344   5.880   5.958   4.150 -0.5345 -0.6991 -3.6366
 8133TIP3    H224345   5.780   6.072   4.163  0.0281 -0.3285 -2.3626
 8134TIP3   OH224346   3.921   1.250   2.075  0.0184  0.1339  0.3936
 8134TIP3    H124347   3.960   1.337   2.063 -0.1872  0.1758 -0.0068
 8134TIP3    H224348   3.888   1.227   1.988  1.5633 -1.0698  0.0801
 8135TIP3   OH224349   6.791   7.524   2.513  0.2289  0.0408  0.0214
 8135TIP3    H124350   6.706   7.557   2.485  1.1952  0.9455 -2.1572
 8135TIP3    H224351   6.775   7.480   2.596 -2.4564 -0.3633 -0.6309
 8136TIP3   OH224352   6.952   4.536   4.638  0.3438  0.0842 -0.2255
 8136TIP3    H124353   7.032   4.545   4.586  1.2123 -1.1626  0.8228
 8136TIP3    H224354   6.982   4.535   4.728 -0.9170  0.0772  0.2134
 8137TIP3   OH224355   6.268   5.839   5.027 -0.4178 -0.0439 -0.4061
 8137TIP3    H124356   6.182   5.807   5.053 -1.5696  2.2221 -1.1068
 8137TIP3    H224357   6.315   5.852   5.110 -1.3465  0.1692  0.1008
 8138TIP3   OH224358   8.268   5.290   1.084 -0.0956  0.4219  0.3333
 8138TIP3    H124359   8.176   5.269   1.066 -0.1787  0.4159  0.7621
 8138TIP3    H224360   8.288   5.361   1.023  0.2231 -0.9461 -1.2050
 8139TIP3   OH224361   3.014   5.380   4.827 -0.0802 -0.5834 -0.0583
 8139TIP3    H124362   2.970   5.429   4.897  0.6527 -0.3732  0.2604
 8139TIP3    H224363   3.089   5.435   4.803 -0.4582 -0.5281 -1.1845
 8140TIP3   OH224364   1.371   0.577   1.010 -0.1784  0.4375 -0.6697
 8140TIP3    H124365   1.431   0.617   1.073 -1.0797  1.4513 -0.4328
 8140TIP3    H224366   1.324   0.510   1.061 -0.3959  0.7646 -0.4352
 8141TIP3   OH224367   6.844   7.486  -0.005 -0.2536 -0.0978  0.0894
 8141TIP3    H124368   6.799   7.403   0.010  0.8659 -0.6983  0.1461
 8141TIP3    H224369   6.799   7.548   0.053 -1.7052 -0.4299 -0.6361
 8142TIP3   OH224370   3.010   4.178   0.643 -0.4990  0.1959 -0.7012
 8142TIP3    H124371   3.080   4.223   0.689  0.1312  0.7547 -2.1325
 8142TIP3    H224372   2.940   4.169   0.707  0.4136  0.7484  0.3931
 8143TIP3   OH224373   0.078   6.373   6.168  0.0585 -0.2745  0.0040
 8143TIP3    H124374   0.004   6.416   6.126  0.5370  1.7860  1.1469
 8143TIP3    H224375   0.046   6.285   6.189 -0.7344 -0.8211 -3.0111
 8144TIP3   OH224376   2.305   5.549   5.668  0.0890  0.2908  0.1028
 8144TIP3    H124377   2.273   5.459   5.675  0.7822  0.0283 -0.1361
 8144TIP3    H224378   2.271   5.580   5.585  0.4316  0.0191 -0.1393
 8145TIP3   OH224379   7.464   6.769   0.161  0.2911  0.0265  0.2324
 8145TIP3    H124380   7.504   6.836   0.106 -0.8225 -1.1198 -2.1387
 8145TIP3    H224381   7.472   6.688   0.110 -0.9302 -1.0777  1.6973
 8146TIP3   OH224382   3.699   6.345   4.353  0.2334 -0.9604 -0.3680
 8146TIP3    H124383   3.700   6.405   4.427  0.1396 -0.4756 -0.7580
 8146TIP3    H224384   3.726   6.398   4.278 -2.2179 -0.7404 -1.1940
 8147TIP3   OH224385   1.355   0.080   0.642  0.0577 -0.4503  0.2131
 8147TIP3    H124386   1.449   0.095   0.657  0.1643 -1.5827  0.7980
 8147TIP3    H224387   1.317   0.168   0.638  1.1409  0.0207 -0.0167
 8148TIP3   OH224388   5.454   1.038   1.198  0.3724  0.2881 -0.5041
 8148TIP3    H124389   5.372   1.088   1.194  0.5513  0.5744 -0.5435
 8148TIP3    H224390   5.480   1.042   1.290 -0.1810 -0.6434 -0.2892
 8149TIP3   OH224391   7.908   2.527   3.101  0.2290  0.5000  0.3197
 8149TIP3    H124392   7.965   2.578   3.158  0.9581 -0.2722  0.2918
 8149TIP3    H224393   7.864   2.466   3.161  0.4285  0.1962  0.1535
 8150TIP3   OH224394   0.908   7.544   4.108 -0.0475  0.4932  0.6051
 8150TIP3    H124395   0.878   7.623   4.063 -2.0523 -1.4552 -1.7776
 8150TIP3    H224396   1.001   7.538   4.087 -0.4730  0.8170 -1.5392
 8151TIP3   OH224397   0.481   4.327   2.645  0.0255 -0.5960  0.1078
 8151TIP3    H124398   0.416   4.343   2.713 -0.3408 -1.2016 -0.0941
 8151TIP3    H224399   0.509   4.237   2.659  2.0809  0.1399  1.2481
 8152TIP3   OH224400   5.302   3.581   5.575  0.4570 -0.2960  0.4484
 8152TIP3    H124401   5.233   3.646   5.585 -0.0215 -0.5564 -1.0184
 8152TIP3    H224402   5.291   3.523   5.650 -0.2422  0.2630  0.7927
 8153TIP3   OH224403   4.991   0.438   4.278 -0.5036 -0.5791 -0.3283
 8153TIP3    H124404   4.923   0.377   4.250 -0.7401  0.0800 -1.2334
 8153TIP3    H224405   5.015   0.486   4.199 -0.6945  0.8609  0.4349
 8154TIP3   OH224406   0.629   4.174   3.953  0.4566  0.1323 -1.0779
 8154TIP3    H124407   0.705   4.154   4.007 -0.9752  0.2789  1.1338
 8154TIP3    H224408   0.663   4.228   3.883  2.0828  2.1877  1.1327
 8155TIP3   OH224409   5.647   7.622   6.428 -0.5345 -0.5211  0.5039
 8155TIP3    H124410   5.718   7.651   6.485 -1.4933  0.0560  1.4377
 8155TIP3    H224411   5.580   7.691   6.435 -0.3047  0.0774 -2.0990
 8156TIP3   OH224412   4.976   3.702   4.376  0.1922  0.4454  0.1101
 8156TIP3    H124413   5.030   3.666   4.447 -0.4137 -0.6724  0.0307
 8156TIP3    H224414   5.005   3.792   4.368  2.3864 -0.2291 -0.2318
 8157TIP3   OH224415   2.540   1.399   4.477 -0.0976 -0.2481  0.1345
 8157TIP3    H124416   2.453   1.365   4.497 -0.5909  0.4413 -0.7593
 8157TIP3    H224417   2.555   1.376   4.385  0.4896 -0.0203  0.1691
 8158TIP3   OH224418   3.179   0.026   5.575  0.0257  0.1452  0.4914
 8158TIP3    H124419   3.271   0.040   5.550  0.5909  0.8694  2.6898
 8158TIP3    H224420   3.171   0.069   5.660 -2.3577  0.0096  0.3980
 8159TIP3   OH224421   8.228   3.441   2.499  0.6234  0.2966  0.3558
 8159TIP3    H124422   8.171   3.459   2.424  0.6161 -1.6485 -0.1433
 8159TIP3    H224423   8.168   3.421   2.571  0.6489  1.3878  0.7017
 8160TIP3   OH224424   2.624   2.912   2.620  0.1091  0.3091 -0.5536
 8160TIP3    H124425   2.708   2.893   2.661  0.6894  1.1563 -1.3238
 8160TIP3    H224426   2.600   2.999   2.651  0.1079  0.5723 -1.2685
 8161TIP3   OH224427   5.446   1.536   3.880  0.3151 -0.0872  0.1773
 8161TIP3    H124428   5.402   1.463   3.924 -1.8284  0.7098 -0.5080
 8161TIP3    H224429   5.416   1.532   3.789  1.8375  0.4275 -0.3961
 8162TIP3   OH224430   4.785   6.630   4.894  0.2863  0.1380 -0.1016
 8162TIP3    H124431   4.782   6.632   4.798  2.8114 -1.3439 -0.3250
 8162TIP3    H224432   4.699   6.600   4.921 -0.5411  0.7881 -1.8775
 8163TIP3   OH224433   3.794   2.739   4.677  0.8147 -0.2909  0.2059
 8163TIP3    H124434   3.815   2.653   4.713 -1.1129 -0.7146  0.4686
 8163TIP3    H224435   3.699   2.748   4.691  1.2094  2.6000  1.7153
 8164TIP3   OH224436   5.364   3.048   5.687 -0.6600  0.0181  0.1499
 8164TIP3    H124437   5.454   3.076   5.668 -0.9028  1.1565  0.5755
 8164TIP3    H224438   5.353   2.967   5.638 -0.5357  1.6213 -2.8071
 8165TIP3   OH224439   4.794   7.128   2.348  0.4935 -0.1237  0.5992
 8165TIP3    H124440   4.858   7.066   2.311 -2.6974 -1.5249 -3.3095
 8165TIP3    H224441   4.821   7.213   2.315  1.7993 -0.2179  1.3461
 8166TIP3   OH224442   1.765   2.358   4.887  0.5036 -0.0920 -0.3506
 8166TIP3    H124443   1.821   2.284   4.908 -0.9155 -1.0495  0.1779
 8166TIP3    H224444   1.697   2.358   4.955 -0.9961  0.1236 -1.7713
 8167TIP3   OH224445   8.278   1.231   0.715  0.0328  0.6007  0.1625
 8167TIP3    H124446   8.211   1.247   0.782  0.4521 -0.3663  0.8394
 8167TIP3    H224447   8.359   1.260   0.756  0.2047  0.5784 -0.1648
 8168TIP3   OH224448   5.806   3.141   4.972 -0.2705 -0.0511 -0.1587
 8168TIP3    H124449   5.719   3.128   4.934  0.1401  1.1750 -1.6215
 8168TIP3    H224450   5.847   3.054   4.966 -1.0684 -0.4294 -0.2971
 8169TIP3   OH224451   4.354   1.776   3.632  0.0965  0.0295  0.2055
 8169TIP3    H124452   4.317   1.689   3.645  0.2068  0.0692  0.7842
 8169TIP3    H224453   4.433   1.778   3.685  0.4146  0.2807 -0.2722
 8170TIP3   OH224454   1.375   1.316   4.290  0.5622 -0.6037  0.3516
 8170TIP3    H124455   1.351   1.409   4.295 -1.7809 -1.1490  0.5271
 8170TIP3    H224456   1.435   1.311   4.216 -0.4928  0.8558 -0.6802
 8171TIP3   OH224457   0.039   5.925   4.125 -0.2602  0.4686  0.8521
 8171TIP3    H124458   0.069   6.016   4.119 -2.1173  1.0722 -0.0611
 8171TIP3    H224459   0.023   5.899   4.035 -0.3982 -0.5456  1.1596
 8172TIP3   OH224460   3.961   6.692   6.599  0.5458 -0.1497 -0.5576
 8172TIP3    H124461   3.961   6.786   6.580 -1.2528 -0.3909 -2.0289
 8172TIP3    H224462   4.053   6.666   6.591  1.1323  1.5143  0.2056
 8173TIP3   OH224463   7.596   0.541   4.808 -0.2217 -0.1791 -0.1762
 8173TIP3    H124464   7.534   0.544   4.736  0.9740 -1.5054 -1.3373
 8173TIP3    H224465   7.678   0.512   4.768  0.5580 -0.6995  1.6616
 8174TIP3   OH224466   2.773   1.596   2.685  0.3131  0.0120 -0.0705
 8174TIP3    H124467   2.779   1.654   2.762  0.8924 -0.4792  0.2589
 8174TIP3    H224468   2.705   1.532   2.709  1.7368 -1.2357  0.7903
 8175TIP3   OH224469   1.200   4.774   1.227 -0.5195  0.3048  0.7000
 8175TIP3    H124470   1.227   4.684   1.208  0.6584  0.2775  2.2965
 8175TIP3    H224471   1.108   4.777   1.199 -0.5068 -1.3044  0.3502
 8176TIP3   OH224472   5.524   2.871   4.771  0.1216 -0.5822 -0.6337
 8176TIP3    H124473   5.616   2.852   4.787 -0.0532 -1.3267 -0.4773
 8176TIP3    H224474   5.506   2.950   4.822  0.1512 -1.6272  1.0455
 8177TIP3   OH224475   4.174   4.905   0.175  0.6222 -0.0411  0.2977
 8177TIP3    H124476   4.209   4.818   0.156 -0.7630 -0.4414 -0.5443
 8177TIP3    H224477   4.114   4.923   0.102 -0.4790  0.8417  1.3797
 8178TIP3   OH224478   2.525   7.138   4.716 -0.3968 -0.2156 -0.0312
 8178TIP3    H124479   2.590   7.206   4.698 -0.3578 -0.4221 -0.6817
 8178TIP3    H224480   2.497   7.155   4.806 -1.1576  1.3083 -0.5201
 8179TIP3   OH224481   7.990   4.312   3.963  0.3083 -0.2270 -0.0069
 8179TIP3    H124482   7.997   4.401   3.928  0.2965 -0.1053  0.3008
 8179TIP3    H224483   7.926   4.270   3.906  1.7703 -0.6652 -1.4305
 8180TIP3   OH224484   7.480   5.005   3.972  0.2464  0.2945 -0.2707
 8180TIP3    H124485   7.437   4.979   3.890 -0.4331  0.8797 -0.1128
 8180TIP3    H224486   7.486   5.100   3.966  0.5595  0.3054  0.1918
 8181TIP3   OH224487   0.695   5.840   5.881 -0.4092  0.2718  0.1604
 8181TIP3    H124488   0.750   5.854   5.804 -0.0606 -1.2108  0.1058
 8181TIP3    H224489   0.694   5.924   5.926  1.0861  0.6068 -0.3699
 8182TIP3   OH224490   1.154   3.598   3.915 -0.1885  0.2276  0.0667
 8182TIP3    H124491   1.223   3.572   3.853  0.6595  0.0455  1.0629
 8182TIP3    H224492   1.077   3.548   3.888  0.7856 -1.6020  0.5320
 8183TIP3   OH224493   0.980   3.407   4.951 -0.5471  0.0158  0.0455
 8183TIP3    H124494   0.941   3.380   5.034  1.8520  0.4968  1.4050
 8183TIP3    H224495   0.982   3.503   4.955 -1.0293  0.0748 -0.8809
 8184TIP3   OH224496   6.662   7.461   5.060  0.2337 -0.3296  0.2052
 8184TIP3    H124497   6.644   7.414   5.142  0.3352 -0.7691 -0.0203
 8184TIP3    H224498   6.590   7.523   5.052  0.1605 -0.3626  0.5698
 8185TIP3   OH224499   6.184   1.219   0.667  0.2021  0.1611  0.2512
 8185TIP3    H124500   6.180   1.170   0.585  1.2695  0.1838  0.1748
 8185TIP3    H224501   6.152   1.307   0.644 -0.8470 -0.2257  0.1866
 8186TIP3   OH224502   1.640   6.466   2.122  0.0910 -0.1388 -0.0988
 8186TIP3    H124503   1.567   6.445   2.181 -0.9226  0.3076 -1.1501
 8186TIP3    H224504   1.696   6.524   2.174 -0.3652 -0.3843  0.6954
 8187TIP3   OH224505   2.456   7.020   0.665  0.4928 -0.1629 -0.4695
 8187TIP3    H124506   2.509   7.047   0.740 -0.4420  1.2026 -0.2555
 8187TIP3    H224507   2.507   6.951   0.623  1.1914 -0.7260  1.2207
 8188TIP3   OH224508   4.909   6.747   0.143  0.1123 -0.0965 -0.0495
 8188TIP3    H124509   4.869   6.666   0.112  0.2356 -0.4741  0.7403
 8188TIP3    H224510   4.895   6.810   0.073  0.3977 -0.9179 -0.8536
 8189TIP3   OH224511   0.453   5.169   5.025  0.2171 -0.0737  0.7989
 8189TIP3    H124512   0.507   5.179   5.104 -0.2365 -0.4500  1.1653
 8189TIP3    H224513   0.370   5.135   5.058  0.0111 -0.1956  0.1567
 8190TIP3   OH224514   3.704   6.086   4.386  0.1127 -0.4637 -0.6943
 8190TIP3    H124515   3.612   6.070   4.365 -0.3514 -1.1037  1.5450
 8190TIP3    H224516   3.708   6.181   4.401 -0.4582 -0.5734  0.2539
 8191TIP3   OH224517   0.521   2.925   1.329 -0.9003  0.2226 -0.1589
 8191TIP3    H124518   0.506   2.894   1.240 -2.2934 -0.9395  0.4356
 8191TIP3    H224519   0.574   3.004   1.318 -0.9481  0.0492 -1.9978
 8192TIP3   OH224520   2.821   4.036   2.454  0.2458  0.0028 -0.1827
 8192TIP3    H124521   2.838   3.967   2.519 -0.7856 -0.1638 -0.0673
 8192TIP3    H224522   2.818   3.989   2.370  1.0663  0.1429 -0.2982
 8193TIP3   OH224523   0.906   7.797   0.455  0.0196  0.2741 -0.2130
 8193TIP3    H124524   0.856   7.768   0.379 -0.4953  0.6515 -0.0298
 8193TIP3    H224525   0.986   7.745   0.453  0.1223  0.4588 -1.1439
 8194TIP3   OH224526   2.107   6.757   6.511  0.0584  0.0981 -0.1877
 8194TIP3    H124527   2.062   6.687   6.463 -0.3391  0.4262 -0.2987
 8194TIP3    H224528   2.037   6.815   6.541  0.3673  0.3247  0.1040
 8195TIP3   OH224529   6.732   1.511   3.707  0.3513  0.0598 -0.0224
 8195TIP3    H124530   6.770   1.529   3.793 -0.1526 -0.7673  0.3865
 8195TIP3    H224531   6.779   1.569   3.648  0.2855  1.0888  0.8943
 8196TIP3   OH224532   0.612   7.019   1.327  0.0600 -0.0141  0.3954
 8196TIP3    H124533   0.517   7.018   1.327  0.0188  0.2087 -1.3326
 8196TIP3    H224534   0.636   7.111   1.339 -0.0483  0.3521 -1.7664
 8197TIP3   OH224535   4.592   5.515   1.168  0.4819  0.2504 -0.1058
 8197TIP3    H124536   4.497   5.503   1.180  0.0719  3.1163  0.0708
 8197TIP3    H224537   4.628   5.502   1.255  0.0626  0.5492  0.1189
 8198TIP3   OH224538   2.603   2.731   5.053 -0.1840  0.1670  0.1839
 8198TIP3    H124539   2.683   2.778   5.032 -0.2647  1.1143  1.8025
 8198TIP3    H224540   2.599   2.659   4.989  1.9066  0.1221  0.0403
 8199TIP3   OH224541   1.136   5.715   1.089  0.3535  0.4899  0.9354
 8199TIP3    H124542   1.216   5.768   1.081  0.6965 -0.0032  1.0303
 8199TIP3    H224543   1.098   5.742   1.173  0.0450  1.2242  0.5663
 8200TIP3   OH224544   7.402   1.696   6.419 -0.3323 -0.3339 -0.1741
 8200TIP3    H124545   7.372   1.783   6.393  1.4996  0.0064 -1.3539
 8200TIP3    H224546   7.389   1.642   6.341  2.4631 -0.0222 -0.9843
 8201TIP3   OH224547   2.500   7.088   3.496  0.2532  0.1719  0.3899
 8201TIP3    H124548   2.550   7.072   3.416 -0.8529  1.5350 -0.6048
 8201TIP3    H224549   2.558   7.142   3.550  0.3113  0.8079 -0.2899
 8202TIP3   OH224550   4.477   1.991   6.081 -0.4865  0.5747  0.3174
 8202TIP3    H124551   4.411   2.036   6.133 -1.4980 -0.0657 -0.3770
 8202TIP3    H224552   4.427   1.942   6.016  0.4645 -2.5568  1.7541
 8203TIP3   OH224553   4.643   5.814   2.809  0.2825 -0.7952 -0.0026
 8203TIP3    H124554   4.643   5.892   2.753 -2.1605 -1.2116 -0.7387
 8203TIP3    H224555   4.646   5.849   2.898  0.5990  0.0777 -0.3395
 8204TIP3   OH224556   0.154   1.504   3.758  0.3630 -0.3270 -0.6292
 8204TIP3    H124557   0.249   1.509   3.760  0.3122  0.6451  0.6501
 8204TIP3    H224558   0.132   1.428   3.813  0.3842 -0.6048 -0.9956
 8205TIP3   OH224559   3.681   3.838   4.586 -0.1564  0.2374 -0.4412
 8205TIP3    H124560   3.761   3.855   4.636  0.0731  1.3235 -1.1461
 8205TIP3    H224561   3.684   3.901   4.514 -0.9999 -0.5931 -1.2295
 8206TIP3   OH224562   1.157   4.192   1.162  0.4592 -0.1400  0.0728
 8206TIP3    H124563   1.173   4.259   1.228 -1.0789  1.5625 -1.1588
 8206TIP3    H224564   1.200   4.226   1.083 -2.1350  0.6011 -1.1525
 8207TIP3   OH224565   2.124   7.397   6.015  0.0989 -0.8733 -0.3206
 8207TIP3    H124566   2.038   7.439   6.024 -0.5840 -2.4625  1.2269
 8207TIP3    H224567   2.187   7.467   6.031 -0.9101  0.2153 -0.9809
 8208TIP3   OH224568   7.837   7.500   6.113 -0.0972 -0.1668 -0.0368
 8208TIP3    H124569   7.920   7.547   6.125 -2.0656  3.3813  1.0557
 8208TIP3    H224570   7.805   7.529   6.028 -0.3202 -1.4500 -0.4137
 8209TIP3   OH224571   7.289   0.128   3.792  0.2608 -0.2763  0.5425
 8209TIP3    H124572   7.325   0.170   3.714  0.6300 -1.4181  0.0676
 8209TIP3    H224573   7.222   0.068   3.758 -1.0429  0.7168  1.2948
 8210TIP3   OH224574   2.025   6.303   2.241  0.3274 -0.2508 -0.0497
 8210TIP3    H124575   2.072   6.367   2.188  0.5425 -1.0059 -0.7924
 8210TIP3    H224576   2.048   6.325   2.331  1.2301  0.0805 -0.3459
 8211TIP3   OH224577   7.617   0.218   3.750  0.0377 -0.1964  0.1602
 8211TIP3    H124578   7.648   0.129   3.767 -1.0717 -0.9972 -1.6405
 8211TIP3    H224579   7.551   0.207   3.681  1.1714  2.2110 -1.4511
 8212TIP3   OH224580   2.062   7.067   4.311 -0.0941  0.4836 -0.1638
 8212TIP3    H124581   2.082   7.037   4.400 -1.8041  1.1336  0.4784
 8212TIP3    H224582   2.072   6.989   4.257 -1.4316 -0.5381  0.9950
 8213TIP3   OH224583   7.977   2.974   4.824  0.2127  0.3270  0.5726
 8213TIP3    H124584   7.976   3.000   4.732 -1.4104  1.7991  0.9491
 8213TIP3    H224585   7.923   2.895   4.827  1.4216 -0.5460  0.0871
 8214TIP3   OH224586  -0.006   4.982   6.149 -0.3365 -0.8253  0.0198
 8214TIP3    H124587   0.065   5.044   6.169 -1.1831  0.1605  0.0611
 8214TIP3    H224588   0.037   4.897   6.147  1.0002 -0.1667 -0.7348
 8215TIP3   OH224589   6.368   4.100   4.857  0.1304  0.0952 -0.6099
 8215TIP3    H124590   6.309   4.173   4.872 -0.2283 -0.3791  0.3581
 8215TIP3    H224591   6.445   4.140   4.815 -0.6269  0.7971 -1.3697
 8216TIP3   OH224592   5.286   0.575   6.626  0.0094  0.0397 -0.0409
 8216TIP3    H124593   5.319   0.524   6.700  0.8375 -0.4323 -0.7185
 8216TIP3    H224594   5.345   0.650   6.620 -0.6971  0.6426  0.4272
 8217TIP3   OH224595   5.380   7.538   1.693 -0.3016 -0.5961  0.2490
 8217TIP3    H124596   5.331   7.599   1.749  0.7916  0.5005  0.0612
 8217TIP3    H224597   5.313   7.493   1.642 -1.0940  2.1448 -1.3216
 8218TIP3   OH224598   2.071   0.185   3.847 -1.1843 -0.0514 -0.1408
 8218TIP3    H124599   2.067   0.104   3.897  0.8077 -1.5109 -2.1516
 8218TIP3    H224600   2.012   0.171   3.773 -0.8466  0.3285 -0.4902
 8219TIP3   OH224601   3.921   3.143   1.359 -0.3917  0.4783  0.0404
 8219TIP3    H124602   4.012   3.168   1.379 -0.8040  3.2663 -0.9942
 8219TIP3    H224603   3.927   3.053   1.329  2.1902  0.8239 -0.7571
 8220TIP3   OH224604   3.092   0.645   2.118 -0.0754  0.2626 -0.1888
 8220TIP3    H124605   3.057   0.582   2.182 -0.2273  0.2739 -0.2598
 8220TIP3    H224606   3.187   0.641   2.130  0.0298 -1.1058 -1.2246
 8221TIP3   OH224607   5.461   6.668   0.491 -0.0399  0.0495  0.6357
 8221TIP3    H124608   5.399   6.654   0.563 -0.1735  0.1043  0.5326
 8221TIP3    H224609   5.407   6.706   0.421  0.4901  2.1135  1.2807
 8222TIP3   OH224610   4.974   2.418   2.292  0.0952  0.4672 -0.7383
 8222TIP3    H124611   5.022   2.501   2.299  0.4025  0.3775 -1.6417
 8222TIP3    H224612   5.033   2.360   2.245 -0.2035 -0.2085 -0.2993
 8223TIP3   OH224613   5.895   3.612   6.574  0.5185 -0.3810  0.1521
 8223TIP3    H124614   5.860   3.673   6.510  0.8939  0.0402  0.3399
 8223TIP3    H224615   5.961   3.663   6.622 -0.4206 -0.3945  1.5031
 8224TIP3   OH224616   3.107   5.999   6.145 -0.1049 -0.1867 -0.7628
 8224TIP3    H124617   3.091   6.040   6.059  0.3590 -0.7503 -1.1264
 8224TIP3    H224618   3.020   5.987   6.182 -0.6884 -3.3851 -2.7838
 8225TIP3   OH224619   4.034   4.225   4.089  0.4622  0.3065  0.4525
 8225TIP3    H124620   4.043   4.228   3.994  1.0046  1.3779  0.5122
 8225TIP3    H224621   3.950   4.182   4.104  0.4032  0.0551 -0.5020
 8226TIP3   OH224622   1.235   2.015   5.716 -0.0991  0.3842 -0.2154
 8226TIP3    H124623   1.289   2.065   5.778 -0.2533  0.2984 -0.0119
 8226TIP3    H224624   1.220   2.075   5.643  1.4804 -0.0518 -0.9553
 8227TIP3   OH224625   1.226   6.741   4.685  0.3120  0.0732 -0.0321
 8227TIP3    H124626   1.319   6.734   4.708  0.3533 -2.2183 -0.6345
 8227TIP3    H224627   1.199   6.651   4.668 -1.6429  0.8541 -1.3952
 8228TIP3   OH224628   2.312   6.658   1.226  0.8368 -0.0129  0.2275
 8228TIP3    H124629   2.361   6.677   1.306  2.3690 -0.3810 -0.5828
 8228TIP3    H224630   2.309   6.741   1.180  0.4654  0.0658  0.3903
 8229TIP3   OH224631   0.414   7.441   3.254 -0.9259  0.1273 -0.2342
 8229TIP3    H124632   0.392   7.526   3.293  2.0610  0.8061  0.1855
 8229TIP3    H224633   0.444   7.462   3.166 -1.1244 -0.6373 -0.4903
 8230TIP3   OH224634   7.401   6.746   3.055 -1.0770 -0.7827  0.4335
 8230TIP3    H124635   7.468   6.705   3.000 -1.7185  0.5789 -1.4394
 8230TIP3    H224636   7.384   6.682   3.124  1.4912 -1.5382  0.4551
 8231TIP3   OH224637   1.719   0.948   1.320 -0.1143 -0.3610 -0.5807
 8231TIP3    H124638   1.720   1.028   1.372  1.0451 -1.3583  1.0369
 8231TIP3    H224639   1.652   0.893   1.361  0.5466 -1.0163 -0.3642
 8232TIP3   OH224640   0.827   4.959   2.536 -0.2910 -0.4851 -0.2800
 8232TIP3    H124641   0.777   4.878   2.525  1.2661 -1.3068 -1.7179
 8232TIP3    H224642   0.761   5.028   2.535 -1.6096 -1.6886  0.4746
 8233TIP3   OH224643   7.586   6.666   5.771  0.0806 -0.3397  0.9173
 8233TIP3    H124644   7.632   6.636   5.692  2.0736  0.3152  1.7474
 8233TIP3    H224645   7.524   6.597   5.791 -0.3124 -0.6290 -1.0836
 8234TIP3   OH224646   3.341   5.795   4.226 -0.9659 -0.4734 -0.1153
 8234TIP3    H124647   3.349   5.774   4.133  0.5265 -1.3544  0.1814
 8234TIP3    H224648   3.409   5.861   4.241 -0.6816 -0.9029  0.5032
 8235TIP3   OH224649   7.392   5.179   2.531 -0.3883  0.5187 -0.2403
 8235TIP3    H124650   7.374   5.116   2.461 -0.9671 -0.7730  1.0281
 8235TIP3    H224651   7.455   5.135   2.587 -0.8762  1.0372  0.7278
 8236TIP3   OH224652   4.168   4.201   5.075 -0.0557 -0.1120 -0.8075
 8236TIP3    H124653   4.193   4.284   5.116  0.9486 -0.5237 -0.5443
 8236TIP3    H224654   4.080   4.216   5.042  0.2756  1.2081 -1.1623
 8237TIP3   OH224655   5.763   6.173   2.694 -0.8717  0.2800 -0.4026
 8237TIP3    H124656   5.846   6.149   2.653  0.5943  0.2424  2.3758
 8237TIP3    H224657   5.787   6.236   2.762 -2.9410 -0.5738  1.2384
 8238TIP3   OH224658   7.456   3.717   6.558  0.2272 -0.2462  0.3789
 8238TIP3    H124659   7.398   3.785   6.525  2.0720  1.0266 -0.4367
 8238TIP3    H224660   7.424   3.698   6.645 -0.1654  1.9543  0.7771
 8239TIP3   OH224661   0.051   7.069   3.972  0.2515 -0.2320 -0.2863
 8239TIP3    H124662   0.002   6.993   4.002 -0.6589  0.4690  0.0547
 8239TIP3    H224663   0.046   7.065   3.876  1.6277 -1.4852 -0.3429
 8240TIP3   OH224664   3.542   2.566   1.061 -0.6835 -0.0028  0.4368
 8240TIP3    H124665   3.633   2.594   1.065 -0.7018  0.1538 -0.1653
 8240TIP3    H224666   3.545   2.482   1.016 -1.0336  1.0121 -1.5920
 8241TIP3   OH224667   2.400   6.324   1.865 -0.6114 -0.2645  0.0682
 8241TIP3    H124668   2.437   6.261   1.803 -0.0617  0.0259  0.0987
 8241TIP3    H224669   2.356   6.269   1.930  0.3409 -0.6588  0.3998
 8242TIP3   OH224670   4.826   4.072   2.298  0.0111 -0.0364 -0.7755
 8242TIP3    H124671   4.757   4.137   2.312  0.4122  0.0747  0.9783
 8242TIP3    H224672   4.853   4.047   2.386  0.2822 -2.1690 -1.4114
 8243TIP3   OH224673   3.185   0.982   5.055  0.1516  0.1298  0.0747
 8243TIP3    H124674   3.195   1.054   4.992 -2.5565  0.1393 -0.4641
 8243TIP3    H224675   3.267   0.934   5.049  0.9259  1.5306 -1.6899
 8244TIP3   OH224676   4.526   5.821   0.811  0.4824  0.5238  0.2034
 8244TIP3    H124677   4.510   5.823   0.905  0.1545  0.6080  0.1465
 8244TIP3    H224678   4.517   5.729   0.787 -0.4431  0.6352  0.0852
 8245TIP3   OH224679   1.875   4.786   6.058 -0.4071 -0.1107 -0.1378
 8245TIP3    H124680   1.911   4.704   6.090 -1.4275 -1.4360 -2.1854
 8245TIP3    H224681   1.866   4.841   6.137  0.0444 -2.0319  1.3228
 8246TIP3   OH224682   0.840   4.890   3.980 -0.2177  0.0110 -0.0823
 8246TIP3    H124683   0.750   4.890   3.946 -0.5412 -0.0841  0.7575
 8246TIP3    H224684   0.869   4.800   3.970 -0.7165 -0.2746  0.9110
 8247TIP3   OH224685   7.391   3.298   0.441  0.9531 -0.5408 -0.2262
 8247TIP3    H124686   7.453   3.358   0.399  1.0442 -1.0524 -0.8487
 8247TIP3    H224687   7.421   3.292   0.532  1.9021 -0.8757 -0.5489
 8248TIP3   OH224688   5.342   4.067   3.956  0.1185  0.7341 -0.5196
 8248TIP3    H124689   5.264   4.102   3.999  0.4682  1.1329 -0.2046
 8248TIP3    H224690   5.354   4.121   3.878  1.3539  2.1554  0.5891
 8249TIP3   OH224691   5.157   2.638   0.931 -0.3565  0.0617  0.0534
 8249TIP3    H124692   5.190   2.723   0.904 -0.6523  0.0951 -0.2080
 8249TIP3    H224693   5.078   2.658   0.983 -0.1970 -0.0353  0.3384
 8250TIP3   OH224694   0.356   5.803   2.774  0.2116 -0.1906 -0.2122
 8250TIP3    H124695   0.432   5.753   2.805  1.4058  1.7175  0.0766
 8250TIP3    H224696   0.321   5.845   2.853 -0.2257  0.1574 -0.5893
 8251TIP3   OH224697   6.444   1.485   2.267 -0.0140  0.0796 -0.1231
 8251TIP3    H124698   6.404   1.541   2.200 -0.1564 -2.5009 -2.3284
 8251TIP3    H224699   6.537   1.488   2.249  0.1340  0.6259  0.6474
 8252TIP3   OH224700   4.621   2.903   1.186 -0.0661  0.4460 -0.0394
 8252TIP3    H124701   4.634   2.998   1.186  0.0493  0.4539 -1.6770
 8252TIP3    H224702   4.685   2.869   1.123  2.9479 -1.2592  3.5373
 8253TIP3   OH224703   5.744   7.230   6.045  0.1180  0.3223  0.1065
 8253TIP3    H124704   5.772   7.259   5.958 -1.5140 -2.2206 -1.3863
 8253TIP3    H224705   5.683   7.298   6.074 -3.1355 -0.8844 -3.0037
 8254TIP3   OH224706   5.819   2.473   3.188  0.2140  0.6635  0.3588
 8254TIP3    H124707   5.806   2.378   3.185 -0.9385  0.7567 -3.5241
 8254TIP3    H224708   5.732   2.509   3.172  0.8334  2.3621  0.6354
 8255TIP3   OH224709   1.825   0.993   3.800 -0.0831  0.0709 -0.1717
 8255TIP3    H124710   1.826   0.975   3.706 -0.1203  0.6341 -0.2879
 8255TIP3    H224711   1.819   0.908   3.841  0.5668 -0.2301 -0.6715
 8256TIP3   OH224712   5.821   1.950   2.518 -0.0276  0.0639 -0.9639
 8256TIP3    H124713   5.868   1.918   2.594 -1.1118 -1.6908 -0.9785
 8256TIP3    H224714   5.801   2.041   2.539  0.8761  0.0144  0.2366
 8257TIP3   OH224715   6.085   7.039   3.807  0.1884  0.1893  0.0214
 8257TIP3    H124716   6.110   6.949   3.828 -0.7576 -0.4426 -1.3748
 8257TIP3    H224717   6.115   7.091   3.882  3.6779 -0.7522 -0.5318
 8258TIP3   OH224718   6.978   2.478   3.939  0.1972  0.1172 -0.1399
 8258TIP3    H124719   7.063   2.504   3.902  0.3436 -0.1461  0.0086
 8258TIP3    H224720   6.936   2.561   3.963 -0.0668  0.3297 -1.2549
 8259TIP3   OH224721   6.441   4.344   3.830  0.4609 -1.2126  0.4842
 8259TIP3    H124722   6.510   4.362   3.766  0.8114  0.4678  1.2686
 8259TIP3    H224723   6.396   4.267   3.797  0.2927 -0.1048 -2.0743
 8260TIP3   OH224724   4.778   0.156   1.911 -0.0015  0.3412 -0.6529
 8260TIP3    H124725   4.770   0.241   1.868 -2.3647  0.2338 -0.5423
 8260TIP3    H224726   4.869   0.153   1.942 -0.0904  3.1656  0.0767
 8261TIP3   OH224727   6.680   6.906   6.323  0.0598 -0.6079  0.7703
 8261TIP3    H124728   6.773   6.885   6.315  0.1111 -0.5086  1.0893
 8261TIP3    H224729   6.643   6.886   6.237  0.8199  1.6064 -0.1416
 8262TIP3   OH224730   3.696   7.292   0.545 -0.2601 -0.2136  0.0552
 8262TIP3    H124731   3.759   7.296   0.473  1.1583  0.1676  1.2712
 8262TIP3    H224732   3.653   7.378   0.543  1.4659  0.7429  1.0731
 8263TIP3   OH224733   7.614   5.733   1.260  0.5909  0.0302  0.0240
 8263TIP3    H124734   7.522   5.747   1.280  0.4287 -1.0585  0.1196
 8263TIP3    H224735   7.657   5.814   1.285  0.0174 -0.3114  2.3389
 8264TIP3   OH224736   7.700   1.013   3.969 -0.2097  0.6230 -0.0622
 8264TIP3    H124737   7.650   1.051   3.897 -0.3767 -0.3956 -0.4992
 8264TIP3    H224738   7.651   0.934   3.993  1.9083 -1.2494 -1.4883
 8265TIP3   OH224739   6.474   6.496   1.880 -0.6491 -0.2399  0.4234
 8265TIP3    H124740   6.440   6.557   1.946  0.9313  1.0371  0.1329
 8265TIP3    H224741   6.560   6.471   1.914 -0.9565 -1.7453  0.1494
 8266TIP3   OH224742   2.950   0.151   0.841  0.5652 -0.0167  0.3934
 8266TIP3    H124743   2.939   0.057   0.854 -2.2039  0.3889  1.6241
 8266TIP3    H224744   3.010   0.158   0.767  0.2793 -2.7415 -0.2013
 8267TIP3   OH224745   8.165   0.044   1.702  0.5203 -0.5399 -0.4374
 8267TIP3    H124746   8.106   0.045   1.627  0.2205 -0.1020 -0.2057
 8267TIP3    H224747   8.123  -0.016   1.764 -0.7440  1.2648  0.5326
 8268TIP3   OH224748   6.947   7.677   5.630  0.6382  0.4318  0.0790
 8268TIP3    H124749   6.854   7.654   5.620  1.3061 -2.0711 -1.2873
 8268TIP3    H224750   6.956   7.760   5.583 -0.7180  0.1286 -0.7819
 8269TIP3   OH224751   6.264   7.589   3.445  0.9119 -0.1160 -0.5309
 8269TIP3    H124752   6.211   7.592   3.366 -0.4701 -1.5245  0.2890
 8269TIP3    H224753   6.206   7.552   3.512  2.5421 -0.5103  0.7363
 8270TIP3   OH224754   1.098   0.428   1.143 -0.5432  0.5408 -0.1158
 8270TIP3    H124755   1.074   0.490   1.212 -1.8730  0.5256 -0.5299
 8270TIP3    H224756   1.027   0.435   1.079 -0.5760 -1.1985 -0.3192
 8271TIP3   OH224757   3.161   6.363   4.014  0.2934 -0.0858 -0.1219
 8271TIP3    H124758   3.179   6.271   4.033 -1.0246 -0.6083 -1.2084
 8271TIP3    H224759   3.102   6.391   4.085  0.8632  0.0013  0.3266
 8272TIP3   OH224760   3.935   7.385   1.340 -0.0835  0.4510  0.2522
 8272TIP3    H124761   3.960   7.451   1.275  2.1494 -1.1304 -0.5999
 8272TIP3    H224762   3.882   7.322   1.290 -0.9666  0.7863  0.7306
 8273TIP3   OH224763   3.144   3.603   3.820 -0.9122 -0.7084  0.0128
 8273TIP3    H124764   3.097   3.524   3.793 -0.5446 -0.6225 -0.9050
 8273TIP3    H224765   3.234   3.588   3.790 -0.7260 -0.1529  0.2856
 8274TIP3   OH224766   3.703   5.988   4.639 -0.0904 -0.1332  0.0028
 8274TIP3    H124767   3.751   6.022   4.563  0.0875  0.0274  0.1868
 8274TIP3    H224768   3.626   5.946   4.601 -0.5928  0.9363 -0.2036
 8275TIP3   OH224769   6.194   3.655   6.213  0.5225 -0.2927  0.1521
 8275TIP3    H124770   6.194   3.593   6.140  2.4555 -0.2948  0.1107
 8275TIP3    H224771   6.180   3.740   6.173 -1.2096 -0.5554  0.1131
 8276TIP3   OH224772   1.383   7.092   5.489  0.2407 -0.0017  0.5227
 8276TIP3    H124773   1.465   7.067   5.446 -0.8104 -2.2935 -0.3078
 8276TIP3    H224774   1.381   7.039   5.568 -0.4552  0.0142  0.5179
 8277TIP3   OH224775   7.290   1.966   6.672  0.2166 -0.0841  0.0445
 8277TIP3    H124776   7.295   1.885   6.723  0.3221 -0.8010 -1.0555
 8277TIP3    H224777   7.377   1.976   6.633 -0.2421 -0.3142 -1.0878
 8278TIP3   OH224778   7.809   5.367   1.042 -0.5175  0.3865  0.3564
 8278TIP3    H124779   7.846   5.443   1.086  2.0771 -0.9518  0.7070
 8278TIP3    H224780   7.785   5.399   0.954 -2.7887  2.3234  1.5593
 8279TIP3   OH224781   6.774   5.686   4.106  0.0319 -0.0791  0.3104
 8279TIP3    H124782   6.762   5.720   4.017  1.0027 -1.6984 -0.4803
 8279TIP3    H224783   6.694   5.635   4.122 -0.4114  0.6897  0.6279
 8280TIP3   OH224784   1.838   5.000   0.118  0.4333 -0.0489  0.1022
 8280TIP3    H124785   1.809   5.029   0.204 -1.0688  0.2468 -0.4809
 8280TIP3    H224786   1.862   5.081   0.073  0.6361 -0.1467  0.0341
 8281TIP3   OH224787   5.344   4.653   5.396  0.1985 -0.1389 -0.0088
 8281TIP3    H124788   5.395   4.725   5.435  0.5298 -0.8553  0.8957
 8281TIP3    H224789   5.324   4.595   5.469 -1.5532 -0.1169 -0.4269
 8282TIP3   OH224790   5.584   6.896   4.790  0.1287 -0.1104  0.6848
 8282TIP3    H124791   5.538   6.979   4.782  1.4286  0.6771  1.0400
 8282TIP3    H224792   5.620   6.897   4.879  0.0177 -1.1332  0.7594
 8283TIP3   OH224793   1.804   5.113   6.520 -0.4149  0.5224 -0.2605
 8283TIP3    H124794   1.800   5.106   6.424 -1.1689 -1.0233 -0.1395
 8283TIP3    H224795   1.826   5.205   6.535 -0.6839  0.9050 -1.9102
 8284TIP3   OH224796   0.263   3.848   3.668  0.2757 -0.1762  0.0855
 8284TIP3    H124797   0.266   3.786   3.741  1.3038  1.1088  1.1686
 8284TIP3    H224798   0.310   3.925   3.699  2.0041 -0.1000 -2.4211
 8285TIP3   OH224799   4.027   5.839   2.850 -0.1223  0.1151  0.5876
 8285TIP3    H124800   4.108   5.843   2.799 -0.5565  0.7285 -0.0792
 8285TIP3    H224801   4.007   5.746   2.857 -0.3310  0.0311 -0.8418
 8286TIP3   OH224802   3.479   2.898   2.797  0.4639 -0.3984 -0.1431
 8286TIP3    H124803   3.385   2.907   2.779 -0.3040 -3.1056  1.6993
 8286TIP3    H224804   3.514   2.856   2.719  0.2923  1.0638 -1.0449
 8287TIP3   OH224805   2.730   0.770   5.198  0.1078  0.2749  0.3380
 8287TIP3    H124806   2.754   0.743   5.109  0.5693  0.5092  0.3873
 8287TIP3    H224807   2.665   0.705   5.227  1.3250 -0.8904  0.5287
 8288TIP3   OH224808   4.439   1.549   5.775 -0.0583  0.1047 -0.1520
 8288TIP3    H124809   4.512   1.490   5.794  0.5283  0.7255 -0.4355
 8288TIP3    H224810   4.480   1.624   5.732 -0.8760  0.4332 -0.3709
 8289TIP3   OH224811   3.450   2.380   4.276  0.4816 -0.3791 -0.2856
 8289TIP3    H124812   3.405   2.301   4.245  0.8872 -0.6561 -0.1812
 8289TIP3    H224813   3.407   2.401   4.359  1.8315 -1.8111  0.8359
 8290TIP3   OH224814   7.018   2.913   0.993 -0.1002 -0.7486 -0.6314
 8290TIP3    H124815   7.108   2.883   0.980  0.3856 -0.7214  2.0775
 8290TIP3    H224816   6.969   2.835   1.019 -0.1110 -0.2434  0.9571
 8291TIP3   OH224817   5.908   0.950   3.941 -0.0427 -0.4732  0.1397
 8291TIP3    H124818   5.847   0.904   3.884 -2.0174  2.0589 -0.0118
 8291TIP3    H224819   5.957   1.007   3.882  0.3563 -0.3430  0.5931
 8292TIP3   OH224820   0.340   7.002   4.129  0.3002  0.4824  0.0935
 8292TIP3    H124821   0.389   6.921   4.115  0.5633  0.9673 -2.1495
 8292TIP3    H224822   0.248   6.977   4.114 -0.0462 -0.0789  2.7356
 8293TIP3   OH224823   3.179   6.627   0.102 -0.3072 -0.1319 -0.9687
 8293TIP3    H124824   3.174   6.672   0.186 -0.5640  1.0403 -1.5843
 8293TIP3    H224825   3.093   6.589   0.089  0.3045 -2.0912  0.1982
 8294TIP3   OH224826   1.771   3.579   5.016 -0.2793 -0.1081 -0.4793
 8294TIP3    H124827   1.711   3.563   5.089 -0.9700  0.6979 -0.8595
 8294TIP3    H224828   1.802   3.668   5.029 -0.7707  0.2114 -1.4205
 8295TIP3   OH224829   3.240   3.244   2.297  0.1839  0.4137 -0.5819
 8295TIP3    H124830   3.317   3.205   2.255 -0.6896 -1.9476 -0.1559
 8295TIP3    H224831   3.193   3.286   2.225  1.4396  1.1667 -0.9837
 8296TIP3   OH224832   0.896   4.194   0.237  0.1731  0.6377 -0.0152
 8296TIP3    H124833   0.982   4.199   0.195 -0.1543  0.2370 -0.7706
 8296TIP3    H224834   0.881   4.100   0.249 -0.0694  0.7151  0.2977
 8297TIP3   OH224835   4.359   3.878   2.270  0.3530  0.7661  0.3408
 8297TIP3    H124836   4.366   3.949   2.206  2.0573  0.8782  0.5899
 8297TIP3    H224837   4.369   3.798   2.219 -1.6154  0.6727  0.0536
 8298TIP3   OH224838   6.037   6.977   6.517 -0.3298  0.0647  0.2390
 8298TIP3    H124839   6.019   7.067   6.488  0.3854  0.5118  1.1129
 8298TIP3    H224840   6.004   6.922   6.446 -1.8107  0.9585  0.1819
 8299TIP3   OH224841   2.261   3.758   0.733  0.5926  0.2972  0.7589
 8299TIP3    H124842   2.309   3.808   0.799  1.1614 -1.5036  1.7932
 8299TIP3    H224843   2.191   3.714   0.783 -0.9131  1.2898 -0.3891
 8300TIP3   OH224844   4.086   1.777   0.452 -0.2096  0.3538 -0.3235
 8300TIP3    H124845   4.055   1.740   0.535 -2.4076 -2.1817 -2.0742
 8300TIP3    H224846   4.075   1.871   0.463 -2.8463 -0.0354  1.4408
 8301TIP3   OH224847   2.866   3.564   5.344  0.3877  0.6325 -0.1716
 8301TIP3    H124848   2.804   3.637   5.338  0.2116  0.4455 -0.6649
 8301TIP3    H224849   2.813   3.487   5.323  0.1242  0.1143  2.1480
 8302TIP3   OH224850   4.885   1.256   1.303 -0.2928 -0.1779 -0.0390
 8302TIP3    H124851   4.927   1.265   1.218  0.2626 -0.2464  0.2268
 8302TIP3    H224852   4.917   1.330   1.354 -0.2718 -0.3921  0.2588
 8303TIP3   OH224853   4.477   1.712   4.955 -0.5928  0.2685  0.0505
 8303TIP3    H124854   4.524   1.792   4.932  0.8214 -0.5525 -0.0217
 8303TIP3    H224855   4.433   1.687   4.874 -1.5197  1.2621  0.2245
 8304TIP3   OH224856   5.909   7.449   0.686  0.0850  0.2146  0.5234
 8304TIP3    H124857   5.897   7.435   0.780 -0.4405 -0.2461  0.3943
 8304TIP3    H224858   5.997   7.487   0.678  0.0269  0.4979  1.2199
 8305TIP3   OH224859   7.152   1.931   4.734 -0.1711  0.2771  0.4464
 8305TIP3    H124860   7.132   1.972   4.650  2.4089  0.1395 -0.3301
 8305TIP3    H224861   7.160   1.838   4.714 -1.7495 -0.0749  1.3369
 8306TIP3   OH224862   5.481   6.194   2.567  0.2689 -0.0447  0.2568
 8306TIP3    H124863   5.575   6.207   2.581 -0.1743  2.6471  1.3865
 8306TIP3    H224864   5.460   6.250   2.492 -0.4747 -0.4267  0.1690
 8307TIP3   OH224865   6.100   0.070   2.005  0.5129 -0.0712 -0.1559
 8307TIP3    H124866   6.090  -0.014   2.049 -0.8446 -0.1135 -0.5028
 8307TIP3    H224867   6.080   0.052   1.913 -1.8389  0.9465  0.0605
 8308TIP3   OH224868   2.577   3.281   5.746 -0.3335 -0.2053 -0.2858
 8308TIP3    H124869   2.568   3.216   5.676  1.6020  0.7503 -1.5112
 8308TIP3    H224870   2.617   3.233   5.818  2.4201 -0.1742 -1.6754
 8309TIP3   OH224871   2.688   7.326   0.821  0.5765 -0.0498  0.1400
 8309TIP3    H124872   2.739   7.246   0.811  0.9291  0.2912 -0.8672
 8309TIP3    H224873   2.725   7.368   0.899  1.3731 -0.1403 -0.1869
 8310TIP3   OH224874   2.631   4.995   3.790 -0.5050 -0.6571 -0.2158
 8310TIP3    H124875   2.587   4.913   3.768 -1.1962 -0.6354  1.0170
 8310TIP3    H224876   2.663   4.983   3.880 -0.7871  0.4808  0.0567
 8311TIP3   OH224877   6.600   5.540   5.613  0.0044  0.1642 -0.5853
 8311TIP3    H124878   6.508   5.545   5.640  0.2216  0.9186  0.0402
 8311TIP3    H224879   6.641   5.485   5.679  0.1018  0.2210 -0.5994
 8312TIP3   OH224880   2.290   3.351   0.815  0.2934  0.0655  0.4190
 8312TIP3    H124881   2.320   3.261   0.829  1.4783  0.3194 -0.4204
 8312TIP3    H224882   2.302   3.366   0.721  0.5253  1.2577  0.6337
 8313TIP3   OH224883   4.702   3.273   5.267  0.0776  0.0473 -0.3730
 8313TIP3    H124884   4.729   3.365   5.260 -0.6185  0.1697 -1.7857
 8313TIP3    H224885   4.723   3.249   5.358  3.2137  0.6247 -0.8188
 8314TIP3   OH224886   5.834   5.145   4.597 -0.1397 -0.0506  0.2988
 8314TIP3    H124887   5.884   5.144   4.515  0.0699  0.9984  0.3968
 8314TIP3    H224888   5.742   5.149   4.568 -0.1895 -1.8140  0.1211
 8315TIP3   OH224889  -0.011   6.242   3.463  0.0867  0.3548 -0.1058
 8315TIP3    H124890   0.033   6.292   3.394  1.0534 -0.0505  0.1955
 8315TIP3    H224891   0.045   6.254   3.540  1.0236 -2.1291 -0.3182
 8316TIP3   OH224892   0.390   0.378   5.894 -0.1145 -0.1853  0.0643
 8316TIP3    H124893   0.475   0.421   5.891 -0.5740  0.7304 -1.8467
 8316TIP3    H224894   0.384   0.341   5.982  1.6535  0.9286  0.7023
 8317TIP3   OH224895   4.856   2.258   5.565 -0.2457 -0.2342 -1.0149
 8317TIP3    H124896   4.932   2.299   5.523 -0.8684  0.9148 -1.0426
 8317TIP3    H224897   4.804   2.331   5.597 -0.3624 -1.0535  0.7705
 8318TIP3   OH224898   1.538   3.811   6.331  0.4149 -0.2099  0.7001
 8318TIP3    H124899   1.541   3.905   6.346  2.0817  0.2014 -1.6309
 8318TIP3    H224900   1.453   3.795   6.290  1.4611  0.9815 -2.2281
 8319TIP3   OH224901   3.763   7.332   5.199  0.2252 -0.1006  0.2031
 8319TIP3    H124902   3.764   7.275   5.122 -0.6159 -0.4657  0.4450
 8319TIP3    H224903   3.789   7.276   5.271  0.1027  0.0002  0.3276
 8320TIP3   OH224904   6.084   5.791   5.216 -0.5161 -0.3184  0.1647
 8320TIP3    H124905   6.115   5.846   5.288 -1.6668  0.8705 -0.2152
 8320TIP3    H224906   5.992   5.776   5.235 -0.8960  0.2032 -1.1574
 8321TIP3   OH224907   3.015   0.434   2.278 -0.4435 -0.3333  0.0136
 8321TIP3    H124908   2.991   0.365   2.216 -1.0438 -0.2552  0.1586
 8321TIP3    H224909   2.965   0.414   2.357 -0.2933  0.0303  0.2007
 8322TIP3   OH224910   7.269   4.467   2.980 -0.0154  0.3010 -0.7256
 8322TIP3    H124911   7.212   4.539   2.952 -0.8474 -0.7820 -2.0195
 8322TIP3    H224912   7.239   4.446   3.069 -0.5442  0.8112 -0.7746
 8323TIP3   OH224913   0.834   3.540   2.770 -0.3260  0.3055  0.0122
 8323TIP3    H124914   0.745   3.523   2.803 -1.1245  1.7911 -1.2259
 8323TIP3    H224915   0.841   3.486   2.692 -0.5033  0.8699 -0.4013
 8324TIP3   OH224916   4.528   0.160   4.059 -0.1152 -0.1945  0.1992
 8324TIP3    H124917   4.464   0.157   3.988 -0.1003  0.6871  0.1382
 8324TIP3    H224918   4.539   0.253   4.078 -1.2327 -0.4173  2.3576
 8325TIP3   OH224919   7.271   2.506   5.107  0.0562 -0.2529 -0.4424
 8325TIP3    H124920   7.197   2.451   5.080 -1.3904  0.9597  0.8163
 8325TIP3    H224921   7.305   2.543   5.026 -1.4831  0.0539 -0.9821
 8326TIP3   OH224922   4.343   0.562   6.765  0.4930 -0.1817  0.2143
 8326TIP3    H124923   4.425   0.525   6.733  0.4191  0.1821 -0.4201
 8326TIP3    H224924   4.350   0.656   6.746  0.0236 -0.1141  0.3587
 8327TIP3   OH224925   3.260   6.271   4.360 -0.1248 -0.1529 -0.5288
 8327TIP3    H124926   3.310   6.262   4.279 -1.5152 -1.3450 -1.2911
 8327TIP3    H224927   3.189   6.209   4.351 -1.8795  1.6231  0.4181
 8328TIP3   OH224928   7.589   7.540   0.517  0.1064  0.7711  0.5081
 8328TIP3    H124929   7.564   7.530   0.425  1.8237 -0.6832  0.1334
 8328TIP3    H224930   7.506   7.537   0.565 -0.8443  1.8083 -0.9870
 8329TIP3   OH224931   1.864   4.056   4.362 -0.0410  0.0648 -0.1771
 8329TIP3    H124932   1.823   4.122   4.417  0.8908  0.4329  0.0953
 8329TIP3    H224933   1.890   3.987   4.423  0.7317  0.3383 -0.1954
 8330TIP3   OH224934   0.925   4.249   4.348 -0.3561  0.8567  0.3476
 8330TIP3    H124935   0.871   4.173   4.328  0.7612 -0.2650  1.4023
 8330TIP3    H224936   1.014   4.223   4.324  0.2812  1.2310  2.1154
 8331TIP3   OH224937   6.234   5.051   0.544  0.2055 -0.5242  0.2161
 8331TIP3    H124938   6.311   5.037   0.489 -0.0258 -0.8516 -0.0278
 8331TIP3    H224939   6.189   4.966   0.544  0.5818 -0.7415  1.4951
 8332TIP3   OH224940   5.955   7.596   3.599 -0.2772 -0.2916 -0.5733
 8332TIP3    H124941   6.018   7.533   3.634  0.0343  0.2629 -0.1194
 8332TIP3    H224942   6.005   7.677   3.589 -1.1285  0.4352  0.7180
 8333TIP3   OH224943   6.489   5.324   1.478 -0.3471 -0.3457 -0.1321
 8333TIP3    H124944   6.453   5.239   1.452 -0.3120 -0.1445 -0.8473
 8333TIP3    H224945   6.425   5.359   1.540 -2.7865  1.0820 -3.1435
 8334TIP3   OH224946   6.908   3.644   0.479  0.7401  0.4975 -0.0491
 8334TIP3    H124947   6.892   3.735   0.454 -0.5518  0.3265  0.0738
 8334TIP3    H224948   6.907   3.596   0.397  0.8326  0.5121 -0.0591
 8335TIP3   OH224949   1.927   2.622   1.909 -0.8913  0.5162  0.1528
 8335TIP3    H124950   1.877   2.701   1.928  0.0269  0.7372  1.8292
 8335TIP3    H224951   1.861   2.554   1.898 -1.6387  1.2415  0.0963
 8336TIP3   OH224952   1.320   3.975   2.719 -0.4244  0.2791  0.2913
 8336TIP3    H124953   1.280   3.890   2.702 -1.3747  0.2716  2.2771
 8336TIP3    H224954   1.410   3.955   2.743 -0.5197 -0.1248  0.3202
 8337TIP3   OH224955   2.854   5.952   6.261 -0.0622  0.0666  0.1187
 8337TIP3    H124956   2.761   5.928   6.264  0.1085 -0.6219  0.0991
 8337TIP3    H224957   2.854   6.043   6.232 -0.7669  0.3076  0.8330
 8338TIP3   OH224958   3.405   3.766   2.608 -0.6555 -0.0635 -0.3831
 8338TIP3    H124959   3.360   3.683   2.622 -1.3783  0.4610  0.4532
 8338TIP3    H224960   3.479   3.764   2.668  0.2210 -0.7295 -1.4365
 8339TIP3   OH224961   0.473   3.960   6.087  0.3531  0.1828 -0.3735
 8339TIP3    H124962   0.401   4.021   6.100  0.4992  0.0427  1.2819
 8339TIP3    H224963   0.504   3.979   5.998 -0.7070  1.3097 -0.5394
 8340TIP3   OH224964   4.004   2.479   0.437 -0.3270 -0.4579 -0.0878
 8340TIP3    H124965   3.910   2.465   0.433 -0.2443 -1.7034  1.3629
 8340TIP3    H224966   4.037   2.444   0.354 -0.9948 -1.5619  0.0885
 8341TIP3   OH224967   2.923   2.666   1.749 -0.3798  0.2731 -0.5626
 8341TIP3    H124968   2.893   2.643   1.662 -0.8907 -0.0467 -0.3038
 8341TIP3    H224969   2.870   2.613   1.808  1.0796 -0.7489 -0.1083
 8342TIP3   OH224970   0.301   7.676   3.345 -0.2215 -0.0067  0.0616
 8342TIP3    H124971   0.300   7.758   3.394 -1.6267 -1.2608  2.2595
 8342TIP3    H224972   0.213   7.668   3.309 -1.5588 -2.4089  3.3605
 8343TIP3   OH224973   4.720   4.851   4.125  0.0051 -0.1465 -0.2076
 8343TIP3    H124974   4.745   4.782   4.062 -0.4513  1.0129 -1.7234
 8343TIP3    H224975   4.653   4.810   4.179  0.6574 -1.2967 -0.2285
 8344TIP3   OH224976   5.444   5.609   0.998  0.2669 -0.2611  0.3117
 8344TIP3    H124977   5.446   5.696   1.038 -1.4038 -0.2952  0.5517
 8344TIP3    H224978   5.456   5.548   1.071  2.3470 -0.2647  0.0309
 8345TIP3   OH224979   0.853   3.010   6.194  0.8185  0.8685  0.0128
 8345TIP3    H124980   0.900   2.935   6.230 -0.0890  0.2873  0.0282
 8345TIP3    H224981   0.831   2.984   6.105 -3.3360 -0.8209  1.2745
 8346TIP3   OH224982   2.855   1.444   0.148 -0.3958 -0.1377 -0.0792
 8346TIP3    H124983   2.860   1.471   0.056 -0.3618  0.4918  0.1079
 8346TIP3    H224984   2.866   1.525   0.198 -2.1436 -0.1974  0.4742
 8347TIP3   OH224985   5.038   3.018   6.218 -0.2719  0.1355  0.3035
 8347TIP3    H124986   4.946   3.005   6.244 -0.2175 -0.4178  0.2354
 8347TIP3    H224987   5.085   3.029   6.301 -0.1402 -1.3566  0.4562
 8348TIP3   OH224988   5.590   3.241   4.109  0.3829 -0.1652  0.8751
 8348TIP3    H124989   5.588   3.276   4.020  0.2278 -0.8667  0.5974
 8348TIP3    H224990   5.605   3.318   4.164 -0.6188  0.4366  0.3398
 8349TIP3   OH224991   5.602   3.713   3.598 -0.3358  0.4927  0.9769
 8349TIP3    H124992   5.684   3.691   3.643  0.1408  1.0263  0.3859
 8349TIP3    H224993   5.583   3.635   3.545 -0.4118  0.2227  1.3941
 8350TIP3   OH224994   3.441   3.409   6.616 -0.5644 -0.2593  0.1325
 8350TIP3    H124995   3.444   3.501   6.588 -1.8670 -0.5416 -1.0998
 8350TIP3    H224996   3.410   3.362   6.538 -0.4083 -1.6833  0.8968
 8351TIP3   OH224997   6.741   1.576   6.119 -0.0387 -0.1760  0.6524
 8351TIP3    H124998   6.685   1.587   6.042 -0.0256 -2.1928  0.3164
 8351TIP3    H224999   6.782   1.662   6.131 -2.4569  1.1104  0.3433
 8352TIP3   OH225000   0.134   1.812   1.179  0.0875  0.2494  0.5047
 8352TIP3    H125001   0.130   1.900   1.141 -0.1023  0.3699  0.8007
 8352TIP3    H225002   0.187   1.823   1.258  0.2202  0.0589  0.4440
 8353TIP3   OH225003   1.581   3.129   3.672  0.4892  0.0790 -0.1758
 8353TIP3    H125004   1.553   3.113   3.582  1.8242 -1.8049 -0.3099
 8353TIP3    H225005   1.671   3.161   3.665  1.0570 -1.2872  0.4900
 8354TIP3   OH225006   4.833   3.949   0.888 -0.4699  0.0295  0.4850
 8354TIP3    H125007   4.810   4.041   0.899  0.6027  0.6016 -1.5834
 8354TIP3    H225008   4.776   3.918   0.817  0.3693 -0.4050 -0.0121
 8355TIP3   OH225009   4.507   6.075   2.420  0.4760 -0.1101  0.2644
 8355TIP3    H125010   4.480   6.137   2.487  0.4137  1.4597 -1.1407
 8355TIP3    H225011   4.584   6.115   2.380  1.2321 -1.5936  0.1854
 8356TIP3   OH225012   3.568   2.696   3.590 -0.3368 -0.0240 -0.0379
 8356TIP3    H125013   3.515   2.651   3.655 -0.3666 -0.6429 -0.4749
 8356TIP3    H225014   3.536   2.786   3.590 -1.9448 -0.5644 -0.8667
 8357TIP3   OH225015   0.262   3.844   5.634  0.3913 -0.1093 -0.1593
 8357TIP3    H125016   0.246   3.792   5.714  0.6079 -0.0555 -0.0817
 8357TIP3    H225017   0.325   3.792   5.584  0.2974 -0.1159 -0.2717
 8358TIP3   OH225018   2.762   4.265   1.142  0.0933  0.1067  0.4405
 8358TIP3    H125019   2.856   4.261   1.155 -0.1812  0.4131  3.0204
 8358TIP3    H225020   2.734   4.173   1.137  0.5831  0.0193 -1.2408
 8359TIP3   OH225021   3.015   6.131   0.758  0.6201 -0.4040 -0.2730
 8359TIP3    H125022   3.028   6.225   0.774 -0.7677 -0.0324 -1.1644
 8359TIP3    H225023   2.932   6.111   0.799 -0.0100 -0.8003 -1.6779
 8360TIP3   OH225024   6.236   4.601   1.100  0.2483  0.2788 -0.8029
 8360TIP3    H125025   6.297   4.537   1.139 -0.1087 -0.6007 -1.6356
 8360TIP3    H225026   6.276   4.686   1.118  0.5659 -0.1416  0.6411
 8361TIP3   OH225027   4.523   6.379   3.509 -0.5014  0.8463 -0.2921
 8361TIP3    H125028   4.525   6.283   3.503  2.2147  0.7417  0.9662
 8361TIP3    H225029   4.467   6.406   3.436 -0.5988 -1.6596 -1.2398
 8362TIP3   OH225030   8.190   0.780   2.440 -0.4570 -0.5771  0.3985
 8362TIP3    H125031   8.173   0.721   2.367 -0.1381  2.2602 -2.1833
 8362TIP3    H225032   8.107   0.825   2.455 -0.4283 -0.8849  1.5785
 8363TIP3   OH225033   2.628   7.611   5.420  0.2604  0.6458  0.1173
 8363TIP3    H125034   2.544   7.643   5.451  0.3686  1.7727 -0.7173
 8363TIP3    H225035   2.677   7.591   5.500 -0.5718  0.5549  0.6144
 8364TIP3   OH225036   4.170   7.230   3.852  0.1642 -0.1233  0.1102
 8364TIP3    H125037   4.175   7.325   3.845  0.8389 -0.1604  0.0081
 8364TIP3    H225038   4.156   7.199   3.763 -0.5241 -0.0965  0.2069
 8365TIP3   OH225039   0.325   6.158   0.578 -0.1601 -0.1876 -0.0288
 8365TIP3    H125040   0.256   6.131   0.518 -1.0005 -1.5505  1.4735
 8365TIP3    H225041   0.301   6.247   0.604  0.1071  0.3418 -1.5099
 8366TIP3   OH225042   5.871   1.533   6.010 -0.3486 -0.3669 -0.1284
 8366TIP3    H125043   5.859   1.627   5.999  0.1129 -0.1636  1.0204
 8366TIP3    H225044   5.787   1.502   6.046  0.3894  0.0765  2.1153
 8367TIP3   OH225045   5.833   6.333   0.586  0.1794 -1.0073 -0.1086
 8367TIP3    H125046   5.928   6.332   0.575  0.5252 -0.4762  2.1996
 8367TIP3    H225047   5.812   6.246   0.621 -0.0582 -0.8754  0.0816
 8368TIP3   OH225048   6.182   4.549   4.876  0.5199 -0.2949  0.1286
 8368TIP3    H125049   6.254   4.606   4.851  2.6537 -1.1714  3.5475
 8368TIP3    H225050   6.113   4.609   4.904  0.4348  0.5563 -1.8016
 8369TIP3   OH225051   0.982   7.133   4.586  0.4928  0.2108 -0.3835
 8369TIP3    H125052   1.049   7.074   4.621  0.1065 -0.3864 -0.6452
 8369TIP3    H225053   0.901   7.104   4.627  0.1101 -0.1883 -1.3908
 8370TIP3   OH225054   3.047   1.798   3.899  0.7120  0.0034 -0.0650
 8370TIP3    H125055   2.967   1.794   3.846  0.4623  0.1537  0.2927
 8370TIP3    H225056   3.015   1.801   3.989  1.1243  0.1343  0.0769
 8371TIP3   OH225057   1.899   1.480   0.378  0.0164 -0.0155 -0.0282
 8371TIP3    H125058   1.901   1.454   0.470  0.8306 -1.2713 -0.3789
 8371TIP3    H225059   1.929   1.571   0.377 -1.9101  0.6976  1.1291
 8372TIP3   OH225060   2.062   4.160  -0.035  0.0739  0.0103 -0.6796
 8372TIP3    H125061   2.069   4.114   0.049 -0.1565  1.9825  0.4799
 8372TIP3    H225062   2.045   4.251  -0.011  1.4584  0.9135 -2.8654
 8373TIP3   OH225063   2.696   2.838   4.418  0.0154  0.1108  0.1128
 8373TIP3    H125064   2.686   2.753   4.460 -2.1607 -1.2317 -2.7866
 8373TIP3    H225065   2.781   2.834   4.375 -0.0192 -0.5297  0.1050
 8374TIP3   OH225066   1.743   3.229   2.029 -0.3399  0.3188 -0.4020
 8374TIP3    H125067   1.672   3.170   2.002 -0.6792  0.6862 -0.3196
 8374TIP3    H225068   1.717   3.315   1.996 -1.0846  0.9208  1.6190
 8375TIP3   OH225069   7.956   7.764   0.521 -0.4619 -0.3303 -0.0418
 8375TIP3    H125070   7.871   7.735   0.489 -0.7924 -0.4358  0.8867
 8375TIP3    H225071   7.963   7.855   0.493 -0.4925 -0.5866 -0.8812
 8376TIP3   OH225072   4.337   0.843   2.013  0.3292  0.5033 -0.2264
 8376TIP3    H125073   4.424   0.863   2.048 -0.1044  0.2810  1.0328
 8376TIP3    H225074   4.288   0.925   2.023  0.5900  0.8546 -1.6283
 8377TIP3   OH225075   0.067   7.502   0.589  0.2633 -0.0054  0.1699
 8377TIP3    H125076   0.120   7.547   0.655 -0.1154  0.9701 -0.1782
 8377TIP3    H225077  -0.017   7.486   0.633 -0.7121  2.4439 -0.6604
 8378TIP3   OH225078   0.391   4.868   6.347  0.3596  0.0989  0.0606
 8378TIP3    H125079   0.379   4.773   6.359 -0.5187  0.2970  0.9096
 8378TIP3    H225080   0.438   4.876   6.264  0.0853 -1.0661 -0.2300
 8379TIP3   OH225081   0.076   1.481   6.373 -0.5743 -0.1980 -0.1890
 8379TIP3    H125082   0.162   1.451   6.345 -0.2730  0.6369 -0.1922
 8379TIP3    H225083   0.029   1.401   6.397 -0.4799 -0.8594 -2.0482
 8380TIP3   OH225084   0.224   7.406   6.599 -0.7216 -0.2192 -0.1699
 8380TIP3    H125085   0.288   7.375   6.535 -0.1641  1.1376 -0.2977
 8380TIP3    H225086   0.142   7.364   6.573 -0.1102 -1.1553 -0.6330
 8381TIP3   OH225087   6.166   1.316   4.413 -0.2362  0.6299 -0.5099
 8381TIP3    H125088   6.236   1.277   4.361 -1.0188 -0.1993 -0.9717
 8381TIP3    H225089   6.107   1.243   4.432  0.3077  0.7831  2.0368
 8382TIP3   OH225090   7.025   4.506   5.945 -0.3039  0.6581 -0.4044
 8382TIP3    H125091   7.111   4.465   5.954 -0.2729  1.1550  2.8621
 8382TIP3    H225092   6.974   4.444   5.894  1.6138 -0.2670 -1.2828
 8383TIP3   OH225093   0.051   5.477   5.541  0.1123  0.0388  0.3783
 8383TIP3    H125094   0.125   5.523   5.501  0.4697 -1.4788 -0.7676
 8383TIP3    H225095   0.089   5.430   5.614  0.0512  0.2084  0.5206
 8384TIP3   OH225096   5.659   4.388   5.966  0.4656  0.0726 -0.1190
 8384TIP3    H125097   5.725   4.321   5.983  1.7195  0.1106 -3.8481
 8384TIP3    H225098   5.709   4.464   5.937 -1.1151  1.3592  0.3826
 8385TIP3   OH225099   6.007   2.795   4.134 -0.2339 -0.3453  0.1980
 8385TIP3    H125100   5.974   2.836   4.213  1.8978 -0.4107  1.2053
 8385TIP3    H225101   5.974   2.705   4.138 -1.1623 -0.0016  0.3558
 8386TIP3   OH225102   2.290   3.208   5.111  0.2005  0.0182 -0.5231
 8386TIP3    H125103   2.369   3.231   5.062 -0.5118  0.7351 -1.3738
 8386TIP3    H225104   2.222   3.265   5.074 -1.4114 -2.5799 -1.8737
 8387TIP3   OH225105   6.931   2.408   5.458  0.2091 -0.2576 -0.5015
 8387TIP3    H125106   6.951   2.316   5.437  2.0377 -0.1002  0.3566
 8387TIP3    H225107   6.923   2.451   5.373  0.9315 -0.9058 -0.9103
 8388TIP3   OH225108   4.588   1.473   1.728 -1.1244 -0.2707  0.1946
 8388TIP3    H125109   4.593   1.504   1.637 -1.0278  1.5899  0.7968
 8388TIP3    H225110   4.500   1.435   1.735 -0.9212 -0.9821 -0.8154
 8389TIP3   OH225111   5.181   3.381   1.650 -0.1291 -0.2662  0.5918
 8389TIP3    H125112   5.120   3.416   1.585 -0.8175 -0.7402  0.9690
 8389TIP3    H225113   5.265   3.377   1.605 -0.5622 -0.4358 -0.2175
 8390TIP3   OH225114   3.387   7.409   1.589  0.4770  0.2694 -0.3600
 8390TIP3    H125115   3.318   7.433   1.651  0.4136 -0.5891 -0.0913
 8390TIP3    H225116   3.359   7.449   1.507 -0.7308 -0.6463 -0.4343
 8391TIP3   OH225117   5.074   0.285   6.789  0.3286 -0.1591 -0.7202
 8391TIP3    H125118   5.109   0.272   6.701 -1.0314 -1.6809 -1.0758
 8391TIP3    H225119   5.137   0.242   6.847  1.2393  0.8632 -0.9137
 8392TIP3   OH225120   7.694   4.140   1.921  0.0001 -0.0707  0.0879
 8392TIP3    H125121   7.703   4.054   1.963 -0.6959 -0.0428  0.3011
 8392TIP3    H225122   7.602   4.162   1.932  0.4393  1.3447  1.2856
 8393TIP3   OH225123   8.037   4.101   6.406  0.1214  0.4039 -0.4242
 8393TIP3    H125124   8.069   4.181   6.448 -0.0505  0.4849 -0.4452
 8393TIP3    H225125   8.108   4.074   6.348  0.7872 -0.2756  0.6677
 8394TIP3   OH225126   5.749   4.033   0.265  0.1466 -0.0292 -0.1151
 8394TIP3    H125127   5.684   4.047   0.334  1.4163 -0.3793  1.2048
 8394TIP3    H225128   5.751   3.939   0.252  0.2325 -0.0016 -0.3062
 8395TIP3   OH225129   6.304   7.127   5.975  0.0508  0.0518 -0.3308
 8395TIP3    H125130   6.253   7.189   6.027 -1.4921 -0.8718 -0.6720
 8395TIP3    H225131   6.343   7.179   5.906 -2.3246  0.4834 -1.4275
 8396TIP3   OH225132   6.457   6.468   0.833 -0.0353  0.2126  0.3275
 8396TIP3    H125133   6.505   6.524   0.773  0.2859  0.3365  0.6940
 8396TIP3    H225134   6.516   6.394   0.849 -0.6273 -0.4538 -0.4912
 8397TIP3   OH225135   6.915   5.718   2.930  0.4181 -0.8716  0.1106
 8397TIP3    H125136   6.978   5.725   2.858 -0.2148  1.1685 -0.2971
 8397TIP3    H225137   6.843   5.667   2.894 -0.5187  1.2676 -1.2472
 8398TIP3   OH225138   4.358   0.863   4.328  0.6118  0.9711 -0.6380
 8398TIP3    H125139   4.269   0.867   4.295  0.2527 -0.5215  0.0890
 8398TIP3    H225140   4.349   0.872   4.423  1.1919  0.4474 -0.5268
 8399TIP3   OH225141   2.193   3.071   6.240 -0.5065 -0.5817  0.4824
 8399TIP3    H125142   2.185   3.164   6.257 -2.7217  0.0548 -3.0927
 8399TIP3    H225143   2.283   3.049   6.265  0.5776  2.8401 -0.0222
 8400TIP3   OH225144   0.756   5.492   5.183  0.0731 -0.1097  0.6506
 8400TIP3    H125145   0.836   5.442   5.197  0.6317  0.5720  0.0166
 8400TIP3    H225146   0.783   5.583   5.195 -0.9147  0.0617  1.7668
 8401TIP3   OH225147   1.134   2.488   4.921  0.3166  0.7082  0.8104
 8401TIP3    H125148   1.088   2.558   4.873 -1.6842 -1.3905 -0.5242
 8401TIP3    H225149   1.064   2.438   4.963  1.8023  0.1568  2.7438
 8402TIP3   OH225150   6.938   6.589   3.438  0.1249  0.2099 -0.4135
 8402TIP3    H125151   6.916   6.540   3.517  2.3218 -0.1265  0.0680
 8402TIP3    H225152   6.964   6.675   3.469  1.2916 -0.0148 -0.6898
 8403TIP3   OH225153   7.659   6.295   5.026 -0.0136  0.3841 -0.8721
 8403TIP3    H125154   7.648   6.239   4.949  1.4611 -0.5606 -0.4423
 8403TIP3    H225155   7.735   6.349   5.006 -0.8447  1.5750 -0.8836
 8404TIP3   OH225156   7.733   4.145   6.348 -0.4201 -0.8583  0.0984
 8404TIP3    H125157   7.695   4.058   6.353  1.2087 -1.6462 -0.3524
 8404TIP3    H225158   7.828   4.130   6.345 -0.0879  0.9298  0.1262
 8405TIP3   OH225159   0.423   4.756   2.831 -0.3421 -0.0400  0.0166
 8405TIP3    H125160   0.517   4.752   2.845 -0.2688  0.6802 -0.2147
 8405TIP3    H225161   0.413   4.799   2.745 -0.8843  0.2235  0.2031
 8406TIP3   OH225162   3.990   7.779   2.331 -0.1591 -0.1414 -0.1371
 8406TIP3    H125163   3.937   7.855   2.353  0.2885 -0.1523  1.0386
 8406TIP3    H225164   4.014   7.740   2.415 -0.2211 -1.4820 -0.7102
 8407TIP3   OH225165   1.503   2.858   0.508 -0.1361  0.0477  0.2040
 8407TIP3    H125166   1.411   2.834   0.523 -0.5606  0.8066 -0.9907
 8407TIP3    H225167   1.511   2.858   0.413  0.8770  0.8483  0.2874
 8408TIP3   OH225168   8.274   2.170   0.819 -0.5968  0.3349 -0.2422
 8408TIP3    H125169   8.184   2.158   0.849 -0.6602 -0.7273 -0.7761
 8408TIP3    H225170   8.284   2.264   0.810 -1.0910  0.5812  1.4655
 8409TIP3   OH225171   0.185   0.243   2.759  0.0727  0.3365  0.6266
 8409TIP3    H125172   0.091   0.233   2.741 -0.2946  2.3204  1.1868
 8409TIP3    H225173   0.223   0.269   2.676 -0.4163  2.4124  0.9901
 8410TIP3   OH225174   0.676   4.978   5.655  0.1423  0.4497 -0.1132
 8410TIP3    H125175   0.714   4.892   5.638 -0.0415  0.4222 -0.3983
 8410TIP3    H225176   0.720   5.037   5.593 -1.3305  0.1445 -1.5476
 8411TIP3   OH225177   4.661   5.640   1.970  0.2886  0.1753 -0.3288
 8411TIP3    H125178   4.738   5.645   2.028 -0.2451 -0.5617  0.4730
 8411TIP3    H225179   4.587   5.655   2.029 -0.2993 -1.1061 -0.7240
 8412TIP3   OH225180   4.594   0.191   4.497 -0.3073 -0.1471  0.6140
 8412TIP3    H125181   4.610   0.202   4.590  2.2363 -0.4460  0.2789
 8412TIP3    H225182   4.590   0.280   4.462  1.8545 -0.0215  0.5901
 8413TIP3   OH225183   4.278   3.325   0.382 -0.2365  0.1565  0.0853
 8413TIP3    H125184   4.297   3.340   0.474 -0.4578  0.7838  0.0324
 8413TIP3    H225185   4.188   3.293   0.381  0.1493 -0.9937  0.1756
 8414TIP3   OH225186   1.028   3.990   6.396 -0.0282 -0.1953  0.6100
 8414TIP3    H125187   0.939   4.024   6.386 -0.2167 -0.2942  1.8225
 8414TIP3    H225188   1.055   4.019   6.483  1.6035  0.8789 -0.1875
 8415TIP3   OH225189   5.790   7.332   5.750 -0.0747 -0.3929  0.1906
 8415TIP3    H125190   5.758   7.420   5.765 -1.5299 -0.8506 -0.0748
 8415TIP3    H225191   5.844   7.340   5.671 -0.8540  0.1185 -0.3018
 8416TIP3   OH225192   7.441   7.269   0.615  0.4716 -0.4572  0.8900
 8416TIP3    H125193   7.426   7.175   0.626 -2.3900  0.0260  2.0191
 8416TIP3    H225194   7.532   7.282   0.641  1.0302 -2.9208  0.4401
 8417TIP3   OH225195   6.533   3.982   1.959  0.4677  0.1326  0.2323
 8417TIP3    H125196   6.536   3.955   2.051  0.8412 -0.9684 -0.0810
 8417TIP3    H225197   6.469   3.922   1.919 -1.0594  1.7647  0.1124
 8418TIP3   OH225198   2.543   0.102   5.365 -0.1679 -0.8589  0.5665
 8418TIP3    H125199   2.489   0.026   5.345 -1.4013 -0.7741  3.2471
 8418TIP3    H225200   2.628   0.065   5.388 -0.7272 -1.4610  1.7473
 8419TIP3   OH225201   0.078   5.203   2.613 -0.5557  0.3276 -0.1498
 8419TIP3    H125202   0.114   5.267   2.675  0.9370  0.9930 -1.6242
 8419TIP3    H225203   0.020   5.255   2.556 -1.2100 -0.1040  0.1131
 8420TIP3   OH225204   0.413   1.443   3.816  0.4646 -0.0554  0.4413
 8420TIP3    H125205   0.454   1.413   3.898  3.3897  1.4551 -0.3255
 8420TIP3    H225206   0.482   1.436   3.751 -1.1724  0.7318 -1.4895
 8421TIP3   OH225207   1.001   7.235   3.220  0.4598 -1.2818  0.1027
 8421TIP3    H125208   0.924   7.179   3.220  0.5038 -1.3587 -0.9423
 8421TIP3    H225209   1.066   7.187   3.170  0.3419 -0.1088 -1.2451
 8422TIP3   OH225210   0.194   4.329   6.698  0.4782 -0.0249 -0.4865
 8422TIP3    H125211   0.273   4.375   6.669  0.2330  0.7328  0.0205
 8422TIP3    H225212   0.226   4.262   6.758  0.7989 -0.1906 -0.8407
 8423TIP3   OH225213   1.817   2.597   5.579  0.0790 -0.1545 -0.0965
 8423TIP3    H125214   1.792   2.689   5.572  1.8472  0.6024  2.1908
 8423TIP3    H225215   1.893   2.588   5.522 -0.6894 -0.4886 -1.0934
 8424TIP3   OH225216   5.134   1.067   4.858  0.2900  0.2022 -0.0976
 8424TIP3    H125217   5.099   1.060   4.947 -0.2200 -0.4262 -0.3435
 8424TIP3    H225218   5.198   0.996   4.851  0.0029 -0.0278 -0.3847
 8425TIP3   OH225219   1.097   1.477   1.981  0.0650  0.0590  0.2268
 8425TIP3    H125220   1.185   1.441   1.989  0.3443  1.0407  1.7354
 8425TIP3    H225221   1.040   1.400   1.987  0.7568 -0.4262  0.7625
 8426TIP3   OH225222   3.725   5.341   2.348 -0.5762  1.0916  0.7389
 8426TIP3    H125223   3.674   5.407   2.301 -0.4610  0.4244 -0.3502
 8426TIP3    H225224   3.691   5.257   2.317  0.7427  0.6358  0.4667
 8427TIP3   OH225225   6.795   1.909   3.525  0.1057 -0.3172  0.5006
 8427TIP3    H125226   6.777   1.950   3.610 -1.4888  0.7199 -0.2911
 8427TIP3    H225227   6.721   1.933   3.471  1.5453 -0.1726 -1.4954
 8428TIP3   OH225228   0.062   0.081   1.946 -0.2116 -0.5039  0.0266
 8428TIP3    H125229   0.022   0.116   1.867 -0.1837 -2.1320 -0.7485
 8428TIP3    H225230   0.154   0.069   1.923  0.0706  0.2222  0.7437
 8429TIP3   OH225231   0.092   3.288   1.534 -0.3652 -0.3797  0.1629
 8429TIP3    H125232   0.001   3.301   1.563 -0.4524  0.7635 -0.5606
 8429TIP3    H225233   0.127   3.377   1.526  0.9686 -0.8197  0.8641
 8430TIP3   OH225234   5.507   4.369   3.494  0.1819 -0.3187  0.2163
 8430TIP3    H125235   5.453   4.310   3.442 -0.1817  0.3702 -0.2074
 8430TIP3    H225236   5.453   4.389   3.571 -0.5023  0.9348 -0.5490
 8431TIP3   OH225237   7.910   4.935   1.605  0.3890  0.5531  0.6508
 8431TIP3    H125238   7.949   4.950   1.519  1.8320  0.0256  1.1847
 8431TIP3    H225239   7.965   4.986   1.665  0.3432 -0.3187  1.4507
 8432TIP3   OH225240   3.546   5.637   5.747  1.0489 -0.8156  0.0280
 8432TIP3    H125241   3.558   5.653   5.653 -0.5542 -1.9932 -0.4382
 8432TIP3    H225242   3.500   5.715   5.779  0.1227 -1.1044 -0.5500
 8433TIP3   OH225243   0.947   2.664   4.776 -0.1074  0.2683  0.1922
 8433TIP3    H125244   0.996   2.745   4.787  1.3172 -0.5788  0.3078
 8433TIP3    H225245   0.869   2.689   4.727  0.8771  1.5182 -0.7855
 8434TIP3   OH225246   8.291   1.854   3.499 -0.1531  0.3829  0.0385
 8434TIP3    H125247   8.360   1.847   3.565  0.8947  0.2758 -1.0170
 8434TIP3    H225248   8.232   1.781   3.517 -1.0641  1.5594  2.1166
 8435TIP3   OH225249   7.252   3.833   2.266  0.2244 -0.2883 -0.1321
 8435TIP3    H125250   7.165   3.804   2.291  0.1288  1.6653  2.1514
 8435TIP3    H225251   7.248   3.928   2.269  2.4829 -0.1387  0.2917
 8436TIP3   OH225252   4.251   1.676   1.842  0.1238  0.1344  0.2083
 8436TIP3    H125253   4.254   1.729   1.762 -1.5573  1.0772  0.7135
 8436TIP3    H225254   4.318   1.715   1.898 -1.3077  2.0328  0.7004
 8437TIP3   OH225255   0.975   5.396   3.288 -0.5577  0.4644 -0.2700
 8437TIP3    H125256   1.006   5.482   3.261 -0.2564  0.0124 -1.4250
 8437TIP3    H225257   0.886   5.391   3.253 -1.2137  0.9383  1.2385
 8438TIP3   OH225258   5.944   4.298   6.030  0.2873 -0.2375 -0.1806
 8438TIP3    H125259   5.887   4.221   6.019  0.6642 -0.8870  1.9694
 8438TIP3    H225260   5.970   4.321   5.941 -1.8769 -1.0145 -1.0998
 8439TIP3   OH225261   7.079   4.684   4.173 -0.8555 -0.3315 -0.1015
 8439TIP3    H125262   7.047   4.765   4.134 -0.5160  0.8382  1.9253
 8439TIP3    H225263   7.150   4.656   4.115 -0.8956  0.8792 -0.7759
 8440TIP3   OH225264   5.750   0.660   6.662  0.2089  0.3360  0.1268
 8440TIP3    H125265   5.810   0.593   6.630  0.5549  0.7101 -0.0112
 8440TIP3    H225266   5.800   0.708   6.729 -0.2860 -0.0185  0.7595
 8441TIP3   OH225267   6.316   7.414   3.189 -0.0444  0.4100 -0.0936
 8441TIP3    H125268   6.241   7.473   3.184 -0.6776 -0.4352 -0.8589
 8441TIP3    H225269   6.356   7.418   3.103  0.4696  0.4478  0.1471
 8442TIP3   OH225270   7.082   6.649   1.159  0.4278 -0.1777  0.0682
 8442TIP3    H125271   6.986   6.648   1.155  0.4124 -0.8788  0.5080
 8442TIP3    H225272   7.107   6.556   1.163  1.2046 -0.1076 -1.8516
 8443TIP3   OH225273   7.588   6.607   0.380 -0.3021  0.1685 -0.5761
 8443TIP3    H125274   7.585   6.679   0.317 -0.9146  0.4792 -0.1948
 8443TIP3    H225275   7.654   6.547   0.344  0.4081  1.0342 -0.7693
 8444TIP3   OH225276   5.764   6.383   1.635  0.7576  0.3554  0.4750
 8444TIP3    H125277   5.716   6.446   1.687 -0.0006 -0.3199  0.6169
 8444TIP3    H225278   5.716   6.301   1.646  1.3529 -0.1025 -0.2139
 8445TIP3   OH225279   6.821   5.205   4.751  0.4045  0.0926  0.4709
 8445TIP3    H125280   6.916   5.203   4.742  0.3603  0.3800 -0.1377
 8445TIP3    H225281   6.803   5.286   4.797  0.4671 -0.0849  0.8120
 8446TIP3   OH225282   2.198   4.004   4.334 -0.4268 -0.3488 -0.2833
 8446TIP3    H125283   2.105   3.996   4.354 -0.4957 -0.3596 -0.5964
 8446TIP3    H225284   2.222   4.092   4.363 -0.1685 -0.8827  1.2018
 8447TIP3   OH225285   2.804   6.116   4.303  0.0414  0.2057  0.2570
 8447TIP3    H125286   2.826   6.088   4.214  0.9191  2.1405 -0.2053
 8447TIP3    H225287   2.771   6.038   4.346  0.2284 -0.9358 -1.5721
 8448TIP3   OH225288   0.009   7.636   5.421 -0.7258  0.3084 -0.1583
 8448TIP3    H125289   0.097   7.617   5.452 -0.3637  0.7796 -0.8657
 8448TIP3    H225290   0.019   7.715   5.367 -1.5673  0.3352 -0.2914
 8449TIP3   OH225291   2.022   7.750   3.037  0.4617  0.0054  0.3050
 8449TIP3    H125292   1.937   7.785   3.064  0.3024  0.3885 -0.6282
 8449TIP3    H225293   2.013   7.735   2.943  1.0726 -1.0196  0.3984
 8450TIP3   OH225294   4.120   1.796   4.812 -0.3104  0.0544  0.0471
 8450TIP3    H125295   4.110   1.751   4.896 -0.3443  1.4501  0.8327
 8450TIP3    H225296   4.033   1.831   4.793 -0.3900 -0.5437 -0.7691
 8451TIP3   OH225297   6.980   5.083   5.736  0.0738 -0.1839  0.1088
 8451TIP3    H125298   7.026   5.134   5.669  0.0417  0.7551  0.7765
 8451TIP3    H225299   7.014   5.116   5.819 -0.5637 -0.6785  0.5833
 8452TIP3   OH225300   6.479   5.955   4.884 -0.5333  0.1236 -0.2523
 8452TIP3    H125301   6.515   5.902   4.813 -0.4395 -0.4292  0.2025
 8452TIP3    H225302   6.422   5.896   4.933 -0.1866  0.3468  0.4435
 8453TIP3   OH225303   4.089   7.107   1.476  0.4226 -0.1895  0.2597
 8453TIP3    H125304   4.121   7.196   1.494  1.0825 -0.3007 -0.2860
 8453TIP3    H225305   4.168   7.059   1.448  0.0598 -0.9266  0.4777
 8454TIP3   OH225306   6.044   4.009   2.286 -0.2930 -0.6502 -0.3579
 8454TIP3    H125307   6.044   4.036   2.194  1.0009  2.4461  0.4076
 8454TIP3    H225308   5.984   4.070   2.328  0.8525 -0.5144  1.1669
 8455TIP3   OH225309   5.509   6.084   5.651  0.5440 -0.4882  0.0758
 8455TIP3    H125310   5.497   6.021   5.722  0.6507 -0.9263 -0.2977
 8455TIP3    H225311   5.563   6.039   5.587 -0.6264 -0.5587 -0.8865
 8456TIP3   OH225312   0.416   6.913   4.672  0.5007  1.0533  0.6352
 8456TIP3    H125313   0.363   6.983   4.634  0.0526 -0.1145 -1.0395
 8456TIP3    H225314   0.355   6.863   4.725  0.1344  0.3696 -0.3865
 8457TIP3   OH225315   8.212   2.328   1.292 -0.2298  0.4310 -0.3090
 8457TIP3    H125316   8.250   2.314   1.378 -0.0168  0.3926 -0.4093
 8457TIP3    H225317   8.145   2.395   1.306 -0.6097 -0.0145 -0.0033
 8458TIP3   OH225318   0.825   0.200   4.026 -0.1261  0.4278  0.0218
 8458TIP3    H125319   0.840   0.136   4.096  1.3662 -0.1054 -0.7643
 8458TIP3    H225320   0.874   0.167   3.952 -1.5753  1.0606 -1.2772
 8459TIP3   OH225321   0.557   5.395   0.953  0.2509 -0.2645  0.4031
 8459TIP3    H125322   0.615   5.443   1.011  0.9274  2.7747 -2.4942
 8459TIP3    H225323   0.614   5.354   0.889 -0.4877  2.4246 -2.2424
 8460TIP3   OH225324   3.667   5.855   4.251  0.5332  0.4365  0.5366
 8460TIP3    H125325   3.662   5.926   4.315  1.4421  1.8801 -0.9114
 8460TIP3    H225326   3.761   5.844   4.235  0.3270  0.0511 -0.4755
 8461TIP3   OH225327   7.217   1.692   4.621  0.3343 -0.8391  0.4280
 8461TIP3    H125328   7.203   1.726   4.532 -1.1467  1.3040  1.4037
 8461TIP3    H225329   7.179   1.604   4.618 -0.4814 -0.4859 -0.8558
 8462TIP3   OH225330   6.991   0.782   2.519  0.1964  0.0409  0.3912
 8462TIP3    H125331   6.947   0.734   2.448 -1.9986  0.6774  1.2251
 8462TIP3    H225332   7.007   0.869   2.483 -1.2062  0.4656  0.7157
 8463TIP3   OH225333   4.931   3.402   1.494 -0.2779  0.0007  0.2063
 8463TIP3    H125334   4.944   3.481   1.441 -0.5763  1.7871  2.5836
 8463TIP3    H225335   4.838   3.381   1.483  0.0680 -0.8051 -1.3943
 8464TIP3   OH225336   1.322   1.926   0.742 -0.5740 -0.0735  0.2988
 8464TIP3    H125337   1.339   2.004   0.691 -2.7823 -0.0983 -0.5750
 8464TIP3    H225338   1.254   1.952   0.804  0.0912 -0.7925  1.3697
 8465TIP3   OH225339   7.229   5.049   0.892  0.4281 -0.2348 -1.1089
 8465TIP3    H125340   7.207   5.005   0.974 -4.1461  1.2885 -1.2362
 8465TIP3    H225341   7.223   5.143   0.913  0.9483  0.2107 -2.8075
 8466TIP3   OH225342   1.859   0.981   1.905 -1.0962  0.1622 -0.3041
 8466TIP3    H125343   1.806   0.903   1.921  0.3914 -1.9109 -4.0628
 8466TIP3    H225344   1.804   1.035   1.848 -0.3742 -0.5621 -1.7349
 8467TIP3   OH225345   3.638   5.561   1.093  0.5792  0.0464 -0.2124
 8467TIP3    H125346   3.686   5.633   1.052 -2.5256  1.3038 -1.9919
 8467TIP3    H225347   3.598   5.600   1.171 -2.0365  0.7584 -1.7764
 8468TIP3   OH225348   7.604   0.952   2.843 -0.2395  0.4222  0.1370
 8468TIP3    H125349   7.561   1.036   2.826 -0.9131  0.2009  0.7142
 8468TIP3    H225350   7.611   0.947   2.939  0.1261 -0.0193  0.0944
 8469TIP3   OH225351   1.536   4.664   1.695  0.2618  0.6917  0.3951
 8469TIP3    H125352   1.528   4.653   1.600  1.9943 -0.0756  0.3057
 8469TIP3    H225353   1.446   4.677   1.725 -0.7165 -1.9544 -1.0175
 8470TIP3   OH225354   3.171   0.194   5.810  0.0475  0.1499  0.2727
 8470TIP3    H125355   3.220   0.133   5.865  1.7622  2.4020  1.4536
 8470TIP3    H225356   3.113   0.239   5.871 -0.3328  0.5054 -0.3393
 8471TIP3   OH225357   6.713   0.659   4.432  0.4703  0.2527 -0.4289
 8471TIP3    H125358   6.761   0.666   4.514  0.3789  1.0205 -0.4389
 8471TIP3    H225359   6.769   0.605   4.376  0.2720 -0.7538  0.3220
 8472TIP3   OH225360   7.080   5.265   4.731 -0.1946 -0.5684  0.1504
 8472TIP3    H125361   7.139   5.196   4.700  0.7626 -0.5932  1.9147
 8472TIP3    H225362   7.109   5.283   4.820 -0.5677  1.9552 -0.1741
 8473TIP3   OH225363   1.467   2.166   0.740 -0.0307  0.4949 -0.3746
 8473TIP3    H125364   1.527   2.239   0.729 -0.3996  0.8176 -0.2572
 8473TIP3    H225365   1.521   2.097   0.780  0.3503  0.6529 -0.6099
 8474TIP3   OH225366   0.797   0.109   6.365 -0.3508  0.1271 -0.5615
 8474TIP3    H125367   0.747   0.157   6.431 -1.8357  0.0565 -1.5792
 8474TIP3    H225368   0.876   0.080   6.411 -1.3917 -0.0322  1.2121
 8475TIP3   OH225369   0.681   1.818   0.686  0.1221  0.0769 -0.0302
 8475TIP3    H125370   0.615   1.844   0.750 -1.9646 -1.7414 -1.2975
 8475TIP3    H225371   0.759   1.798   0.738 -1.8766 -2.6612  2.2068
 8476TIP3   OH225372   3.324   6.010   3.484 -0.0626 -0.0105  0.3341
 8476TIP3    H125373   3.408   6.054   3.468 -0.8241  1.0498 -0.9525
 8476TIP3    H225374   3.347   5.931   3.534  1.9960 -0.9293 -1.8526
 8477TIP3   OH225375   1.424   5.260   4.185  0.1517 -0.1104  0.1269
 8477TIP3    H125376   1.458   5.208   4.112  1.0665 -2.8235  2.3201
 8477TIP3    H225377   1.459   5.348   4.170  0.9917 -0.7789 -2.2160
 8478TIP3   OH225378   4.894   3.853   5.555  0.4244 -0.2473  0.5885
 8478TIP3    H125379   4.922   3.945   5.557  1.4100 -0.5430  0.9469
 8478TIP3    H225380   4.804   3.856   5.521  1.0385  0.7071 -1.0822
 8479TIP3   OH225381   0.631   6.996   5.652  0.6847 -0.1410 -0.5367
 8479TIP3    H125382   0.685   7.075   5.644 -0.4433  0.9736  1.8931
 8479TIP3    H225383   0.545   7.027   5.678 -0.4060 -2.0699 -1.6045
 8480TIP3   OH225384   6.517   2.070   2.137 -0.3493 -0.5880 -0.5671
 8480TIP3    H125385   6.499   2.011   2.063 -0.5185 -0.5262 -0.5748
 8480TIP3    H225386   6.588   2.126   2.106 -0.1829 -0.7908 -0.5587
 8481TIP3   OH225387   4.206   2.638   2.217  0.2708  0.5395  0.0248
 8481TIP3    H125388   4.200   2.624   2.123 -1.4181 -1.8081  0.4139
 8481TIP3    H225389   4.292   2.604   2.242 -0.0358 -0.6049 -0.4308
 8482TIP3   OH225390   7.039   1.777   1.620 -0.2329 -0.2272 -0.3926
 8482TIP3    H125391   7.122   1.794   1.664 -0.6466  0.6347  0.1005
 8482TIP3    H225392   7.061   1.720   1.547  0.7577 -0.1826 -0.1420
 8483TIP3   OH225393   4.930   4.643   5.793 -0.1058  0.3267 -0.4837
 8483TIP3    H125394   4.931   4.708   5.862 -1.3799 -0.2298  0.0833
 8483TIP3    H225395   5.023   4.625   5.776  0.2361  0.4634  1.0899
 8484TIP3   OH225396   4.386   0.034   6.086 -0.2192 -0.1847 -0.6002
 8484TIP3    H125397   4.296   0.001   6.088 -0.2174 -0.2180  1.3462
 8484TIP3    H225398   4.383   0.113   6.140  1.1523 -0.8746  0.5474
 8485TIP3   OH225399   0.367   4.366   2.303 -0.3193  0.1947  0.3936
 8485TIP3    H125400   0.289   4.320   2.334 -0.3024  0.3797  0.7192
 8485TIP3    H225401   0.359   4.365   2.208  0.7164 -2.3324  0.2305
 8486TIP3   OH225402   1.269   2.620   2.105  0.5461  0.3208  0.3400
 8486TIP3    H125403   1.258   2.651   2.015 -0.1696  1.6064  0.8491
 8486TIP3    H225404   1.226   2.686   2.159 -0.5868 -1.3272  1.5313
 8487TIP3   OH225405   3.297   4.654   4.577  0.2699  0.3117  0.0855
 8487TIP3    H125406   3.221   4.608   4.613 -0.1720  1.4164  0.6225
 8487TIP3    H225407   3.295   4.633   4.483 -2.4511  2.5770 -0.5052
 8488TIP3   OH225408   5.497   3.342   2.778 -0.0582  0.2693 -0.1521
 8488TIP3    H125409   5.454   3.349   2.863  1.8824 -1.8927  1.0968
 8488TIP3    H225410   5.551   3.421   2.772 -0.7558  0.7966  0.2363
 8489TIP3   OH225411   6.359   7.388   2.560 -0.7929 -0.5411 -0.1694
 8489TIP3    H125412   6.423   7.355   2.497  0.3771  0.2675  0.5569
 8489TIP3    H225413   6.374   7.335   2.638 -0.2960  0.3387  0.3371
 8490TIP3   OH225414   2.199   0.611   2.024 -0.1367 -0.1027 -0.2777
 8490TIP3    H125415   2.284   0.627   1.982  0.5023 -0.5562  0.8119
 8490TIP3    H225416   2.158   0.698   2.027  0.7504  0.3200  0.1387
 8491TIP3   OH225417   2.593   5.815   2.464  0.2981 -0.3664  0.1326
 8491TIP3    H125418   2.578   5.751   2.394  0.0124 -0.5741  0.3783
 8491TIP3    H225419   2.515   5.870   2.463  0.2935 -0.3706  0.2854
 8492TIP3   OH225420   0.424   6.810   5.903 -0.0735  0.3061  0.1658
 8492TIP3    H125421   0.422   6.830   5.996  0.3344 -3.7970  1.2247
 8492TIP3    H225422   0.333   6.789   5.881  0.0940 -0.3641  0.0889
 8493TIP3   OH225423   6.692   7.670   4.798 -0.5300 -0.1412 -0.3373
 8493TIP3    H125424   6.743   7.593   4.822 -1.7167 -0.7067  0.4815
 8493TIP3    H225425   6.647   7.644   4.718  1.7407  0.9791 -2.1040
 8494TIP3   OH225426   4.336   2.111   3.271 -0.2572 -0.3075 -0.0462
 8494TIP3    H125427   4.346   2.016   3.262 -0.0553 -0.1943 -1.0636
 8494TIP3    H225428   4.325   2.124   3.365  3.6434 -0.9763  0.6556
 8495TIP3   OH225429   0.523   7.064   6.057  0.3053 -0.0744  0.6914
 8495TIP3    H125430   0.559   7.007   5.989  0.7537  0.9112  0.0710
 8495TIP3    H225431   0.510   7.007   6.133  2.8409 -0.5808  0.8332
 8496TIP3   OH225432   0.161   5.710   0.429 -0.1110  0.0480 -0.5134
 8496TIP3    H125433   0.213   5.772   0.378  1.5869  0.7093  1.8303
 8496TIP3    H225434   0.097   5.764   0.475  0.5571 -0.0668  0.5826
 8497TIP3   OH225435   7.503   2.586   3.719 -0.8207 -0.2571 -0.5008
 8497TIP3    H125436   7.550   2.631   3.789  0.0789 -1.1034 -0.5455
 8497TIP3    H225437   7.501   2.495   3.747 -0.0895 -0.6756 -1.7806
 8498TIP3   OH225438   7.681   4.534   4.869  0.2584 -0.2836  0.0077
 8498TIP3    H125439   7.632   4.528   4.951 -0.5420 -2.7604 -0.5655
 8498TIP3    H225440   7.623   4.585   4.811 -0.4164 -0.8621  0.1610
 8499TIP3   OH225441   0.399   2.478   1.818 -0.5314  0.0944 -0.3343
 8499TIP3    H125442   0.490   2.500   1.795 -0.6818  0.7441 -0.3085
 8499TIP3    H225443   0.346   2.525   1.754 -0.8969  0.7984  0.4641
 8500TIP3   OH225444   2.629   3.985   5.755 -0.5889  0.0029 -0.4209
 8500TIP3    H125445   2.670   3.913   5.708  0.7453  0.7024 -0.3637
 8500TIP3    H225446   2.573   4.027   5.689  1.1652  0.8983 -1.4121
 8501TIP3   OH225447   3.347   5.463   0.791  0.4436  0.4079  0.2497
 8501TIP3    H125448   3.271   5.516   0.766  0.9479  0.4217 -1.3340
 8501TIP3    H225449   3.313   5.402   0.857 -1.0258  0.1610 -0.6985
 8502TIP3   OH225450   1.024   0.131   4.448 -1.0920 -0.8997 -0.1597
 8502TIP3    H125451   1.024   0.127   4.353  0.0228 -0.0802 -0.2161
 8502TIP3    H225452   1.010   0.041   4.476  1.0262 -1.5950 -1.1194
 8503TIP3   OH225453   4.467   2.922   0.892  0.0169  0.1980 -0.0743
 8503TIP3    H125454   4.523   2.846   0.881 -1.3070 -0.7537 -0.4542
 8503TIP3    H225455   4.528   2.994   0.909  1.3937 -0.6239 -1.2650
 8504TIP3   OH225456   1.917   1.135   1.472  0.0343 -0.1045  0.1293
 8504TIP3    H125457   1.945   1.070   1.536  0.4819 -0.4623 -0.4200
 8504TIP3    H225458   1.822   1.126   1.468 -0.0298  0.1585  0.9890
 8505TIP3   OH225459   4.659   3.855   3.672  0.3458  0.0861  0.2319
 8505TIP3    H125460   4.565   3.852   3.656  0.3138  1.1158  0.1643
 8505TIP3    H225461   4.692   3.918   3.607  1.1968 -0.8275 -0.2551
 8506TIP3   OH225462   3.251   2.460   0.124  0.8505  0.4227  0.0953
 8506TIP3    H125463   3.247   2.537   0.180 -1.0765 -1.1269  2.2828
 8506TIP3    H225464   3.274   2.388   0.183  1.6273 -0.8658 -1.6889
 8507TIP3   OH225465   5.626   3.811   2.098  0.0422 -0.7999 -0.0054
 8507TIP3    H125466   5.664   3.893   2.128 -0.5095 -1.2919  2.1887
 8507TIP3    H225467   5.656   3.803   2.007 -1.2743  2.6069 -0.8995
 8508TIP3   OH225468   2.529   0.367   1.816  0.1445 -0.1571  0.0056
 8508TIP3    H125469   2.480   0.311   1.755 -0.3318  0.4810 -0.2089
 8508TIP3    H225470   2.609   0.318   1.833 -0.7023 -1.4007  0.6395
 8509TIP3   OH225471   0.783   5.827   1.001  0.0043  0.0010 -0.4650
 8509TIP3    H125472   0.795   5.768   0.927 -0.0958 -1.4981  0.6520
 8509TIP3    H225473   0.716   5.785   1.055 -0.4845  1.4362  0.0966
 8510TIP3   OH225474   0.578   0.848   5.924 -0.4254 -0.3942  0.2292
 8510TIP3    H125475   0.613   0.813   5.843 -0.2357 -0.9686  0.5530
 8510TIP3    H225476   0.510   0.785   5.950 -1.4760  0.5224 -0.2121
 8511TIP3   OH225477   4.449   4.625   3.269  0.2396  0.0788 -0.4461
 8511TIP3    H125478   4.462   4.605   3.362 -0.4841  0.6838 -0.2029
 8511TIP3    H225479   4.355   4.640   3.261  0.0183 -1.6309 -1.6131
 8512TIP3   OH225480   0.511   2.910   4.732 -0.0792 -0.3472 -0.3516
 8512TIP3    H125481   0.473   2.952   4.809 -1.7646  0.6583 -1.6576
 8512TIP3    H225482   0.555   2.981   4.685 -0.0942 -0.7073 -0.9180
 8513TIP3   OH225483   6.168   5.997   1.114  1.0645 -0.1012 -0.1607
 8513TIP3    H125484   6.073   5.996   1.122  0.9108  1.7718 -1.2344
 8513TIP3    H225485   6.199   6.036   1.196  1.1352 -2.8568  1.2374
 8514TIP3   OH225486   3.743   7.419   2.747 -0.0145  0.3292 -0.3115
 8514TIP3    H125487   3.759   7.513   2.744 -1.6323  0.6607  0.4726
 8514TIP3    H225488   3.732   7.393   2.656 -1.3528  1.2590 -0.4415
 8515TIP3   OH225489   4.174   2.242   1.416 -0.9039 -0.4252 -0.4694
 8515TIP3    H125490   4.233   2.231   1.342 -2.5216  0.4348 -1.9682
 8515TIP3    H225491   4.184   2.333   1.443 -0.8519 -0.5395 -0.0870
 8516TIP3   OH225492   4.021   1.524   4.217 -0.3599  0.3943 -0.1262
 8516TIP3    H125493   4.062   1.505   4.132 -2.2767 -1.3183 -0.7307
 8516TIP3    H225494   4.062   1.462   4.277  1.7102  2.2432  0.5269
 8517TIP3   OH225495   5.881   7.717   3.833 -0.0390 -0.2175 -0.4406
 8517TIP3    H125496   5.874   7.649   3.900 -1.9642  0.7595  0.4412
 8517TIP3    H225497   5.876   7.671   3.750  0.3755 -1.2712  0.1010
 8518TIP3   OH225498   1.345   5.238   6.214 -0.2437 -0.1846  0.1802
 8518TIP3    H125499   1.322   5.235   6.121 -1.2898  1.2066  0.3763
 8518TIP3    H225500   1.333   5.148   6.244 -2.1907 -0.1997 -0.5154
 8519TIP3   OH225501   4.929   2.955   1.140  0.1631  0.6290 -0.6007
 8519TIP3    H125502   5.022   2.954   1.166 -0.4616 -0.5482  1.9734
 8519TIP3    H225503   4.886   3.003   1.210 -1.4328 -0.7827 -0.5652
 8520TIP3   OH225504   7.406   3.570   1.224  0.2481 -0.1682 -0.3578
 8520TIP3    H125505   7.360   3.533   1.299  0.0408  0.3339 -0.2377
 8520TIP3    H225506   7.495   3.586   1.256 -0.1094  0.9867  0.0843
 8521TIP3   OH225507   7.005   5.626   2.208  0.7254 -0.8128 -0.3997
 8521TIP3    H125508   6.910   5.636   2.214  0.8692  1.1815 -0.5698
 8521TIP3    H225509   7.026   5.553   2.265 -0.5202  1.4176  3.2486
 8522TIP3   OH225510   7.216   5.366   2.603 -0.2726 -0.2719 -0.1108
 8522TIP3    H125511   7.202   5.360   2.698 -1.7126  0.2720 -0.2629
 8522TIP3    H225512   7.291   5.309   2.586  0.0976 -0.2618  1.3715
 8523TIP3   OH225513   1.367   7.825   4.814 -0.3101 -0.0629 -0.2832
 8523TIP3    H125514   1.357   7.764   4.740 -0.2507  0.9361 -1.1390
 8523TIP3    H225515   1.438   7.883   4.787  0.2965 -0.1991  0.9483
 8524TIP3   OH225516   0.683   0.669   6.552  0.5396  0.1679 -0.2707
 8524TIP3    H125517   0.713   0.755   6.584  1.2567 -0.0111 -0.4524
 8524TIP3    H225518   0.588   0.676   6.552  0.5419  0.5456  0.9017
 8525TIP3   OH225519   1.915   0.689   2.885  0.0208  0.1076 -0.1948
 8525TIP3    H125520   1.828   0.652   2.868  0.7039 -1.0516 -1.3109
 8525TIP3    H225521   1.953   0.701   2.799  0.3652  2.2348  0.1827
 8526TIP3   OH225522   5.291   3.467   4.183  0.2000  0.4869  0.8773
 8526TIP3    H125523   5.245   3.525   4.122  0.4862  0.3849  0.5620
 8526TIP3    H225524   5.327   3.398   4.127 -0.5588 -0.2801  1.3015
 8527TIP3   OH225525   7.838   7.752   2.156 -0.0803 -0.4962  0.0482
 8527TIP3    H125526   7.795   7.692   2.095  1.7055 -0.1492 -1.6543
 8527TIP3    H225527   7.831   7.837   2.114  2.2216 -0.4353 -0.3354
 8528TIP3   OH225528   8.113   6.254   5.061 -0.7384 -0.2122 -0.1768
 8528TIP3    H125529   8.038   6.228   5.008  0.2312 -1.3601 -1.0331
 8528TIP3    H225530   8.087   6.234   5.151 -1.7936  0.2692 -0.3598
 8529TIP3   OH225531   5.374   3.028   2.463 -0.5463 -0.7167 -0.1910
 8529TIP3    H125532   5.331   3.070   2.388 -0.0503  2.1891  1.0084
 8529TIP3    H225533   5.332   3.067   2.539  2.1409  0.0586  1.0198
 8530TIP3   OH225534   5.626   5.446   4.639  0.4415 -0.1050  0.0879
 8530TIP3    H125535   5.666   5.382   4.580 -0.7688  0.3377 -1.3068
 8530TIP3    H225536   5.541   5.464   4.599 -0.6810 -0.1631  2.2887
 8531TIP3   OH225537   5.152   5.949   0.872  0.8022 -0.1808  0.4676
 8531TIP3    H125538   5.141   6.018   0.938  1.4324  0.6316 -0.2525
 8531TIP3    H225539   5.065   5.940   0.833  0.7353  0.3204  0.4836
 8532TIP3   OH225540   7.573   1.334   1.037 -0.1434  0.7912 -0.1492
 8532TIP3    H125541   7.600   1.424   1.021 -0.0882  0.9263  0.6519
 8532TIP3    H225542   7.628   1.281   0.980  1.4637  1.0958  1.0347
 8533TIP3   OH225543   0.016   7.155   0.718  0.6366 -0.7431  0.4812
 8533TIP3    H125544   0.091   7.214   0.728  0.8150 -1.3381  4.0401
 8533TIP3    H225545   0.054   7.076   0.678  0.8643  0.5443 -2.0591
 8534TIP3   OH225546   4.482   7.228   3.223  0.0202  0.8426 -0.5495
 8534TIP3    H125547   4.410   7.201   3.167  0.6968 -0.7768 -0.7090
 8534TIP3    H225548   4.443   7.238   3.309 -0.4002 -0.1292 -0.6070
 8535TIP3   OH225549   2.834   2.265   4.468 -0.2267 -0.4351  0.2050
 8535TIP3    H125550   2.827   2.295   4.377  0.5756 -1.1825 -0.1223
 8535TIP3    H225551   2.768   2.316   4.515 -2.5806 -1.8755 -1.2706
 8536TIP3   OH225552   0.081   6.198   2.858  0.1581  0.1285  0.1054
 8536TIP3    H125553   0.079   6.127   2.922  0.2102  0.9762  1.0775
 8536TIP3    H225554   0.157   6.177   2.802  0.3011 -0.4635  0.5090
 8537TIP3   OH225555   2.170   4.938   2.182 -0.6305 -0.1373 -0.2869
 8537TIP3    H125556   2.158   5.020   2.230  0.3862 -0.6897  0.9540
 8537TIP3    H225557   2.108   4.877   2.222 -1.3853  0.0012 -1.2060
 8538TIP3   OH225558   5.643   5.739   3.473  0.0369 -0.0288 -0.6173
 8538TIP3    H125559   5.728   5.764   3.509  0.0230 -0.5055 -0.2319
 8538TIP3    H225560   5.646   5.765   3.381  0.8801 -0.6899 -0.7915
 8539TIP3   OH225561   6.067   4.711   1.735 -0.3102 -0.5309 -0.3206
 8539TIP3    H125562   5.982   4.668   1.729 -0.7621  0.5018 -2.1291
 8539TIP3    H225563   6.046   4.805   1.737  0.7482 -0.2925  0.1376
 8540TIP3   OH225564   6.665   4.366   2.039  0.0936  0.4536  0.3691
 8540TIP3    H125565   6.600   4.417   1.991  0.1882  0.9171  0.7208
 8540TIP3    H225566   6.733   4.430   2.062 -0.1563  0.3443  1.4829
 8541TIP3   OH225567   3.080   4.477   3.194 -0.1911  0.5362  0.0647
 8541TIP3    H125568   3.105   4.536   3.265 -0.0445  2.4207 -1.4913
 8541TIP3    H225569   3.027   4.530   3.135  0.2458 -0.7753 -1.6030
 8542TIP3   OH225570   7.408   7.093   3.025 -0.6492  0.0986  0.0529
 8542TIP3    H125571   7.438   7.116   3.113 -1.5113  0.6635  0.2227
 8542TIP3    H225572   7.421   6.999   3.018 -0.3796  0.0847  0.7116
 8543TIP3   OH225573   3.108   1.743   0.746  0.0553 -0.0102  0.0071
 8543TIP3    H125574   3.175   1.732   0.812  0.7353 -1.1513 -0.8342
 8543TIP3    H225575   3.033   1.781   0.793  0.7276 -0.2132  1.2693
 8544TIP3   OH225576   3.468  -0.007   3.151 -0.6738 -0.2107  0.5330
 8544TIP3    H125577   3.374   0.012   3.160 -0.4678  0.2724  1.9398
 8544TIP3    H225578   3.507   0.029   3.231  1.1553  2.3879 -1.3573
 8545TIP3   OH225579   3.134   1.537   2.518 -0.3654  0.3791 -0.0827
 8545TIP3    H125580   3.120   1.454   2.562  0.7265  1.0041  1.5133
 8545TIP3    H225581   3.211   1.523   2.463 -1.3525 -0.2143 -1.3535
 8546TIP3   OH225582   1.808   4.547   0.051 -0.7957  0.0051 -1.0522
 8546TIP3    H125583   1.866   4.613   0.013  0.4152 -0.6707 -0.4589
 8546TIP3    H225584   1.730   4.549  -0.004  1.0638 -1.3173 -3.9743
 8547TIP3   OH225585   1.782   4.176   1.161  0.3097  0.6034 -0.1978
 8547TIP3    H125586   1.732   4.187   1.080 -0.2585  0.1805  0.1002
 8547TIP3    H225587   1.872   4.160   1.131  0.2730  1.3162 -0.7278
 8548TIP3   OH225588   8.057   3.868   0.533  0.2352 -0.5170  0.0117
 8548TIP3    H125589   8.050   3.960   0.509  0.7480 -0.8767 -1.6309
 8548TIP3    H225590   8.045   3.867   0.629 -0.7051  1.1270 -0.0489
 8549TIP3   OH225591   4.070   7.007   4.180  0.7982  0.3477 -0.1139
 8549TIP3    H125592   4.116   7.028   4.099 -0.7153  0.6767 -0.9263
 8549TIP3    H225593   4.112   6.928   4.213  1.3627  0.1520 -1.2870
 8550TIP3   OH225594   1.775   2.761   1.709  0.6088  0.0936  0.0556
 8550TIP3    H125595   1.682   2.744   1.720  0.6579 -0.5604 -0.4630
 8550TIP3    H225596   1.804   2.796   1.793 -0.1179  0.3833  0.1895
 8551TIP3   OH225597   5.553   6.939   4.130  0.3513  0.5638  0.4517
 8551TIP3    H125598   5.525   6.992   4.205 -2.2129 -2.4519  1.8560
 8551TIP3    H225599   5.531   6.993   4.054  1.0703  2.8598  1.7657
 8552TIP3   OH225600   3.627   4.835   2.757  0.3142 -0.1270  0.1968
 8552TIP3    H125601   3.665   4.832   2.669  1.7363 -1.1178  0.7873
 8552TIP3    H225602   3.603   4.744   2.776  0.0515  0.0701  0.8415
 8553TIP3   OH225603   2.821   6.631   4.294  0.3171  0.4633 -0.2432
 8553TIP3    H125604   2.798   6.696   4.360  0.4761  0.5241 -0.2474
 8553TIP3    H225605   2.740   6.617   4.245 -0.3207 -0.9109  1.0894
 8554TIP3   OH225606   3.277   6.428   5.384  0.3855  0.1538  0.2237
 8554TIP3    H125607   3.331   6.506   5.371  1.8462 -0.4245  2.2808
 8554TIP3    H225608   3.326   6.357   5.342 -0.3613  0.1285 -0.6303
 8555TIP3   OH225609   4.531   0.253   6.431  0.6566 -0.0095  0.1036
 8555TIP3    H125610   4.519   0.172   6.480  1.3089 -0.5673 -0.6341
 8555TIP3    H225611   4.467   0.249   6.360  0.1976  0.4660  0.4833
 8556TIP3   OH225612   1.972   5.056   4.931  0.2632 -0.3194 -0.2298
 8556TIP3    H125613   1.964   4.977   4.985 -0.3411 -0.2864 -0.2632
 8556TIP3    H225614   2.066   5.073   4.928  0.2423  0.6860  2.2936
 8557TIP3   OH225615   1.284   4.976   0.897  0.5131  0.1454 -0.1569
 8557TIP3    H125616   1.188   4.973   0.899  0.4215  1.7297 -0.2559
 8557TIP3    H225617   1.306   4.980   0.804  0.5858  0.9115 -0.1197
 8558TIP3   OH225618   1.646   3.959   1.822  0.2627 -0.8231 -0.2267
 8558TIP3    H125619   1.609   3.978   1.736 -0.7009 -2.7355 -0.2872
 8558TIP3    H225620   1.709   4.029   1.837 -2.5291  2.0090 -0.6380
 8559TIP3   OH225621   2.591   3.784   0.598 -0.5304  0.3708 -0.2643
 8559TIP3    H125622   2.628   3.723   0.661 -0.9907 -0.2481 -0.5821
 8559TIP3    H225623   2.625   3.869   0.624  0.3010 -0.0522  0.0482
 8560TIP3   OH225624   7.770   6.689   6.614 -0.0537 -0.4270  0.3485
 8560TIP3    H125625   7.705   6.754   6.639  1.6403  2.0093 -1.1566
 8560TIP3    H225626   7.739   6.656   6.529  0.1011 -0.0428  0.1379
 8561TIP3   OH225627   4.718   2.935   4.363 -0.0719  0.0948  0.0332
 8561TIP3    H125628   4.801   2.972   4.335  0.0351  0.9275  1.3337
 8561TIP3    H225629   4.659   3.010   4.370 -0.3987 -0.2203  0.8649
 8562TIP3   OH225630   4.147   7.418   6.281  0.7255 -0.1081  0.1682
 8562TIP3    H125631   4.123   7.331   6.252  2.7241  0.1226 -2.6025
 8562TIP3    H225632   4.076   7.475   6.250 -0.4411 -0.6197  1.7423
 8563TIP3   OH225633   5.092   3.288   3.522 -0.0255  0.1614 -1.1415
 8563TIP3    H125634   5.044   3.333   3.453 -0.8441  1.3084  0.1265
 8563TIP3    H225635   5.094   3.350   3.595  0.3467 -1.1968  0.0573
 8564TIP3   OH225636   2.660   2.847   5.525 -0.3007 -0.1259 -0.4070
 8564TIP3    H125637   2.670   2.793   5.446  0.9485 -1.5336  0.6519
 8564TIP3    H225638   2.742   2.895   5.531  0.8039 -2.0713  1.4300
 8565TIP3   OH225639   2.898   6.185   3.457 -0.1780 -0.0811  0.2473
 8565TIP3    H125640   2.967   6.142   3.406 -1.5166  0.3239 -2.0455
 8565TIP3    H225641   2.942   6.260   3.498  0.8850 -0.2107 -0.6123
 8566TIP3   OH225642   8.130   4.392   3.681  0.0027  0.0844  0.5078
 8566TIP3    H125643   8.130   4.400   3.776  1.0557 -0.6785  0.5943
 8566TIP3    H225644   8.054   4.442   3.652 -0.8053 -0.3496  1.7996
 8567TIP3   OH225645   2.591   5.539   4.941  0.7016  0.9995 -0.0016
 8567TIP3    H125646   2.575   5.582   4.857 -0.4585  2.0873  0.7316
 8567TIP3    H225647   2.519   5.478   4.952 -0.3549  2.3816  1.1158
 8568TIP3   OH225648   2.755   6.864   5.749 -0.5502 -0.2010  0.2891
 8568TIP3    H125649   2.751   6.929   5.819  0.7722  1.0029 -0.6910
 8568TIP3    H225650   2.832   6.888   5.698 -0.3288 -2.2324 -0.4415
 8569TIP3   OH225651   2.518   2.735   6.242  0.7705  0.4714  0.1003
 8569TIP3    H125652   2.549   2.724   6.152  1.2725  0.6238  0.2543
 8569TIP3    H225653   2.505   2.829   6.252 -1.0232  0.3164 -0.3798
 8570TIP3   OH225654   2.193   1.348   2.981  0.0510  0.1771  0.0549
 8570TIP3    H125655   2.275   1.304   3.003 -0.9248 -0.9522  1.5894
 8570TIP3    H225656   2.164   1.388   3.062 -1.9855 -1.2770  0.1062
 8571TIP3   OH225657   1.027   1.281   6.114  0.3782 -0.3074  0.4354
 8571TIP3    H125658   1.083   1.358   6.106  1.4720 -1.1335 -0.1668
 8571TIP3    H225659   0.953   1.298   6.055  0.8102  0.1186  0.0110
 8572TIP3   OH225660   5.554   3.517   5.466  0.4408 -0.4518  0.1602
 8572TIP3    H125661   5.542   3.543   5.375  1.6776  1.4436  0.4930
 8572TIP3    H225662   5.471   3.538   5.509  1.5517  4.1036  0.5962
 8573TIP3   OH225663   7.086   7.147   4.705  0.2822 -0.2225  0.0210
 8573TIP3    H125664   7.125   7.214   4.761 -0.4368  0.9391 -0.8409
 8573TIP3    H225665   7.158   7.117   4.650  0.4639  0.2926 -0.0227
 8574TIP3   OH225666   3.579   3.502   5.530  0.3236 -0.4549 -1.1213
 8574TIP3    H125667   3.643   3.562   5.568 -1.0271  0.0363  0.5085
 8574TIP3    H225668   3.563   3.535   5.442  0.1835  1.1135 -0.5283
 8575TIP3   OH225669   2.390   7.612   2.679 -0.7954 -0.1787 -0.1378
 8575TIP3    H125670   2.326   7.584   2.614 -1.2006 -1.4848  0.7880
 8575TIP3    H225671   2.473   7.573   2.651 -0.4312  1.2671 -1.1725
 8576TIP3   OH225672   1.349   1.728   3.325  0.2994  0.0777  0.2532
 8576TIP3    H125673   1.303   1.774   3.395 -0.0207 -0.5994  0.5006
 8576TIP3    H225674   1.311   1.761   3.244  1.2344  1.4681  0.3567
 8577TIP3   OH225675   7.888   1.348   5.513 -0.4853 -0.1628  0.0183
 8577TIP3    H125676   7.811   1.347   5.570 -0.3788 -0.8454  0.1538
 8577TIP3    H225677   7.947   1.284   5.551 -0.3300 -0.4843 -0.7450
 8578TIP3   OH225678   7.696   1.333   5.727  0.5977 -0.4566  0.7439
 8578TIP3    H125679   7.639   1.390   5.779  2.0176 -0.4225  2.3300
 8578TIP3    H225680   7.676   1.244   5.757  0.0646 -0.6134 -0.0449
 8579TIP3   OH225681   3.981   7.577   5.503  0.0999  0.6423  0.7236
 8579TIP3    H125682   4.036   7.580   5.582 -0.1918  0.5131  0.9335
 8579TIP3    H225683   3.997   7.491   5.465 -1.6444 -0.3185  2.0153
 8580TIP3   OH225684   5.437   2.587   2.136  0.5322 -0.1862  0.2650
 8580TIP3    H125685   5.512   2.642   2.155  2.0973 -1.5220 -1.6498
 8580TIP3    H225686   5.394   2.630   2.062 -0.3959  0.3458  1.0832
 8581TIP3   OH225687   5.137   3.419   3.268 -0.2812  0.4252 -0.2440
 8581TIP3    H125688   5.087   3.437   3.188 -0.1292  1.5647 -0.0978
 8581TIP3    H225689   5.149   3.505   3.308 -0.7927 -0.1902  1.2734
 8582TIP3   OH225690   2.013   0.671   4.256 -0.2404  0.0458  0.2255
 8582TIP3    H125691   2.053   0.697   4.174  0.5978 -1.2709  0.2011
 8582TIP3    H225692   2.086   0.649   4.313 -0.8556 -0.1583  0.9539
 8583TIP3   OH225693   1.774   1.562   0.801  0.1649 -0.4978 -0.1203
 8583TIP3    H125694   1.841   1.602   0.745 -0.0066 -0.3297 -0.2100
 8583TIP3    H225695   1.748   1.483   0.754  0.1346 -0.4410 -0.1998
 8584TIP3   OH225696   4.813   3.494   3.051 -0.2632  0.0409 -0.5802
 8584TIP3    H125697   4.744   3.537   2.999 -1.5950 -1.6913 -0.3617
 8584TIP3    H225698   4.808   3.537   3.137 -0.5858  0.4274 -0.7853
 8585TIP3   OH225699   5.642   7.339   1.172 -0.1898  0.2697 -0.1711
 8585TIP3    H125700   5.701   7.363   1.243 -1.7961 -2.2012  2.2086
 8585TIP3    H225701   5.686   7.267   1.127  0.4184  1.2346 -1.1762
 8586TIP3   OH225702   1.429   2.764   1.508 -0.0781  0.4248  0.0911
 8586TIP3    H125703   1.472   2.791   1.427  0.3276 -0.1102  0.1207
 8586TIP3    H225704   1.348   2.723   1.478  0.1342  0.1073 -0.0575
 8587TIP3   OH225705   1.522   7.175   2.396 -0.0170 -0.0001 -0.1341
 8587TIP3    H125706   1.597   7.226   2.365  0.5472 -1.4810 -1.3763
 8587TIP3    H225707   1.470   7.237   2.447  1.0059  1.5913 -0.9334
 8588TIP3   OH225708   6.767   5.170   4.481 -0.0986  0.1999 -0.0057
 8588TIP3    H125709   6.686   5.120   4.491 -1.4191  2.3673  0.6183
 8588TIP3    H225710   6.808   5.167   4.568  0.0460 -0.1214 -0.0820
 8589TIP3   OH225711   7.909   0.671   3.017 -0.3865  0.3659  0.2257
 8589TIP3    H125712   7.912   0.760   2.981 -0.3596  0.5896  0.7744
 8589TIP3    H225713   8.001   0.648   3.032 -0.2769 -0.3855 -1.4271
 8590TIP3   OH225714   5.226   5.535   3.587  0.1479 -0.0581 -0.3853
 8590TIP3    H125715   5.138   5.535   3.625 -0.2661  0.5876 -1.3001
 8590TIP3    H225716   5.222   5.471   3.516  0.4367 -0.0911 -0.3738
 8591TIP3   OH225717   0.512   5.889   1.709 -0.3374  0.6847 -0.0622
 8591TIP3    H125718   0.458   5.925   1.779  1.1141  0.5253  1.1695
 8591TIP3    H225719   0.529   5.964   1.651 -2.1232  0.6644 -0.6900
 8592TIP3   OH225720   4.530   3.754   1.655 -0.5552 -0.1363 -0.0810
 8592TIP3    H125721   4.597   3.798   1.602 -2.3936  0.8599 -1.6795
 8592TIP3    H225722   4.506   3.818   1.722 -0.0646 -0.4414  0.4029
 8593TIP3   OH225723   0.073   1.479   5.170  0.3984 -0.2917 -0.2259
 8593TIP3    H125724   0.133   1.450   5.101 -1.6096 -2.0677 -1.3729
 8593TIP3    H225725   0.017   1.403   5.186 -0.4348  0.7253  2.0203
 8594TIP3   OH225726   3.514   7.501   0.481 -0.0469 -0.5015 -0.1921
 8594TIP3    H125727   3.485   7.550   0.558 -1.0752 -0.3793 -0.6387
 8594TIP3    H225728   3.575   7.560   0.437  0.0589 -0.3172  0.1973
 8595TIP3   OH225729   3.792   1.484   5.770  0.1831 -0.2128 -0.3166
 8595TIP3    H125730   3.707   1.464   5.810  0.8262 -2.9111 -0.1207
 8595TIP3    H225731   3.838   1.534   5.837 -0.1138 -1.4780  0.8824
 8596TIP3   OH225732   3.312   3.050   1.324  0.0402 -0.3013  0.4198
 8596TIP3    H125733   3.400   3.056   1.362  0.0820  0.4010  0.2359
 8596TIP3    H225734   3.254   3.051   1.400  0.1698 -0.0665  0.5199
 8597TIP3   OH225735   3.585   7.355   4.757  0.1462  0.1029 -0.1217
 8597TIP3    H125736   3.530   7.335   4.681 -0.5372 -0.1506  0.4302
 8597TIP3    H225737   3.524   7.382   4.825  0.5895 -1.1420  0.8156
 8598TIP3   OH225738   1.367   7.783   1.046 -0.5816  0.4698  0.1685
 8598TIP3    H125739   1.375   7.714   1.111 -1.3874  1.9912  1.9760
 8598TIP3    H225740   1.332   7.858   1.094 -2.3421  1.3486 -2.2348
 8599TIP3   OH225741   2.719   1.960   6.448  0.1617  0.6179 -0.4102
 8599TIP3    H125742   2.661   1.916   6.511 -1.3941  3.2491  0.1451
 8599TIP3    H225743   2.801   1.973   6.496  0.4392 -1.0462 -0.3834
 8600TIP3   OH225744   3.678   3.687   4.032  0.4432 -0.2759 -0.1399
 8600TIP3    H125745   3.660   3.637   3.953 -1.5647 -0.0779  0.1351
 8600TIP3    H225746   3.637   3.636   4.102  2.7779 -0.8115  0.9305
 8601TIP3   OH225747   1.449   6.988   6.125  0.5648  0.2857 -0.4319
 8601TIP3    H125748   1.524   6.986   6.066  0.7719 -0.5374 -0.1566
 8601TIP3    H225749   1.387   6.926   6.086  0.4847  0.1456 -0.0853
 8602TIP3   OH225750   3.481   4.621   0.336  0.6262 -0.3905 -0.3217
 8602TIP3    H125751   3.513   4.651   0.421 -1.5378  0.6893  0.1802
 8602TIP3    H225752   3.495   4.527   0.337  0.4113 -0.4341  1.3458
 8603TIP3   OH225753   8.179   0.588   3.504 -0.2028 -0.4437 -0.1809
 8603TIP3    H125754   8.263   0.542   3.504  0.1133  0.1358 -0.1946
 8603TIP3    H225755   8.195   0.669   3.552 -0.6257 -0.1062 -0.5970
 8604TIP3   OH225756   2.244   1.443   1.890  0.6405 -0.0223 -0.4338
 8604TIP3    H125757   2.159   1.445   1.932  1.0791 -0.0928  0.4916
 8604TIP3    H225758   2.303   1.409   1.957  1.2223 -0.9187 -1.3773
 8605TIP3   OH225759   3.236   3.919   6.075  0.1603  0.2282  0.0138
 8605TIP3    H125760   3.243   3.963   6.159 -0.1958 -2.1756  1.3827
 8605TIP3    H225761   3.142   3.905   6.062  0.3297 -2.7361  1.1610
 8606TIP3   OH225762   7.888   7.140   6.175 -0.3255  0.0503  0.0579
 8606TIP3    H125763   7.885   7.235   6.160  1.9763  0.3246  0.9249
 8606TIP3    H225764   7.800   7.110   6.153 -1.2802  2.4519  0.2549
 8607TIP3   OH225765   6.623   3.259   3.092  0.8045 -0.5475  0.1113
 8607TIP3    H125766   6.699   3.258   3.034 -0.2163  0.7895 -1.3205
 8607TIP3    H225767   6.563   3.194   3.054 -0.1499  0.8124 -0.7923
 8608TIP3   OH225768   4.528   4.447   2.753  0.3655  0.2042 -0.0338
 8608TIP3    H125769   4.495   4.427   2.665 -3.7581 -0.3587  1.4205
 8608TIP3    H225770   4.494   4.534   2.772  2.6330  1.0458  0.4914
 8609TIP3   OH225771   5.087   0.940   3.042  0.0812 -0.0305  0.4198
 8609TIP3    H125772   5.066   0.904   3.128 -0.6839  0.1685  0.3288
 8609TIP3    H225773   5.166   0.894   3.015  0.6654  0.3096  1.4715
 8610TIP3   OH225774   1.572   7.693   2.706 -0.2022  0.2380  0.6022
 8610TIP3    H125775   1.490   7.717   2.664 -0.5643  1.1743  1.7836
 8610TIP3    H225776   1.635   7.760   2.678  0.6346 -1.3460 -1.5682
 8611TIP3   OH225777   2.999   2.454   3.140  0.7339 -0.2935 -0.6348
 8611TIP3    H125778   2.932   2.407   3.091  0.0239  0.0602 -0.0311
 8611TIP3    H225779   2.967   2.544   3.144  0.2236 -0.5034  1.3404
 8612TIP3   OH225780   5.425   2.742   6.083  0.7125 -0.7622  0.2466
 8612TIP3    H125781   5.330   2.753   6.076  0.4863 -2.8447 -0.3898
 8612TIP3    H225782   5.457   2.829   6.110 -1.1271  0.5780 -1.5826
 8613TIP3   OH225783   7.008   2.532   4.311 -0.3836 -0.3215  0.6149
 8613TIP3    H125784   7.023   2.545   4.405  2.3413 -0.5213  0.3002
 8613TIP3    H225785   7.084   2.483   4.282 -1.2613 -0.4170 -1.6959
 8614TIP3   OH225786   4.276   2.247   3.033 -0.2931  0.1767 -0.5028
 8614TIP3    H125787   4.262   2.198   3.114  0.1455  0.9867  0.0830
 8614TIP3    H225788   4.363   2.286   3.044  0.0267 -0.1999 -1.6304
 8615TIP3   OH225789   2.690   0.215   4.014  0.6582  0.2214  0.4526
 8615TIP3    H125790   2.675   0.133   4.062  0.3749 -1.0400 -1.6544
 8615TIP3    H225791   2.605   0.259   4.015 -0.3944 -1.5369 -1.8624
 8616TIP3   OH225792   6.179   3.716   4.633  0.5927 -0.2813  0.0112
 8616TIP3    H125793   6.241   3.693   4.703 -0.3027  1.5794  1.4972
 8616TIP3    H225794   6.167   3.811   4.641 -1.7226 -0.4290 -0.8324
 8617TIP3   OH225795   3.527   7.451   0.955 -0.2214  0.1274 -0.3426
 8617TIP3    H125796   3.597   7.512   0.978 -0.5815  0.2660  0.3962
 8617TIP3    H225797   3.572   7.381   0.906  0.4680  0.1091  0.3030
 8618TIP3   OH225798   7.754   5.767   4.718  0.5376 -0.3279 -0.0819
 8618TIP3    H125799   7.666   5.732   4.712  0.8040 -0.9459 -0.4041
 8618TIP3    H225800   7.790   5.729   4.798  0.9877 -1.1750 -0.6735
 8619TIP3   OH225801   6.136   6.668   6.296 -0.3008 -0.3070  0.2964
 8619TIP3    H125802   6.079   6.596   6.269 -0.9377  0.2278  0.1711
 8619TIP3    H225803   6.098   6.745   6.252  0.2432  0.1311  0.5952
 8620TIP3   OH225804   5.509   1.939   6.569  0.1207 -0.1836  0.0812
 8620TIP3    H125805   5.572   2.011   6.567 -0.4559  0.3701  1.0009
 8620TIP3    H225806   5.552   1.871   6.621 -0.1492  0.3175  0.9811
 8621TIP3   OH225807   0.671   4.272   2.913  0.1154  0.1889  0.8147
 8621TIP3    H125808   0.658   4.178   2.925 -0.1175  0.2618  1.1414
 8621TIP3    H225809   0.681   4.282   2.818  1.0225 -0.2675  0.8547
 8622TIP3   OH225810   5.582   7.543   3.667  0.6677  0.2009 -0.3351
 8622TIP3    H125811   5.618   7.511   3.584 -2.5482  0.6571 -2.0792
 8622TIP3    H225812   5.564   7.636   3.651  1.4199  0.6884  1.4583
 8623TIP3   OH225813   0.873   4.541   2.584 -0.2740 -0.1164 -0.6501
 8623TIP3    H125814   0.879   4.468   2.645  0.4276 -1.0048 -1.7323
 8623TIP3    H225815   0.945   4.600   2.609 -1.6454  0.9180  1.0637
 8624TIP3   OH225816   7.077   2.274   0.464 -0.4108  0.1191  0.1039
 8624TIP3    H125817   7.075   2.355   0.514  1.9967  0.6966 -0.6181
 8624TIP3    H225818   7.108   2.208   0.526  0.1140  0.3099  0.0533
 8625TIP3   OH225819   4.080   1.629   6.791  0.0571  0.3476  0.4476
 8625TIP3    H125820   4.037   1.544   6.794  0.3100  0.2210  0.4631
 8625TIP3    H225821   4.139   1.624   6.716  1.0121  0.0619  1.2115
 8626TIP3   OH225822   4.492   0.849   3.145 -0.0545 -0.4293  0.1040
 8626TIP3    H125823   4.485   0.907   3.069  2.2562  0.1515  0.2647
 8626TIP3    H225824   4.440   0.772   3.121 -0.4402  0.2920 -1.5002
 8627TIP3   OH225825   6.806   5.145   6.082 -0.0224  0.4807 -0.5868
 8627TIP3    H125826   6.875   5.083   6.105  0.1548  0.1883 -1.8336
 8627TIP3    H225827   6.847   5.205   6.020 -0.7984  0.4775 -1.1234
 8628TIP3   OH225828   6.786   0.640   3.108  0.1401  0.1736 -0.1019
 8628TIP3    H125829   6.810   0.630   3.015  2.4934  0.2632  0.4226
 8628TIP3    H225830   6.718   0.707   3.108 -0.7478 -0.6425 -1.8392
 8629TIP3   OH225831   3.844   6.307   1.099  0.0650  0.1299 -0.2842
 8629TIP3    H125832   3.888   6.316   1.014  0.9461 -1.6899 -0.0754
 8629TIP3    H225833   3.915   6.312   1.163 -0.5418  1.0388  0.3343
 8630TIP3   OH225834   5.179   4.529   2.794  0.1349  0.5484  0.5498
 8630TIP3    H125835   5.098   4.488   2.764  0.2199 -0.4188  1.6037
 8630TIP3    H225836   5.249   4.473   2.760  0.4381  1.7819 -0.9935
 8631TIP3   OH225837   1.101   1.132   1.048 -0.1635 -0.4054 -0.0876
 8631TIP3    H125838   1.184   1.175   1.027 -0.6846 -0.9450 -4.0165
 8631TIP3    H225839   1.049   1.199   1.091  0.6693  1.5240 -1.9287
 8632TIP3   OH225840   4.348   3.666   5.337 -0.4891 -0.1215  0.1948
 8632TIP3    H125841   4.354   3.571   5.324 -2.1423 -0.1196 -0.9719
 8632TIP3    H225842   4.327   3.700   5.250 -1.3634  1.1525  0.8781
 8633TIP3   OH225843   4.742   6.510   2.586 -0.1439  0.2075  0.1368
 8633TIP3    H125844   4.650   6.505   2.561  0.3548 -0.6847 -1.7542
 8633TIP3    H225845   4.742   6.500   2.681 -1.8769 -1.9562  0.0027
 8634TIP3   OH225846   7.258   5.836   1.242  0.5151 -0.4148  0.0033
 8634TIP3    H125847   7.299   5.808   1.323 -0.5147 -0.2097  0.6156
 8634TIP3    H225848   7.318   5.902   1.206  1.2718 -0.9388  0.2802
 8635TIP3   OH225849   5.108   3.010   6.540  0.1143  0.1473  0.1009
 8635TIP3    H125850   5.134   3.007   6.632 -0.5186 -0.8639  0.2601
 8635TIP3    H225851   5.107   2.919   6.511 -2.3477  0.1616 -0.1201
 8636TIP3   OH225852   4.547   3.521   2.345 -0.4887  0.1424  0.0848
 8636TIP3    H125853   4.601   3.445   2.323  0.2019  0.9103 -0.9961
 8636TIP3    H225854   4.596   3.567   2.412 -1.1194 -0.5799  1.0616
 8637TIP3   OH225855   7.038   6.726   0.256  0.3987 -0.1635  0.1390
 8637TIP3    H125856   6.974   6.709   0.325 -0.3049  1.5465 -0.0524
 8637TIP3    H225857   7.094   6.795   0.291  1.6302 -1.0291 -0.0461
 8638TIP3   OH225858   0.907   2.962   5.694 -0.3261  0.1815  0.2184
 8638TIP3    H125859   0.988   3.011   5.706  0.0359 -0.7313  1.7369
 8638TIP3    H225860   0.890   2.966   5.600  2.6843 -1.5059 -0.4943
 8639TIP3   OH225861   2.100   0.843   2.385  0.4299  0.6319 -0.6608
 8639TIP3    H125862   2.192   0.822   2.373  0.4962  0.0146  0.6976
 8639TIP3    H225863   2.054   0.760   2.370  0.1578  0.8060 -0.7938
 8640TIP3   OH225864   3.940   3.856   3.312 -0.5164  0.1348 -0.1719
 8640TIP3    H125865   4.017   3.842   3.256  0.9606  0.1407  1.7593
 8640TIP3    H225866   3.875   3.794   3.278  0.8708 -0.9961 -0.9072
 8641TIP3   OH225867   1.555   5.305   5.945  0.1285  0.2701 -0.0701
 8641TIP3    H125868   1.651   5.297   5.938  0.1982  0.7122  0.3007
 8641TIP3    H225869   1.540   5.400   5.951 -0.4636  0.3126 -1.7512
 8642TIP3   OH225870   5.329   2.795   1.480  0.5062  0.2998  0.1047
 8642TIP3    H125871   5.369   2.756   1.401 -0.6769  0.8154 -0.7793
 8642TIP3    H225872   5.402   2.841   1.523  0.7023  2.3728 -2.1804
 8643TIP3   OH225873   3.479   2.904   2.333  0.1879  0.1088 -0.0104
 8643TIP3    H125874   3.420   2.829   2.340 -2.0192  1.6087 -1.3705
 8643TIP3    H225875   3.548   2.886   2.398 -1.6704 -1.8040  1.5959
 8644TIP3   OH225876   7.650   0.016   4.359  0.3227 -0.0910  0.2099
 8644TIP3    H125877   7.731   0.004   4.310 -0.5318 -0.7360 -1.0991
 8644TIP3    H225878   7.581   0.001   4.295 -0.8499  1.6389  0.9947
 8645TIP3   OH225879   1.044   7.359   0.547 -0.2002  0.1346 -0.6351
 8645TIP3    H125880   1.120   7.394   0.593 -0.6580 -1.4662  1.4784
 8645TIP3    H225881   0.984   7.434   0.539  0.6668  0.8757 -0.3265
 8646TIP3   OH225882   0.680   5.116   6.378 -0.0501 -0.0785  0.4507
 8646TIP3    H125883   0.601   5.094   6.327  0.5551  2.6377 -1.9143
 8646TIP3    H225884   0.737   5.040   6.368  0.1223  0.3515 -3.3368
 8647TIP3   OH225885   4.628   1.175   1.304  0.2466  0.2788  0.1420
 8647TIP3    H125886   4.723   1.167   1.294  0.4181  0.4207  1.4653
 8647TIP3    H225887   4.613   1.268   1.318 -0.1470  0.3222 -0.5470
 8648TIP3   OH225888   7.916   3.624   6.615 -0.0965 -0.5014  0.1161
 8648TIP3    H125889   7.914   3.708   6.569  0.5496 -0.6763 -0.2517
 8648TIP3    H225890   7.866   3.639   6.695  0.0600  0.2538  0.0843
 8649TIP3   OH225891   0.130   2.881   6.384 -0.1751 -0.1309  0.5132
 8649TIP3    H125892   0.219   2.860   6.414 -0.3203 -1.9731 -0.1784
 8649TIP3    H225893   0.079   2.890   6.464  0.4504  0.0675  0.9025
 8650TIP3   OH225894   7.506   5.052   6.153  0.1460 -0.5180 -0.1637
 8650TIP3    H125895   7.554   5.094   6.081 -1.0017 -1.6158 -1.6162
 8650TIP3    H225896   7.414   5.074   6.137 -0.0334  0.2822  1.7211
 8651TIP3   OH225897   2.035   1.066   5.047 -0.2229 -0.1244  0.5664
 8651TIP3    H125898   2.027   0.971   5.040 -1.7014  0.0617 -0.6893
 8651TIP3    H225899   2.099   1.089   4.980  0.5605 -0.2768  1.2520
 8652TIP3   OH225900   1.411   2.935   5.070 -0.1651  0.2615  0.1177
 8652TIP3    H125901   1.342   2.871   5.052 -1.4802  1.0399  2.0308
 8652TIP3    H225902   1.386   3.012   5.018 -0.4704  0.3519  0.3907
 8653TIP3   OH225903   5.997   3.636   4.445 -0.0367 -0.2824 -0.0892
 8653TIP3    H125904   6.030   3.675   4.526 -1.7593  0.1885  0.4270
 8653TIP3    H225905   6.049   3.556   4.434  1.6389  0.6963  0.3414
 8654TIP3   OH225906   1.570   3.202   6.478 -0.5998 -0.3152 -0.2200
 8654TIP3    H125907   1.479   3.218   6.452 -0.0695  1.4931 -1.1606
 8654TIP3    H225908   1.602   3.136   6.417 -0.6871  0.5910 -1.2740
 8655TIP3   OH225909   0.428   4.986   1.364 -0.0318  0.4022 -0.4732
 8655TIP3    H125910   0.416   4.973   1.270 -1.1833  2.1394 -0.6224
 8655TIP3    H225911   0.475   5.070   1.370 -2.3728  1.7239  0.5132
 8656TIP3   OH225912   4.258   2.272   0.536 -0.0279  0.3443  0.0315
 8656TIP3    H125913   4.328   2.237   0.590  0.2258 -1.7750 -1.5662
 8656TIP3    H225914   4.302   2.323   0.469 -0.2686  1.8144  0.9382
 8657TIP3   OH225915   4.601   7.449   0.395 -0.6758  0.3323  0.9280
 8657TIP3    H125916   4.631   7.538   0.415 -2.0156  2.0755 -3.5427
 8657TIP3    H225917   4.506   7.452   0.409 -0.7521 -0.3453  0.5905
 8658TIP3   OH225918   0.662   1.562   4.350 -0.0916  0.2460  0.4936
 8658TIP3    H125919   0.757   1.558   4.344  0.0388  2.3025  0.7026
 8658TIP3    H225920   0.642   1.654   4.368 -2.2190  0.1899 -1.1721
 8659TIP3   OH225921   7.666   1.509   1.357 -0.3784  0.1751 -0.0431
 8659TIP3    H125922   7.650   1.426   1.402  0.3237  0.7068  1.2751
 8659TIP3    H225923   7.586   1.559   1.369 -0.6251 -0.1332 -0.4117
 8660TIP3   OH225924   2.515   1.875   1.826 -0.1665 -1.0524 -0.1363
 8660TIP3    H125925   2.442   1.894   1.885  0.5240 -0.7726  0.6493
 8660TIP3    H225926   2.532   1.958   1.782 -0.0300 -1.0039  0.0092
 8661TIP3   OH225927   4.880   6.790   3.294 -0.0966  0.3567 -0.1509
 8661TIP3    H125928   4.913   6.790   3.384 -1.1525  0.6854  0.2540
 8661TIP3    H225929   4.863   6.882   3.275 -0.9602  0.1791 -0.2666
 8662TIP3   OH225930   7.103   4.065   2.334  0.1738 -0.1270  0.1193
 8662TIP3    H125931   7.033   4.049   2.271  2.7353 -0.2123 -2.9662
 8662TIP3    H225932   7.144   4.147   2.306  2.1640 -0.7742  0.8941
 8663TIP3   OH225933   3.907   0.710   2.238 -0.2559 -0.1165 -0.6762
 8663TIP3    H125934   3.927   0.803   2.242 -0.2356 -0.1762  1.6603
 8663TIP3    H225935   3.900   0.682   2.329 -0.5894 -2.3434 -1.3121
 8664TIP3   OH225936   6.838  -0.021   0.302  0.2942 -0.7594 -0.7864
 8664TIP3    H125937   6.910   0.006   0.245 -0.3335  0.8157 -0.8881
 8664TIP3    H225938   6.803   0.061   0.337  0.4815 -1.6415  1.6834
 8665TIP3   OH225939   5.106   7.320   6.768  0.1933  0.0556 -0.3385
 8665TIP3    H125940   5.138   7.404   6.735  0.2979  0.1486 -0.0027
 8665TIP3    H225941   5.016   7.339   6.797  0.0083 -0.0867 -0.8063
 8666TIP3   OH225942   7.505   6.516   0.085 -0.9305 -0.2740  1.1588
 8666TIP3    H125943   7.417   6.505   0.121 -1.4154 -0.8759 -0.1457
 8666TIP3    H225944   7.503   6.469   0.002 -0.1117  1.7098 -0.0545
 8667TIP3   OH225945   4.096   6.256   2.494 -0.5438  0.0858  0.1601
 8667TIP3    H125946   4.143   6.340   2.494 -2.1875  1.0647 -0.8055
 8667TIP3    H225947   4.136   6.206   2.566  1.3242  1.1843 -0.0380
 8668TIP3   OH225948   4.923   4.920   6.464  0.8115 -0.0580 -0.2068
 8668TIP3    H125949   4.876   4.949   6.543 -0.3613  2.4611 -1.6944
 8668TIP3    H225950   4.853   4.907   6.400  1.9409  2.1478 -2.0113
 8669TIP3   OH225951   2.998   6.527   2.183 -0.5463  0.3629 -0.1283
 8669TIP3    H125952   2.973   6.614   2.151  1.1001  0.7901 -0.3401
 8669TIP3    H225953   2.966   6.467   2.115  0.4891  1.0291 -1.2573
 8670TIP3   OH225954   6.836   0.402   2.136  0.8299  0.2034  0.2729
 8670TIP3    H125955   6.889   0.419   2.058  1.7594 -1.1344  0.5758
 8670TIP3    H225956   6.864   0.316   2.166 -1.2276 -0.3897  0.7090
 8671TIP3   OH225957   2.586   7.547   4.473 -0.0633  0.5969 -0.5415
 8671TIP3    H125958   2.556   7.629   4.512 -1.2433 -0.0388 -0.0746
 8671TIP3    H225959   2.520   7.527   4.407 -0.1544 -0.3299 -0.1797
 8672TIP3   OH225960   5.431   5.271   1.671 -0.1579  0.3602  0.2586
 8672TIP3    H125961   5.397   5.277   1.582  0.7998  0.5314 -0.1138
 8672TIP3    H225962   5.439   5.362   1.700  1.2056  0.3997 -0.1629
 8673TIP3   OH225963   0.442   1.807   3.504  0.7991 -0.7658 -0.3804
 8673TIP3    H125964   0.405   1.871   3.445  1.4401  0.5872  0.6346
 8673TIP3    H225965   0.447   1.726   3.453 -4.1091 -1.3190 -0.4073
 8674TIP3   OH225966   4.042   4.879   4.501  0.3876  0.4376 -0.5218
 8674TIP3    H125967   4.088   4.874   4.417 -0.7442 -0.8513 -1.1217
 8674TIP3    H225968   3.998   4.794   4.509  0.5976  0.4623  1.4698
 8675TIP3   OH225969   2.351   2.970   2.242  0.1132 -0.3979 -0.2619
 8675TIP3    H125970   2.272   2.955   2.190  0.1462 -1.5149 -0.0115
 8675TIP3    H225971   2.319   2.975   2.332  0.3305 -0.9287 -0.1526
 8676TIP3   OH225972   7.252   6.871   0.355  0.2802  0.0742 -0.1330
 8676TIP3    H125973   7.320   6.840   0.295 -0.1250 -0.6169 -0.2390
 8676TIP3    H225974   7.270   6.965   0.364  0.3495  0.1898 -1.3334
 8677TIP3   OH225975   3.844   5.634   0.012  0.2811  0.0012  0.4930
 8677TIP3    H125976   3.866   5.723  -0.017  0.3551  0.2803  1.3613
 8677TIP3    H225977   3.924   5.602   0.053 -0.1488  0.0736  1.4281
 8678TIP3   OH225978   7.357   2.221   2.427  0.1878  0.3497  0.1787
 8678TIP3    H125979   7.306   2.295   2.393 -0.1996 -0.4876 -1.1548
 8678TIP3    H225980   7.440   2.225   2.379  0.1655 -0.0576  0.0980
 8679TIP3   OH225981   3.796   4.168   4.370 -0.1054  0.1105  0.7288
 8679TIP3    H125982   3.801   4.255   4.409  0.2039  0.5176 -0.1934
 8679TIP3    H225983   3.780   4.184   4.277  2.8971 -0.6731 -0.0294
 8680TIP3   OH225984   1.998   4.833   2.360  0.5431  0.3194 -0.0393
 8680TIP3    H125985   1.980   4.820   2.453  0.4363  3.1717  0.4429
 8680TIP3    H225986   1.912   4.841   2.320  0.5907 -0.8704 -0.3998
 8681TIP3   OH225987   6.180   6.904   4.214  0.2770 -0.5160  0.5724
 8681TIP3    H125988   6.274   6.922   4.202 -0.2341  2.6214  0.3166
 8681TIP3    H225989   6.148   6.979   4.264 -2.3728 -0.7353 -0.6280
 8682TIP3   OH225990   2.558   4.232   2.529  0.0182  0.3703  0.1092
 8682TIP3    H125991   2.484   4.247   2.587  0.9458  1.7029  1.0084
 8682TIP3    H225992   2.625   4.192   2.585 -0.4798 -2.3309 -1.0286
 8683TIP3   OH225993   1.324   5.949   6.454 -0.0914  0.0132  0.2083
 8683TIP3    H125994   1.286   5.867   6.484 -1.6526  0.1428 -1.2396
 8683TIP3    H225995   1.360   5.989   6.533 -0.2387 -1.5635  1.1162
 8684TIP3   OH225996   8.196   3.869   3.243  0.2852 -0.0537  0.1860
 8684TIP3    H125997   8.115   3.912   3.270 -0.0342 -1.3916  1.4515
 8684TIP3    H225998   8.168   3.802   3.181  0.9982  2.9719 -3.8217
 8685TIP3   OH225999   2.369   3.176   0.526 -0.1390  0.1577 -0.4973
 8685TIP3    H126000   2.289   3.164   0.475 -0.5398 -0.5537  0.2677
 8685TIP3    H226001   2.410   3.089   0.528 -1.8330 -0.7767  3.0900
 8686TIP3   OH226002   1.703   1.909   4.867  0.1686  0.7259  0.1141
 8686TIP3    H126003   1.780   1.867   4.828  0.4382  0.5915  0.7660
 8686TIP3    H226004   1.631   1.888   4.809  0.4353 -0.0483  0.0588
 8687TIP3   OH226005   0.958   2.095   3.898 -0.3159 -0.0432 -0.1210
 8687TIP3    H126006   0.915   2.180   3.910 -1.7257 -0.4269 -1.9751
 8687TIP3    H226007   0.885   2.033   3.885  0.7323 -1.1327 -1.0034
 8688TIP3   OH226008   0.308   4.382   6.279  0.2389 -0.4246  0.1329
 8688TIP3    H126009   0.269   4.454   6.329  0.9377 -0.8290  1.3042
 8688TIP3    H226010   0.355   4.425   6.208 -1.1410  0.1449 -0.4689
 8689TIP3   OH226011   5.429   7.738   1.258 -0.3490  0.2793  0.2217
 8689TIP3    H126012   5.434   7.657   1.307 -1.7401 -0.2144 -0.3982
 8689TIP3    H226013   5.518   7.751   1.224  0.0101 -0.7117  0.7436
 8690TIP3   OH226014   4.400   6.908   1.726 -0.1345  0.1549 -0.0014
 8690TIP3    H126015   4.311   6.913   1.760  0.0820  1.6869  0.4379
 8690TIP3    H226016   4.450   6.967   1.783  0.7949  0.6567 -1.2999
 8691TIP3   OH226017   1.826   5.105   4.703  0.3115  0.2548 -0.4688
 8691TIP3    H126018   1.865   5.068   4.782 -0.0411 -0.6793 -0.7175
 8691TIP3    H226019   1.900   5.129   4.648  0.5527 -0.0241 -0.2688
 8692TIP3   OH226020   7.811   4.867   6.274  0.3920 -0.3562  0.2193
 8692TIP3    H126021   7.876   4.856   6.343 -0.1465  0.4334  0.8741
 8692TIP3    H226022   7.773   4.953   6.291 -0.7555 -0.7677 -0.2135
 8693TIP3   OH226023   4.165   0.268   6.030  0.2356 -0.6100  0.2808
 8693TIP3    H126024   4.137   0.188   5.985 -1.4600  0.9964 -1.7266
 8693TIP3    H226025   4.093   0.288   6.091 -0.2212  0.3221 -0.5426
 8694TIP3   OH226026   3.153   5.140   1.993 -0.0755  0.2867 -0.1690
 8694TIP3    H126027   3.159   5.082   2.069  0.9136 -0.6071 -0.8955
 8694TIP3    H226028   3.063   5.172   1.995 -0.2206 -0.1245  1.0774
 8695TIP3   OH226029   3.085   2.672   4.528 -0.3505 -0.3150  0.4595
 8695TIP3    H126030   3.042   2.733   4.468  0.1933 -0.2308  0.1497
 8695TIP3    H226031   3.105   2.595   4.474 -1.1755 -0.8398  0.8844
 8696TIP3   OH226032   8.274   1.233   0.384 -0.2136 -0.5681 -0.1311
 8696TIP3    H126033   8.229   1.170   0.441 -0.2779  0.6916  1.2968
 8696TIP3    H226034   8.304   1.301   0.444 -0.0114  0.6815 -1.6004
 8697TIP3   OH226035   0.110   3.620   1.804  0.0986  0.3151 -0.0931
 8697TIP3    H126036   0.184   3.667   1.843 -0.0156  0.5470 -0.1545
 8697TIP3    H226037   0.148   3.538   1.772 -0.2437 -1.1196  2.8192
 8698TIP3   OH226038   7.957   4.520   3.021 -0.0828  0.2259  0.4010
 8698TIP3    H126039   7.973   4.613   3.002 -0.9813  0.2666 -0.2142
 8698TIP3    H226040   7.862   4.515   3.037  0.0003 -0.5450  0.7128
 8699TIP3   OH226041   1.117   3.875   4.805 -0.2099 -0.3129  0.3745
 8699TIP3    H126042   1.095   3.967   4.788  0.1180 -0.1667  0.7279
 8699TIP3    H226043   1.209   3.867   4.779  0.0366 -0.3067  1.2080
 8700TIP3   OH226044   5.842   1.088   0.547 -0.3759  0.1463  0.6111
 8700TIP3    H126045   5.842   1.157   0.613  1.9126  1.0900 -0.2532
 8700TIP3    H226046   5.894   1.124   0.475  0.6324 -2.3121 -0.0043
 8701TIP3   OH226047   6.646   3.518   5.693 -0.1923 -0.9514  0.0507
 8701TIP3    H126048   6.715   3.466   5.652  0.2403  0.5599 -1.1936
 8701TIP3    H226049   6.574   3.517   5.630  0.2838  0.9542 -0.5655
 8702TIP3   OH226050   7.272   1.945   3.685  0.4653  0.3412 -1.0510
 8702TIP3    H126051   7.312   1.885   3.621  0.7796 -0.3785 -0.1992
 8702TIP3    H226052   7.185   1.909   3.700  0.1962  0.8132 -1.4647
 8703TIP3   OH226053   5.786   6.998   2.533  0.1599  0.3122  0.0663
 8703TIP3    H126054   5.871   6.961   2.558 -1.2605 -0.4372  4.9458
 8703TIP3    H226055   5.723   6.929   2.554 -1.8319  1.7247 -1.0126
 8704TIP3   OH226056   4.392   6.463   5.138 -0.1228 -0.1727 -0.4401
 8704TIP3    H126057   4.346   6.440   5.218  1.5327 -0.7283  0.4068
 8704TIP3    H226058   4.367   6.554   5.121 -2.1540 -0.6937 -0.5307
 8705TIP3   OH226059   4.530   2.568   6.423  0.0371  0.0202 -0.2904
 8705TIP3    H126060   4.494   2.507   6.358 -0.4341  1.9733 -1.9721
 8705TIP3    H226061   4.453   2.602   6.468  0.1695  0.5219 -0.4418
 8706TIP3   OH226062   0.767   6.039   6.053  0.0893  0.1394 -0.4893
 8706TIP3    H126063   0.760   6.078   6.140  1.1588 -0.6307 -0.0367
 8706TIP3    H226064   0.803   6.109   5.998 -0.7475  0.6798 -0.3652
 8707TIP3   OH226065   3.507   5.873   3.673  0.7578 -0.5819 -0.1930
 8707TIP3    H126066   3.562   5.934   3.623 -0.0457  0.3683  0.0381
 8707TIP3    H226067   3.568   5.807   3.706  1.4855 -0.5662 -1.4247
 8708TIP3   OH226068   0.826   2.731   6.700 -0.0609 -0.5897 -0.0694
 8708TIP3    H126069   0.744   2.760   6.740 -2.0760 -2.3715 -2.5510
 8708TIP3    H226070   0.817   2.636   6.695  2.9696 -1.0315  1.0417
 8709TIP3   OH226071   2.108   3.801   4.737  0.7214 -0.1506  0.0654
 8709TIP3    H126072   2.060   3.765   4.812 -0.2884 -1.4383 -1.1198
 8709TIP3    H226073   2.117   3.894   4.755 -2.5237  0.2322  0.2741
 8710TIP3   OH226074   7.843   7.297   1.405  0.0374 -0.3012  0.2134
 8710TIP3    H126075   7.831   7.307   1.310 -1.8930 -1.4095  0.3062
 8710TIP3    H226076   7.809   7.378   1.442  1.3974  0.4191 -0.0372
 8711TIP3   OH226077   7.132   1.511   2.830  0.1764 -0.5055 -0.2729
 8711TIP3    H126078   7.220   1.547   2.835 -0.6619  1.5671  0.8136
 8711TIP3    H226079   7.086   1.566   2.766 -1.0690  0.3091  1.2402
 8712TIP3   OH226080   4.644   7.644   2.560  0.1734  0.5268  0.1933
 8712TIP3    H126081   4.666   7.599   2.641 -1.0089  0.7768  0.6607
 8712TIP3    H226082   4.646   7.737   2.583 -0.5078  0.5860  0.0201
 8713TIP3   OH226083   0.279   5.473   0.982 -0.1198  0.3764 -0.3205
 8713TIP3    H126084   0.374   5.461   0.984  0.0302  1.4923 -0.1130
 8713TIP3    H226085   0.262   5.523   0.902 -0.5043  0.4270 -0.2123
 8714TIP3   OH226086   7.471   0.757   5.011 -0.3312  0.4604  0.4445
 8714TIP3    H126087   7.516   0.687   4.965 -0.5141 -0.0764  1.0659
 8714TIP3    H226088   7.383   0.758   4.975 -0.7573 -0.5749  1.4025
 8715TIP3   OH226089   4.454   6.832   4.172  0.2316 -0.0653  0.0271
 8715TIP3    H126090   4.441   6.802   4.082  0.4527  0.8676 -0.3224
 8715TIP3    H226091   4.549   6.829   4.184  0.3076  1.0221 -0.2080
 8716TIP3   OH226092   6.399   1.761   6.131  0.3749  0.3329 -0.6744
 8716TIP3    H126093   6.309   1.776   6.104  0.3473  0.2390 -0.6343
 8716TIP3    H226094   6.410   1.815   6.210  0.0256 -0.4816 -0.0503
 8717TIP3   OH226095   5.308   1.755   0.119  0.3441  0.2302  0.5013
 8717TIP3    H126096   5.228   1.782   0.075  0.8659 -1.6916 -1.8832
 8717TIP3    H226097   5.285   1.672   0.162  1.0150 -0.3764 -0.2648
 8718TIP3   OH226098   4.941   6.993   5.139 -0.2182 -0.0786 -0.7665
 8718TIP3    H126099   4.872   6.935   5.171  1.6939 -1.0146  1.9900
 8718TIP3    H226100   4.974   6.951   5.060  0.0863 -1.9724  0.3283
 8719TIP3   OH226101   4.847   7.516   0.052  0.0223  0.1856 -0.0942
 8719TIP3    H126102   4.757   7.491   0.070 -0.4424  1.5643 -0.4227
 8719TIP3    H226103   4.860   7.499  -0.041 -0.6983  2.2141 -0.6228
 8720TIP3   OH226104   2.658   6.803   3.885  0.0190 -0.0012  0.0500
 8720TIP3    H126105   2.588   6.819   3.822 -0.0799  1.4678  0.4908
 8720TIP3    H226106   2.735   6.784   3.832 -0.5894 -1.1420 -0.4487
 8721TIP3   OH226107   4.538   4.760   3.841 -0.3341  0.0862 -0.0630
 8721TIP3    H126108   4.572   4.831   3.787 -0.0870 -0.8574 -1.1881
 8721TIP3    H226109   4.471   4.718   3.786 -1.5934  0.3833  1.1698
 8722TIP3   OH226110   3.942   6.412   6.039  0.2417  0.5563 -0.6122
 8722TIP3    H126111   3.942   6.331   5.988  0.7066  0.9992 -1.3445
 8722TIP3    H226112   3.850   6.429   6.059 -0.0599  0.8700 -2.1363
 8723TIP3   OH226113   5.989   2.230   3.250  0.0811  0.0566 -0.2880
 8723TIP3    H126114   5.898   2.202   3.247 -0.1399  0.5767  0.8308
 8723TIP3    H226115   6.018   2.205   3.338  0.4254  1.5872  0.0729
 8724TIP3   OH226116   6.916   5.300   3.260  0.2084  0.2851 -0.3585
 8724TIP3    H126117   6.930   5.309   3.165  0.2398  2.0452 -0.2218
 8724TIP3    H226118   6.859   5.373   3.282 -0.2581 -0.4402  0.9102
 8725TIP3   OH226119   2.213   0.196   1.275 -0.1751  0.4447  0.4316
 8725TIP3    H126120   2.287   0.255   1.289 -0.1830  0.5609 -0.0172
 8725TIP3    H226121   2.202   0.193   1.180  2.3011 -3.2837  0.0370
 8726TIP3   OH226122   5.900   2.487   0.052  0.2081  0.0810  0.3930
 8726TIP3    H126123   5.948   2.436  -0.014 -2.3375 -0.5592 -1.1170
 8726TIP3    H226124   5.966   2.512   0.116  1.8276 -4.6031  0.9432
 8727TIP3   OH226125   6.632   6.273   1.432 -0.2375 -0.1435 -0.0135
 8727TIP3    H126126   6.684   6.309   1.504  0.0713 -0.8145  0.1032
 8727TIP3    H226127   6.638   6.178   1.442 -0.6153 -0.2398 -0.6228
 8728TIP3   OH226128   4.977   6.266   3.984  0.2763 -0.1271 -0.1771
 8728TIP3    H126129   4.950   6.175   3.970  2.1138 -0.5530 -1.2178
 8728TIP3    H226130   5.072   6.263   3.981  0.3546  1.8856 -0.4374
 8729TIP3   OH226131   6.647   5.771   3.346  0.4134  0.6979 -0.6974
 8729TIP3    H126132   6.640   5.851   3.295 -3.6560 -0.2757 -1.9926
 8729TIP3    H226133   6.666   5.703   3.281  1.7597  0.2668  0.1046
 8730TIP3   OH226134   3.961   0.342   4.331 -0.0127 -0.1016  0.8345
 8730TIP3    H126135   4.007   0.317   4.412 -1.2647 -0.1934  1.5479
 8730TIP3    H226136   4.031   0.364   4.270  1.0217 -1.2921  1.5264
 8731TIP3   OH226137   2.695   4.497   5.698 -0.6190  0.2365  0.5443
 8731TIP3    H126138   2.642   4.434   5.747  0.2125  0.6601  2.0424
 8731TIP3    H226139   2.777   4.503   5.747 -0.3684  1.8702 -0.0178
 8732TIP3   OH226140   1.645   4.936   5.367 -0.2801 -0.3122  0.1496
 8732TIP3    H126141   1.630   4.849   5.331 -0.1848 -0.2499 -0.0410
 8732TIP3    H226142   1.726   4.966   5.326  0.4978 -0.7281  1.3246
 8733TIP3   OH226143   2.463   1.740   6.238  0.4158  0.1631  0.2112
 8733TIP3    H126144   2.481   1.647   6.221  1.5749  0.6369 -1.3853
 8733TIP3    H226145   2.525   1.764   6.307  2.7665  0.6059 -1.9378
 8734TIP3   OH226146   5.289   7.616   2.536 -0.3091  0.1121 -0.0253
 8734TIP3    H126147   5.332   7.700   2.523 -0.7503  0.0034 -2.8748
 8734TIP3    H226148   5.313   7.590   2.625  1.7911  2.1168  0.0850
 8735TIP3   OH226149   8.257   2.140   6.135 -0.2361 -0.3529 -0.1365
 8735TIP3    H126150   8.202   2.071   6.099 -0.1175 -0.7473  0.4298
 8735TIP3    H226151   8.296   2.102   6.214 -0.1552  0.3477  0.1738
 8736TIP3   OH226152   4.573   5.842   3.953  0.1641 -0.5525 -0.2959
 8736TIP3    H126153   4.513   5.825   4.025 -0.8886  2.6034 -0.2790
 8736TIP3    H226154   4.537   5.791   3.880 -1.2347 -0.4857  0.3168
 8737TIP3   OH226155   5.140   7.165   1.749  0.4564 -0.0428  0.6945
 8737TIP3    H126156   5.210   7.198   1.693 -2.6269  1.6050 -2.6357
 8737TIP3    H226157   5.131   7.073   1.725 -1.9853  0.9636 -3.4985
 8738TIP3   OH226158   2.630   4.980   0.276 -0.1763 -0.4647  0.3859
 8738TIP3    H126159   2.644   4.918   0.204 -0.0629 -0.2994  0.2636
 8738TIP3    H226160   2.673   5.060   0.247 -0.0175 -0.4374  0.6967
 8739TIP3   OH226161   6.518   0.439   2.415 -0.2054 -0.4760  0.0530
 8739TIP3    H126162   6.428   0.407   2.405 -0.0612 -0.5713 -1.1420
 8739TIP3    H226163   6.519   0.481   2.501 -1.4813 -0.1912 -0.0459
 8740TIP3   OH226164   3.633   5.060   5.762 -0.1885  0.1409 -0.2727
 8740TIP3    H126165   3.686   5.133   5.793  0.6095 -0.8214  0.7135
 8740TIP3    H226166   3.661   5.046   5.672 -3.0355  3.4369 -1.9447
 8741TIP3   OH226167   0.218   0.505   5.439 -0.5031  0.3107 -0.4015
 8741TIP3    H126168   0.260   0.517   5.525 -2.5099 -2.4357  1.1293
 8741TIP3    H226169   0.145   0.567   5.440 -0.6400  0.1518  0.0072
 8742TIP3   OH226170   4.568   6.795   2.920 -0.0065 -0.0903 -0.1796
 8742TIP3    H126171   4.605   6.825   2.837  0.0760 -1.2736 -0.5841
 8742TIP3    H226172   4.610   6.711   2.936 -0.7533 -0.3312  0.5675
 8743TIP3   OH226173   5.161   1.081   1.312 -0.0015  0.1894  0.0875
 8743TIP3    H126174   5.175   0.998   1.356 -0.6674 -0.1687 -0.3483
 8743TIP3    H226175   5.096   1.061   1.244 -0.3609  1.1136  0.1445
 8744TIP3   OH226176   1.208   0.094   4.681  0.3703  0.1266  0.2791
 8744TIP3    H126177   1.197   0.010   4.726  1.4720 -0.5603 -0.6815
 8744TIP3    H226178   1.146   0.090   4.608  1.2590 -0.3850 -0.4709
 8745TIP3   OH226179   5.015   7.507   6.296 -0.3498 -0.0964  0.1296
 8745TIP3    H126180   4.984   7.437   6.238 -1.5319  0.3295  0.2173
 8745TIP3    H226181   5.111   7.504   6.288 -0.4222 -1.0751 -0.6211
 8746TIP3   OH226182   7.189   6.408   4.495 -0.1090 -0.0651 -0.1521
 8746TIP3    H126183   7.114   6.351   4.510  0.0654 -0.5243 -0.9685
 8746TIP3    H226184   7.151   6.491   4.464 -0.2260 -1.2601 -3.6047
 8747TIP3   OH226185   2.481   0.808   6.142  0.2036  0.1486  0.5051
 8747TIP3    H126186   2.524   0.879   6.190  1.6371 -0.6640  0.4867
 8747TIP3    H226187   2.481   0.836   6.051  0.0057  0.4836  0.6078
 8748TIP3   OH226188   7.397   6.992   6.547  0.0265 -0.3700  0.7302
 8748TIP3    H126189   7.481   6.984   6.592  1.0743 -0.2525 -1.0774
 8748TIP3    H226190   7.385   7.087   6.536 -0.2941 -0.3918  0.8818
 8749TIP3   OH226191   7.233   1.363   2.195  0.1598 -0.6191  0.0650
 8749TIP3    H126192   7.237   1.456   2.218 -0.7334 -0.3883 -0.6890
 8749TIP3    H226193   7.141   1.340   2.201  0.5665 -2.0334  2.3696
 8750TIP3   OH226194   4.637   2.140   6.322  0.1616  0.1704 -0.5551
 8750TIP3    H126195   4.598   2.130   6.409 -0.2845  1.2769 -0.6219
 8750TIP3    H226196   4.597   2.070   6.270 -0.5589  0.3270 -0.2155
 8751TIP3   OH226197   2.587   6.318   0.346 -0.1180 -0.0837 -0.0916
 8751TIP3    H126198   2.675   6.353   0.343 -0.0505 -0.2588 -0.2080
 8751TIP3    H226199   2.554   6.328   0.256 -0.1288 -0.2336 -0.1056
 8752TIP3   OH226200   5.283   2.157   3.869  0.0808 -0.5945 -0.1909
 8752TIP3    H126201   5.243   2.244   3.875 -0.5538 -0.9009  0.0621
 8752TIP3    H226202   5.273   2.133   3.777  0.6554 -0.2172 -0.3574
 8753TIP3   OH226203   0.075   1.484   0.557 -0.1641  0.0191  0.1270
 8753TIP3    H126204   0.102   1.512   0.645 -1.1229 -2.1030  1.1724
 8753TIP3    H226205   0.107   1.553   0.499  0.0722  1.7414  2.1824
 8754TIP3   OH226206   7.046   5.077   3.612  0.8085 -0.6753 -0.0223
 8754TIP3    H126207   7.105   5.048   3.681  3.0828 -0.1875 -1.6233
 8754TIP3    H226208   7.101   5.132   3.556 -1.2940  0.0949 -1.4520
 8755TIP3   OH226209   5.581   0.319   4.459  0.1925  0.0535  0.1951
 8755TIP3    H126210   5.554   0.408   4.436  1.4091 -0.0046 -1.6195
 8755TIP3    H226211   5.556   0.266   4.385  1.2520 -0.7627  0.3908
 8756TIP3   OH226212   1.114   1.119   5.780  0.0725 -0.5921  0.2232
 8756TIP3    H126213   1.103   1.028   5.809 -3.3521 -0.7182 -0.9510
 8756TIP3    H226214   1.128   1.168   5.861 -0.5698 -1.8950  1.1739
 8757TIP3   OH226215   4.031   7.245   2.529  0.1379 -0.3346  0.1407
 8757TIP3    H126216   4.122   7.236   2.503  0.0522  0.7213 -0.5441
 8757TIP3    H226217   4.034   7.253   2.625  0.6363 -1.7331  0.2608
 8758TIP3   OH226218   2.605   0.322   0.319 -0.5873  0.0071  0.5753
 8758TIP3    H126219   2.538   0.386   0.295  1.6706  1.7410 -1.4888
 8758TIP3    H226220   2.596   0.313   0.414 -1.4781  2.8717  0.8476
 8759TIP3   OH226221   2.489   0.955   5.209 -0.3279 -0.6864 -0.1665
 8759TIP3    H126222   2.437   1.012   5.152  0.4619  1.2296  0.9303
 8759TIP3    H226223   2.428   0.886   5.235 -1.3245 -0.3781 -1.5771
 8760TIP3   OH226224   4.196   1.318   6.494  0.5403 -0.3716  0.3869
 8760TIP3    H126225   4.220   1.324   6.402 -0.6133  1.6438  0.1503
 8760TIP3    H226226   4.160   1.230   6.504 -1.9139  0.2537 -1.8280
 8761TIP3   OH226227   2.451   2.613   1.894  0.2254  0.2377  0.1156
 8761TIP3    H126228   2.391   2.555   1.847  1.2324 -0.7509  0.0270
 8761TIP3    H226229   2.447   2.695   1.846 -0.3931 -0.0824 -0.4008
 8762TIP3   OH226230   1.758   6.743   5.296 -0.3910  0.3020  0.2397
 8762TIP3    H126231   1.665   6.757   5.279 -0.3188  0.1257 -0.3553
 8762TIP3    H226232   1.790   6.700   5.216 -0.0621 -0.7885  0.9473
 8763TIP3   OH226233   4.650   0.609   0.470  0.1520 -0.3545  0.3536
 8763TIP3    H126234   4.714   0.617   0.541  0.1744  0.2165  0.2675
 8763TIP3    H226235   4.702   0.611   0.390  0.1780 -1.5367  0.3269
 8764TIP3   OH226236   6.777   6.379   3.340 -0.0622  0.4404 -0.2327
 8764TIP3    H126237   6.851   6.421   3.383 -0.0779 -0.7028  0.9746
 8764TIP3    H226238   6.810   6.354   3.254  0.7998  0.3865  0.1041
 8765TIP3   OH226239   5.549   3.011   2.881 -0.0014  0.0039 -0.5174
 8765TIP3    H126240   5.600   3.092   2.880  0.4215 -0.2509 -0.0947
 8765TIP3    H226241   5.473   3.031   2.935  0.4939 -0.1024  0.2399
 8766TIP3   OH226242   4.642   2.960   2.265 -0.1311 -0.4091  0.6064
 8766TIP3    H126243   4.634   3.055   2.274 -0.5806 -0.0680 -2.1979
 8766TIP3    H226244   4.735   2.942   2.272 -0.0276  0.2818  0.9940
 8767TIP3   OH226245   7.615   3.545   3.460  0.5788  0.0949 -0.3093
 8767TIP3    H126246   7.590   3.635   3.442  0.7333 -0.0039 -1.0409
 8767TIP3    H226247   7.545   3.511   3.516  1.3079  1.1314  1.3109
 8768TIP3   OH226248   2.110   6.497   1.165  0.1420  0.2126 -0.7412
 8768TIP3    H126249   2.089   6.449   1.245 -1.1227  0.5345 -0.8639
 8768TIP3    H226250   2.170   6.566   1.193 -1.6017  1.3754  0.2477
 8769TIP3   OH226251   6.705   3.219   1.477 -0.1568 -0.3601  0.3059
 8769TIP3    H126252   6.621   3.172   1.480 -0.6585  0.5447  1.7151
 8769TIP3    H226253   6.691   3.296   1.533  0.8373  1.1411 -1.3973
 8770TIP3   OH226254   5.628   7.418   4.678  0.2453  0.2214 -0.5905
 8770TIP3    H126255   5.602   7.447   4.590  2.4054  0.4451 -1.2217
 8770TIP3    H226256   5.631   7.498   4.730 -0.6714  0.1380 -0.3956
 8771TIP3   OH226257   2.884   6.842   0.820 -0.1707  0.0769  0.3522
 8771TIP3    H126258   2.815   6.778   0.837 -0.4042  0.4385  0.8000
 8771TIP3    H226259   2.954   6.819   0.882 -0.6340  0.8112  1.1792
 8772TIP3   OH226260   1.714   7.750   4.395 -0.5766 -0.1385 -0.2395
 8772TIP3    H126261   1.736   7.843   4.403 -2.4056  0.3928 -0.8999
 8772TIP3    H226262   1.791   7.704   4.429 -0.1370  1.6275  1.3337
 8773TIP3   OH226263   8.082   2.377   2.043  0.3984 -0.5112 -0.3783
 8773TIP3    H126264   8.078   2.452   2.102 -0.9813 -0.6139 -0.2929
 8773TIP3    H226265   8.148   2.400   1.978  1.0584  0.1262  0.4986
 8774TIP3   OH226266   7.294   1.098   5.593 -0.1332  0.2842 -0.3839
 8774TIP3    H126267   7.298   1.012   5.551  0.8016 -0.2518  0.7620
 8774TIP3    H226268   7.284   1.079   5.686  0.2454  1.4115 -0.1007
 8775TIP3   OH226269   2.060   7.662   1.474  0.5042  0.4376 -0.5073
 8775TIP3    H126270   2.091   7.740   1.429  1.2301 -0.0403 -0.8551
 8775TIP3    H226271   1.979   7.639   1.428  1.1588  0.0363 -1.5145
 8776TIP3   OH226272   2.999   7.050   1.123 -0.4452  0.0016 -0.3534
 8776TIP3    H126273   2.958   7.043   1.210 -2.1891 -0.8151 -1.1849
 8776TIP3    H226274   3.012   6.960   1.095 -1.9799  0.1862 -1.8283
 8777TIP3   OH226275   5.150   2.028   1.511 -0.6153  0.2855 -0.5143
 8777TIP3    H126276   5.137   2.047   1.418 -1.4300 -0.5632 -0.5913
 8777TIP3    H226277   5.238   1.988   1.514  0.5061  2.5824 -0.5328
 8778TIP3   OH226278   8.076   6.825   0.535 -0.3360  0.0609  0.3436
 8778TIP3    H126279   8.068   6.765   0.609  2.0264 -0.7577  0.0355
 8778TIP3    H226280   8.008   6.797   0.474  0.5716 -2.2486  0.3008
 8779TIP3   OH226281   1.796   1.143   4.199  0.5936  0.2559  0.0272
 8779TIP3    H126282   1.810   1.163   4.106  2.6545 -0.0352  0.2365
 8779TIP3    H226283   1.704   1.117   4.204  0.2364  1.0147 -1.7888
 8780TIP3   OH226284   4.021   2.564   5.152  0.0335  0.0413 -0.0945
 8780TIP3    H126285   3.993   2.650   5.122  0.6244  1.0675  2.1135
 8780TIP3    H226286   4.100   2.545   5.100 -0.2177  0.7146 -0.7365
 8781TIP3   OH226287   0.601   6.866   3.786  0.2554  0.0255 -0.0988
 8781TIP3    H126288   0.551   6.943   3.815  0.9851  0.4835 -0.0306
 8781TIP3    H226289   0.573   6.852   3.695 -0.4054 -0.0597  0.1182
 8782TIP3   OH226290   3.236   6.476   1.093  0.7013  0.1053  0.2999
 8782TIP3    H126291   3.259   6.414   1.024  1.1676 -1.0659  1.4862
 8782TIP3    H226292   3.222   6.559   1.046 -0.9095 -1.0689 -1.4290
 8783TIP3   OH226293   7.333   6.152   4.609 -0.2980 -0.4574 -0.1406
 8783TIP3    H126294   7.353   6.245   4.624 -0.3132 -0.2070 -1.5864
 8783TIP3    H226295   7.247   6.140   4.649 -0.1264  0.0493  0.4029
 8784TIP3   OH226296   0.311   2.919   0.282  0.2910  0.2987  0.0081
 8784TIP3    H126297   0.234   2.918   0.225  0.9013  2.3938 -0.9615
 8784TIP3    H226298   0.372   2.858   0.241  0.6480  1.6238 -1.5832
 8785TIP3   OH226299   1.680   3.218   4.444 -0.5579  0.2276  0.3782
 8785TIP3    H126300   1.755   3.182   4.492 -0.9193 -1.5772 -0.3113
 8785TIP3    H226301   1.605   3.203   4.501 -0.7960 -0.7221 -0.1573
 8786TIP3   OH226302   0.273   0.326   2.168 -0.1183  0.0430  0.3813
 8786TIP3    H126303   0.260   0.254   2.230 -0.0239  1.3627  2.0015
 8786TIP3    H226304   0.364   0.316   2.139 -0.4981 -1.2457 -0.4568
 8787TIP3   OH226305   7.300   6.375   4.779  0.2059  0.2021 -0.3676
 8787TIP3    H126306   7.253   6.436   4.722  0.1833 -0.2520 -0.8319
 8787TIP3    H226307   7.231   6.330   4.829  0.2566  2.7126  2.2902
 8788TIP3   OH226308   4.424   4.948   1.474 -0.7321 -0.3211 -0.1416
 8788TIP3    H126309   4.443   4.866   1.519  0.2845  0.5325  1.0537
 8788TIP3    H226310   4.348   4.984   1.520  0.5839  0.7729  1.2821
 8789TIP3   OH226311   3.312   7.708   6.570 -0.4738 -0.0361  0.2332
 8789TIP3    H126312   3.389   7.763   6.578 -0.1518 -0.6964  2.4788
 8789TIP3    H226313   3.239   7.769   6.562 -0.1467  0.8455  2.8418
 8790TIP3   OH226314   2.695   4.208   1.864 -0.3694 -0.3884 -0.5153
 8790TIP3    H126315   2.670   4.131   1.812 -1.7899  0.0700 -0.5695
 8790TIP3    H226316   2.718   4.274   1.798  0.9338 -0.7610 -0.4675
 8791TIP3   OH226317   3.184   6.497   4.493 -0.0764 -0.6861  0.5955
 8791TIP3    H126318   3.138   6.564   4.442 -0.5157  0.0634  1.9355
 8791TIP3    H226319   3.202   6.428   4.429  0.3710  0.6703 -0.8322
 8792TIP3   OH226320   5.194   3.386   1.916 -0.0287 -0.0182 -0.0822
 8792TIP3    H126321   5.174   3.475   1.942  2.0118  0.5672 -0.3395
 8792TIP3    H226322   5.201   3.390   1.820  0.3122 -0.3912 -0.0769
 8793TIP3   OH226323   7.662   1.239   1.277 -0.1135  0.2755 -0.4176
 8793TIP3    H126324   7.638   1.283   1.196  2.1340  2.2983 -0.1165
 8793TIP3    H226325   7.756   1.223   1.269  0.2055  0.6343  1.8242
 8794TIP3   OH226326   7.939   0.590   6.405  0.3127  0.1495 -0.2093
 8794TIP3    H126327   7.867   0.639   6.365  0.3382 -0.4644 -1.0355
 8794TIP3    H226328   7.907   0.568   6.493  0.8480  2.8429  0.7618
 8795TIP3   OH226329   6.385   6.375   1.477 -0.2627 -0.0281 -0.1401
 8795TIP3    H126330   6.469   6.329   1.469 -1.6887 -2.7480 -0.4213
 8795TIP3    H226331   6.341   6.332   1.550 -0.4561  3.1277  1.8028
 8796TIP3   OH226332   4.718   6.825   4.240  0.5536  0.4768 -0.4096
 8796TIP3    H126333   4.773   6.899   4.265  0.0455  0.9003 -0.5316
 8796TIP3    H226334   4.772   6.776   4.177  1.4366 -0.0469  0.7182
 8797TIP3   OH226335   7.682   4.549   6.522  0.0344 -0.1166 -0.3228
 8797TIP3    H126336   7.621   4.476   6.510 -0.0142 -0.5054  1.8837
 8797TIP3    H226337   7.761   4.522   6.475 -0.4780 -0.9043 -0.7713
 8798TIP3   OH226338   4.149   7.711   4.102 -0.2049  0.1966  0.0790
 8798TIP3    H126339   4.095   7.772   4.152  1.4109  0.8343  1.1146
 8798TIP3    H226340   4.131   7.625   4.139 -0.7077  0.3667  0.2261
 8799TIP3   OH226341   5.279   4.146   5.708  0.5899  0.3592 -0.4058
 8799TIP3    H126342   5.372   4.125   5.713  0.7708  0.5443 -2.1631
 8799TIP3    H226343   5.275   4.240   5.725  1.3593  1.3247 -4.4298
 8800TIP3   OH226344   0.670   3.160   2.888  0.4457 -0.1066  0.4054
 8800TIP3    H126345   0.707   3.175   2.974 -0.3346 -0.2185  0.7728
 8800TIP3    H226346   0.575   3.167   2.901  0.3571  0.8563 -0.6339
 8801TIP3   OH226347   1.961   3.852   0.744 -0.0024  0.1205 -0.0379
 8801TIP3    H126348   1.913   3.813   0.817 -2.0116  0.5311 -1.0620
 8801TIP3    H226349   2.016   3.918   0.785 -1.2020  0.4645  1.1136
 8802TIP3   OH226350   1.947   5.565   1.525  0.3418  0.0948 -0.3797
 8802TIP3    H126351   1.938   5.626   1.599  0.6246 -0.1656 -0.1313
 8802TIP3    H226352   1.917   5.481   1.560 -1.3584  0.3531 -1.1053
 8803TIP3   OH226353   7.486   2.366   2.003 -0.4047 -0.2795  0.3394
 8803TIP3    H126354   7.419   2.359   1.935 -0.1324  0.1770  0.0158
 8803TIP3    H226355   7.513   2.458   2.001 -0.4240 -0.2573  1.0966
 8804TIP3   OH226356   3.963   5.960   3.074 -0.1929  0.0746 -0.1768
 8804TIP3    H126357   3.900   5.888   3.069  0.6234 -0.7404  0.7357
 8804TIP3    H226358   4.004   5.963   2.988  0.8115 -1.5755  0.1870
 8805TIP3   OH226359   3.231   4.967   5.857 -0.3798  0.1779 -0.2127
 8805TIP3    H126360   3.258   5.031   5.791 -0.3175 -2.4447 -2.9745
 8805TIP3    H226361   3.313   4.937   5.896 -0.4071  1.6665  1.0560
 8806TIP3   OH226362   5.650   1.749   3.238 -0.7313  0.6095  0.3446
 8806TIP3    H126363   5.602   1.736   3.320  0.0780  0.9607  0.8838
 8806TIP3    H226364   5.619   1.833   3.205 -2.2252 -0.2463 -0.5446
 8807TIP3   OH226365   7.973   7.324   2.888 -0.0113 -0.7446 -0.3625
 8807TIP3    H126366   7.934   7.346   2.804 -0.2449  0.2085 -0.0125
 8807TIP3    H226367   8.067   7.314   2.869 -0.1972 -1.5373 -0.9129
 8808TIP3   OH226368   0.100   1.710   2.455 -0.7176 -0.6147 -0.0612
 8808TIP3    H126369   0.103   1.781   2.391 -0.0739  0.8917  1.5753
 8808TIP3    H226370   0.007   1.698   2.473 -0.8382 -0.3163 -0.4753
 8809TIP3   OH226371   3.547   1.600   3.116  0.1355  0.4435  0.3361
 8809TIP3    H126372   3.519   1.514   3.084 -0.1169  0.9392 -0.8554
 8809TIP3    H226373   3.609   1.581   3.186 -2.0373 -0.7005  2.0542
 8810TIP3   OH226374   4.254   4.441   4.894 -0.4928  0.0560  0.1797
 8810TIP3    H126375   4.193   4.403   4.957 -0.2650 -1.4097 -0.4498
 8810TIP3    H226376   4.214   4.524   4.869 -0.5176  0.7634  2.3324
 8811TIP3   OH226377   6.632   0.381   6.149 -0.0012  0.3203  0.4273
 8811TIP3    H126378   6.580   0.390   6.069 -1.1536  0.4198  1.1705
 8811TIP3    H226379   6.605   0.297   6.185  0.6279  0.2078  0.6384
 8812TIP3   OH226380   4.416   5.702   4.548 -0.7662  0.5448 -0.4733
 8812TIP3    H126381   4.481   5.661   4.604  0.4483  2.7833 -0.1252
 8812TIP3    H226382   4.334   5.658   4.570  0.0797 -0.2157  1.3425
 8813TIP3   OH226383   8.230   2.497   0.860  0.0576  1.0124 -0.5482
 8813TIP3    H126384   8.221   2.550   0.781  1.4746  0.6100 -1.0106
 8813TIP3    H226385   8.312   2.527   0.899 -0.1146  0.4928  0.2178
 8814TIP3   OH226386   1.528   3.503   1.136 -0.3437 -0.1071 -0.2296
 8814TIP3    H126387   1.572   3.586   1.153 -1.3786  0.5125 -0.4566
 8814TIP3    H226388   1.598   3.443   1.109  0.3335  0.8583 -0.6719
 8815TIP3   OH226389   5.475   4.512   5.192 -0.1343  0.9756 -0.2764
 8815TIP3    H126390   5.540   4.582   5.193  0.0589  0.8725 -1.8885
 8815TIP3    H226391   5.413   4.535   5.261  0.2306  2.4345 -0.4139
 8816TIP3   OH226392   0.529   2.954   3.173  0.0951 -0.0288  0.2142
 8816TIP3    H126393   0.468   2.893   3.130  0.5157  0.5169 -1.2152
 8816TIP3    H226394   0.479   3.035   3.180 -0.0379 -0.1724  0.9580
 8817TIP3   OH226395   5.112   4.087   1.949  0.0029  0.1458 -0.0029
 8817TIP3    H126396   5.196   4.045   1.932  0.4858  0.6157  1.0866
 8817TIP3    H226397   5.072   4.033   2.018 -0.1047  0.5282  0.2373
 8818TIP3   OH226398   6.465   7.211   0.920  0.2584  0.5575  0.3634
 8818TIP3    H126399   6.538   7.187   0.977  1.6067  0.5518 -1.3004
 8818TIP3    H226400   6.434   7.127   0.885  0.6304  0.6931 -0.3058
 8819TIP3   OH226401   7.305   4.433   0.372  0.1492  0.4209  0.2579
 8819TIP3    H126402   7.353   4.485   0.436  0.7840  0.2498 -0.0765
 8819TIP3    H226403   7.214   4.434   0.404  0.5740 -0.2557  1.5286
 8820TIP3   OH226404   5.205   4.818   1.966 -0.5556  0.1472  0.1276
 8820TIP3    H126405   5.152   4.889   1.932 -0.8063  0.0122  0.2367
 8820TIP3    H226406   5.270   4.802   1.897  0.4623  1.4796  0.7289
 8821TIP3   OH226407   0.467   2.651   3.798  0.1117  0.4401 -0.1256
 8821TIP3    H126408   0.496   2.740   3.780 -0.8356  1.0266  1.0919
 8821TIP3    H226409   0.374   2.659   3.817 -0.2122 -0.9689 -0.9986
 8822TIP3   OH226410   4.251   5.928   2.020  0.1491  0.2971  0.0556
 8822TIP3    H126411   4.211   5.841   2.009 -0.9264  0.8348 -0.4030
 8822TIP3    H226412   4.186   5.989   1.985  0.1649  1.4356  1.8825
 8823TIP3   OH226413   2.169   2.462   1.563 -0.0135 -0.2785 -0.0479
 8823TIP3    H126414   2.136   2.394   1.503 -0.1762 -0.1763 -0.0727
 8823TIP3    H226415   2.113   2.537   1.548 -1.1356 -0.7703  1.4267
 8824TIP3   OH226416   5.414   6.947   1.840  0.0410  0.1099 -0.0687
 8824TIP3    H126417   5.335   6.895   1.830 -1.2009  2.0352 -0.9900
 8824TIP3    H226418   5.479   6.886   1.874 -1.6939 -1.6526  0.2795
 8825TIP3   OH226419   3.633   2.707   5.051  0.0749 -0.1190  0.5857
 8825TIP3    H126420   3.724   2.725   5.027 -0.3151 -0.1806 -1.0573
 8825TIP3    H226421   3.623   2.613   5.037 -0.9310  0.2884 -1.9131
 8826TIP3   OH226422   7.292   1.404   5.806  0.5168 -0.0776  0.0037
 8826TIP3    H126423   7.306   1.406   5.711 -0.4013  0.4713 -0.1270
 8826TIP3    H226424   7.379   1.419   5.843  1.1239 -1.5608 -0.7214
 8827TIP3   OH226425   5.036   7.345   3.522 -0.5370  0.1175 -0.2351
 8827TIP3    H126426   5.120   7.324   3.481 -0.2751  0.8658 -0.1050
 8827TIP3    H226427   4.981   7.373   3.449 -0.4350  0.3439 -0.2259
 8828TIP3   OH226428   7.045   0.405   5.350 -0.4183 -0.8201 -0.5468
 8828TIP3    H126429   6.992   0.326   5.342  2.7135 -3.2052  0.1882
 8828TIP3    H226430   7.026   0.437   5.438 -0.7488 -1.5831 -0.3300
 8829TIP3   OH226431   5.477   1.530  -0.008 -0.0366 -0.0138 -0.1174
 8829TIP3    H126432   5.426   1.564   0.065  0.4565  0.2390  0.1156
 8829TIP3    H226433   5.508   1.444   0.022  1.1895  0.6068  0.4696
 8830TIP3   OH226434   2.079   4.833   5.788 -0.5508  0.5021 -0.3576
 8830TIP3    H126435   2.035   4.748   5.789  0.3782 -0.0151 -1.0960
 8830TIP3    H226436   2.098   4.851   5.880 -0.0991 -0.4546 -0.2511
 8831TIP3   OH226437   3.651   6.029   5.905  0.4322 -0.0975  0.2572
 8831TIP3    H126438   3.586   5.962   5.881 -0.1696 -0.5014  2.6893
 8831TIP3    H226439   3.711   5.984   5.965  2.0976  0.6821 -0.7576
 8832TIP3   OH226440   2.189   4.052   2.524  0.1050 -0.8783  0.2077
 8832TIP3    H126441   2.224   4.063   2.436  0.4832  0.2507  0.4806
 8832TIP3    H226442   2.101   4.017   2.511  0.2949 -1.0742 -0.5975
 8833TIP3   OH226443   2.598   6.755   5.574 -0.1925  0.0570 -0.0368
 8833TIP3    H126444   2.661   6.799   5.630 -2.6042  0.8892  2.2526
 8833TIP3    H226445   2.590   6.811   5.497 -0.6030  1.8297  1.2312
 8834TIP3   OH226446   4.267   2.851   0.705 -0.5727  0.9343  0.8554
 8834TIP3    H126447   4.277   2.896   0.621 -0.8354  3.2901  2.0247
 8834TIP3    H226448   4.345   2.877   0.755 -0.5564 -0.2215  1.4594
 8835TIP3   OH226449   8.160   6.802   2.095 -0.3215 -0.5089  0.7933
 8835TIP3    H126450   8.205   6.803   2.010 -0.1638  0.2010  0.8806
 8835TIP3    H226451   8.100   6.877   2.091 -0.4630 -0.5977  1.2307
 8836TIP3   OH226452   5.894   5.821   3.563 -0.1251 -0.6151  0.7401
 8836TIP3    H126453   5.977   5.806   3.607 -0.7919  0.2352  2.3744
 8836TIP3    H226454   5.900   5.910   3.529 -0.8594  0.0080  2.1395
 8837TIP3   OH226455   0.726   1.219   5.275  0.0196 -0.0683 -0.1140
 8837TIP3    H126456   0.754   1.147   5.220 -1.2772 -0.6626 -0.0371
 8837TIP3    H226457   0.706   1.178   5.360  0.8875  0.6493  0.4551
 8838TIP3   OH226458   1.640   2.253   4.659  0.1375 -0.2324 -0.2765
 8838TIP3    H126459   1.632   2.172   4.609  3.7890 -0.9102 -0.0328
 8838TIP3    H226460   1.649   2.224   4.749  0.0986  0.5722 -0.0097
 8839TIP3   OH226461   0.023   5.611   1.273  0.4678  0.0990 -0.0196
 8839TIP3    H126462   0.069   5.690   1.302 -1.3884  1.2674 -0.1348
 8839TIP3    H226463   0.045   5.545   1.338  2.0741  0.6736  0.0719
 8840TIP3   OH226464   6.812   6.827   3.060  1.0674 -0.1078  0.5859
 8840TIP3    H126465   6.768   6.841   3.143  2.5580  2.8283  0.9934
 8840TIP3    H226466   6.868   6.751   3.074  1.3488  0.3943  2.3155
 8841TIP3   OH226467   5.417   3.266   2.041  0.3646  0.0508 -0.0044
 8841TIP3    H126468   5.343   3.300   1.991 -0.0520  0.2468  0.7304
 8841TIP3    H226469   5.494   3.297   1.993  0.0141  2.3350  0.7932
 8842TIP3   OH226470   7.473   0.214   1.469  0.2371  0.0818 -0.8170
 8842TIP3    H126471   7.406   0.146   1.468 -0.4726  0.7531 -0.2524
 8842TIP3    H226472   7.471   0.250   1.380 -1.5246  1.3659 -0.3223
 8843TIP3   OH226473   3.731   5.687   1.909  0.2338 -0.1921  0.5633
 8843TIP3    H126474   3.705   5.741   1.834  0.2672  0.2994  0.9030
 8843TIP3    H226475   3.649   5.663   1.951  0.1526 -1.1962 -0.1146
 8844TIP3   OH226476   3.795   0.335   4.881 -0.3300  0.2451 -0.7713
 8844TIP3    H126477   3.849   0.272   4.832  0.7286 -0.3677  1.0632
 8844TIP3    H226478   3.854   0.368   4.950 -2.1888 -0.2139  1.1376
 8845TIP3   OH226479   0.718   4.617   6.143  0.1374 -0.1297 -0.1891
 8845TIP3    H126480   0.686   4.534   6.109 -0.8645 -0.3134  1.1438
 8845TIP3    H226481   0.771   4.593   6.219  0.4317  0.4246 -0.2113
 8846TIP3   OH226482   7.072   5.292   5.588 -0.2440 -0.5423 -0.0127
 8846TIP3    H126483   7.137   5.316   5.655  0.1815  0.6430 -0.8254
 8846TIP3    H226484   7.008   5.363   5.590 -0.4431 -0.7033 -0.6006
 8847TIP3   OH226485   1.397   3.933   4.570 -0.0862  0.6188  0.0975
 8847TIP3    H126486   1.307   3.925   4.536 -0.3753  1.4074  0.6414
 8847TIP3    H226487   1.403   4.025   4.598  0.9194  0.5855 -0.0026
 8848TIP3   OH226488   5.578   6.407   5.007 -0.1170  0.3288  0.1100
 8848TIP3    H126489   5.553   6.403   5.100 -0.4544  2.3480  0.1550
 8848TIP3    H226490   5.658   6.354   5.002 -0.3597 -0.2214  1.4549
 8849TIP3   OH226491   5.046   4.706   3.880 -0.4761 -0.2893 -0.1452
 8849TIP3    H126492   5.074   4.788   3.921 -0.9620 -1.3411  2.4964
 8849TIP3    H226493   4.951   4.710   3.880 -0.5080 -0.8576  0.0954
 8850TIP3   OH226494   7.081   0.628   1.356 -0.0528  0.3818  0.1835
 8850TIP3    H126495   7.163   0.604   1.399  0.3002  0.6006 -0.3576
 8850TIP3    H226496   7.038   0.687   1.417 -0.7876 -1.3358  1.4093
 8851TIP3   OH226497   0.733   1.434   4.860 -0.3221  0.5727 -0.1800
 8851TIP3    H126498   0.734   1.504   4.926 -0.7777 -0.5446  1.0636
 8851TIP3    H226499   0.816   1.443   4.814  0.1889  1.1567  0.8225
 8852TIP3   OH226500   1.028   0.349   3.043  0.0120  0.2947 -0.0110
 8852TIP3    H126501   1.102   0.403   3.016  0.1217 -0.3771 -1.1272
 8852TIP3    H226502   0.951   0.398   3.014  0.0708  0.3706 -0.0399
 8853TIP3   OH226503   5.369   2.467   4.172  0.4821 -0.0128  0.2564
 8853TIP3    H126504   5.452   2.514   4.166  0.3253  0.1411 -0.8786
 8853TIP3    H226505   5.392   2.383   4.212  0.9488  0.5552  1.2193
 8854TIP3   OH226506   6.325   0.655   0.240  0.4964  0.0815 -0.5730
 8854TIP3    H126507   6.382   0.727   0.211 -0.2278  0.0911 -2.0726
 8854TIP3    H226508   6.385   0.583   0.258  1.2143  0.9325  0.6530
 8855TIP3   OH226509   4.916   5.999   0.001  0.1985  0.0655 -0.3179
 8855TIP3    H126510   4.992   6.046   0.034 -0.0128  1.7044 -1.9687
 8855TIP3    H226511   4.951   5.917  -0.033  0.5549 -1.1831  2.8075
 8856TIP3   OH226512   4.176   1.474   1.545 -0.2980 -0.0067 -0.2595
 8856TIP3    H126513   4.160   1.394   1.495 -1.8278  1.6591 -2.6543
 8856TIP3    H226514   4.101   1.530   1.524  1.1006  2.3469  0.7189
 8857TIP3   OH226515   8.110   5.728   3.152  0.3313  0.3552  0.3899
 8857TIP3    H126516   8.071   5.756   3.235 -1.3071 -0.5219 -0.0457
 8857TIP3    H226517   8.043   5.674   3.111  1.5716 -0.2042 -0.9814
 8858TIP3   OH226518   3.907   1.912   5.327  0.7323 -0.3678  0.0490
 8858TIP3    H126519   3.846   1.854   5.372  1.0056 -1.3161 -0.7762
 8858TIP3    H226520   3.954   1.957   5.398  0.9285 -1.5827  0.7168
 8859TIP3   OH226521   5.089   1.667   5.730  0.4290 -0.0045 -0.1357
 8859TIP3    H126522   5.131   1.713   5.802 -1.2670 -0.3572  1.1562
 8859TIP3    H226523   5.051   1.736   5.676 -0.7250  0.2183  0.9099
 8860TIP3   OH226524   1.346   3.679   1.334  0.1173 -0.2035 -0.0093
 8860TIP3    H126525   1.328   3.745   1.268 -1.6090  0.5877  1.1814
 8860TIP3    H226526   1.438   3.691   1.356 -0.6089  3.4291  1.7819
 8861TIP3   OH226527   3.216   4.522   0.574  0.5393  0.5879 -0.1897
 8861TIP3    H126528   3.255   4.499   0.491 -0.3328  1.3652 -0.8402
 8861TIP3    H226529   3.172   4.606   0.558 -2.5343 -0.8462  0.0892
 8862TIP3   OH226530   7.660   5.794   3.577 -0.7565 -0.2477 -0.4023
 8862TIP3    H126531   7.585   5.843   3.544 -0.9845 -1.5523 -1.9507
 8862TIP3    H226532   7.704   5.855   3.636 -0.1945  2.3776 -3.2649
 8863TIP3   OH226533   5.296   4.167   1.291  0.2666  0.3043  0.2625
 8863TIP3    H126534   5.248   4.246   1.266  0.1373  0.7110  1.7103
 8863TIP3    H226535   5.385   4.182   1.258  0.1432  0.8713  0.1801
 8864TIP3   OH226536   7.576   4.369   4.537  0.6852 -0.9951  0.2742
 8864TIP3    H126537   7.669   4.393   4.541  0.1875  0.8727  1.5306
 8864TIP3    H226538   7.557   4.362   4.443  1.5111  1.1188 -0.1070
 8865TIP3   OH226539   5.099   3.941   3.792 -0.0216 -0.3961  0.3869
 8865TIP3    H126540   5.189   3.968   3.777 -0.4543  1.9465  1.5544
 8865TIP3    H226541   5.072   3.900   3.710  2.9548 -3.9976  0.9335
 8866TIP3   OH226542   6.458   5.343   4.616  0.3528 -0.1513 -0.1198
 8866TIP3    H126543   6.409   5.261   4.607 -0.8237  0.4353  0.5723
 8866TIP3    H226544   6.488   5.343   4.707 -1.8312  1.2640  0.7098
 8867TIP3   OH226545   5.728   2.202   3.247  0.4165  0.2933  0.2968
 8867TIP3    H126546   5.737   2.109   3.266 -0.8377  0.1956  0.4846
 8867TIP3    H226547   5.636   2.221   3.261  0.9197  1.9201  1.8367
 8868TIP3   OH226548   1.326   6.240   4.725  0.3819  0.4413 -0.2855
 8868TIP3    H126549   1.402   6.182   4.731 -0.3039 -0.3278  1.3614
 8868TIP3    H226550   1.327   6.271   4.634  1.5270 -1.0939 -0.8286
 8869TIP3   OH226551   2.882   4.820   0.103 -0.4359 -0.5361  0.6124
 8869TIP3    H126552   2.917   4.746   0.054  2.2678  0.6363  0.6423
 8869TIP3    H226553   2.958   4.862   0.142 -1.9047  2.0457  0.9213
 8870TIP3   OH226554   6.086   1.458   2.530  0.1378 -0.1918  0.2299
 8870TIP3    H126555   5.998   1.482   2.500  0.6407 -0.1034 -1.2195
 8870TIP3    H226556   6.144   1.524   2.492  0.8489 -0.2570  1.1651
 8871TIP3   OH226557   7.001   7.801   5.023 -0.0313 -0.3184  0.0110
 8871TIP3    H126558   6.910   7.783   5.047  0.2550 -0.0814  1.3287
 8871TIP3    H226559   7.032   7.721   4.981 -0.7274 -0.5247 -0.1209
 8872TIP3   OH226560   0.210   7.537   2.185  0.1369 -0.2772  0.2818
 8872TIP3    H126561   0.208   7.603   2.254 -2.2244  0.1645 -0.1408
 8872TIP3    H226562   0.170   7.579   2.109 -1.2106 -2.0673 -0.0758
 8873TIP3   OH226563   0.364   4.898   6.037 -0.1956 -0.2902 -0.1643
 8873TIP3    H126564   0.431   4.966   6.045  0.7340 -1.1681 -0.2943
 8873TIP3    H226565   0.390   4.849   5.959 -0.6222 -1.0472  0.1661
 8874TIP3   OH226566   0.883   2.543   0.295 -0.6154  0.2327  0.5520
 8874TIP3    H126567   0.885   2.447   0.290 -2.2633  0.1260  1.2705
 8874TIP3    H226568   0.811   2.562   0.355 -0.4748  1.9389  0.2234
 8875TIP3   OH226569   2.495   7.348   3.762  0.4151 -0.5823 -0.2243
 8875TIP3    H126570   2.474   7.257   3.782  1.5650 -0.6221  0.9092
 8875TIP3    H226571   2.589   7.348   3.743  0.7835  0.5937  1.3714
 8876TIP3   OH226572   7.033   4.116   3.319 -0.6094  0.1170  0.4186
 8876TIP3    H126573   7.082   4.066   3.254  1.9069 -0.1969  2.4037
 8876TIP3    H226574   6.954   4.064   3.334 -1.3964  0.3292 -2.4702
 8877TIP3   OH226575   7.784   3.427   2.443  0.0296 -0.1983  0.2734
 8877TIP3    H126576   7.710   3.378   2.407 -1.2699  0.6770  1.5967
 8877TIP3    H226577   7.801   3.386   2.528  2.5356 -1.7436 -0.8487
 8878TIP3   OH226578   4.886   2.967   1.561  0.5736  0.1587 -0.3386
 8878TIP3    H126579   4.926   3.053   1.546  1.4179 -0.3647 -1.1671
 8878TIP3    H226580   4.960   2.909   1.582  0.2822 -0.8289 -1.8863
 8879TIP3   OH226581   5.803   4.264   3.404  0.1040 -0.2238 -0.6070
 8879TIP3    H126582   5.874   4.207   3.375 -0.5651 -0.8043 -1.1459
 8879TIP3    H226583   5.725   4.230   3.360 -0.3550  0.9885 -0.7861
 8880TIP3   OH226584   5.991   5.511   4.508 -0.3283  0.5717 -0.0166
 8880TIP3    H126585   6.051   5.485   4.578 -1.2834 -1.7305  0.0430
 8880TIP3    H226586   6.048   5.549   4.441  0.8496  0.8854  1.1120
 8881TIP3   OH226587   0.068   0.308   4.306 -0.0585  0.2041  0.6575
 8881TIP3    H126588   0.058   0.287   4.399  0.8284  0.8649  0.9101
 8881TIP3    H226589   0.112   0.393   4.305 -0.1386  0.2430 -0.3668
 8882TIP3   OH226590   2.074   1.192   2.033 -0.2559  0.2471  0.0242
 8882TIP3    H126591   2.058   1.171   2.125  0.1455  1.8976  0.5234
 8882TIP3    H226592   2.034   1.279   2.021 -0.3852  0.0199 -1.3920
 8883TIP3   OH226593   7.777   0.700   0.982 -0.3784 -0.1577  0.0616
 8883TIP3    H126594   7.790   0.669   0.892  2.3981 -1.2696  0.7464
 8883TIP3    H226595   7.778   0.796   0.975  2.9064 -0.1400 -0.8573
 8884TIP3   OH226596   0.474   0.884   4.219  0.2479 -0.1011  0.1049
 8884TIP3    H126597   0.524   0.910   4.142  0.2927 -0.2287  0.0907
 8884TIP3    H226598   0.514   0.932   4.291 -0.5092  0.8852 -0.1197
 8885TIP3   OH226599   6.917   1.034   1.147 -0.0266  0.1035  0.1750
 8885TIP3    H126600   6.999   0.988   1.160  0.4810  0.7229 -0.6827
 8885TIP3    H226601   6.919   1.105   1.211 -0.8770 -1.1125  1.5973
 8886TIP3   OH226602   1.676   2.324   0.712  0.1259  0.9036  0.0224
 8886TIP3    H126603   1.645   2.412   0.692 -0.2721  0.6316 -0.5961
 8886TIP3    H226604   1.765   2.321   0.676  0.6595  1.4788  1.2378
 8887TIP3   OH226605   3.969   5.517   4.949  0.3536  0.3795  0.0398
 8887TIP3    H126606   3.938   5.589   4.895  1.9105 -0.3118 -1.8740
 8887TIP3    H226607   4.055   5.545   4.981  0.2231  0.0434  0.7210
 8888TIP3   OH226608   3.456   1.323   5.679 -0.2864 -0.5262  0.1905
 8888TIP3    H126609   3.500   1.240   5.658  0.1505  0.0523 -1.3264
 8888TIP3    H226610   3.362   1.301   5.676 -0.1775 -0.9496 -0.2668
 8889TIP3   OH226611   3.674   6.542   4.589 -0.9412 -0.1526 -0.2946
 8889TIP3    H126612   3.715   6.477   4.646 -1.2373 -0.3424 -0.2948
 8889TIP3    H226613   3.580   6.530   4.603 -0.9904  1.4732  1.0481
 8890TIP3   OH226614   7.995   2.249   4.376 -0.2540 -0.7476 -0.3915
 8890TIP3    H126615   8.058   2.316   4.405 -1.2217  0.0616 -0.0891
 8890TIP3    H226616   7.910   2.293   4.381 -0.8728 -1.8918 -0.5684
 8891TIP3   OH226617   6.465   2.603   3.265 -0.4663 -0.1303  0.2700
 8891TIP3    H126618   6.496   2.560   3.186 -0.3819  0.9280 -0.2976
 8891TIP3    H226619   6.375   2.629   3.245 -0.4621  0.0965  0.5322
 8892TIP3   OH226620   0.600   3.491   1.353  0.6945  0.4285  0.3014
 8892TIP3    H126621   0.569   3.440   1.279  0.0123 -0.8482  1.4205
 8892TIP3    H226622   0.537   3.563   1.360  0.5964  0.3926 -0.1772
 8893TIP3   OH226623   7.088   5.933   4.160  0.1178  0.3201 -0.2117
 8893TIP3    H126624   7.018   5.922   4.225  0.3811 -1.2911 -0.1613
 8893TIP3    H226625   7.046   5.914   4.076  0.6418 -1.4835 -0.1026
 8894TIP3   OH226626   4.810   1.142   5.176 -0.5851  0.1555 -0.5479
 8894TIP3    H126627   4.768   1.226   5.159  1.5036  1.8234  1.7722
 8894TIP3    H226628   4.761   1.106   5.250 -0.6695 -0.0428 -0.6996
 8895TIP3   OH226629   4.772   1.531   3.946  0.1575 -0.0269  0.0920
 8895TIP3    H126630   4.699   1.481   3.908  0.3091 -0.4333  0.3304
 8895TIP3    H226631   4.827   1.553   3.870  0.0518 -0.1576 -0.0249
 8896TIP3   OH226632   4.741   5.658   3.477  0.4647 -0.0884  0.1119
 8896TIP3    H126633   4.726   5.567   3.453 -2.1747  0.1795  0.4151
 8896TIP3    H226634   4.670   5.679   3.538  0.3229  2.4657 -0.7834
 8897TIP3   OH226635   3.273   2.889   6.560 -0.1244 -0.4682 -0.0272
 8897TIP3    H126636   3.359   2.895   6.603  0.4526 -1.6074 -0.9436
 8897TIP3    H226637   3.234   2.810   6.597 -0.7950  0.0538  0.3890
 8898TIP3   OH226638   7.172   0.886   1.860  0.0958 -0.3458 -0.6167
 8898TIP3    H126639   7.098   0.834   1.892 -1.0394  1.9614  0.7082
 8898TIP3    H226640   7.237   0.882   1.930 -0.2942  0.5902 -0.1948
 8899TIP3   OH226641   0.051   0.917   6.481  0.1001 -0.3619 -0.5784
 8899TIP3    H126642   0.019   0.827   6.485 -0.1511 -0.2296  1.6787
 8899TIP3    H226643   0.000   0.963   6.548 -1.4972  2.0885 -3.2403
 8900TIP3   OH226644   5.906   3.345   2.780  0.0271 -0.2147  0.1935
 8900TIP3    H126645   5.847   3.372   2.710 -0.7740  1.3900  1.4106
 8900TIP3    H226646   5.852   3.293   2.839  0.2677 -0.1580  0.4682
 8901TIP3   OH226647   8.130   6.428   3.264  0.6791 -0.5066  0.3051
 8901TIP3    H126648   8.167   6.513   3.290  0.5478 -0.1306 -0.6878
 8901TIP3    H226649   8.181   6.402   3.188  1.7084 -2.0603  1.4875
 8902TIP3   OH226650   3.359   7.017   0.935 -0.1573  0.4660 -0.3531
 8902TIP3    H126651   3.406   7.017   1.018 -0.6617  0.0152 -0.0613
 8902TIP3    H226652   3.398   6.945   0.885 -0.7695 -0.1465  0.0321
 8903TIP3   OH226653   5.429   3.020   0.531  0.1628 -0.2844  1.1653
 8903TIP3    H126654   5.426   2.932   0.569 -2.1833 -0.2316  1.2298
 8903TIP3    H226655   5.417   3.006   0.437  0.0788 -0.0493  1.1409
 8904TIP3   OH226656   6.794   6.032   2.377  0.2108 -0.7142 -0.3596
 8904TIP3    H126657   6.805   6.126   2.357  0.1907 -0.2695  1.5755
 8904TIP3    H226658   6.850   6.017   2.453 -1.0516 -1.8809  0.3785
 8905TIP3   OH226659   0.070   5.456   2.925  0.4180  0.4242  0.2556
 8905TIP3    H126660   0.084   5.521   2.994  0.4515  0.7034 -0.0091
 8905TIP3    H226661   0.101   5.374   2.962  0.6711  0.6215  0.4824
 8906TIP3   OH226662   8.124   7.455   3.596 -0.4630 -0.2770  0.0187
 8906TIP3    H126663   8.197   7.465   3.535 -1.1370  0.0968 -0.7450
 8906TIP3    H226664   8.165   7.434   3.680  0.5632  0.7941 -0.2032
 8907TIP3   OH226665   5.722   1.361   0.428  0.1212 -0.2795 -0.1065
 8907TIP3    H126666   5.808   1.347   0.389 -0.3391 -2.5141 -0.4378
 8907TIP3    H226667   5.681   1.426   0.372  1.1120 -0.1509 -0.7120
 8908TIP3   OH226668   0.228   6.811   3.210  0.0542  0.1411  0.1561
 8908TIP3    H126669   0.252   6.884   3.153  0.7957 -0.8201 -0.7923
 8908TIP3    H226670   0.266   6.834   3.295  0.2551  0.8654 -0.1210
 8909TIP3   OH226671   2.970   1.518   0.944  0.0337  0.8828 -0.8514
 8909TIP3    H126672   2.913   1.496   1.018 -0.4696  0.6110 -1.3173
 8909TIP3    H226673   2.921   1.585   0.896 -0.8525 -0.8089 -2.4090
 8910TIP3   OH226674   5.131   1.630   1.632 -0.5085  0.2008 -0.1202
 8910TIP3    H126675   5.226   1.614   1.631 -0.3825  0.4591  2.2124
 8910TIP3    H226676   5.123   1.719   1.666 -1.5558  1.1898 -2.7412
 8911TIP3   OH226677   7.873   3.746   2.220 -0.0510  0.2287  0.4556
 8911TIP3    H126678   7.916   3.682   2.163 -1.4658  0.2246 -0.6725
 8911TIP3    H226679   7.944   3.805   2.246  0.7455 -0.0479 -0.9363
 8912TIP3   OH226680   0.113   7.767   2.718 -0.5989 -0.2197  0.3332
 8912TIP3    H126681   0.197   7.802   2.748 -0.3499 -0.3972 -0.1446
 8912TIP3    H226682   0.047   7.823   2.759 -0.3124 -0.9660  1.8967
 8913TIP3   OH226683   6.882   2.506   1.284 -0.4755  0.0106 -0.0342
 8913TIP3    H126684   6.976   2.526   1.284 -0.5628  0.4429 -0.4052
 8913TIP3    H226685   6.878   2.410   1.283 -0.0413 -0.0190  0.4126
 8914TIP3   OH226686   8.133   4.464   4.431 -0.4495 -0.1784 -0.1542
 8914TIP3    H126687   8.113   4.558   4.427 -2.3585 -0.5792 -0.7799
 8914TIP3    H226688   8.226   4.461   4.454  0.0868  1.8938 -1.7250
 8915TIP3   OH226689   3.383   3.793   6.666  0.4957 -0.4772 -0.2047
 8915TIP3    H126690   3.424   3.806   6.580 -0.2654  0.9121 -0.3829
 8915TIP3    H226691   3.295   3.829   6.656 -0.2531 -1.9743  0.6434
 8916TIP3   OH226692   7.130   4.760   0.759 -0.1367  0.0989  0.2236
 8916TIP3    H126693   7.142   4.787   0.667 -1.1554  1.1482  0.3729
 8916TIP3    H226694   7.121   4.843   0.807 -2.1416 -0.4455  0.8885
 8917TIP3   OH226695   8.292   4.514   1.990  0.4258  0.2395 -0.1197
 8917TIP3    H126696   8.304   4.508   2.085  1.8565  1.1056 -0.2207
 8917TIP3    H226697   8.248   4.432   1.967 -0.0336  0.0539  1.2967
 8918TIP3   OH226698   7.147   3.002   4.744  0.2941  1.0393  0.0048
 8918TIP3    H126699   7.174   3.022   4.654 -0.6367  0.4703 -0.4190
 8918TIP3    H226700   7.096   3.079   4.771 -0.4719  0.6892 -0.4141
 8919TIP3   OH226701   5.570   2.732   0.331 -0.6331  0.0003  0.1070
 8919TIP3    H126702   5.645   2.674   0.334 -0.6178  0.0269  0.2519
 8919TIP3    H226703   5.494   2.674   0.326 -0.6093 -0.0290  0.0879
 8920TIP3   OH226704   1.112   6.399   3.407  0.0805  0.1546 -0.0327
 8920TIP3    H126705   1.048   6.348   3.456  0.6080 -0.4747  0.0178
 8920TIP3    H226706   1.182   6.337   3.387 -0.8789 -0.1016 -3.1399
 8921TIP3   OH226707   3.527   1.212   2.421 -0.0627  0.3245 -0.0078
 8921TIP3    H126708   3.572   1.292   2.394  0.7466 -0.1949 -0.2523
 8921TIP3    H226709   3.500   1.228   2.511 -0.1937  0.9868 -0.1624
 8922TIP3   OH226710   5.644   3.975   6.497 -0.0865  0.5595  0.3075
 8922TIP3    H126711   5.573   3.911   6.491  1.5379 -1.3557  0.3926
 8922TIP3    H226712   5.607   4.056   6.463 -1.7050 -0.8910 -1.6174
 8923TIP3   OH226713   2.438   0.882   0.589 -0.1191  0.0352  0.5775
 8923TIP3    H126714   2.521   0.923   0.610  0.0137  0.5588 -0.8480
 8923TIP3    H226715   2.419   0.826   0.664  1.6093 -0.2443  0.8484
 8924TIP3   OH226716   2.790   1.300   3.425 -0.0295 -0.3167  0.1552
 8924TIP3    H126717   2.879   1.331   3.443  1.0106 -2.1879 -1.4191
 8924TIP3    H226718   2.768   1.245   3.501  0.5233 -0.5682  0.1415
 8925TIP3   OH226719   0.604  -0.009   0.630  0.4847  0.1087  0.3002
 8925TIP3    H126720   0.551  -0.034   0.554  1.7974 -0.9392 -0.3008
 8925TIP3    H226721   0.605   0.087   0.627 -2.0700  0.2306  0.8564
 8926TIP3   OH226722   1.636   5.512   0.662  0.1139  0.0185  0.0400
 8926TIP3    H126723   1.658   5.577   0.729  1.7541 -0.6395  0.2036
 8926TIP3    H226724   1.691   5.436   0.683  0.1156 -0.4851 -1.5977
 8927TIP3   OH226725   5.596   3.888   4.400 -0.6812 -0.0336  0.7644
 8927TIP3    H126726   5.568   3.887   4.308 -2.3133 -2.3387  1.1818
 8927TIP3    H226727   5.545   3.959   4.440 -1.2721 -0.1298  0.2058
 8928TIP3   OH226728   4.602   4.182   2.845 -0.4034  0.2391  0.0660
 8928TIP3    H126729   4.569   4.140   2.766  1.2807 -0.3980 -0.3236
 8928TIP3    H226730   4.571   4.273   2.839  0.4449  0.4353 -1.7857
 8929TIP3   OH226731   1.635   6.780   4.107 -0.0531 -0.7893  0.7526
 8929TIP3    H126732   1.546   6.762   4.076  0.3103  0.0162 -0.8719
 8929TIP3    H226733   1.625   6.853   4.168 -0.3194  0.7236 -1.0248
 8930TIP3   OH226734   1.279   0.484   3.220 -0.3948  0.2375  0.3240
 8930TIP3    H126735   1.351   0.514   3.275 -0.4010  1.5997 -0.3727
 8930TIP3    H226736   1.276   0.389   3.233  1.2218  0.2210  0.7180
 8931TIP3   OH226737   2.658   3.802   3.585 -0.4837 -0.1431  0.0466
 8931TIP3    H126738   2.721   3.843   3.645  0.3431 -1.6253  0.2356
 8931TIP3    H226739   2.586   3.774   3.640 -0.6608  0.3017  0.0420
 8932TIP3   OH226740   7.732   1.551   0.945  0.6680 -0.0297 -0.1110
 8932TIP3    H126741   7.763   1.514   0.862  1.9378  0.7916 -0.0229
 8932TIP3    H226742   7.717   1.644   0.926  1.5852  0.3018  0.7323
 8933TIP3   OH226743   4.917   1.986   4.797  0.2190  0.3782 -0.7341
 8933TIP3    H126744   4.922   1.940   4.881  0.1465 -0.1656 -1.0250
 8933TIP3    H226745   4.834   2.035   4.801  0.4881  0.8089 -0.2650
 8934TIP3   OH226746   4.576   0.643   0.113 -0.4536  0.1188  0.3289
 8934TIP3    H126747   4.517   0.717   0.130 -1.1981  0.2763 -2.4092
 8934TIP3    H226748   4.523   0.565   0.129  0.6269 -0.0166  4.2414
 8935TIP3   OH226749   7.068   3.505   1.667 -0.8102  0.2906  0.2737
 8935TIP3    H126750   7.036   3.508   1.758 -0.3204 -1.2422  0.5341
 8935TIP3    H226751   6.989   3.517   1.614 -1.6581 -1.9303  0.9042
 8936TIP3   OH226752   3.398   7.095   4.940 -0.1646  0.1778  0.0692
 8936TIP3    H126753   3.348   7.015   4.926 -0.6686  0.6336 -0.8653
 8936TIP3    H226754   3.435   7.086   5.028 -0.3936 -0.9721  0.0558
 8937TIP3   OH226755   4.223   3.899   0.456  0.2252 -0.0267  0.3185
 8937TIP3    H126756   4.288   3.923   0.390  0.6291 -0.0076  0.7172
 8937TIP3    H226757   4.157   3.850   0.408 -0.0004  0.8423 -0.2891
 8938TIP3   OH226758   6.953   4.703   6.735 -0.5104 -0.0702 -0.0216
 8938TIP3    H126759   7.041   4.673   6.757  0.1431  2.6189  1.5048
 8938TIP3    H226760   6.944   4.686   6.641  1.9949  0.3925 -0.4057
 8939TIP3   OH226761   1.617   4.764   4.903 -0.1661 -0.0114 -0.1340
 8939TIP3    H126762   1.558   4.791   4.974 -0.2138  1.4739 -0.7123
 8939TIP3    H226763   1.558   4.741   4.831 -0.0883 -0.4245 -0.0659
 8940TIP3   OH226764   3.049   4.532   6.300  0.4636  0.0549  0.0519
 8940TIP3    H126765   3.112   4.492   6.240 -2.0023 -1.7113 -1.5528
 8940TIP3    H226766   3.028   4.617   6.261  0.6925 -0.0293 -0.2544
 8941TIP3   OH226767   3.533   5.162   3.735  0.1783  0.0166 -0.7554
 8941TIP3    H126768   3.438   5.173   3.733  0.0856 -0.1707  1.0860
 8941TIP3    H226769   3.566   5.231   3.677 -1.0328  0.9336 -0.4073
 8942TIP3   OH226770   6.719   5.475   3.341  0.9528 -0.3378  0.1110
 8942TIP3    H126771   6.651   5.456   3.277  1.5387 -2.2225 -0.0281
 8942TIP3    H226772   6.701   5.415   3.413  0.4911  1.5263  1.6467
 8943TIP3   OH226773   2.331   6.436   3.273  0.3318 -0.2815 -0.1194
 8943TIP3    H126774   2.336   6.448   3.368 -2.1036 -1.0910  0.1745
 8943TIP3    H226775   2.338   6.342   3.260 -0.0755 -0.2357 -0.6856
 8944TIP3   OH226776   4.294   5.660   3.747  0.2907 -0.0115  0.1544
 8944TIP3    H126777   4.207   5.681   3.715 -0.7880  1.2374  3.4688
 8944TIP3    H226778   4.294   5.565   3.759 -0.3726 -0.0919 -0.4898
 8945TIP3   OH226779   2.062   6.418   3.754  0.2394 -0.2297 -0.3151
 8945TIP3    H126780   2.029   6.447   3.839  0.3680 -0.6998 -0.0958
 8945TIP3    H226781   2.141   6.469   3.740 -1.3440  2.0724 -1.5811
 8946TIP3   OH226782   0.309   7.270   4.213 -0.2965 -0.1457 -0.5190
 8946TIP3    H126783   0.296   7.258   4.308  0.4152 -0.5164 -0.4608
 8946TIP3    H226784   0.347   7.187   4.184 -1.7449 -0.5458 -1.3755
 8947TIP3   OH226785   6.653   5.081   5.194 -0.7864  0.3775  0.0970
 8947TIP3    H126786   6.707   5.018   5.146 -0.2054  1.3875 -0.6006
 8947TIP3    H226787   6.676   5.166   5.157 -2.4077  0.9026  0.2169
 8948TIP3   OH226788   5.722   1.577   5.400  0.2267  0.3349  0.2336
 8948TIP3    H126789   5.732   1.532   5.316 -5.0082 -0.9839 -0.0233
 8948TIP3    H226790   5.780   1.530   5.460 -0.1168 -2.4940 -1.4737
 8949TIP3   OH226791   6.066   0.458   4.160  0.3598  0.1580 -0.1832
 8949TIP3    H126792   6.032   0.391   4.100 -1.0584  0.0682  0.6703
 8949TIP3    H226793   6.026   0.540   4.130  0.5578  0.3050 -0.0489
 8950TIP3   OH226794   4.655   7.409   3.105  0.1462 -0.1945 -0.3395
 8950TIP3    H126795   4.708   7.427   3.182 -1.5990  1.6350  0.5439
 8950TIP3    H226796   4.576   7.366   3.139 -0.6033  0.5468 -1.0867
 8951TIP3   OH226797   3.603   6.541   0.852 -0.3647 -0.5148 -0.0608
 8951TIP3    H126798   3.666   6.565   0.784 -0.8523 -1.3943 -0.8396
 8951TIP3    H226799   3.585   6.623   0.898  1.9314 -0.3555  0.7092
 8952TIP3   OH226800   2.460   1.057   0.871  0.0708  0.1690  0.0567
 8952TIP3    H126801   2.428   1.147   0.860 -0.6781 -0.0551  0.3462
 8952TIP3    H226802   2.530   1.049   0.806  0.0942  0.9345 -0.0294
 8953TIP3   OH226803   2.193   2.798   4.729  0.4342 -0.2025 -0.3832
 8953TIP3    H126804   2.264   2.854   4.697 -0.2925  1.0426  0.1045
 8953TIP3    H226805   2.132   2.793   4.656 -0.6427  1.6473  0.3232
 8954TIP3   OH226806   5.019   2.986   4.359 -0.0055  0.6400  0.0035
 8954TIP3    H126807   5.062   3.030   4.433 -0.3215  1.8907 -0.5208
 8954TIP3    H226808   5.091   2.952   4.306  0.2698  0.8682  0.2266
 8955TIP3   OH226809   8.180   3.678   6.633 -0.0919  0.4489  0.5443
 8955TIP3    H126810   8.214   3.589   6.643  2.3757  1.2278 -0.0885
 8955TIP3    H226811   8.087   3.667   6.615  0.6038 -2.1934 -2.2284
 8956TIP3   OH226812   3.158   2.873   4.874  0.3800 -0.6060  0.4723
 8956TIP3    H126813   3.107   2.903   4.949 -0.7902  1.9304 -1.2069
 8956TIP3    H226814   3.092   2.844   4.811  1.2057 -0.5195 -0.4484
 8957TIP3   OH226815   7.774   5.407   4.541 -0.1632  0.4100  0.2527
 8957TIP3    H126816   7.753   5.492   4.503 -0.3192  0.8509  1.2769
 8957TIP3    H226817   7.848   5.375   4.491 -1.2977  0.2559 -1.4120
 8958TIP3   OH226818   4.032   4.525   0.230 -0.4602  0.5328 -0.0997
 8958TIP3    H126819   4.074   4.488   0.308  0.2242  0.1341 -0.6458
 8958TIP3    H226820   4.104   4.552   0.175 -0.9177 -0.0310 -0.9975
 8959TIP3   OH226821   4.329   5.543   4.851  0.1353 -0.5106 -0.0521
 8959TIP3    H126822   4.284   5.543   4.767 -0.3101 -0.7326  0.1829
 8959TIP3    H226823   4.419   5.567   4.830 -0.3330  1.0290 -0.3938
 8960TIP3   OH226824   3.249   2.941   5.168  0.0638  0.1021  0.2314
 8960TIP3    H126825   3.342   2.943   5.192  0.0901  2.1592  0.1253
 8960TIP3    H226826   3.218   3.030   5.184 -1.7269 -0.3535 -0.4375
 8961TIP3   OH226827   8.041   6.992   4.305  0.2752 -0.1523 -0.2662
 8961TIP3    H126828   8.033   7.001   4.210  0.8071 -1.0761 -0.4059
 8961TIP3    H226829   7.986   6.917   4.327 -1.0408  0.9608  0.3661
 8962TIP3   OH226830   7.570   0.761   2.240 -0.5155  0.2706 -0.1890
 8962TIP3    H126831   7.569   0.755   2.144  2.8456 -0.4212 -0.2912
 8962TIP3    H226832   7.559   0.671   2.270  2.2659 -0.1375 -0.1446
 8963TIP3   OH226833   0.647   2.740   1.484  0.0530 -0.0876  0.0470
 8963TIP3    H126834   0.658   2.665   1.425  0.3993 -0.1181  0.1444
 8963TIP3    H226835   0.599   2.804   1.432 -1.2382 -0.7933  0.3305
 8964TIP3   OH226836   7.507   1.072   3.136  0.2050  0.1882 -0.3193
 8964TIP3    H126837   7.477   0.982   3.135 -1.9026  0.8397 -0.2181
 8964TIP3    H226838   7.566   1.077   3.212  1.2366 -1.3297 -0.9876
 8965TIP3   OH226839   7.277   0.072   1.753  0.5901  0.3143 -0.0965
 8965TIP3    H126840   7.213   0.041   1.817 -1.1629  0.8679 -1.5016
 8965TIP3    H226841   7.351   0.103   1.806  1.3679 -3.6686  1.4713
 8966TIP3   OH226842   2.601   3.072   5.211 -0.1607  0.8268 -0.2184
 8966TIP3    H126843   2.558   3.127   5.145  0.8261  0.9123 -0.8060
 8966TIP3    H226844   2.693   3.096   5.207 -0.3139  2.3302  2.6613
 8967TIP3   OH226845   3.607   2.817   5.988 -0.0954 -0.0552 -0.1641
 8967TIP3    H126846   3.535   2.832   5.927 -2.2007  0.5561  2.2952
 8967TIP3    H226847   3.595   2.727   6.018  1.9256 -0.9512 -1.7402
 8968TIP3   OH226848   0.110   3.744   4.406  0.3317 -0.0869 -0.0177
 8968TIP3    H126849   0.030   3.779   4.444 -0.2195 -0.1146 -1.1266
 8968TIP3    H226850   0.096   3.649   4.401  0.6723 -0.1585  0.3350
 8969TIP3   OH226851   2.440   1.200   5.474  0.9565 -0.0367  0.4753
 8969TIP3    H126852   2.371   1.207   5.409  0.1207 -0.0010  1.3432
 8969TIP3    H226853   2.517   1.171   5.425  0.7362  1.3516 -0.7734
 8970TIP3   OH226854   5.125   6.754   1.425 -0.3345  1.1230 -0.2768
 8970TIP3    H126855   5.204   6.803   1.403 -0.0585  0.2403 -1.3599
 8970TIP3    H226856   5.127   6.678   1.365  0.4151 -1.4253  2.7051
 8971TIP3   OH226857   2.201   5.591   4.895 -0.2975 -0.0858 -0.2513
 8971TIP3    H126858   2.177   5.499   4.879 -0.0886  0.2778 -3.3611
 8971TIP3    H226859   2.272   5.607   4.833 -0.3403  2.2053  0.2254
 8972TIP3   OH226860   5.216   5.070   2.139 -0.0274  0.0245  0.3821
 8972TIP3    H126861   5.275   5.005   2.178  0.7737  0.8890  0.6588
 8972TIP3    H226862   5.251   5.085   2.051 -0.2495  0.0298  0.2945
 8973TIP3   OH226863   3.706   0.075   1.785 -0.1141  0.1738  0.8112
 8973TIP3    H126864   3.685   0.028   1.866  0.0034  0.3119  0.9223
 8973TIP3    H226865   3.802   0.078   1.784 -0.1070  2.5748  2.0702
 8974TIP3   OH226866   6.417   2.030   3.789 -0.4791 -0.2596  0.4266
 8974TIP3    H126867   6.442   2.111   3.744  0.5438 -0.3795  0.7534
 8974TIP3    H226868   6.323   2.023   3.776 -0.3966  0.3743 -0.6103
 8975TIP3   OH226869   4.570   3.170   1.069  0.1902 -0.3901  0.4108
 8975TIP3    H126870   4.594   3.245   1.124 -1.8655 -1.2800  2.6856
 8975TIP3    H226871   4.508   3.206   1.006 -1.2727 -0.2141  1.8887
 8976TIP3   OH226872   2.269   3.845   1.252 -0.6973  0.3178  0.0321
 8976TIP3    H126873   2.356   3.854   1.212 -1.1699 -1.0325 -1.4050
 8976TIP3    H226874   2.287   3.814   1.341  0.3044 -0.9551 -0.5662
 8977TIP3   OH226875   1.961   4.482   4.546 -0.0250 -0.1409 -0.1067
 8977TIP3    H126876   1.905   4.553   4.515 -0.3116 -0.3801 -0.1369
 8977TIP3    H226877   2.049   4.521   4.551 -0.3704  0.5474  0.9967
 8978TIP3   OH226878   6.426   7.376   5.675 -0.0641  0.3383 -0.4018
 8978TIP3    H126879   6.465   7.338   5.754 -0.2850 -0.2531 -0.5662
 8978TIP3    H226880   6.375   7.304   5.637  0.1544  0.5763 -1.1571
 8979TIP3   OH226881   4.561   7.223   0.257 -0.5347 -0.5466  0.7309
 8979TIP3    H126882   4.627   7.169   0.300  0.6825  0.3065 -0.0056
 8979TIP3    H226883   4.568   7.308   0.299  1.0323  0.4597 -1.3651
 8980TIP3   OH226884   3.314   0.481   4.531 -0.2060  0.0844 -0.0708
 8980TIP3    H126885   3.369   0.404   4.546  0.0233 -0.6144 -3.5379
 8980TIP3    H226886   3.375   0.549   4.502 -0.7028  0.7195  0.3597
 8981TIP3   OH226887   5.084   3.299   4.865 -0.4053  0.4025  0.6446
 8981TIP3    H126888   5.162   3.336   4.906 -0.6198  0.6829  0.8011
 8981TIP3    H226889   5.010   3.343   4.908 -0.6237  1.4967 -0.7509
 8982TIP3   OH226890   3.589   1.604   3.442  0.0514  0.2056  0.2936
 8982TIP3    H126891   3.526   1.663   3.400 -0.8898 -1.5713 -0.9103
 8982TIP3    H226892   3.550   1.586   3.528 -1.0538 -0.7765 -0.3904
 8983TIP3   OH226893   2.056   5.145   4.576 -0.0198  0.1990 -0.5614
 8983TIP3    H126894   2.075   5.071   4.633 -0.5958  0.3876 -0.1261
 8983TIP3    H226895   2.137   5.158   4.526 -0.2289 -1.3326 -1.3418
 8984TIP3   OH226896   3.315   0.496   1.086 -0.3059  0.1033 -0.0882
 8984TIP3    H126897   3.299   0.407   1.117 -1.1985 -0.2148 -1.3762
 8984TIP3    H226898   3.376   0.533   1.150 -0.4209 -1.2090  0.8234
 8985TIP3   OH226899   4.459   0.774   6.443  0.6109  0.0141 -0.0318
 8985TIP3    H126900   4.498   0.729   6.518  0.2116  0.2840  0.3451
 8985TIP3    H226901   4.443   0.704   6.379  0.6622 -0.2684  0.2605
 8986TIP3   OH226902   2.612   6.387   2.149 -0.3662 -0.2825  0.1373
 8986TIP3    H126903   2.565   6.428   2.077 -2.1163 -2.2327  0.0702
 8986TIP3    H226904   2.688   6.345   2.107  0.1785  0.8961 -0.1065
 8987TIP3   OH226905   4.558   3.236   4.022  0.0297  0.2272 -0.6437
 8987TIP3    H126906   4.590   3.167   3.963  1.1780  0.4789 -0.3519
 8987TIP3    H226907   4.482   3.272   3.978  0.6941  0.2165 -1.8483
 8988TIP3   OH226908   8.011   0.491   4.200 -0.7431  0.2953 -0.1880
 8988TIP3    H126909   8.050   0.560   4.147  0.5544  1.5923  2.2812
 8988TIP3    H226910   7.920   0.487   4.171 -0.2278  1.2528 -2.1140
 8989TIP3   OH226911   3.698   5.446   3.895 -0.3632  0.5031  0.1160
 8989TIP3    H126912   3.685   5.365   3.846  1.0666  0.0855  0.3773
 8989TIP3    H226913   3.776   5.430   3.948 -0.6889  1.6731  0.9952
 8990TIP3   OH226914   6.134   1.096   5.517  0.1246  0.0293  0.2440
 8990TIP3    H126915   6.072   1.150   5.567 -0.5379 -2.8602  2.9157
 8990TIP3    H226916   6.127   1.128   5.427 -2.7165  2.0569  1.0330
 8991TIP3   OH226917   7.479   1.138   0.090 -0.0937 -0.1658 -0.1092
 8991TIP3    H126918   7.399   1.172   0.131  0.3466 -0.2838  0.8802
 8991TIP3    H226919   7.462   1.045   0.078  0.0525 -0.2768  0.5086
 8992TIP3   OH226920   8.149   2.681   6.204 -0.0453 -0.4487 -0.0451
 8992TIP3    H126921   8.127   2.656   6.294 -1.4731  0.7916 -0.0058
 8992TIP3    H226922   8.124   2.605   6.151 -0.6008 -0.6258  0.4605
 8993TIP3   OH226923   6.750   0.976   5.612  0.4765  0.4302 -0.4970
 8993TIP3    H126924   6.737   0.944   5.701  0.5563 -0.1632 -0.6976
 8993TIP3    H226925   6.799   1.058   5.623 -2.6551  2.3707  0.2447
 8994TIP3   OH226926   6.956   6.810   6.295 -0.4692  0.4174  0.1905
 8994TIP3    H126927   6.952   6.740   6.360  0.4603  0.4694  0.3202
 8994TIP3    H226928   6.976   6.888   6.345 -2.2940  0.9630  0.1513
 8995TIP3   OH226929   3.457   5.432   6.107  0.2455  0.4403  0.0903
 8995TIP3    H126930   3.482   5.523   6.125  0.7585 -0.1572  2.8676
 8995TIP3    H226931   3.371   5.422   6.148  0.0983 -0.2788 -0.3774
 8996TIP3   OH226932   0.604   4.221   4.525  0.0562 -0.2435  0.0832
 8996TIP3    H126933   0.518   4.240   4.561  0.4207  0.7542  0.4723
 8996TIP3    H226934   0.664   4.227   4.600  0.4460 -1.1027 -0.1448
 8997TIP3   OH226935   4.457   7.670   3.682  0.0553  0.0656 -0.1498
 8997TIP3    H126936   4.530   7.645   3.740  0.9715 -0.0341 -1.2912
 8997TIP3    H226937   4.380   7.629   3.721  0.3729  1.2433  1.7989
 8998TIP3   OH226938   3.079   0.027   4.334 -0.4248 -0.0346 -0.1755
 8998TIP3    H126939   3.088   0.105   4.389  1.5715 -1.5457  1.8260
 8998TIP3    H226940   2.986   0.005   4.338 -0.6216  0.9334  1.1180
 8999TIP3   OH226941   1.065   5.245   4.004  0.0574 -0.0079 -0.0247
 8999TIP3    H126942   1.145   5.232   3.953  1.3114  0.5731  1.6935
 8999TIP3    H226943   1.079   5.328   4.050 -1.2940 -0.1778  0.7430
 9000TIP3   OH226944   4.449   2.035   3.543  0.2246  0.4600  0.5275
 9000TIP3    H126945   4.457   2.055   3.636  2.3551 -2.1152  1.0163
 9000TIP3    H226946   4.405   1.950   3.540  0.9319  0.1067 -0.7545
 9001TIP3   OH226947   3.847   3.714   1.324  0.9601 -0.0766  0.2181
 9001TIP3    H126948   3.898   3.710   1.405  2.4421 -3.7273 -0.6756
 9001TIP3    H226949   3.909   3.688   1.256 -1.4372 -2.3665 -1.3019
 9002TIP3   OH226950   5.560   7.403   6.077 -0.3486  0.1697  0.3032
 9002TIP3    H126951   5.580   7.496   6.082  1.1333 -0.1723  1.5090
 9002TIP3    H226952   5.465   7.399   6.065 -0.5459  1.8263  1.0897
 9003TIP3   OH226953   6.773   2.628   3.593 -0.1810  0.2527 -0.3993
 9003TIP3    H126954   6.866   2.647   3.581 -0.2491  0.1559 -1.1754
 9003TIP3    H226955   6.735   2.711   3.622  0.4656 -0.2131  1.9507
 9004TIP3   OH226956   3.814   5.900   6.079  0.0053  0.3550 -0.2087
 9004TIP3    H126957   3.878   5.957   6.038 -0.4719  0.7993 -0.3443
 9004TIP3    H226958   3.863   5.852   6.146 -0.0885  2.7886  1.7143
 9005TIP3   OH226959   5.755   1.259   4.460  0.1371 -0.2034  0.0900
 9005TIP3    H126960   5.762   1.329   4.525  1.6767 -0.9118  0.7591
 9005TIP3    H226961   5.795   1.295   4.381  1.3914 -0.4436  0.5811
 9006TIP3   OH226962   3.210   2.243   4.969  0.3357 -0.3338  0.0762
 9006TIP3    H126963   3.254   2.184   4.908 -1.4244 -0.5813 -1.0343
 9006TIP3    H226964   3.239   2.214   5.056  0.9072 -1.6631 -0.5250
 9007TIP3   OH226965   6.200   7.074   1.554  0.4780  0.1885 -0.0276
 9007TIP3    H126966   6.213   7.075   1.649  0.6927  0.4394 -0.0599
 9007TIP3    H226967   6.170   7.163   1.533 -0.2801 -0.0761 -0.0930
 9008TIP3   OH226968   3.874   0.801   0.812 -0.2971 -0.4763  0.1204
 9008TIP3    H126969   3.788   0.765   0.836  0.4960 -2.0281  0.7806
 9008TIP3    H226970   3.928   0.788   0.891  0.2937  1.4244  0.0896
 9009TIP3   OH226971   6.630   0.121   2.113 -0.6554 -0.3101 -0.1045
 9009TIP3    H126972   6.701   0.159   2.061  0.9949 -1.4543  1.1906
 9009TIP3    H226973   6.626   0.030   2.085 -1.5737 -0.2723 -0.1034
 9010TIP3   OH226974   4.304   0.829   1.475 -0.1643  0.1003 -0.1345
 9010TIP3    H126975   4.304   0.861   1.565  0.2194 -2.3459  0.8138
 9010TIP3    H226976   4.290   0.734   1.483  1.3927 -0.4275 -2.5560
 9011TIP3   OH226977   0.113   7.747   4.559 -0.1170  0.2557  0.0014
 9011TIP3    H126978   0.026   7.788   4.551 -0.0532  0.0042 -4.1830
 9011TIP3    H226979   0.094   7.654   4.572 -0.4284  0.3083 -0.0638
 9012TIP3   OH226980   0.701   5.103   1.357  0.4744  0.4670 -0.8047
 9012TIP3    H126981   0.796   5.119   1.364  0.6106 -0.3912 -0.6621
 9012TIP3    H226982   0.681   5.043   1.428 -0.0927  0.2584 -1.1366
 9013TIP3   OH226983   6.263   0.337   1.459  0.1442 -0.0589 -0.0121
 9013TIP3    H126984   6.263   0.341   1.363 -0.6699  0.4626  0.0059
 9013TIP3    H226985   6.184   0.383   1.485  0.0400 -0.7400  0.9000
 9014TIP3   OH226986   6.267   5.173   5.668 -0.3581  0.5118  0.0128
 9014TIP3    H126987   6.172   5.170   5.672 -0.3324 -0.9022 -0.0390
 9014TIP3    H226988   6.287   5.199   5.577 -0.6903  0.4294 -0.0839
 9015TIP3   OH226989   3.100   0.327   6.326 -0.5740 -0.0265  0.1730
 9015TIP3    H126990   3.143   0.372   6.398  0.5326 -0.8345  0.0423
 9015TIP3    H226991   3.009   0.316   6.354 -0.1314 -0.4464  1.5086
 9016TIP3   OH226992   7.531   2.637   2.016  0.0456 -0.3007 -0.0303
 9016TIP3    H126993   7.624   2.645   2.035 -0.0361 -0.9608  0.6781
 9016TIP3    H226994   7.522   2.671   1.926  1.1603 -1.3965 -0.5794
 9017TIP3   OH226995   2.703   1.412   1.594 -0.0022 -0.2446 -0.1683
 9017TIP3    H126996   2.785   1.436   1.636 -0.0185 -0.4993  0.0116
 9017TIP3    H226997   2.654   1.493   1.587 -1.6246 -0.6746  3.7348
 9018TIP3   OH226998   5.789   4.854   6.168  0.0791 -0.6504 -0.3037
 9018TIP3    H126999   5.817   4.772   6.210  0.7428 -0.5380 -0.5204
 9018TIP3    H227000   5.711   4.880   6.217  1.2206 -0.1536  1.3499
 9019TIP3   OH227001   5.708   6.270   4.111 -0.4531  0.2226  0.2063
 9019TIP3    H127002   5.616   6.263   4.135 -0.5442  0.0087 -0.1907
 9019TIP3    H227003   5.710   6.335   4.041 -0.6955 -1.7068 -1.6979
 9020TIP3   OH227004   4.287   4.855   1.727 -0.2723 -0.1920 -0.2091
 9020TIP3    H127005   4.349   4.877   1.796 -1.1940 -0.1181  0.6239
 9020TIP3    H227006   4.222   4.926   1.730 -1.6620 -1.4325  0.5334
 9021TIP3   OH227007   1.082   0.691   3.194 -0.2166  0.1420 -0.7450
 9021TIP3    H127008   1.142   0.617   3.198  0.1207  0.3649 -1.5925
 9021TIP3    H227009   1.002   0.655   3.156 -1.3618 -0.6097  2.0748
 9022TIP3   OH227010   6.025   5.181   6.367  0.0627  0.6373  0.6034
 9022TIP3    H127011   6.091   5.250   6.355  1.2326 -0.5586 -0.1566
 9022TIP3    H227012   6.072   5.100   6.347 -1.7201 -0.2374 -0.2732
 9023TIP3   OH227013   1.433   0.377   5.540 -0.3731 -1.4774  0.1310
 9023TIP3    H127014   1.401   0.334   5.461  1.7090 -1.5646 -0.7344
 9023TIP3    H227015   1.390   0.462   5.540 -0.8766 -1.7188 -0.7742
 9024TIP3   OH227016   4.431   6.215   6.184  0.2415  0.0855 -0.9786
 9024TIP3    H127017   4.351   6.196   6.232  1.6633  0.2794  1.6404
 9024TIP3    H227018   4.449   6.307   6.203  1.7924 -0.3188 -0.3358
 9025TIP3   OH227019   5.592   5.803   1.208  0.2713  0.6442 -0.3532
 9025TIP3    H127020   5.499   5.822   1.198  0.2840 -0.1930 -2.9696
 9025TIP3    H227021   5.634   5.889   1.216 -0.6543  1.0449  0.4194
 9026TIP3   OH227022   3.113   1.366   0.788 -0.2003 -0.2702 -0.0088
 9026TIP3    H127023   3.059   1.288   0.771 -0.2393 -0.6660  1.6943
 9026TIP3    H227024   3.066   1.413   0.857  0.7696  0.2738  0.3051
 9027TIP3   OH227025   5.795   3.153   5.541 -0.3807  0.1164 -0.0075
 9027TIP3    H127026   5.711   3.192   5.517 -0.5164  0.4602  0.9860
 9027TIP3    H227027   5.782   3.059   5.525 -0.2927  0.3592 -1.7011
 9028TIP3   OH227028   0.699   3.434   5.269  0.3018  0.0064 -0.1927
 9028TIP3    H127029   0.644   3.423   5.192  1.0256 -0.4145 -0.6534
 9028TIP3    H227030   0.691   3.527   5.291 -0.7958 -0.0909 -0.0843
 9029TIP3   OH227031   5.969   0.561   5.304  0.0969 -0.4893  0.0495
 9029TIP3    H127032   5.905   0.631   5.295 -0.6318 -1.3792 -2.5590
 9029TIP3    H227033   5.945   0.517   5.385 -2.6759 -0.7803 -0.8059
 9030TIP3   OH227034   4.941   5.967   0.682 -0.2942 -0.4903  0.1244
 9030TIP3    H127035   4.897   6.051   0.668  0.1421 -0.1946  0.4967
 9030TIP3    H227036   4.875   5.901   0.662 -0.5405 -0.0588 -0.4981
 9031TIP3   OH227037   6.452   4.439   2.767 -0.6873 -0.5871  0.0340
 9031TIP3    H127038   6.425   4.407   2.681  1.1384 -0.7145 -0.5224
 9031TIP3    H227039   6.371   4.437   2.819 -1.7377 -0.8998 -1.5380
 9032TIP3   OH227040   6.815   0.607   0.225 -0.0947 -0.2894  0.2637
 9032TIP3    H127041   6.864   0.678   0.267  0.6031 -0.9799  0.6783
 9032TIP3    H227042   6.752   0.578   0.292 -0.5109  0.0683  0.0251
 9033TIP3   OH227043   8.270   6.917   1.244 -0.7733  0.3839  0.1634
 9033TIP3    H127044   8.258   6.986   1.310 -2.4096  1.9387 -1.6512
 9033TIP3    H227045   8.272   6.964   1.161  0.6294 -1.5780 -0.9884
 9034TIP3   OH227046   0.519   4.791   5.087  0.1193  0.3160  0.2066
 9034TIP3    H127047   0.495   4.819   5.175 -0.8253  2.4193 -0.6388
 9034TIP3    H227048   0.606   4.829   5.072 -0.4300  1.4037 -0.3309
 9035TIP3   OH227049   4.054   5.253   1.351  0.0869 -0.1288 -0.0813
 9035TIP3    H127050   3.962   5.278   1.346  0.3931  0.9339 -1.0881
 9035TIP3    H227051   4.085   5.262   1.261  1.1711 -0.4819  0.2446
 9036TIP3   OH227052   1.980   5.452   3.317 -0.3851 -0.2235  0.4914
 9036TIP3    H127053   1.924   5.473   3.242 -1.2360  0.4326  1.2813
 9036TIP3    H227054   1.980   5.356   3.320 -1.1180 -0.2441  0.2091
 9037TIP3   OH227055   0.667   7.379   4.100  0.2344 -0.1845 -0.6689
 9037TIP3    H127056   0.750   7.420   4.075  1.2811 -1.6629  0.1866
 9037TIP3    H227057   0.681   7.286   4.083  0.1413 -0.9956  2.8059
 9038TIP3   OH227058   7.803   1.903   3.947 -0.5281  0.4562  0.5969
 9038TIP3    H127059   7.879   1.885   3.892 -1.4912 -0.2040 -0.5577
 9038TIP3    H227060   7.835   1.966   4.012  0.8807  0.5335 -0.1314
 9039TIP3   OH227061   2.091   2.510   1.207 -0.4972  0.5467  0.6495
 9039TIP3    H127062   2.058   2.590   1.249 -2.2060  0.4906 -0.4583
 9039TIP3    H227063   2.122   2.539   1.122 -0.4922  0.1221  0.5049
 9040TIP3   OH227064   3.405   3.053   1.062 -1.0341  0.0296 -0.5366
 9040TIP3    H127065   3.379   3.033   1.152 -1.5092 -0.3009 -0.7431
 9040TIP3    H227066   3.329   3.029   1.009 -0.5113 -0.4308 -1.0958
 9041TIP3   OH227067   0.034   5.922   1.195  0.5001  0.1058 -0.2570
 9041TIP3    H127068  -0.005   6.003   1.164 -1.6623 -0.9592 -0.5400
 9041TIP3    H227069   0.002   5.912   1.285 -1.0913 -1.4413 -0.9286
 9042TIP3   OH227070   1.226   4.079   3.902 -0.8077 -0.3902  0.3193
 9042TIP3    H127071   1.173   4.146   3.860 -0.5164 -0.2057  0.2384
 9042TIP3    H227072   1.316   4.113   3.896 -0.9402  0.6508  2.9711
 9043TIP3   OH227073   8.008   2.123   2.870 -0.0834 -0.4208  0.5914
 9043TIP3    H127074   8.000   2.166   2.785 -0.9417 -0.4196  0.6710
 9043TIP3    H227075   8.041   2.036   2.850 -1.8588 -0.9983  0.1013
 9044TIP3   OH227076   3.357   2.047   0.480 -0.0851 -0.2336  0.0603
 9044TIP3    H127077   3.415   2.033   0.555  0.6756 -2.5393 -0.8666
 9044TIP3    H227078   3.394   1.993   0.411 -2.0215  0.0948 -1.3095
 9045TIP3   OH227079   3.758   1.145   3.001  0.7071 -0.3734 -0.0739
 9045TIP3    H127080   3.818   1.151   3.075  0.9858  0.9784 -0.3714
 9045TIP3    H227081   3.740   1.052   2.992  0.0222 -0.5078  2.1792
 9046TIP3   OH227082   7.732   5.624   3.137  0.0121 -0.4038  0.3785
 9046TIP3    H127083   7.763   5.712   3.116  1.6958 -1.1777 -0.5684
 9046TIP3    H227084   7.807   5.567   3.120 -1.6360 -2.2798 -1.0476
 9047TIP3   OH227085   3.273   4.701   0.179  0.3911 -0.1748 -0.0197
 9047TIP3    H127086   3.191   4.726   0.221  1.2212  1.0820  0.9412
 9047TIP3    H227087   3.325   4.662   0.249  0.6528 -0.8956 -0.6024
 9048TIP3   OH227088   0.266   3.854   3.285  0.3902  0.2041 -0.5724
 9048TIP3    H127089   0.272   3.815   3.198  1.8735 -0.6312 -0.1332
 9048TIP3    H227090   0.357   3.859   3.315 -0.1534 -0.7527  1.4330
 9049TIP3   OH227091   4.292   2.584   0.169  0.5900 -0.2915 -0.7593
 9049TIP3    H127092   4.207   2.542   0.156  0.5410 -0.5236  0.2261
 9049TIP3    H227093   4.273   2.678   0.164 -0.2624 -0.2157  2.1150
 9050TIP3   OH227094   0.127   4.355   3.181 -0.5047 -0.0262 -0.1253
 9050TIP3    H127095   0.179   4.285   3.222 -1.3119  0.3849  1.7488
 9050TIP3    H227096   0.191   4.411   3.137  0.3737 -0.8208  0.1035
 9051TIP3   OH227097   3.722   1.434   3.985  0.2553 -0.3456  0.1007
 9051TIP3    H127098   3.638   1.479   3.973  0.6195  0.4829  0.5771
 9051TIP3    H227099   3.718   1.399   4.074  0.2994 -0.5640  0.0180
 9052TIP3   OH227100   7.342   6.711   6.503  0.1460  0.7552 -0.2585
 9052TIP3    H127101   7.387   6.795   6.498 -0.2859  0.9431 -1.0241
 9052TIP3    H227102   7.378   6.661   6.430  0.7621  0.0850  0.4784
 9053TIP3   OH227103   1.340   1.800   6.265 -0.1355  0.0992  0.4316
 9053TIP3    H127104   1.249   1.811   6.294 -0.2899 -1.6837  0.6908
 9053TIP3    H227105   1.336   1.803   6.170 -0.4671 -0.0518  0.4417
 9054TIP3   OH227106   2.525   2.056   2.286  0.4171  0.5964 -0.2116
 9054TIP3    H127107   2.433   2.029   2.288  0.2072  0.7563 -2.9549
 9054TIP3    H227108   2.522   2.151   2.291  0.5141  0.5695  0.4768
 9055TIP3   OH227109   1.730   7.621   3.915 -0.1607  0.4778  0.5060
 9055TIP3    H127110   1.679   7.673   3.852 -2.2808 -0.7793  1.0789
 9055TIP3    H227111   1.716   7.666   3.998  0.4314  0.6286  0.5259
 9056TIP3   OH227112   5.654   5.542   3.983  0.1792 -0.2145 -0.3762
 9056TIP3    H127113   5.593   5.581   4.046 -1.4279 -2.2533 -0.5614
 9056TIP3    H227114   5.671   5.612   3.920 -0.4873  0.9799  0.7220
 9057TIP3   OH227115   1.171   1.563   4.940 -0.0846  0.2628 -0.3268
 9057TIP3    H127116   1.136   1.597   5.023  1.3056 -0.4510  0.5881
 9057TIP3    H227117   1.190   1.641   4.889 -2.2219  0.6867 -0.5496
 9058TIP3   OH227118   2.532   2.336   5.245 -1.3262  0.2050 -0.3610
 9058TIP3    H127119   2.468   2.312   5.179 -2.1996 -0.1284  0.5714
 9058TIP3    H227120   2.496   2.414   5.287 -0.5253  0.7253 -0.6168
 9059TIP3   OH227121   1.601   0.461   0.363 -0.6398  0.4356 -0.6008
 9059TIP3    H127122   1.642   0.521   0.425  1.0084 -0.4752 -0.7348
 9059TIP3    H227123   1.521   0.433   0.406 -0.0110  0.5671  0.7145
 9060TIP3   OH227124   3.931   1.860   6.089 -0.0630  0.4957 -0.1535
 9060TIP3    H127125   3.985   1.938   6.079 -0.2185  0.7864  1.0579
 9060TIP3    H227126   3.841   1.891   6.074 -0.1439  0.6029  0.5222
 9061TIP3   OH227127   7.784   7.493   4.664 -0.6375 -0.5677  0.2370
 9061TIP3    H127128   7.711   7.461   4.610 -0.8670 -1.9853  1.3540
 9061TIP3    H227129   7.754   7.579   4.695 -0.8515 -0.1007 -1.1603
 9062TIP3   OH227130   3.049   4.473   4.016 -0.1071 -0.0032 -0.1834
 9062TIP3    H127131   2.986   4.482   4.088 -1.4779  0.2922 -1.3602
 9062TIP3    H227132   3.053   4.379   3.999 -0.9547  0.0315 -0.6700
 9063TIP3   OH227133   1.411   3.510   0.463  0.4098 -0.3231  0.0226
 9063TIP3    H127134   1.494   3.551   0.438  0.4299 -1.9255 -2.9747
 9063TIP3    H227135   1.355   3.584   0.488  1.9313  1.0411 -0.3862
 9064TIP3   OH227136   0.781   3.734   3.452  0.4015  0.0257  0.0034
 9064TIP3    H127137   0.740   3.808   3.497 -1.0117 -0.2062 -0.8212
 9064TIP3    H227138   0.751   3.743   3.361  0.0804 -1.6275 -0.0778
 9065TIP3   OH227139   5.935   0.429   2.234 -0.0853  0.4435  0.2952
 9065TIP3    H127140   6.012   0.420   2.179 -0.5143  0.0146 -0.2447
 9065TIP3    H227141   5.896   0.342   2.237 -1.1369  0.8648 -0.3190
 9066TIP3   OH227142   3.762   2.912   1.550 -0.0650  0.0050  0.2443
 9066TIP3    H127143   3.835   2.895   1.490  0.2159  0.6875  0.3894
 9066TIP3    H227144   3.788   2.869   1.632  0.9136  1.5726  0.7948
 9067TIP3   OH227145   7.653   4.115   4.837  0.1780  0.3829 -0.4768
 9067TIP3    H127146   7.626   4.201   4.806  0.3546  1.1162  1.2644
 9067TIP3    H227147   7.749   4.118   4.836  0.1849  0.2847 -0.2213
 9068TIP3   OH227148   8.071   1.162   2.346 -0.0353  0.3866 -0.2210
 9068TIP3    H127149   8.067   1.238   2.287 -0.0410  0.5157 -0.0555
 9068TIP3    H227150   8.096   1.089   2.290  0.8529  0.6843 -0.2299
 9069TIP3   OH227151   7.363   5.294   0.916 -0.5442 -0.7987 -0.0565
 9069TIP3    H127152   7.401   5.358   0.975 -1.4376 -0.8004  0.5388
 9069TIP3    H227153   7.436   5.237   0.892 -0.2470 -1.0259  1.3324
 9070TIP3   OH227154   0.360   2.305   4.705  0.5112  0.0588  0.2320
 9070TIP3    H127155   0.279   2.330   4.750 -0.3318 -0.9523 -0.6581
 9070TIP3    H227156   0.336   2.305   4.612  1.1103 -1.6962  0.0508
 9071TIP3   OH227157   7.066   4.930   0.378 -0.1662 -0.4971 -0.5945
 9071TIP3    H127158   7.093   4.839   0.384  1.0543 -0.1828 -1.1227
 9071TIP3    H227159   7.040   4.953   0.467  0.3781 -1.1001 -0.2728
 9072TIP3   OH227160   0.306   5.856   5.608 -0.4750  0.2923 -0.1242
 9072TIP3    H127161   0.236   5.914   5.578 -0.1632  0.5471 -0.3580
 9072TIP3    H227162   0.375   5.915   5.639 -0.3400  0.0420  0.0603
 9073TIP3   OH227163   6.765   0.585   5.043 -0.1803  0.1933  0.4180
 9073TIP3    H127164   6.776   0.576   4.948  0.6218  0.2760  0.4958
 9073TIP3    H227165   6.779   0.497   5.077  0.7953  0.4015  0.5686
 9074TIP3   OH227166   4.864   3.983   4.452  0.1797 -0.7765  0.0106
 9074TIP3    H127167   4.816   3.969   4.534 -1.3324 -0.3691 -0.7770
 9074TIP3    H227168   4.920   4.059   4.471 -4.2240  3.1310 -0.8594
 9075TIP3   OH227169   3.938   1.859   4.535 -0.2065 -0.9199 -0.2273
 9075TIP3    H127170   3.856   1.820   4.504 -0.5081 -0.4668 -0.0171
 9075TIP3    H227171   3.998   1.786   4.544 -1.2343 -1.6035  1.6867
 9076TIP3   OH227172   5.712   5.582   3.122 -0.4718  0.1812 -0.7621
 9076TIP3    H127173   5.722   5.546   3.211  0.2965 -0.0399 -0.9356
 9076TIP3    H227174   5.799   5.577   3.084 -0.4614  1.6940 -1.0069
 9077TIP3   OH227175   5.863   5.454   1.095 -0.3328  0.8780 -0.6536
 9077TIP3    H127176   5.935   5.424   1.150 -0.3237  0.4726 -0.8810
 9077TIP3    H227177   5.808   5.505   1.153 -1.7048 -1.6192  0.4133
 9078TIP3   OH227178   2.808   0.207   2.336 -0.5053  0.0650  0.1666
 9078TIP3    H127179   2.737   0.144   2.345 -0.5213  0.1570  0.7151
 9078TIP3    H227180   2.885   0.162   2.372 -0.1716 -0.2215 -0.8777
 9079TIP3   OH227181   3.107   3.185   4.912  0.2781  0.4645 -0.5566
 9079TIP3    H127182   3.031   3.128   4.902 -0.1669  0.9142  0.1759
 9079TIP3    H227183   3.138   3.169   5.001  0.4348  1.0185 -0.5063
 9080TIP3   OH227184   5.294   7.542   6.460  0.0698  0.2187  0.2255
 9080TIP3    H127185   5.324   7.631   6.480 -0.7473  0.4205  0.5903
 9080TIP3    H227186   5.246   7.515   6.538  0.2752 -0.5345  0.0971
 9081TIP3   OH227187   4.293   4.171   5.325  0.1884  0.4264  0.5055
 9081TIP3    H127188   4.208   4.208   5.350  0.0676  1.1798 -0.8710
 9081TIP3    H227189   4.289   4.167   5.229  1.4279 -0.2321  0.4667
 9082TIP3   OH227190   4.285   3.934   4.378 -0.3863 -0.2130 -0.4136
 9082TIP3    H127191   4.213   3.954   4.438  1.0595  0.2341  1.2587
 9082TIP3    H227192   4.323   3.853   4.411  0.0373 -0.3226 -1.1343
 9083TIP3   OH227193   1.350   2.390   3.586  0.8183  0.3790  0.1588
 9083TIP3    H127194   1.304   2.412   3.667  0.7053  0.7532 -0.0076
 9083TIP3    H227195   1.441   2.380   3.613  0.7664  0.4111  0.3497
 9084TIP3   OH227196   5.230   0.818   4.890  0.1553  0.2788 -0.1608
 9084TIP3    H127197   5.307   0.774   4.926  0.1522 -0.0772 -0.5761
 9084TIP3    H227198   5.161   0.751   4.892 -0.0710  0.5127 -0.0477
 9085TIP3   OH227199   8.136   4.275   5.386 -0.0162 -0.0041  0.0066
 9085TIP3    H127200   8.112   4.235   5.469 -1.8802 -0.2324 -0.6059
 9085TIP3    H227201   8.107   4.212   5.320  0.0789  0.8486 -0.8690
 9086TIP3   OH227202   2.967   5.853   4.695 -0.4595  0.0072  0.2297
 9086TIP3    H127203   2.983   5.827   4.786  0.3937  0.7263  0.2919
 9086TIP3    H227204   2.958   5.770   4.648  0.8036 -0.4004  0.6746
 9087TIP3   OH227205   7.698   0.303   6.457 -0.0642 -0.0254 -0.8479
 9087TIP3    H127206   7.667   0.317   6.546 -0.2916 -0.5946 -0.8325
 9087TIP3    H227207   7.648   0.227   6.426  0.3283 -0.1031 -1.3046
 9088TIP3   OH227208   2.548   3.296   4.646  0.3490  0.2720  0.0804
 9088TIP3    H127209   2.539   3.303   4.741  1.7970  4.7740  0.1262
 9088TIP3    H227210   2.640   3.272   4.632  0.5184  1.0398 -0.1570
 9089TIP3   OH227211   5.453   5.503   1.932 -0.1140  0.3043 -0.4235
 9089TIP3    H127212   5.523   5.456   1.978 -0.6872  0.4814  0.6611
 9089TIP3    H227213   5.500   5.564   1.874  0.6204 -0.2833 -0.4663
 9090TIP3   OH227214   2.469   2.953   0.145  0.4436 -0.5382  0.7840
 9090TIP3    H127215   2.382   2.926   0.113  0.7127 -1.8054  1.0533
 9090TIP3    H227216   2.451   3.028   0.202 -0.3296  0.0262 -0.1684
 9091TIP3   OH227217   7.372   5.017   4.481 -0.0563 -0.0109  0.1046
 9091TIP3    H127218   7.347   4.983   4.568 -2.0143  1.4561  0.2011
 9091TIP3    H227219   7.318   5.096   4.471 -0.0462 -0.2691 -2.5475
 9092TIP3   OH227220   2.261   5.002   3.762 -0.0967 -0.4417  0.1242
 9092TIP3    H127221   2.166   5.014   3.768  0.0231  0.9152 -0.4952
 9092TIP3    H227222   2.278   4.984   3.670  0.4672  1.5973 -0.2051
 9093TIP3   OH227223   5.988   7.546   6.037 -0.4920 -0.4077  0.0382
 9093TIP3    H127224   5.983   7.571   6.129  1.4395  2.6565 -0.5621
 9093TIP3    H227225   5.909   7.584   5.997 -0.2523  0.1060  0.0551
 9094TIP3   OH227226   0.645   3.761   3.846  0.1199  0.2015 -0.1703
 9094TIP3    H127227   0.667   3.807   3.766 -0.1814 -0.1133 -0.4368
 9094TIP3    H227228   0.573   3.811   3.884  0.9365  0.9448  0.4453
 9095TIP3   OH227229   3.137   3.112   5.749 -0.2872  0.5398  0.7359
 9095TIP3    H127230   3.181   3.174   5.692  0.0735  0.5329  1.0027
 9095TIP3    H227231   3.174   3.027   5.726 -1.6304  0.2506 -0.4513
 9096TIP3   OH227232   6.434   5.914   0.918 -0.2740 -0.1967 -0.1083
 9096TIP3    H127233   6.389   5.843   0.963  0.6970 -0.8086 -0.0812
 9096TIP3    H227234   6.406   5.907   0.827 -0.1513 -0.6408 -0.1130
 9097TIP3   OH227235   1.059   5.743   3.455  0.8540  0.6589 -0.1450
 9097TIP3    H127236   0.970   5.767   3.483  0.1274 -1.1316 -0.7652
 9097TIP3    H227237   1.104   5.721   3.536 -0.0600 -0.8138  0.0004
 9098TIP3   OH227238   3.695   2.722   0.330 -0.4799  0.2547 -0.1704
 9098TIP3    H127239   3.619   2.741   0.275  0.8052  2.9577 -1.2039
 9098TIP3    H227240   3.731   2.808   0.351  1.4774 -0.8778  1.5019
 9099TIP3   OH227241   6.036   1.895   0.940 -0.0599  0.3085 -0.0379
 9099TIP3    H127242   6.060   1.910   0.848 -0.7931  0.7023 -0.1735
 9099TIP3    H227243   6.004   1.980   0.971 -1.6508 -0.2563 -0.0002
 9100TIP3   OH227244   1.767   4.122   5.759 -0.3999 -0.1297  0.3355
 9100TIP3    H127245   1.730   4.089   5.677 -0.2706  2.3165 -0.7971
 9100TIP3    H227246   1.848   4.071   5.771 -2.2635 -3.2011  1.0872
 9101TIP3   OH227247   4.081   2.919   5.834 -0.5463  0.1472 -0.1748
 9101TIP3    H127248   4.068   3.013   5.827 -2.5442  0.0402  1.1332
 9101TIP3    H227249   4.013   2.890   5.895  2.2139 -1.6580  2.3174
 9102TIP3   OH227250   7.015   3.606   3.005 -0.0919  0.6193 -0.5313
 9102TIP3    H127251   6.938   3.585   2.952  0.1039  0.0546 -0.5980
 9102TIP3    H227252   7.052   3.684   2.964 -0.1394  0.3881 -1.0200
 9103TIP3   OH227253   6.404   5.580   0.103  0.2485 -0.2787  0.5673
 9103TIP3    H127254   6.348   5.595   0.027  0.1752  1.2338  0.9010
 9103TIP3    H227255   6.457   5.659   0.110  0.6354 -0.6298  1.7747
 9104TIP3   OH227256   3.773   6.805   0.075  0.0841  0.1153 -0.4746
 9104TIP3    H127257   3.854   6.768   0.039  0.0888 -0.6883  0.3113
 9104TIP3    H227258   3.703   6.758   0.029  0.0548  0.5790 -0.9184
 9105TIP3   OH227259   5.939   7.060   0.133  0.5377 -0.1550 -0.0045
 9105TIP3    H127260   5.922   7.150   0.160  0.2079 -0.6714  1.6028
 9105TIP3    H227261   5.884   7.047   0.056  1.9314  1.5523 -1.3837
 9106TIP3   OH227262   5.666   7.712   6.116  0.8388 -0.0656  0.1491
 9106TIP3    H127263   5.697   7.685   6.203  0.5212 -0.5616  0.1110
 9106TIP3    H227264   5.585   7.760   6.134  0.5172 -0.5825  0.0939
 9107TIP3   OH227265   6.199   1.266   3.098 -0.5687 -0.2456  0.1420
 9107TIP3    H127266   6.290   1.268   3.068 -1.0483 -1.4367 -1.6010
 9107TIP3    H227267   6.177   1.173   3.101 -2.3575  0.0476 -1.6848
 9108TIP3   OH227268   1.897   3.876   2.451 -0.3830 -0.2657 -0.4857
 9108TIP3    H127269   1.896   3.856   2.544  2.4495 -0.1314 -0.3210
 9108TIP3    H227270   1.837   3.813   2.411  0.3651 -2.0936  1.1570
 9109TIP3   OH227271   5.605   0.385   2.252  0.5371 -0.3217  0.4849
 9109TIP3    H127272   5.693   0.387   2.216  1.2678 -0.0047  2.2076
 9109TIP3    H227273   5.548   0.378   2.175  1.8660  2.4496 -0.8709
 9110TIP3   OH227274   6.877   7.194   5.010 -0.0764 -0.4132 -0.1041
 9110TIP3    H127275   6.918   7.124   4.959 -1.2547 -0.6281 -0.7958
 9110TIP3    H227276   6.928   7.197   5.091  0.1551 -1.9149 -0.1511
 9111TIP3   OH227277   1.573   2.416   2.634  0.4734 -0.2667  0.0344
 9111TIP3    H127278   1.480   2.396   2.625  0.4350 -0.4247  0.7219
 9111TIP3    H227279   1.576   2.486   2.699  0.8173 -0.1024 -0.1590
 9112TIP3   OH227280   0.213   6.737   2.428  0.1601  0.0197 -0.1835
 9112TIP3    H127281   0.130   6.765   2.389  0.1536  0.4770  0.1466
 9112TIP3    H227282   0.240   6.811   2.483  0.4354 -0.3974  0.2599
 9113TIP3   OH227283   5.655   6.708   0.319 -0.1494 -0.5660  0.7136
 9113TIP3    H127284   5.585   6.713   0.254  0.3687  0.6902  0.1969
 9113TIP3    H227285   5.611   6.699   0.403 -1.0283  1.3191  0.5201
 9114TIP3   OH227286   3.748   6.866   4.760 -0.1031 -0.0749 -0.1692
 9114TIP3    H127287   3.687   6.934   4.731 -1.5208 -0.2545  2.1382
 9114TIP3    H227288   3.695   6.788   4.770  0.3607 -0.1840  2.1454
 9115TIP3   OH227289   5.705   7.281   3.202 -0.0596  0.2573 -0.4328
 9115TIP3    H127290   5.641   7.352   3.196  0.9876  1.1100 -2.0909
 9115TIP3    H227291   5.731   7.265   3.112  0.0049 -2.0218 -0.0627
 9116TIP3   OH227292   7.523   3.128   0.905  0.2826 -0.3726  0.0702
 9116TIP3    H127293   7.585   3.069   0.947  1.9791  0.0080 -1.7291
 9116TIP3    H227294   7.559   3.142   0.817 -2.5779 -0.4198 -1.2173
 9117TIP3   OH227295   0.061   4.176   0.076  0.4605  0.0328 -0.2376
 9117TIP3    H127296   0.084   4.240   0.143 -0.4136 -1.7182  1.8537
 9117TIP3    H227297   0.085   4.092   0.114  1.3511 -0.9719 -2.7857
 9118TIP3   OH227298   6.621   6.183   4.675  0.3852 -0.7087 -0.1476
 9118TIP3    H127299   6.622   6.233   4.757 -0.9119 -0.9308  0.0341
 9118TIP3    H227300   6.675   6.106   4.693  0.9592 -0.2409  0.1497
 9119TIP3   OH227301   7.327   0.491   2.084 -0.4520 -0.1138  0.1103
 9119TIP3    H127302   7.400   0.541   2.047  0.9776 -1.3079  1.2381
 9119TIP3    H227303   7.272   0.558   2.127  0.9441  0.6103  0.8283
 9120TIP3   OH227304   4.350   0.744   5.093  0.0712  0.5519  0.7292
 9120TIP3    H127305   4.418   0.798   5.054  1.3875 -0.4453  1.5686
 9120TIP3    H227306   4.268   0.777   5.054  0.7241  3.4273  1.5704
 9121TIP3   OH227307   4.404   6.035   3.744  0.0628  0.5483 -0.2430
 9121TIP3    H127308   4.387   6.046   3.650  0.2116  1.9058 -0.1197
 9121TIP3    H227309   4.488   5.989   3.747 -0.0981  0.2032 -0.7721
 9122TIP3   OH227310   4.642   1.868   5.484 -0.0319 -0.0764 -0.5614
 9122TIP3    H127311   4.644   1.823   5.400  1.6432 -1.3968  0.1186
 9122TIP3    H227312   4.720   1.923   5.484 -0.8121  1.0625 -0.4397
 9123TIP3   OH227313   4.894   3.601   6.401  0.5418  0.2357 -0.3365
 9123TIP3    H127314   4.910   3.680   6.454  0.0638 -0.1490  0.3877
 9123TIP3    H227315   4.921   3.529   6.457  2.1722 -0.0857 -1.4530
 9124TIP3   OH227316   2.649   0.102   2.770 -0.1673 -0.1256 -0.0562
 9124TIP3    H127317   2.579   0.141   2.822 -0.9817 -0.8157 -0.6051
 9124TIP3    H227318   2.631   0.131   2.680  0.2544 -0.2972 -0.1990
 9125TIP3   OH227319   3.240   4.316   2.208 -0.4811  0.5454  0.2585
 9125TIP3    H127320   3.250   4.251   2.278 -2.4462  1.8981  1.9372
 9125TIP3    H227321   3.153   4.352   2.222 -0.8045  1.1915 -2.7161
 9126TIP3   OH227322   6.918   2.363   2.477  0.0415  0.3850  0.2187
 9126TIP3    H127323   6.933   2.291   2.538 -1.1975 -0.9777 -1.0382
 9126TIP3    H227324   6.838   2.405   2.509 -0.1843  0.1482 -0.0408
 9127TIP3   OH227325   5.187   6.321   1.355  0.4917  0.0203  0.0682
 9127TIP3    H127326   5.279   6.296   1.370  0.1819 -0.6050  1.0301
 9127TIP3    H227327   5.139   6.276   1.424 -0.6138 -0.0819 -0.7437
 9128TIP3   OH227328   6.067   1.933   3.075 -0.5645 -0.0536  0.6165
 9128TIP3    H127329   6.092   1.993   3.145  0.6876  0.5376 -0.3027
 9128TIP3    H227330   6.145   1.878   3.062 -1.3760 -1.2917  0.8248
 9129TIP3   OH227331   0.890   2.119   0.778 -0.1977  0.2957 -0.1438
 9129TIP3    H127332   0.824   2.107   0.846 -1.6127 -1.6451 -1.7072
 9129TIP3    H227333   0.964   2.067   0.808  0.2819  1.6735  1.1561
 9130TIP3   OH227334   1.034   4.522   1.392 -0.0734 -0.9457 -0.2526
 9130TIP3    H127335   1.042   4.433   1.427 -2.4636 -0.9794  0.3340
 9130TIP3    H227336   1.062   4.515   1.301  0.0920 -2.2182 -0.1158
 9131TIP3   OH227337   0.268   6.998   1.014  0.0445 -0.1881 -0.5580
 9131TIP3    H127338   0.350   6.970   0.974 -0.3413 -1.2223 -0.6734
 9131TIP3    H227339   0.281   6.983   1.108  0.5716  1.2390 -0.3811
 9132TIP3   OH227340   6.893   1.971   2.003  0.4139 -0.0545 -0.1635
 9132TIP3    H127341   6.860   1.965   2.092 -1.9118 -0.4023 -0.9697
 9132TIP3    H227342   6.971   2.027   2.009  0.5544 -0.4234  2.1093
 9133TIP3   OH227343   2.752   0.995   1.322 -0.4420  0.0683  0.1413
 9133TIP3    H127344   2.721   1.051   1.392  0.0241  0.7692 -0.2018
 9133TIP3    H227345   2.844   1.020   1.310 -0.1864 -0.8639  0.0756
 9134TIP3   OH227346   5.738   2.531   5.479  0.5274 -0.4936  0.1035
 9134TIP3    H127347   5.746   2.626   5.485 -0.5326 -0.4396  0.8929
 9134TIP3    H227348   5.645   2.516   5.464  0.4334 -1.4672  1.4928
 9135TIP3   OH227349   0.368   6.669   1.782  0.0063 -0.3950 -0.1804
 9135TIP3    H127350   0.426   6.623   1.843  1.8914 -1.1135 -2.3696
 9135TIP3    H227351   0.287   6.617   1.783  0.8196 -1.7247  0.0408
 9136TIP3   OH227352   3.848   1.573   2.182 -0.1477  0.1353 -0.0750
 9136TIP3    H127353   3.926   1.564   2.128  0.8436  0.2565  1.3019
 9136TIP3    H227354   3.860   1.656   2.228 -0.8861 -0.0584  0.4946
 9137TIP3   OH227355   2.248   0.202   2.096 -0.6579 -0.8831  0.0118
 9137TIP3    H127356   2.332   0.230   2.133 -0.1282 -1.7973 -0.4596
 9137TIP3    H227357   2.195   0.178   2.173 -0.2952 -0.8119  0.2858
 9138TIP3   OH227358   5.707   5.519   2.846  0.3067 -0.0678  0.4547
 9138TIP3    H127359   5.688   5.547   2.935 -0.3355  0.5206  0.1419
 9138TIP3    H227360   5.734   5.599   2.801  1.4728 -0.5108  0.3333
 9139TIP3   OH227361   5.135   6.598   4.181 -0.0351 -0.1210  0.0038
 9139TIP3    H127362   5.205   6.597   4.246 -1.0964 -2.4458  1.2225
 9139TIP3    H227363   5.068   6.539   4.216 -1.9346  0.7681 -1.8613
 9140TIP3   OH227364   4.985   0.695   4.144 -0.7753  0.1570  0.3609
 9140TIP3    H127365   4.977   0.642   4.065  0.3067 -0.2463  0.5087
 9140TIP3    H227366   5.079   0.696   4.163 -0.8249  1.7526  0.6297
 9141TIP3   OH227367   5.137   4.925   4.047  0.4242 -0.0179 -0.0859
 9141TIP3    H127368   5.074   4.961   4.109  0.4439 -0.1530  0.0115
 9141TIP3    H227369   5.177   5.002   4.007 -1.1882  0.1186 -1.5728
 9142TIP3   OH227370   0.125   5.378   3.917  0.2235 -0.1116  0.0339
 9142TIP3    H127371   0.051   5.369   3.856 -1.6533  0.9651  2.0009
 9142TIP3    H227372   0.158   5.466   3.901  0.0034  0.0151  0.2696
 9143TIP3   OH227373   8.025   0.289   2.843 -0.1483  0.6086 -0.2616
 9143TIP3    H127374   7.983   0.367   2.806  2.0235  2.3351  0.6991
 9143TIP3    H227375   8.110   0.320   2.873  1.1872 -2.3668 -0.6720
 9144TIP3   OH227376   5.417   1.877   1.571  0.2958  0.3929  0.4090
 9144TIP3    H127377   5.465   1.901   1.650 -0.4073 -0.1671  1.0244
 9144TIP3    H227378   5.398   1.783   1.582 -3.2879  1.0859  1.5317
 9145TIP3   OH227379   3.389   6.063   2.674 -0.3878 -0.5738 -0.0613
 9145TIP3    H127380   3.297   6.079   2.657 -0.1970 -1.5040 -2.1928
 9145TIP3    H227381   3.430   6.149   2.668 -0.7758 -0.4709 -1.6561
 9146TIP3   OH227382   6.677   7.375   1.228  0.3133 -0.2073 -0.2713
 9146TIP3    H127383   6.684   7.292   1.182  0.4143 -0.0027 -0.6302
 9146TIP3    H227384   6.586   7.377   1.260 -0.1242  0.1551 -1.4664
 9147TIP3   OH227385   0.467   1.147   3.642 -0.0100  0.2070  0.0219
 9147TIP3    H127386   0.493   1.127   3.732  0.0697  2.1812  0.4976
 9147TIP3    H227387   0.372   1.148   3.644 -0.0075  0.8140  0.2579
 9148TIP3   OH227388   2.263   7.291   5.373 -0.5578 -0.5152  0.0165
 9148TIP3    H127389   2.341   7.292   5.318 -1.2334  1.5880 -0.9988
 9148TIP3    H227390   2.213   7.368   5.346 -3.5809 -2.3937 -0.2273
 9149TIP3   OH227391   2.885   1.605   2.419  1.0041  0.6087  0.0247
 9149TIP3    H127392   2.973   1.587   2.452  0.3291 -0.8156  1.1273
 9149TIP3    H227393   2.833   1.625   2.498 -0.0357 -0.2164 -0.4314
 9150TIP3   OH227394   4.477   6.261   2.611 -0.6819 -0.4070 -0.2290
 9150TIP3    H127395   4.393   6.234   2.647 -1.1545 -0.3065 -1.2363
 9150TIP3    H227396   4.488   6.351   2.642  0.2928 -1.2333  2.0516
 9151TIP3   OH227397   3.347   4.555   4.019 -0.0041 -0.4121  0.8957
 9151TIP3    H127398   3.256   4.531   4.005 -0.1005  0.0796  0.6281
 9151TIP3    H227399   3.371   4.605   3.940  0.9244 -1.7463  0.2999
 9152TIP3   OH227400   3.825   5.521   5.483  0.1030  0.4494  0.2866
 9152TIP3    H127401   3.817   5.431   5.515  1.6206  0.5578  1.0837
 9152TIP3    H227402   3.757   5.529   5.416  0.7585 -1.6990 -0.7124
 9153TIP3   OH227403   4.420   3.867   0.242  0.4054 -0.0750 -0.0996
 9153TIP3    H127404   4.485   3.868   0.172 -0.0248  2.1921 -0.5389
 9153TIP3    H227405   4.346   3.817   0.207  1.1035 -0.9801 -0.3300
 9154TIP3   OH227406   7.006   4.980   6.493  0.1026  0.2799 -0.2211
 9154TIP3    H127407   6.945   4.907   6.484  0.2127 -0.0091  1.0960
 9154TIP3    H227408   7.092   4.944   6.470  0.0007  0.2858 -0.6136
 9155TIP3   OH227409   8.158   3.678   4.110  0.1102 -0.3248  0.1966
 9155TIP3    H127410   8.063   3.674   4.103 -0.0937  2.0906  0.7187
 9155TIP3    H227411   8.188   3.681   4.019 -0.3854 -0.0945  0.0375
 9156TIP3   OH227412   5.896   3.857   4.308  0.4482  0.1650  0.8157
 9156TIP3    H127413   5.920   3.776   4.353 -2.7771 -2.6781 -2.0160
 9156TIP3    H227414   5.850   3.908   4.374  0.8070 -1.1880  2.1838
 9157TIP3   OH227415   0.225   2.455   5.438 -0.3225  0.2266 -0.0441
 9157TIP3    H127416   0.139   2.466   5.478 -0.5189  0.0092 -0.3984
 9157TIP3    H227417   0.283   2.435   5.511 -0.7320 -0.4581  0.0974
 9158TIP3   OH227418   2.050   6.350   1.387  0.0572  0.0795  0.5014
 9158TIP3    H127419   1.979   6.305   1.433  1.9493 -0.1307  3.4375
 9158TIP3    H227420   2.118   6.284   1.378  0.9409  1.0068  0.2395
 9159TIP3   OH227421   0.523   3.307   1.155 -0.0744 -0.2420 -0.5470
 9159TIP3    H127422   0.524   3.392   1.111 -1.4658  1.0928  1.7863
 9159TIP3    H227423   0.509   3.244   1.085  1.8895  1.3022 -2.4830
 9160TIP3   OH227424   0.739   5.457   3.146  0.2823 -0.9499 -0.3961
 9160TIP3    H127425   0.773   5.506   3.072  1.4214  0.8372  1.2090
 9160TIP3    H227426   0.688   5.386   3.107  0.9111 -0.1423 -2.8483
 9161TIP3   OH227427   8.049   3.958   4.435  0.3192 -0.1624  0.2873
 9161TIP3    H127428   8.076   3.869   4.456  1.5932  0.4435  1.3855
 9161TIP3    H227429   8.051   3.963   4.339 -0.2516 -1.4373  0.1992
 9162TIP3   OH227430   1.758   3.315   6.041 -0.2170  0.3933  0.3064
 9162TIP3    H127431   1.831   3.269   6.084  0.3992  0.2143 -0.8947
 9162TIP3    H227432   1.683   3.258   6.056  0.4077 -0.7093 -0.5973
 9163TIP3   OH227433   2.345   3.797   1.520  0.1719  0.1580  0.5538
 9163TIP3    H127434   2.354   3.713   1.563 -1.2707 -0.4055 -0.1874
 9163TIP3    H227435   2.435   3.825   1.502  0.6615 -1.3201  0.6143
 9164TIP3   OH227436   5.518   0.341   0.051 -0.0498  0.0202 -0.4472
 9164TIP3    H127437   5.581   0.387  -0.004 -0.3117  0.8968 -0.0348
 9164TIP3    H227438   5.531   0.378   0.138 -0.0758 -0.9018 -0.0408
 9165TIP3   OH227439   5.451   7.462   1.329  0.1845  0.0734  0.3407
 9165TIP3    H127440   5.478   7.441   1.419 -0.8705 -0.0781  0.6320
 9165TIP3    H227441   5.510   7.411   1.274 -0.9036 -1.9973  0.9997
 9166TIP3   OH227442   8.154   4.175   4.099  0.1551 -0.2605 -0.5374
 9166TIP3    H127443   8.091   4.228   4.049  0.6222 -0.1116 -0.9733
 9166TIP3    H227444   8.117   4.087   4.097 -0.0749 -0.1624 -0.7333
 9167TIP3   OH227445   1.393   3.742   3.533 -0.4172  0.0945  0.2096
 9167TIP3    H127446   1.446   3.803   3.584 -0.7551  0.7986 -0.2664
 9167TIP3    H227447   1.303   3.763   3.557 -0.5703  0.3177 -0.5465
 9168TIP3   OH227448   6.575   7.241   1.880 -0.0219 -0.3109  0.4555
 9168TIP3    H127449   6.621   7.234   1.797  0.8038  3.2335  0.4796
 9168TIP3    H227450   6.609   7.168   1.932  4.7879  1.2704  0.0279
 9169TIP3   OH227451   4.129   1.290   3.734 -0.4377  0.5563  0.1470
 9169TIP3    H127452   4.191   1.325   3.798  0.5504  0.4162 -0.6967
 9169TIP3    H227453   4.163   1.319   3.649  1.0476 -3.1347 -0.7487
 9170TIP3   OH227454   2.185   5.238   0.164 -0.4891  0.1380 -0.0692
 9170TIP3    H127455   2.232   5.305   0.114 -1.8759 -0.2872 -2.0326
 9170TIP3    H227456   2.141   5.286   0.234  1.1312  0.7972  0.5640
 9171TIP3   OH227457   7.469   6.453   3.279  0.1323  0.2924  0.1814
 9171TIP3    H127458   7.535   6.417   3.219 -0.1883  1.6169 -1.0474
 9171TIP3    H227459   7.469   6.394   3.354  1.4160 -0.7598 -0.6013
 9172TIP3   OH227460   6.270   0.489   4.723 -0.3900  0.7488 -0.2796
 9172TIP3    H127461   6.336   0.492   4.654  1.0934  0.2274  1.0612
 9172TIP3    H227462   6.222   0.571   4.715  1.1648  1.6537 -0.5748
 9173TIP3   OH227463   6.606   2.106   6.318  0.5633  0.0941 -0.4013
 9173TIP3    H127464   6.637   2.073   6.234  0.1518 -0.6818 -0.2534
 9173TIP3    H227465   6.657   2.186   6.332 -0.5698  1.2083 -2.1859
 9174TIP3   OH227466   1.911   5.107   3.993  0.6152  0.2416  0.4278
 9174TIP3    H127467   1.895   5.068   4.079 -0.3142 -0.7366 -0.1573
 9174TIP3    H227468   1.907   5.033   3.932  0.2845  1.0545 -0.5690
 9175TIP3   OH227469   6.155   4.055   1.632  0.0289  0.1470  0.1316
 9175TIP3    H127470   6.171   3.971   1.675 -1.9320 -0.1782  0.3138
 9175TIP3    H227471   6.218   4.057   1.560 -0.0165 -1.5811  0.0065
 9176TIP3   OH227472   6.990   7.741   0.188 -0.5708  0.1051  0.0919
 9176TIP3    H127473   6.919   7.784   0.235 -0.3653 -0.6539  1.1323
 9176TIP3    H227474   7.069   7.761   0.239 -0.0814  0.6076 -0.8293
 9177TIP3   OH227475   4.995   5.763   6.104 -0.4886  0.7073  0.2082
 9177TIP3    H127476   5.038   5.753   6.020 -0.3265 -3.5025  0.5896
 9177TIP3    H227477   5.066   5.782   6.165 -0.1916  0.9455 -0.2093
 9178TIP3   OH227478   3.751   5.443   5.153  0.1023 -0.2427  0.3706
 9178TIP3    H127479   3.820   5.447   5.086  0.1823 -0.3438  0.4467
 9178TIP3    H227480   3.724   5.351   5.153 -0.1735 -0.1644  0.1985
 9179TIP3   OH227481   7.790   2.314   2.159 -0.2057  0.6361 -0.1898
 9179TIP3    H127482   7.769   2.261   2.083 -1.0848  0.4140  0.2022
 9179TIP3    H227483   7.881   2.342   2.144  0.4209 -1.2941 -0.2176
 9180TIP3   OH227484   8.132   5.111   4.789 -0.2659  0.3091 -0.6290
 9180TIP3    H127485   8.223   5.084   4.798 -0.5507 -1.0228 -1.3791
 9180TIP3    H227486   8.093   5.045   4.730 -1.8296  0.5413  0.0898
 9181TIP3   OH227487   2.354   7.525   6.098 -0.1244  0.3050 -0.4899
 9181TIP3    H127488   2.409   7.447   6.105 -1.7855 -0.9718 -0.9985
 9181TIP3    H227489   2.334   7.549   6.189 -1.8736 -1.5998 -0.3109
 9182TIP3   OH227490   3.722   4.936   0.149  0.5080 -0.0250 -0.0154
 9182TIP3    H127491   3.797   4.928   0.090 -0.5439  2.3230 -1.9012
 9182TIP3    H227492   3.665   4.864   0.125  0.5857  0.2758 -1.1864
 9183TIP3   OH227493   6.711   4.526   5.200  0.0313 -0.2407 -0.2764
 9183TIP3    H127494   6.616   4.526   5.210  0.2167 -0.6090  2.0339
 9183TIP3    H227495   6.742   4.461   5.263  1.9107  1.1476  0.3473
 9184TIP3   OH227496   3.825   6.173   4.068 -0.3348 -0.1607  0.3504
 9184TIP3    H127497   3.828   6.083   4.037 -0.2208 -0.0098 -0.0816
 9184TIP3    H227498   3.780   6.221   3.999  0.7425  0.3511 -0.0191
 9185TIP3   OH227499   2.076   4.011   0.565 -0.2996 -0.5767 -0.1682
 9185TIP3    H127500   2.151   3.952   0.575  0.8763  0.9118  0.2571
 9185TIP3    H227501   2.004   3.967   0.611  1.2337 -0.4843  2.5576
 9186TIP3   OH227502   1.264   1.177   6.005  0.2850 -0.7137  0.5510
 9186TIP3    H127503   1.324   1.247   6.031 -1.3512  0.7072  0.6098
 9186TIP3    H227504   1.185   1.191   6.058 -0.4092 -2.1007 -0.0478
 9187TIP3   OH227505   2.410   7.208   6.323  0.2832 -0.2810 -0.3885
 9187TIP3    H127506   2.371   7.225   6.409 -0.5007  1.0298 -0.9653
 9187TIP3    H227507   2.368   7.127   6.294 -0.8324  0.2324 -0.2865
 9188TIP3   OH227508   0.438   0.639   6.018  0.0807 -0.1044 -0.2071
 9188TIP3    H127509   0.488   0.653   6.098 -0.1525 -1.0300  0.1035
 9188TIP3    H227510   0.347   0.660   6.042  0.0455 -0.1530 -0.2961
 9189TIP3   OH227511   1.405   6.100   6.656 -0.3772 -0.1617 -0.0508
 9189TIP3    H127512   1.314   6.108   6.684 -0.3172 -0.0187  0.1070
 9189TIP3    H227513   1.452   6.069   6.733 -0.3982 -0.8709 -0.3161
 9190TIP3   OH227514   7.577   6.160   1.493  0.7866 -0.4572  0.0384
 9190TIP3    H127515   7.650   6.141   1.552  0.0215 -0.8532  0.8773
 9190TIP3    H227516   7.511   6.095   1.515 -1.0921  1.8180  1.5541
 9191TIP3   OH227517   0.532   7.704   4.245 -0.1072 -0.0497 -0.3865
 9191TIP3    H127518   0.614   7.728   4.289  0.4220 -2.4018  0.0452
 9191TIP3    H227519   0.465   7.754   4.291  0.7985  0.0021  0.9318
 9192TIP3   OH227520   4.774   6.825   6.427 -0.3378  0.1653 -0.5979
 9192TIP3    H127521   4.710   6.879   6.474  0.4636  0.8921 -0.3195
 9192TIP3    H227522   4.768   6.739   6.470 -0.6430  0.4170 -0.1259
 9193TIP3   OH227523   7.442   0.823   3.815 -0.2694  0.4151 -0.6554
 9193TIP3    H127524   7.402   0.863   3.892 -0.3994 -1.0664  0.0858
 9193TIP3    H227525   7.390   0.745   3.799  0.8625 -0.2723 -1.1363
 9194TIP3   OH227526   0.085   0.521   2.824 -0.7527 -0.2554  0.0831
 9194TIP3    H127527   0.145   0.477   2.763 -1.4313 -0.9191 -0.1308
 9194TIP3    H227528   0.136   0.593   2.860 -0.2316 -0.0424 -1.0292
 9195TIP3   OH227529   3.496   0.093   5.725 -0.6843 -0.2845 -0.3629
 9195TIP3    H127530   3.554   0.020   5.744  0.5994  0.6752 -0.4141
 9195TIP3    H227531   3.428   0.088   5.791  0.9404  0.0709  1.4471
 9196TIP3   OH227532   6.654   2.050   1.100 -0.5560 -0.2479  0.3890
 9196TIP3    H127533   6.744   2.020   1.094 -0.2593  0.7243 -0.2522
 9196TIP3    H227534   6.613   1.992   1.164  0.3591 -1.0839  0.2281
 9197TIP3   OH227535   3.462   3.691   0.250 -0.3273 -0.0045  0.0194
 9197TIP3    H127536   3.415   3.674   0.169 -0.5553 -1.6980  0.4720
 9197TIP3    H227537   3.394   3.692   0.317 -0.4644  3.6674  0.0060
 9198TIP3   OH227538   1.795   6.270   6.405  0.6184  0.0931 -0.0366
 9198TIP3    H127539   1.803   6.365   6.410 -0.7226  0.2437 -0.4002
 9198TIP3    H227540   1.824   6.238   6.490 -0.7276  0.9698  0.7819
 9199TIP3   OH227541   1.195   6.732   5.127 -0.1552 -0.2655 -0.2753
 9199TIP3    H127542   1.199   6.819   5.165 -0.7667 -0.5643  0.4965
 9199TIP3    H227543   1.260   6.733   5.057 -1.1211  1.2341 -1.1897
 9200TIP3   OH227544   1.427   1.821   4.412 -0.3134 -0.0231  0.2796
 9200TIP3    H127545   1.406   1.840   4.503 -2.6150  2.2967 -0.5910
 9200TIP3    H227546   1.453   1.905   4.375 -2.2874 -0.2251 -1.8169
 9201TIP3   OH227547   1.887   7.633   5.203  0.0334 -0.4221 -0.6076
 9201TIP3    H127548   1.864   7.643   5.110 -2.3367  0.6510  0.0180
 9201TIP3    H227549   1.805   7.647   5.250  0.8269 -2.4973  1.6292
 9202TIP3   OH227550   5.634   5.446   5.161 -0.0908  0.2234  0.0107
 9202TIP3    H127551   5.602   5.375   5.105 -0.3410 -0.9241  1.5453
 9202TIP3    H227552   5.555   5.484   5.200  0.1224  0.4966  0.1783
 9203TIP3   OH227553   1.859   0.413   3.879  0.0793 -0.2441 -0.4619
 9203TIP3    H127554   1.826   0.354   3.946 -0.6461  1.0694  0.3679
 9203TIP3    H227555   1.950   0.430   3.906  0.0850 -0.4516 -0.3427
 9204TIP3   OH227556   6.780   5.188   3.927 -0.7847  0.4022  0.6373
 9204TIP3    H127557   6.764   5.151   4.014 -0.8297 -0.7043  0.1800
 9204TIP3    H227558   6.717   5.260   3.919 -0.2900  0.9644  1.7887
 9205TIP3   OH227559   5.730   6.174   0.909  0.4411 -0.9280 -0.0455
 9205TIP3    H127560   5.718   6.111   0.838  0.8860 -0.7744 -0.2590
 9205TIP3    H227561   5.688   6.254   0.877  2.4640 -0.2177 -1.0304
 9206TIP3   OH227562   3.227   7.652   3.469  0.1522  0.1628  0.0389
 9206TIP3    H127563   3.246   7.746   3.468 -0.0052  0.2047  0.6524
 9206TIP3    H227564   3.296   7.614   3.524 -0.9891  0.2014  1.5633
 9207TIP3   OH227565   3.049   5.507   3.923  0.0852 -0.4399  0.4814
 9207TIP3    H127566   3.006   5.434   3.968 -0.7232 -2.0143 -2.5969
 9207TIP3    H227567   2.982   5.576   3.921  0.1082 -0.3583  1.5226
 9208TIP3   OH227568   0.028   7.268   4.411 -0.3421  0.1731  0.2532
 9208TIP3    H127569  -0.006   7.180   4.425  0.0081 -0.5659 -2.6796
 9208TIP3    H227570   0.117   7.254   4.377 -0.7955  1.5080 -1.6953
 9209TIP3   OH227571   0.111   2.762   4.772 -0.2575 -0.4027 -0.2879
 9209TIP3    H127572   0.084   2.845   4.811 -1.5845 -1.0448  0.2118
 9209TIP3    H227573   0.158   2.718   4.843  0.9215  0.1114 -0.7163
 9210TIP3   OH227574   3.186   2.161   1.212 -0.3615  0.2481 -0.0923
 9210TIP3    H127575   3.109   2.123   1.170  0.1691  0.6898 -1.5239
 9210TIP3    H227576   3.160   2.173   1.303 -0.9531 -2.4941  0.2142
 9211TIP3   OH227577   8.022   6.925   0.138  0.2707 -0.1267 -0.2884
 9211TIP3    H127578   7.940   6.964   0.109  0.0848  0.8481  1.4010
 9211TIP3    H227579   8.079   6.929   0.062 -0.8608  0.2972 -1.1410
 9212TIP3   OH227580   0.688   2.796   3.624  0.2463 -0.0591 -0.2805
 9212TIP3    H127581   0.750   2.738   3.667 -0.7435 -1.6991 -0.9439
 9212TIP3    H227582   0.741   2.846   3.562  1.1928  0.0909  0.6270
 9213TIP3   OH227583   4.855   6.208   2.840  0.2001  0.3271 -0.1215
 9213TIP3    H127584   4.916   6.167   2.902 -0.8380 -0.4884  0.4057
 9213TIP3    H227585   4.831   6.290   2.882 -0.7893 -0.3900  0.7895
 9214TIP3   OH227586   3.739   1.963   5.643 -0.1095  0.2584  0.0288
 9214TIP3    H127587   3.661   1.926   5.602  0.3826 -0.4561 -0.2951
 9214TIP3    H227588   3.801   1.890   5.648  0.3797  0.7006  0.6917
 9215TIP3   OH227589   1.221   5.551   4.984 -0.7209 -0.6595  0.0623
 9215TIP3    H127590   1.134   5.591   4.992 -0.7959 -0.6534 -0.7002
 9215TIP3    H227591   1.271   5.612   4.930  0.5176  0.5176  2.3702
 9216TIP3   OH227592   2.494   3.031   6.608 -0.5640 -0.1251 -0.2081
 9216TIP3    H127593   2.430   3.099   6.586  1.8765  1.8561 -1.7914
 9216TIP3    H227594   2.453   2.949   6.582 -2.3457  1.0839 -1.4080
 9217TIP3   OH227595   0.325   4.028   1.710 -0.1646  0.1630  0.4295
 9217TIP3    H127596   0.264   4.091   1.670  0.8658  0.2681 -1.0528
 9217TIP3    H227597   0.398   4.082   1.740 -0.8183  0.0504  2.3016
 9218TIP3   OH227598   7.492   3.790   5.510 -0.7350  0.4896  0.1934
 9218TIP3    H127599   7.499   3.707   5.464 -1.8297  1.2265 -1.3889
 9218TIP3    H227600   7.444   3.769   5.590  0.6671 -0.6970  0.7777
 9219TIP3   OH227601   0.644   2.350   6.324 -0.5892 -0.7005 -0.1206
 9219TIP3    H127602   0.552   2.355   6.297 -0.4926 -1.0535 -0.5325
 9219TIP3    H227603   0.690   2.320   6.245 -0.4876 -3.2714  0.8189
 9220TIP3   OH227604   8.000   6.017   4.678  0.1645 -0.3064 -0.6183
 9220TIP3    H127605   8.013   5.924   4.657 -0.4422 -0.7936  0.9868
 9220TIP3    H227606   8.089   6.052   4.686  0.4092 -0.8904 -0.6860
 9221TIP3   OH227607   0.418   3.343   4.277  1.0782 -0.5609  0.1877
 9221TIP3    H127608   0.462   3.395   4.345  0.9237 -0.2559  0.0598
 9221TIP3    H227609   0.325   3.365   4.288  1.1098 -0.0816 -0.4830
 9222TIP3   OH227610   6.855   0.530   4.795  0.2983 -0.1976 -0.4621
 9222TIP3    H127611   6.869   0.620   4.765  1.7941 -0.9503 -2.1986
 9222TIP3    H227612   6.833   0.481   4.716 -1.6104 -1.2032  0.6203
 9223TIP3   OH227613   6.318   3.990   2.879 -0.2038  0.3317  0.1748
 9223TIP3    H127614   6.389   3.929   2.857 -0.6050  0.2412 -0.9558
 9223TIP3    H227615   6.315   3.991   2.974 -1.9485 -3.4971  0.3385
 9224TIP3   OH227616   7.032   6.099   6.718  0.5418 -0.4796  0.0839
 9224TIP3    H127617   7.095   6.163   6.752  0.8571 -0.3672 -0.7090
 9224TIP3    H227618   7.025   6.118   6.625 -0.0398 -1.0303  0.0059
 9225TIP3   OH227619   2.073   6.381   6.521 -0.4001 -0.3866 -0.1652
 9225TIP3    H127620   2.024   6.449   6.475 -0.9365 -1.1814 -0.7937
 9225TIP3    H227621   2.074   6.307   6.461 -1.8199 -1.7625  1.3818
 9226TIP3   OH227622   2.206   0.378   4.015  0.0627  0.3240  0.4988
 9226TIP3    H127623   2.244   0.445   3.959 -0.2962  0.4431  0.3914
 9226TIP3    H227624   2.173   0.312   3.954  0.3363  0.0920  0.6013
 9227TIP3   OH227625   5.729   6.985   1.385 -0.0081  0.6227 -0.0023
 9227TIP3    H127626   5.781   6.910   1.413 -2.5290 -0.5293  2.0748
 9227TIP3    H227627   5.757   7.057   1.442  0.1993  0.3700  0.2171
 9228TIP3   OH227628   2.621   1.344   6.592  0.3246 -0.0255 -0.2870
 9228TIP3    H127629   2.653   1.325   6.680 -1.6493 -2.0156  0.0622
 9228TIP3    H227630   2.534   1.380   6.605  0.1101 -0.0973 -1.4239
 9229TIP3   OH227631   7.007   1.325   3.977  0.1534 -0.2167  0.4306
 9229TIP3    H127632   6.964   1.305   3.894  1.7653 -0.0882 -0.4811
 9229TIP3    H227633   6.963   1.403   4.010 -2.5691 -1.9692  1.2943
 9230TIP3   OH227634   0.302   2.781   4.580 -0.1856  0.1867 -0.1984
 9230TIP3    H127635   0.231   2.775   4.644 -1.3467  0.9296 -1.3621
 9230TIP3    H227636   0.380   2.794   4.633 -1.0840  0.6046  1.0884
 9231TIP3   OH227637   0.394   5.404   2.880 -0.5168  0.4258 -0.4412
 9231TIP3    H127638   0.488   5.401   2.858 -0.3542 -0.1915  0.2653
 9231TIP3    H227639   0.358   5.326   2.838 -0.4651 -0.0176  0.3222
 9232TIP3   OH227640   6.302   6.297   4.939  0.2150 -0.2723  0.5038
 9232TIP3    H127641   6.255   6.218   4.910 -1.3385  0.5656  0.6420
 9232TIP3    H227642   6.333   6.337   4.858 -2.2373  0.9048  0.0378
 9233TIP3   OH227643   1.118   5.737   0.616 -0.2446  0.6975 -0.1359
 9233TIP3    H127644   1.121   5.816   0.671  1.6473  0.0985  0.6931
 9233TIP3    H227645   1.192   5.747   0.556 -0.2149 -0.2664 -0.2701
 9234TIP3   OH227646   1.276   5.196   4.420  0.0641 -0.1685  0.0566
 9234TIP3    H127647   1.183   5.174   4.425  0.0774  0.0230  1.6414
 9234TIP3    H227648   1.303   5.170   4.332 -0.8669 -2.7117  0.4485
 9235TIP3   OH227649   1.280   0.119   6.123  0.4675  0.0570  0.0531
 9235TIP3    H127650   1.266   0.103   6.216 -1.0394  0.4455 -0.0904
 9235TIP3    H227651   1.266   0.213   6.112  1.8033  0.2230 -0.3862
 9236TIP3   OH227652   6.153   3.440   2.348 -0.3528  0.3563 -1.1387
 9236TIP3    H127653   6.163   3.518   2.403 -0.3817 -0.6192  0.2918
 9236TIP3    H227654   6.125   3.474   2.263 -1.8388  1.8174 -0.1294
 9237TIP3   OH227655   0.262   3.105   0.712 -0.1598 -0.1489 -0.2299
 9237TIP3    H127656   0.329   3.044   0.680 -0.0854 -0.4301  0.4406
 9237TIP3    H227657   0.229   3.148   0.633  0.2759 -0.5574 -0.6424
 9238TIP3   OH227658   6.802   0.198   3.138  0.2706  0.2267 -0.0869
 9238TIP3    H127659   6.838   0.183   3.225 -0.0990 -1.0405 -0.1237
 9238TIP3    H227660   6.730   0.260   3.152 -0.3405 -0.6176  0.6638
 9239TIP3   OH227661   7.925   2.480   0.329  0.3572  0.0700  0.7190
 9239TIP3    H127662   7.950   2.497   0.420 -0.5325  0.5751  0.8798
 9239TIP3    H227663   7.848   2.535   0.315 -0.2342 -0.8963  0.0278
 9240TIP3   OH227664   5.653   0.848   2.045  0.2663  0.7818 -0.4690
 9240TIP3    H127665   5.621   0.870   1.957 -0.5952  2.0599  0.1117
 9240TIP3    H227666   5.575   0.855   2.100  0.6716 -0.5917  0.3232
 9241TIP3   OH227667   1.990   3.139   4.292 -0.1884  0.5526 -0.4129
 9241TIP3    H127668   2.043   3.059   4.279  0.6818  1.0920 -0.2702
 9241TIP3    H227669   1.900   3.109   4.286  0.0934 -0.6621  0.7849
 9242TIP3   OH227670   2.132   0.997   3.875 -0.0509  0.3614  0.0198
 9242TIP3    H127671   2.087   1.079   3.894  1.3141  1.1913 -0.1370
 9242TIP3    H227672   2.216   1.004   3.922  0.1044 -0.9345 -0.0215
 9243TIP3   OH227673   0.703   6.934   0.678 -0.5628 -0.0465  0.2177
 9243TIP3    H127674   0.610   6.909   0.671 -0.5763  0.1418 -0.3104
 9243TIP3    H227675   0.718   6.991   0.604 -0.4376  1.2665  1.2200
 9244TIP3   OH227676   8.007   2.784   1.804  0.3082 -0.2376  0.6943
 9244TIP3    H127677   7.922   2.742   1.807  1.2281 -2.2253  0.3088
 9244TIP3    H227678   8.032   2.795   1.896 -0.8178  1.4580  0.8515
 9245TIP3   OH227679   3.886   5.911   0.051  0.3365 -0.7634  0.4271
 9245TIP3    H127680   3.922   5.997   0.074 -1.5480  0.0611  0.4743
 9245TIP3    H227681   3.810   5.901   0.108 -0.4749 -1.6880 -0.7576
 9246TIP3   OH227682   7.061   4.788   5.939 -0.6778 -0.2007 -0.2214
 9246TIP3    H127683   7.032   4.804   5.849  0.6722 -0.8104 -0.7958
 9246TIP3    H227684   7.040   4.696   5.955  1.7091 -0.9688 -1.0246
 9247TIP3   OH227685   7.842   5.823   0.390 -0.2183  0.3757 -0.4595
 9247TIP3    H127686   7.917   5.848   0.336 -0.5913  1.5955 -0.4524
 9247TIP3    H227687   7.854   5.870   0.472 -1.7394  1.8567 -1.0167
 9248TIP3   OH227688   1.202   1.183   4.609  0.0030  0.0199  0.3355
 9248TIP3    H127689   1.171   1.177   4.518  0.0769  0.4491  0.2830
 9248TIP3    H227690   1.122   1.192   4.661 -0.1246 -1.4311  0.4243
 9249TIP3   OH227691   8.109   6.617   4.992  0.5632 -0.0278  0.4117
 9249TIP3    H127692   8.046   6.557   5.032  0.4730 -0.3552 -0.2076
 9249TIP3    H227693   8.080   6.704   5.018 -0.9543 -0.0881 -0.9801
 9250TIP3   OH227694   0.700   6.064   5.638 -0.0943  0.0512  0.0851
 9250TIP3    H127695   0.608   6.036   5.638  0.1563 -0.8883 -1.5233
 9250TIP3    H227696   0.749   5.984   5.618  0.8846  1.0159 -1.5132
 9251TIP3   OH227697   6.943   1.247   5.932 -0.1232 -0.1897  0.3032
 9251TIP3    H127698   6.960   1.284   5.845  0.0537  0.7006  0.6998
 9251TIP3    H227699   6.859   1.285   5.958 -0.7771 -1.4040  0.0330
 9252TIP3   OH227700   2.232   0.952   6.352 -0.1353  0.3293  0.4581
 9252TIP3    H127701   2.214   1.006   6.275  2.0506 -1.2384 -1.2909
 9252TIP3    H227702   2.202   0.865   6.328  2.2646 -0.5964  0.5431
 9253TIP3   OH227703   3.691   5.126   4.103  0.3304  0.2565 -0.3385
 9253TIP3    H127704   3.687   5.122   4.007 -1.0937  0.7050 -0.3104
 9253TIP3    H227705   3.617   5.073   4.133 -0.3392  1.6005  0.4690
 9254TIP3   OH227706   1.983   0.185   0.432  0.0328  0.6501  0.4814
 9254TIP3    H127707   1.931   0.134   0.370  0.6631 -0.5018  0.8871
 9254TIP3    H227708   2.026   0.252   0.378  1.0903 -0.7400 -0.4633
 9255TIP3   OH227709   3.826   6.167   2.060  0.1408  0.6609 -0.0255
 9255TIP3    H127710   3.876   6.224   2.118 -0.1536  0.2830  0.6189
 9255TIP3    H227711   3.890   6.135   1.997  0.2863  1.7691 -0.4614
 9256TIP3   OH227712   2.637   6.636   4.099 -0.0183 -0.1945  0.0029
 9256TIP3    H127713   2.655   6.705   4.035  2.3962  1.0270  1.8222
 9256TIP3    H227714   2.546   6.650   4.125 -0.1207  1.1260 -0.9866
 9257TIP3   OH227715   0.186   7.001   5.338  0.0511  0.4731 -0.2062
 9257TIP3    H127716   0.183   6.953   5.421 -0.8371  0.5450 -0.1902
 9257TIP3    H227717   0.271   6.977   5.300  0.0212 -0.3682  0.2340
 9258TIP3   OH227718   5.216   6.580   3.922 -0.0685 -0.0532  0.5174
 9258TIP3    H127719   5.191   6.591   4.014  0.2839 -0.4112  0.6595
 9258TIP3    H227720   5.208   6.667   3.885 -0.7107 -0.0010  0.7604
 9259TIP3   OH227721   7.563   7.139   4.239  0.1505 -0.2372 -0.4051
 9259TIP3    H127722   7.573   7.205   4.307  2.1409 -0.3624 -0.5227
 9259TIP3    H227723   7.581   7.056   4.283 -0.4730 -0.5174 -0.6676
 9260TIP3   OH227724   7.690   1.816   1.254  0.0969 -0.7794 -0.3729
 9260TIP3    H127725   7.757   1.865   1.301  0.5915  0.2560 -2.0692
 9260TIP3    H227726   7.664   1.747   1.315  2.5714 -1.1282  0.3997
 9261TIP3   OH227727   2.198   0.543   3.267 -0.3712 -0.2903  0.7419
 9261TIP3    H127728   2.130   0.572   3.328 -0.0223  1.8621  0.2145
 9261TIP3    H227729   2.155   0.543   3.182 -0.0194 -0.0119  0.5591
 9262TIP3   OH227730   0.203   5.629   3.927 -0.1566 -0.4257 -0.2521
 9262TIP3    H127731   0.118   5.613   3.968  0.2097  0.9606  1.1234
 9262TIP3    H227732   0.204   5.723   3.911  0.8643 -0.5313 -0.8620
 9263TIP3   OH227733   4.114   3.297   1.699  0.5716  0.0526 -0.4523
 9263TIP3    H127734   4.074   3.339   1.623  0.3964  0.1400 -0.3109
 9263TIP3    H227735   4.133   3.207   1.669 -1.5222 -0.6179  0.0827
 9264TIP3   OH227736   4.556   6.227   3.000  0.6605  0.0027  0.4906
 9264TIP3    H127737   4.601   6.308   2.976 -1.2581  0.9375 -0.1347
 9264TIP3    H227738   4.536   6.185   2.917  0.7365 -0.6262  0.7818
 9265TIP3   OH227739   7.078   5.116   6.707  0.0093  0.0580  0.2641
 9265TIP3    H127740   7.086   5.201   6.664  0.6649 -0.0242  0.2140
 9265TIP3    H227741   7.026   5.063   6.646 -1.4660  0.7799  0.8464
 9266TIP3   OH227742   7.683   0.382   1.533  0.1799  0.1622  0.2586
 9266TIP3    H127743   7.616   0.314   1.534  0.1868  0.1006 -1.1553
 9266TIP3    H227744   7.648   0.450   1.475  1.2664  0.1807 -0.4069
 9267TIP3   OH227745   6.625   7.387   5.336  0.9676  0.0923  0.4989
 9267TIP3    H127746   6.646   7.310   5.389  1.4623 -0.1809 -0.0691
 9267TIP3    H227747   6.537   7.413   5.363  0.5778 -1.0004  0.3200
 9268TIP3   OH227748   4.476   2.406   0.265  0.0640 -0.1058 -0.2129
 9268TIP3    H127749   4.412   2.441   0.202 -0.3709  0.7462  0.6738
 9268TIP3    H227750   4.495   2.318   0.234 -0.4976  0.1309 -1.2739
 9269TIP3   OH227751   5.178   3.651   6.069 -0.0378  0.4149 -0.2999
 9269TIP3    H127752   5.245   3.585   6.086 -0.0431  0.6628  0.7855
 9269TIP3    H227753   5.099   3.600   6.048 -0.1687  0.0368  1.0168
 9270TIP3   OH227754   3.077   0.084   3.468 -0.2126 -0.1160 -0.2515
 9270TIP3    H127755   3.082   0.161   3.411  1.5450 -0.2787 -0.3867
 9270TIP3    H227756   3.057   0.120   3.555 -0.1510  0.4097 -0.4501
 9271TIP3   OH227757   3.122   5.650   4.308  0.5649 -0.3680 -0.1713
 9271TIP3    H127758   3.193   5.688   4.256 -0.2419 -0.7031 -1.5401
 9271TIP3    H227759   3.115   5.560   4.278  1.3125 -1.1685  1.8540
 9272TIP3   OH227760   4.474   6.542   2.691 -0.2757  0.2710  0.0660
 9272TIP3    H127761   4.510   6.564   2.777 -0.3267  1.1208 -0.1206
 9272TIP3    H227762   4.471   6.625   2.645 -0.2149 -0.1874 -0.7768
 9273TIP3   OH227763   5.452   2.236   3.327  0.2345  0.0169 -0.1892
 9273TIP3    H127764   5.489   2.260   3.412 -0.2455 -1.7479  0.5607
 9273TIP3    H227765   5.357   2.234   3.342  0.2501 -3.3615  0.1803
 9274TIP3   OH227766   5.223   5.325   2.458 -0.6898 -0.0290 -0.0745
 9274TIP3    H127767   5.139   5.337   2.414 -0.2126  1.2838 -0.6919
 9274TIP3    H227768   5.234   5.230   2.464 -1.8731 -0.2232 -0.6277
 9275TIP3   OH227769   5.803   4.468   1.742 -0.1516  0.5856  0.3058
 9275TIP3    H127770   5.882   4.414   1.742  0.5718  1.5810  1.7136
 9275TIP3    H227771   5.731   4.406   1.756  0.4667 -0.2142  0.0069
 9276TIP3   OH227772   3.516   5.538   5.329 -0.3869 -0.0159  0.3945
 9276TIP3    H127773   3.589   5.516   5.270  0.4611  0.3986  1.2607
 9276TIP3    H227774   3.446   5.565   5.270  0.4585  0.4260 -0.4524
 9277TIP3   OH227775   3.371   5.089   6.345 -0.4917 -0.0534 -0.1071
 9277TIP3    H127776   3.425   5.149   6.396  0.1472 -0.9341  0.2860
 9277TIP3    H227777   3.418   5.005   6.350 -1.0674 -0.4509 -1.1008
 9278TIP3   OH227778   6.304   3.124   1.243  0.3070  0.3481 -0.7996
 9278TIP3    H127779   6.372   3.131   1.175  0.7804  0.3600 -0.3347
 9278TIP3    H227780   6.353   3.108   1.324 -0.1554  1.5713 -0.2507
 9279TIP3   OH227781   6.846   2.921   1.595 -0.4890 -0.1831 -0.2871
 9279TIP3    H127782   6.770   2.894   1.544 -0.1707 -0.5817 -0.5632
 9279TIP3    H227783   6.890   2.986   1.540 -0.5905 -0.0075 -0.1605
 9280TIP3   OH227784   5.781   6.994   5.883 -0.3034  0.4498  0.1109
 9280TIP3    H127785   5.748   6.904   5.881  0.3204  0.1590  1.3272
 9280TIP3    H227786   5.799   7.010   5.976 -0.4228  1.8410 -0.0911
 9281TIP3   OH227787   3.847   3.362   0.045  0.3838  0.0699  0.6693
 9281TIP3    H127788   3.812   3.329   0.127  0.6133  0.1701  0.8089
 9281TIP3    H227789   3.935   3.394   0.067 -0.6120  2.8396  1.0169
 9282TIP3   OH227790   0.377   5.909   2.303 -0.9090  0.2703  0.2863
 9282TIP3    H127791   0.295   5.931   2.348 -0.2982  0.4377  1.3422
 9282TIP3    H227792   0.425   5.992   2.300 -0.3986 -0.0156  0.4808
 9283TIP3   OH227793   4.071   4.128   0.441  0.3092  0.4307  0.3586
 9283TIP3    H127794   4.150   4.175   0.465 -0.1408  0.3515  2.1141
 9283TIP3    H227795   4.096   4.036   0.443  0.3431  0.4359  0.2091
 9284TIP3   OH227796   3.524   0.781   6.205  0.1911  0.1868  0.0236
 9284TIP3    H127797   3.590   0.806   6.268 -0.9655 -0.3952  1.5326
 9284TIP3    H227798   3.480   0.863   6.182 -0.4872  0.1988  1.3011
 9285TIP3   OH227799   1.200   5.450   4.271  0.1273  0.3905 -0.4667
 9285TIP3    H127800   1.275   5.393   4.287 -0.6899 -0.2484  1.2708
 9285TIP3    H227801   1.181   5.489   4.356 -1.5332  0.5225 -0.8754
 9286TIP3   OH227802   4.617   3.595   2.886  0.1838  0.5023  0.5179
 9286TIP3    H127803   4.581   3.645   2.959 -0.8289 -0.2397  0.5566
 9286TIP3    H227804   4.559   3.616   2.813 -1.5335 -2.1019  1.0139
 9287TIP3   OH227805   6.311   6.432   2.467 -0.0354 -0.2816 -0.0506
 9287TIP3    H127806   6.242   6.386   2.418  0.4468  0.2586 -1.2889
 9287TIP3    H227807   6.316   6.518   2.426  0.7740 -0.0013  0.6062
 9288TIP3   OH227808   3.932   7.376   1.937  0.3870  0.3730 -0.0309
 9288TIP3    H127809   3.958   7.421   2.018  0.0885  2.3306 -0.9706
 9288TIP3    H227810   4.012   7.338   1.903  0.9967  1.6181 -0.0409
 9289TIP3   OH227811   4.312   0.131   5.362 -0.5674 -0.2533 -0.7180
 9289TIP3    H127812   4.372   0.069   5.404  1.0813  0.6912 -1.5621
 9289TIP3    H227813   4.250   0.155   5.430  0.7975 -0.2971  0.6018
 9290TIP3   OH227814   1.325   1.639   0.387  0.4020 -0.4737  0.0757
 9290TIP3    H127815   1.374   1.648   0.305  0.8125  0.0224  0.3617
 9290TIP3    H227816   1.320   1.545   0.402 -0.3623 -0.6015 -0.9151
 9291TIP3   OH227817   4.448   4.821   4.960  0.3814 -0.8071  0.3399
 9291TIP3    H127818   4.478   4.741   5.002  1.5332  0.5301  2.2567
 9291TIP3    H227819   4.528   4.863   4.928  0.1124  0.6837  1.5001
 9292TIP3   OH227820   6.400   5.921   5.264 -0.1672  0.1012 -0.3278
 9292TIP3    H127821   6.473   5.956   5.315  1.4281 -0.2849 -2.2220
 9292TIP3    H227822   6.347   5.997   5.242 -1.1469  0.2381  2.1537
 9293TIP3   OH227823   7.368   4.637   5.694 -0.3892  0.2823 -0.2481
 9293TIP3    H127824   7.329   4.687   5.766 -1.4056 -1.8124  0.7426
 9293TIP3    H227825   7.400   4.557   5.735 -1.6675 -1.3171 -2.1862
 9294TIP3   OH227826   5.937   7.150   6.242 -0.2350  0.1831 -0.0700
 9294TIP3    H127827   5.917   7.163   6.149  0.1785  0.2952 -0.1478
 9294TIP3    H227828   5.877   7.209   6.288 -1.6558 -1.1500 -0.1625
 9295TIP3   OH227829   7.952   4.583   1.932 -0.3733  0.0535 -0.2625
 9295TIP3    H127830   7.972   4.514   1.868 -0.7861  1.1693 -1.6611
 9295TIP3    H227831   7.895   4.541   1.996 -1.5401 -0.6416 -1.7019
 9296TIP3   OH227832   7.231   4.314   4.453  0.4288  0.7922 -0.1268
 9296TIP3    H127833   7.305   4.370   4.477 -0.3740  1.2955  1.2336
 9296TIP3    H227834   7.233   4.313   4.357  1.8885  1.1990 -0.1270
 9297TIP3   OH227835   4.999   0.338   2.304  0.5624 -0.5143  0.6835
 9297TIP3    H127836   4.927   0.277   2.287 -0.7557  1.4744 -1.5371
 9297TIP3    H227837   5.058   0.328   2.230  0.9505  0.0707  0.9027
 9298TIP3   OH227838   5.259   5.920   0.570 -0.3496  0.1155  0.1159
 9298TIP3    H127839   5.179   5.970   0.587 -0.2639  0.0853  0.6210
 9298TIP3    H227840   5.302   5.914   0.655 -0.1588 -0.4768 -0.0191
 9299TIP3   OH227841   2.713   0.613   1.611 -0.4001 -0.1112  0.3422
 9299TIP3    H127842   2.773   0.645   1.677 -0.2818 -0.0216  0.1928
 9299TIP3    H227843   2.754   0.534   1.576  0.3822  0.7635 -0.8172
 9300TIP3   OH227844   4.051   6.952   6.580  0.1361 -0.5060 -0.4246
 9300TIP3    H127845   4.137   6.992   6.589 -0.6676  0.8877  1.8505
 9300TIP3    H227846   3.990   7.026   6.582 -1.2930 -1.6568  1.7505
 9301TIP3   OH227847   0.354   3.117   0.972 -0.2541 -0.2406 -0.2574
 9301TIP3    H127848   0.318   3.205   0.988 -0.6668 -0.9002  2.9741
 9301TIP3    H227849   0.340   3.104   0.878 -1.7897  2.4423 -0.5373
 9302TIP3   OH227850   5.295   0.658   3.056 -0.1350 -0.3719 -0.5067
 9302TIP3    H127851   5.308   0.635   2.963  1.4631 -2.8724  0.2099
 9302TIP3    H227852   5.254   0.580   3.094  0.4931  0.0519  1.1279
 9303TIP3   OH227853   7.974   2.785   5.116  0.3978 -0.9769 -0.2342
 9303TIP3    H127854   7.949   2.739   5.036 -1.8413  1.4373 -1.0766
 9303TIP3    H227855   7.919   2.747   5.184  1.5978 -2.3591 -0.0030
 9304TIP3   OH227856   6.388   5.068   1.414  0.4505  0.0129 -0.1172
 9304TIP3    H127857   6.358   5.105   1.331  0.8108  1.2065  0.2736
 9304TIP3    H227858   6.434   4.987   1.389 -0.1064 -0.0389 -1.0029
 9305TIP3   OH227859   0.338   7.667   6.481 -0.8001 -0.3791  0.0704
 9305TIP3    H127860   0.291   7.584   6.485 -0.5102 -0.5173  3.1319
 9305TIP3    H227861   0.281   7.729   6.528  0.2389  0.4439  0.2748
 9306TIP3   OH227862   8.078   6.709   6.487  0.2354 -0.6290 -0.2017
 9306TIP3    H127863   7.988   6.720   6.519 -0.1932 -3.1072 -0.2975
 9306TIP3    H227864   8.069   6.650   6.411  1.7382  1.0221 -1.7398
 9307TIP3   OH227865   3.670   6.669   6.091 -0.3038 -0.5337  0.4773
 9307TIP3    H127866   3.716   6.689   6.172  0.1555  2.3816 -0.3582
 9307TIP3    H227867   3.582   6.704   6.104 -0.7958 -1.6627  0.3149
 9308TIP3   OH227868   2.885   7.352   6.175 -0.1358  0.3101 -0.6277
 9308TIP3    H127869   2.935   7.351   6.256 -0.3321  0.7961 -0.4968
 9308TIP3    H227870   2.852   7.441   6.168  0.1654  0.3716 -1.4194
 9309TIP3   OH227871   3.261   4.623   4.285 -0.0296 -0.3470 -0.3122
 9309TIP3    H127872   3.168   4.602   4.297  0.3413 -1.5144  0.6397
 9309TIP3    H227873   3.276   4.612   4.191 -1.2189  1.4848 -0.7732
 9310TIP3   OH227874   5.042   0.764   5.513 -0.6394 -0.0075  0.4731
 9310TIP3    H127875   5.024   0.672   5.491  0.9636 -0.7009  1.7663
 9310TIP3    H227876   4.988   0.780   5.591 -1.9756  0.6246 -0.5493
 9311TIP3   OH227877   5.957   5.677   2.979  0.1910 -0.7359 -0.4252
 9311TIP3    H127878   5.990   5.589   2.996 -1.1823 -1.7081 -2.4256
 9311TIP3    H227879   5.996   5.702   2.895  3.4624  2.1594  1.7132
 9312TIP3   OH227880   4.657   7.363   5.042 -0.0868 -0.1925 -0.0051
 9312TIP3    H127881   4.680   7.451   5.010  0.7937 -0.3582  0.1311
 9312TIP3    H227882   4.566   7.370   5.068 -1.1495 -0.2555 -3.2985
 9313TIP3   OH227883   6.592   5.816   2.326  0.1281 -0.0312 -0.0083
 9313TIP3    H127884   6.656   5.885   2.342  0.0269  0.8670 -2.7801
 9313TIP3    H227885   6.637   5.755   2.268  0.0714 -2.1685  2.0771
 9314TIP3   OH227886   6.973   4.097   3.946 -0.1272  0.1747 -0.0180
 9314TIP3    H127887   6.992   4.052   3.864 -1.7638  0.0743 -0.3718
 9314TIP3    H227888   6.999   4.036   4.014  0.1590 -0.2148 -0.4727
 9315TIP3   OH227889   5.004   2.143   5.785  0.0523 -0.2575  0.2900
 9315TIP3    H127890   4.939   2.194   5.737 -0.1277 -0.1270  0.6711
 9315TIP3    H227891   4.980   2.052   5.768 -1.2940 -0.2309  1.8259
 9316TIP3   OH227892   0.339   1.256   1.766  0.2380  0.0075 -0.0070
 9316TIP3    H127893   0.349   1.351   1.761 -1.8875  0.3101  0.4642
 9316TIP3    H227894   0.346   1.226   1.676  1.9316  0.4624 -0.0542
 9317TIP3   OH227895   8.115   6.062   0.398  0.1340 -0.1966  0.1766
 9317TIP3    H127896   8.151   5.993   0.454 -0.1403  0.6644  1.4534
 9317TIP3    H227897   8.046   6.019   0.348  2.6088 -1.8146 -2.1083
 9318TIP3   OH227898   0.062   4.757   4.921  0.2174  0.1683 -0.4024
 9318TIP3    H127899   0.051   4.852   4.915  3.0210  0.5291 -1.9798
 9318TIP3    H227900   0.091   4.742   5.011 -1.2110  0.6429  0.1577
 9319TIP3   OH227901   6.619   3.714   3.261  0.0657  0.4442  0.5342
 9319TIP3    H127902   6.601   3.805   3.238 -0.0740  0.2907  0.0170
 9319TIP3    H227903   6.714   3.706   3.257  0.0385  0.3640 -0.2545
 9320TIP3   OH227904   0.634   0.192   4.379  1.0101 -0.1575 -0.2688
 9320TIP3    H127905   0.708   0.239   4.416  1.5382 -0.7984 -0.4980
 9320TIP3    H227906   0.673   0.115   4.336  0.1769 -0.7951  0.0814
 9321TIP3   OH227907   3.148   1.762   1.420  0.4631 -0.1915 -0.9558
 9321TIP3    H127908   3.085   1.695   1.391  0.5236  0.0889 -1.7614
 9321TIP3    H227909   3.201   1.781   1.342  0.0986  1.1811 -0.9048
 9322TIP3   OH227910   3.042   1.062   1.290  0.1768  0.0060  0.0002
 9322TIP3    H127911   3.107   1.023   1.232  0.1866 -1.2493  0.8194
 9322TIP3    H227912   3.088   1.074   1.373 -0.3102  0.1948  0.2447
 9323TIP3   OH227913   3.328   0.736   6.535 -0.5975 -0.3632 -0.0433
 9323TIP3    H127914   3.299   0.680   6.463 -0.3243 -2.3717  1.3208
 9323TIP3    H227915   3.278   0.706   6.611 -0.7019  1.5256  0.6990
 9324TIP3   OH227916   1.413   4.778   2.635 -0.3251 -0.3976  0.3803
 9324TIP3    H127917   1.398   4.684   2.644 -0.4311 -0.2727  1.6813
 9324TIP3    H227918   1.489   4.784   2.577 -0.2426 -1.2858  0.3792
 9325TIP3   OH227919   0.921   0.073   1.850  0.8591  0.0379  0.6263
 9325TIP3    H127920   0.910   0.044   1.759  2.9101  0.9513  0.0448
 9325TIP3    H227921   0.876   0.157   1.854  1.3644  0.3305  0.2488
 9326TIP3   OH227922   7.225   3.914   0.284  0.0289 -0.2809  0.7446
 9326TIP3    H127923   7.295   3.850   0.296 -0.7290 -1.5766 -1.3078
 9326TIP3    H227924   7.269   3.995   0.260  0.8830 -0.6298  1.1091
 9327TIP3   OH227925   1.850   6.832   1.825 -0.1615 -0.1714  0.1482
 9327TIP3    H127926   1.834   6.926   1.832 -0.7265 -0.2895  0.5209
 9327TIP3    H227927   1.778   6.799   1.771 -0.8175 -0.5967  1.2340
 9328TIP3   OH227928   1.146   2.703   5.457  0.2392  0.5154  0.0228
 9328TIP3    H127929   1.062   2.681   5.497  1.5091 -0.6932  2.1740
 9328TIP3    H227930   1.124   2.769   5.390 -2.9152 -2.3863 -2.1375
 9329TIP3   OH227931   4.091   5.108   2.901  0.4911 -0.4523  0.1336
 9329TIP3    H127932   4.079   5.025   2.855  0.9801 -0.8124  0.6470
 9329TIP3    H227933   4.154   5.156   2.848  0.6358 -0.6381  0.1376
 9330TIP3   OH227934   3.815   7.536   4.799 -0.0276 -0.4342 -0.4835
 9330TIP3    H127935   3.747   7.469   4.805  2.1121 -2.6147  1.3191
 9330TIP3    H227936   3.808   7.585   4.881  0.6380 -0.7352 -0.2449
 9331TIP3   OH227937   5.684   3.017   0.682 -0.3224 -0.4640 -0.4430
 9331TIP3    H127938   5.718   2.929   0.667  1.4658  0.0403  0.3655
 9331TIP3    H227939   5.604   3.021   0.630  1.3645 -1.4092 -3.3868
 9332TIP3   OH227940   6.730   7.772   5.040  0.1716 -0.0342 -0.2267
 9332TIP3    H127941   6.732   7.746   4.948  1.4096 -1.6752  0.2343
 9332TIP3    H227942   6.668   7.711   5.080  0.0403  0.3410  0.1502
 9333TIP3   OH227943   6.902   0.149   0.533 -0.3392 -0.1803  0.4579
 9333TIP3    H127944   6.993   0.158   0.560  0.2686  0.8190 -1.6863
 9333TIP3    H227945   6.892   0.057   0.510  0.1433 -0.2685  0.5948
 9334TIP3   OH227946   2.371   0.951   2.636 -0.2407 -0.0678  0.1451
 9334TIP3    H127947   2.383   0.889   2.564  1.2261 -0.2797  0.5309
 9334TIP3    H227948   2.278   0.974   2.633 -0.8013 -2.1716 -0.0850
 9335TIP3   OH227949   6.562   1.493   3.333 -0.2300  0.3416 -0.0285
 9335TIP3    H127950   6.647   1.518   3.299  0.1841 -0.2770  0.5098
 9335TIP3    H227951   6.547   1.405   3.299 -0.2051  0.0620  0.6610
 9336TIP3   OH227952   7.355   0.376   0.741 -0.6921 -0.8271 -0.1349
 9336TIP3    H127953   7.436   0.424   0.757 -1.1389 -0.0114 -0.2905
 9336TIP3    H227954   7.358   0.303   0.804  0.0933 -0.7325 -0.0484
 9337TIP3   OH227955   7.311   6.466   2.146  0.1977 -0.1976  0.0537
 9337TIP3    H127956   7.253   6.460   2.070  1.0784 -1.0848 -0.5817
 9337TIP3    H227957   7.278   6.541   2.195 -1.8438 -1.0391  0.0567
 9338TIP3   OH227958   3.076   0.679   1.544 -0.6204  0.0282 -0.5329
 9338TIP3    H127959   3.075   0.586   1.568 -0.3403  0.4375  1.1339
 9338TIP3    H227960   3.098   0.678   1.450 -1.6790 -1.6220 -0.8176
 9339TIP3   OH227961   5.558   1.036   5.805 -0.3726 -0.0801 -1.0172
 9339TIP3    H127962   5.514   1.085   5.875  0.3400  0.0463 -0.6377
 9339TIP3    H227963   5.641   1.009   5.845  1.3722  2.3873 -2.6226
 9340TIP3   OH227964   5.426   7.596   5.616  0.3160 -0.1221  0.3852
 9340TIP3    H127965   5.364   7.584   5.688  0.0431  1.4230  0.4410
 9340TIP3    H227966   5.387   7.546   5.543 -0.2855 -0.2836  0.8047
 9341TIP3   OH227967   6.437   3.116   4.339 -0.1408 -0.1506 -0.1106
 9341TIP3    H127968   6.404   3.145   4.425  3.5275  3.0226  0.4735
 9341TIP3    H227969   6.389   3.170   4.276 -0.9531 -0.6126  0.0856
 9342TIP3   OH227970   0.883   2.257   6.135  0.3747 -0.1922  0.3662
 9342TIP3    H127971   0.900   2.230   6.044  2.2825 -1.9384  1.1459
 9342TIP3    H227972   0.871   2.352   6.130  1.3718 -0.1005 -1.6180
 9343TIP3   OH227973   7.299   3.932   6.499 -0.2440  0.1168  0.3762
 9343TIP3    H127974   7.219   3.881   6.484 -0.8059  0.8929  0.6917
 9343TIP3    H227975   7.273   3.999   6.562  0.9635 -0.3511  1.4094
 9344TIP3   OH227976   3.900   7.086   2.960  0.1714 -0.1575  0.4630
 9344TIP3    H127977   3.959   7.119   3.028 -0.6185  0.1295  1.0157
 9344TIP3    H227978   3.815   7.124   2.980  0.5370  2.9018 -2.6916
 9345TIP3   OH227979   5.604   0.823   4.003  0.6808  0.1779 -0.2003
 9345TIP3    H127980   5.664   0.764   3.957  0.0480 -0.5211 -0.1408
 9345TIP3    H227981   5.594   0.897   3.944  0.7257 -0.2202 -0.7163
 9346TIP3   OH227982   5.488   2.247   0.958  0.5117  0.1610  0.4545
 9346TIP3    H127983   5.525   2.161   0.979  1.2284  0.4763  0.5017
 9346TIP3    H227984   5.393   2.233   0.959  0.6078 -0.5200  0.9499
 9347TIP3   OH227985   7.093   6.776   4.115  0.0222 -0.0779  0.4633
 9347TIP3    H127986   7.177   6.730   4.112 -0.3413 -0.7526 -1.8989
 9347TIP3    H227987   7.030   6.709   4.142  0.0169 -0.0393  0.5436
 9348TIP3   OH227988   7.362   3.795   5.032  0.3196 -0.2575  0.3904
 9348TIP3    H127989   7.418   3.862   5.070 -0.2790 -0.6809  2.1316
 9348TIP3    H227990   7.410   3.713   5.045 -0.4157 -0.5531  1.3812
 9349TIP3   OH227991   6.995   4.392   3.985 -0.0684  0.3896  0.4319
 9349TIP3    H127992   6.974   4.299   3.972  2.7009 -0.6081  2.1958
 9349TIP3    H227993   7.032   4.421   3.902  1.4580 -0.8789  0.6323
 9350TIP3   OH227994   1.666   1.599   4.220  0.2145  0.2441  0.0387
 9350TIP3    H127995   1.681   1.516   4.175  1.4588  1.1794 -1.3827
 9350TIP3    H227996   1.589   1.635   4.177 -0.2668 -0.1046  0.5893
 9351TIP3   OH227997   3.076   4.849   0.319 -0.0199 -0.1405  0.2169
 9351TIP3    H127998   3.103   4.844   0.411 -1.2365 -2.8056  0.5065
 9351TIP3    H227999   3.045   4.939   0.309  2.9959  1.1864  1.5113
 9352TIP3   OH228000   6.780   6.248   2.628 -0.5853  0.3074 -0.2725
 9352TIP3    H128001   6.727   6.311   2.677 -1.3779 -0.3309 -0.2769
 9352TIP3    H228002   6.797   6.177   2.690 -1.6181 -0.5196 -0.8942
 9353TIP3   OH228003   3.370   0.818   0.536 -0.0779 -0.2679  0.3379
 9353TIP3    H128004   3.286   0.846   0.572 -1.6933 -1.1701 -2.4175
 9353TIP3    H228005   3.411   0.769   0.607 -3.2797 -2.4503  0.8982
 9354TIP3   OH228006   4.884   1.331   2.049 -0.0683  0.8767  0.5292
 9354TIP3    H128007   4.902   1.239   2.066 -1.2010  0.5321 -0.0666
 9354TIP3    H228008   4.961   1.377   2.081  0.9346 -0.3537 -0.0516
 9355TIP3   OH228009   6.647   1.297   2.450 -0.3721  0.4637 -0.1907
 9355TIP3    H128010   6.713   1.339   2.505  0.5983 -0.9986 -0.1829
 9355TIP3    H228011   6.583   1.260   2.511 -0.8857  1.3614 -0.1755
 9356TIP3   OH228012   5.755   0.021   4.336  0.2295  0.2041  0.1426
 9356TIP3    H128013   5.804   0.055   4.411  0.4535 -1.3270  0.7364
 9356TIP3    H228014   5.735  -0.069   4.361 -0.2118 -0.1434 -1.4096
 9357TIP3   OH228015   4.955   6.711   0.830 -0.3424  0.0158  0.3062
 9357TIP3    H128016   4.932   6.772   0.900 -0.0092  3.1084 -2.0481
 9357TIP3    H228017   5.022   6.757   0.779 -0.3142 -2.2069 -1.8567
 9358TIP3   OH228018   2.437   0.308   0.620 -0.1756  0.0483  0.6496
 9358TIP3    H128019   2.398   0.274   0.539 -0.0852  1.7899 -0.1780
 9358TIP3    H228020   2.369   0.365   0.657  0.1047 -0.0716  1.3679
 9359TIP3   OH228021   0.688   6.329   3.165 -0.4814 -0.1377 -0.3800
 9359TIP3    H128022   0.714   6.256   3.222 -0.1322 -1.2290 -1.8482
 9359TIP3    H228023   0.600   6.307   3.137 -1.0795  0.9610  0.5861
 9360TIP3   OH228024   6.449   3.803   1.754 -0.0629 -0.1669 -0.3741
 9360TIP3    H128025   6.361   3.784   1.720 -0.5094 -0.8140  1.0936
 9360TIP3    H228026   6.486   3.717   1.774 -0.0808  0.2055  1.3924
 9361TIP3   OH228027   2.035   0.796   6.549  0.1641  0.1282 -0.9987
 9361TIP3    H128028   2.099   0.862   6.525 -0.7274  0.8177 -1.5569
 9361TIP3    H228029   2.016   0.749   6.468  2.0579 -2.0126 -0.2877
 9362TIP3   OH228030   6.429   1.070   3.348  0.0302 -0.0342  0.6521
 9362TIP3    H128031   6.413   0.983   3.312  2.0572 -1.2297  2.4515
 9362TIP3    H228032   6.345   1.095   3.388 -1.5005  0.2413 -2.4329
 9363TIP3   OH228033   6.586   5.309   2.070  0.0543  0.0416 -0.0382
 9363TIP3    H128034   6.518   5.261   2.025 -0.0252  0.6116 -0.5356
 9363TIP3    H228035   6.542   5.386   2.106  0.2321 -0.1072  0.5110
 9364TIP3   OH228036   1.793   5.846   3.685 -0.3816  0.2967  0.0360
 9364TIP3    H128037   1.885   5.823   3.672 -0.4754 -0.6976  1.0232
 9364TIP3    H228038   1.795   5.939   3.707  0.5541 -0.0877  1.7231
 9365TIP3   OH228039   1.310   4.794   3.626 -0.0774  1.0107  0.7779
 9365TIP3    H128040   1.318   4.874   3.573 -1.0968  0.2934 -0.5318
 9365TIP3    H228041   1.364   4.730   3.579  0.2248  0.7579  1.4696
 9366TIP3   OH228042   8.155   1.008   0.011 -0.2336 -0.4812 -0.2792
 9366TIP3    H128043   8.150   1.088   0.064 -1.4821 -2.1301  2.2536
 9366TIP3    H228044   8.249   0.993   0.001  0.0603 -0.0543  1.4431
 9367TIP3   OH228045   5.516   5.984   4.070 -0.4331 -0.2188  0.5724
 9367TIP3    H128046   5.611   5.993   4.067 -0.6361  2.3771 -0.1921
 9367TIP3    H228047   5.492   5.947   3.986 -0.1569 -0.2018  0.4862
 9368TIP3   OH228048   3.293   5.317   3.816 -0.2618  0.3936 -0.2525
 9368TIP3    H128049   3.337   5.324   3.731 -1.1156 -0.5387 -0.7966
 9368TIP3    H228050   3.202   5.341   3.798 -1.0186 -2.1467 -0.1574
 9369TIP3   OH228051   2.596   0.581   0.896  0.5018  0.3427 -0.5056
 9369TIP3    H128052   2.608   0.534   0.979 -0.9168  0.4796 -0.1934
 9369TIP3    H228053   2.671   0.641   0.891  1.3822 -0.6914 -0.0446
 9370TIP3   OH228054   3.190   6.572   6.671 -0.0856  0.0115  0.0636
 9370TIP3    H128055   3.167   6.644   6.612 -2.2022  0.1634  1.0011
 9370TIP3    H228056   3.123   6.506   6.655  1.2680 -1.3840 -0.0762
 9371TIP3   OH228057   5.698   7.396   2.305 -0.2716 -0.4518  0.0862
 9371TIP3    H128058   5.728   7.452   2.233  1.2548  0.0880  1.0761
 9371TIP3    H228059   5.770   7.334   2.318  0.4215  0.7003  2.3761
 9372TIP3   OH228060   5.398   3.235   0.115 -0.4088 -0.4302 -0.6087
 9372TIP3    H128061   5.350   3.311   0.081 -0.1250 -0.0159 -0.0935
 9372TIP3    H228062   5.488   3.248   0.084 -0.0648  0.1418  0.5951
 9373TIP3   OH228063   1.972   3.445   6.257 -0.3240  0.3681  0.1027
 9373TIP3    H128064   1.898   3.425   6.314 -0.8659  0.3623 -0.5829
 9373TIP3    H228065   1.932   3.488   6.181  0.3248 -0.0144 -0.4648
 9374TIP3   OH228066   0.227   6.620   4.653 -0.3558 -0.0283 -0.3368
 9374TIP3    H128067   0.281   6.626   4.575  0.5211  0.5247  0.2849
 9374TIP3    H228068   0.261   6.545   4.701  0.9379  1.2131  0.7982
 9375TIP3   OH228069   3.642   2.271   2.074 -0.2127  0.4789 -0.1455
 9375TIP3    H128070   3.736   2.291   2.067  0.3190 -1.1819  1.4404
 9375TIP3    H228071   3.623   2.219   1.996 -0.2371  2.1717 -1.3084
 9376TIP3   OH228072   4.072   0.903   1.359  0.4685 -0.8704  0.1346
 9376TIP3    H128073   4.024   0.823   1.381 -1.3787  0.1207 -0.1113
 9376TIP3    H228074   4.148   0.902   1.417 -0.4571 -1.9376  1.3822
 9377TIP3   OH228075   5.562   3.494   4.987 -0.1838 -0.0053  0.0223
 9377TIP3    H128076   5.622   3.514   5.058  0.8813  2.3079 -1.3917
 9377TIP3    H228077   5.619   3.481   4.911 -1.3743 -0.2514 -0.8582
 9378TIP3   OH228078   0.518   7.518   0.336  0.2509  0.3248  0.3886
 9378TIP3    H128079   0.450   7.500   0.271  1.2509 -0.2840 -0.5301
 9378TIP3    H228080   0.470   7.532   0.417 -1.0173  0.7303 -0.3959
 9379TIP3   OH228081   7.896   1.719   5.342  0.2310 -0.6144 -0.5907
 9379TIP3    H128082   7.923   1.637   5.300 -1.3019 -1.7646  0.5774
 9379TIP3    H228083   7.848   1.766   5.273  1.0315 -0.7143 -1.2341
 9380TIP3   OH228084   8.232   1.133   1.897 -0.3061 -0.3025 -0.1578
 9380TIP3    H128085   8.270   1.218   1.876  1.0406 -1.0961 -1.1169
 9380TIP3    H228086   8.162   1.121   1.832 -1.0494  0.4030  0.4945
 9381TIP3   OH228087   4.721   6.567   6.516  0.2619 -0.6030  0.0862
 9381TIP3    H128088   4.779   6.523   6.579 -2.0986 -0.4990  2.5090
 9381TIP3    H228089   4.715   6.506   6.442  2.0013 -1.3956  0.5373
 9382TIP3   OH228090   7.268   4.427   5.447  0.6620 -0.0006 -0.0618
 9382TIP3    H128091   7.240   4.354   5.501  1.0555  2.1509  3.3255
 9382TIP3    H228092   7.294   4.495   5.509  2.3387  2.3023 -2.9944
 9383TIP3   OH228093   7.636   7.549   2.547 -0.0778 -0.2472 -0.9249
 9383TIP3    H128094   7.572   7.516   2.610  1.4396  0.1646  0.9327
 9383TIP3    H228095   7.659   7.636   2.579  2.2141 -0.8106 -0.8367
 9384TIP3   OH228096   7.983   6.061   1.426 -0.6194  0.4529 -0.4009
 9384TIP3    H128097   8.061   6.065   1.370 -1.0142 -4.2125 -1.7287
 9384TIP3    H228098   8.016   6.031   1.511 -0.8049 -0.1784 -0.5486
 9385TIP3   OH228099   1.983   7.528   6.643 -0.0298 -0.2835 -0.0722
 9385TIP3    H128100   1.890   7.517   6.660 -0.8815  3.2584 -1.4568
 9385TIP3    H228101   2.025   7.519   6.728 -1.4954 -2.5138  0.4803
 9386TIP3   OH228102   8.183   2.476   3.197 -0.1601 -0.2752 -0.3295
 9386TIP3    H128103   8.123   2.426   3.142 -3.7527 -0.0431  2.9482
 9386TIP3    H228104   8.221   2.411   3.256  0.9334 -0.0495 -0.7579
 9387TIP3   OH228105   3.756   6.273   4.816 -0.4504  0.5781 -0.1537
 9387TIP3    H128106   3.763   6.196   4.873 -1.5508 -0.0188 -0.7796
 9387TIP3    H228107   3.673   6.314   4.842 -0.1490  1.2376 -0.2173
 9388TIP3   OH228108   2.283   4.679   2.977  0.4192  0.0510  0.0909
 9388TIP3    H128109   2.214   4.676   3.043  1.4409  2.4657  1.3656
 9388TIP3    H228110   2.361   4.646   3.022  0.3235 -2.0311 -1.1458
 9389TIP3   OH228111   4.675   3.886   1.386 -0.3694  0.2140  0.2609
 9389TIP3    H128112   4.711   3.943   1.454  3.7777 -0.4092 -1.1199
 9389TIP3    H228113   4.653   3.946   1.314 -0.2259  0.4815  0.4354
 9390TIP3   OH228114   3.492   2.648   1.618  0.0458 -0.3643 -0.3892
 9390TIP3    H128115   3.448   2.570   1.652 -1.4401  0.5788 -0.0965
 9390TIP3    H228116   3.434   2.720   1.639  2.0770  1.0548  0.6776
 9391TIP3   OH228117   4.206   6.167   0.310  0.0789  0.0819  0.0650
 9391TIP3    H128118   4.300   6.182   0.304 -0.1070  1.1701 -0.4402
 9391TIP3    H228119   4.197   6.080   0.348  1.2888 -0.1214 -0.0976
 9392TIP3   OH228120   7.461   6.877   5.857  0.7271 -0.5378  0.2540
 9392TIP3    H128121   7.377   6.836   5.836  0.1247  1.5211 -1.6813
 9392TIP3    H228122   7.526   6.814   5.826 -0.1460 -0.5217 -1.7458
 9393TIP3   OH228123   5.919   5.896   1.036 -0.0311 -0.0960 -0.1287
 9393TIP3    H128124   5.824   5.886   1.039 -0.2818  2.1275  0.6091
 9393TIP3    H228125   5.939   5.900   0.942 -0.9911  1.7363 -0.3081
 9394TIP3   OH228126   6.507   0.911   4.016 -0.0634 -0.1429 -0.5271
 9394TIP3    H128127   6.526   0.868   3.932  0.3527  0.5639 -0.8038
 9394TIP3    H228128   6.419   0.947   4.004  0.8765  1.9921 -1.5572
 9395TIP3   OH228129   0.638   3.136   5.243  0.3365  0.0728 -0.3320
 9395TIP3    H128130   0.694   3.213   5.246  1.1604 -0.5487  0.8291
 9395TIP3    H228131   0.564   3.158   5.300  0.6836 -0.0607  0.1818
 9396TIP3   OH228132   0.889   5.447   5.797  0.1841  0.1521  0.3806
 9396TIP3    H128133   0.872   5.358   5.766 -0.7661  0.1301  0.9434
 9396TIP3    H228134   0.846   5.503   5.734  0.7605  0.2223  0.0414
 9397TIP3   OH228135   0.512   0.025   5.830  0.8680 -0.1549  0.0013
 9397TIP3    H128136   0.525   0.096   5.768  3.2443  0.5548  1.1778
 9397TIP3    H228137   0.538  -0.054   5.783  2.2413  0.3239 -0.0766
 9398TIP3   OH228138   6.084   7.188   6.813 -0.7078  0.1920 -0.0750
 9398TIP3    H128139   6.099   7.148   6.728 -1.5290 -0.6000  0.1352
 9398TIP3    H228140   6.063   7.279   6.794 -0.1191  0.2161 -0.6516
 9399TIP3   OH228141   7.358   7.349   4.053  0.4333 -0.1962  0.1971
 9399TIP3    H128142   7.366   7.370   3.960  1.8236 -0.5418  0.2135
 9399TIP3    H228143   7.446   7.364   4.089  0.1113 -0.8045  1.2911
 9400TIP3   OH228144   3.820   4.631   5.532  0.2795  0.0370  0.1899
 9400TIP3    H128145   3.859   4.618   5.445  0.8894  0.6628  0.3546
 9400TIP3    H228146   3.773   4.550   5.550 -1.2057  0.4645 -1.4055
 9401TIP3   OH228147   7.683   2.906   1.808 -0.8755  0.1359  0.6304
 9401TIP3    H128148   7.601   2.950   1.833 -1.3112 -0.3238  0.0462
 9401TIP3    H228149   7.655   2.818   1.782 -0.2766  0.2107 -0.2756
 9402TIP3   OH228150   2.779   1.042   6.665 -0.3066  0.3326  0.5809
 9402TIP3    H128151   2.810   1.020   6.577 -1.4188 -0.5004  0.3658
 9402TIP3    H228152   2.839   1.110   6.696 -0.4430  1.3175 -1.1844
 9403TIP3   OH228153   5.035   6.171   1.545 -0.5758  0.1033  0.0150
 9403TIP3    H128154   4.990   6.122   1.614 -2.1184  1.7057  0.2202
 9403TIP3    H228155   4.965   6.193   1.483  0.5045  0.0518 -1.2496
 9404TIP3   OH228156   0.425   6.032   3.683 -0.1910 -0.1408  0.2157
 9404TIP3    H128157   0.360   6.024   3.753 -1.0512 -2.0984 -0.7189
 9404TIP3    H228158   0.408   6.117   3.644 -1.6354 -0.2506  0.5599
 9405TIP3   OH228159   3.701   5.836   3.194 -0.3995 -0.5995  0.0440
 9405TIP3    H128160   3.787   5.810   3.226  0.0748 -1.3098 -1.6938
 9405TIP3    H228161   3.659   5.753   3.170 -0.1082 -0.0671 -2.5676
 9406TIP3   OH228162   5.322   1.389   1.961 -0.3160  0.3746  0.4170
 9406TIP3    H128163   5.236   1.420   1.931 -1.5066 -2.1107  0.9871
 9406TIP3    H228164   5.303   1.307   2.006  2.2943  0.2185  1.3808
 9407TIP3   OH228165   0.341   5.980   1.922  0.3016  0.0066  0.1079
 9407TIP3    H128166   0.295   5.957   2.002  0.6859  2.0931  1.0018
 9407TIP3    H228167   0.281   6.040   1.876  1.6050  1.9784  0.8176
 9408TIP3   OH228168   3.341   0.041   2.375 -0.1303  0.5698  0.3391
 9408TIP3    H128169   3.372  -0.041   2.336  0.0561  1.4401 -1.4204
 9408TIP3    H228170   3.422   0.087   2.400 -0.2454  0.0126  1.8695
 9409TIP3   OH228171   7.652   3.498   1.315 -0.0202  0.0635  0.8347
 9409TIP3    H128172   7.629   3.435   1.383  0.6260 -0.9923  0.1052
 9409TIP3    H228173   7.721   3.552   1.355 -0.5698  0.3226  1.4592
 9410TIP3   OH228174   4.262   0.968   2.414  0.0015 -0.6129 -0.2784
 9410TIP3    H128175   4.357   0.956   2.417  0.3436  1.8120  0.7082
 9410TIP3    H228176   4.244   0.993   2.323  0.5316  0.4000 -0.1098
 9411TIP3   OH228177   7.766   6.446   2.869  0.2383 -0.0584 -0.0829
 9411TIP3    H128178   7.795   6.398   2.792  1.0400  1.7567 -0.9992
 9411TIP3    H228179   7.848   6.468   2.915 -0.1730 -0.3715  0.8261
 9412TIP3   OH228180   1.848   4.111   1.977  0.1301  0.4288  0.0832
 9412TIP3    H128181   1.813   4.193   2.013 -1.8181 -0.5149  0.4737
 9412TIP3    H228182   1.897   4.072   2.049 -0.9565  0.1440  0.6963
 9413TIP3   OH228183   7.075   6.027   2.520  0.1122  0.1794 -0.4156
 9413TIP3    H128184   7.084   6.013   2.615  2.9950  1.2933 -0.4126
 9413TIP3    H228185   7.137   5.966   2.481 -0.7537  0.0142 -1.5856
 9414TIP3   OH228186   4.472   6.923   2.156 -0.4507  0.6871 -0.0248
 9414TIP3    H128187   4.399   6.914   2.095  0.4938 -0.5812 -1.0270
 9414TIP3    H228188   4.489   6.834   2.187  1.2067  0.7997 -0.4990
 9415TIP3   OH228189   3.900   3.885   6.747 -0.0448  0.5899  0.1775
 9415TIP3    H128190   3.892   3.798   6.785 -1.2357  0.4101 -0.4581
 9415TIP3    H228191   3.837   3.938   6.796 -1.5400  0.3742 -1.4459
 9416TIP3   OH228192   1.429   0.106   1.065  0.5024  0.6065 -0.2996
 9416TIP3    H128193   1.382   0.161   1.128  0.9876  0.5549  0.1125
 9416TIP3    H228194   1.377   0.113   0.984 -0.0769  0.7411  0.0761
 9417TIP3   OH228195   1.619   0.601   4.964 -0.1252  0.1957 -0.0899
 9417TIP3    H128196   1.575   0.549   4.896  3.4196 -2.0730 -0.9264
 9417TIP3    H228197   1.586   0.564   5.046 -2.1226  0.8338 -0.5337
 9418TIP3   OH228198   1.046   0.141   3.900  0.5610  0.6080  0.5236
 9418TIP3    H128199   1.065   0.080   3.829 -0.3898  1.4072 -0.4618
 9418TIP3    H228200   1.118   0.204   3.897 -1.1905  2.7355 -2.1837
 9419TIP3   OH228201   4.813   2.772   4.626 -0.4901  0.1932  0.2845
 9419TIP3    H128202   4.770   2.823   4.557 -1.2394 -0.9478 -0.1294
 9419TIP3    H228203   4.815   2.831   4.701  1.1640  1.7907 -0.9206
 9420TIP3   OH228204   0.391   0.299   4.866  0.5068 -0.1072  0.0982
 9420TIP3    H128205   0.466   0.289   4.808 -0.8521 -0.2823 -1.7104
 9420TIP3    H228206   0.324   0.241   4.829 -0.8012  0.6745  1.1600
 9421TIP3   OH228207   5.411   6.214   1.084 -0.3647 -0.2904  0.2436
 9421TIP3    H128208   5.466   6.264   1.143  1.2501 -0.7395 -0.8023
 9421TIP3    H228209   5.399   6.129   1.127 -2.9754  0.8206  1.9428
 9422TIP3   OH228210   4.628   1.321   3.145  0.1214 -0.4877  1.0707
 9422TIP3    H128211   4.541   1.321   3.105  1.2511 -1.6795 -1.5994
 9422TIP3    H228212   4.659   1.411   3.138  0.8528 -0.8845 -2.3025
 9423TIP3   OH228213   6.659   3.893   2.685  0.7939 -0.4300  0.8338
 9423TIP3    H128214   6.732   3.900   2.624  0.4971  0.3117  0.5531
 9423TIP3    H228215   6.608   3.973   2.671  1.0690  0.0857  2.5154
 9424TIP3   OH228216   4.411   0.577   1.857  0.5069 -0.3262 -0.2699
 9424TIP3    H128217   4.353   0.600   1.930  1.4045  0.3495  0.2687
 9424TIP3    H228218   4.482   0.527   1.898 -0.4801 -2.5638 -1.1637
 9425TIP3   OH228219   2.220   6.859   0.504 -0.0822  0.0150 -0.1061
 9425TIP3    H128220   2.179   6.774   0.489 -0.1923  0.0202  0.1575
 9425TIP3    H228221   2.309   6.838   0.534  0.5818  0.0116 -1.9379
 9426TIP3   OH228222   7.661   7.731   3.105 -0.0897  0.0404  0.3412
 9426TIP3    H128223   7.730   7.778   3.153 -0.3126  1.2459 -0.4663
 9426TIP3    H228224   7.708   7.684   3.036 -0.0343  0.5492  0.0302
 9427TIP3   OH228225   0.040   2.563   4.577  0.3775 -0.2323  0.0139
 9427TIP3    H128226   0.041   2.649   4.620  1.4304  0.8888 -2.0897
 9427TIP3    H228227   0.076   2.503   4.643 -1.0915  0.7526  1.8062
 9428TIP3   OH228228   6.793   2.866   1.874 -0.0594 -0.1288  0.0103
 9428TIP3    H128229   6.806   2.904   1.788 -1.5218  1.2223  0.3544
 9428TIP3    H228230   6.825   2.933   1.935 -1.3028 -0.0287  0.5770
 9429TIP3   OH228231   1.294   4.680   1.821 -0.3283  0.1657  0.2784
 9429TIP3    H128232   1.317   4.595   1.858  0.1770  0.1741 -0.0089
 9429TIP3    H228233   1.252   4.659   1.738 -1.6043  0.1410  0.9132
 9430TIP3   OH228234   0.314   0.337   2.535  0.0179 -0.0495 -0.4523
 9430TIP3    H128235   0.306   0.262   2.476 -2.5868  0.2977 -0.6573
 9430TIP3    H228236   0.322   0.413   2.477  0.3298  0.0393 -0.2943
 9431TIP3   OH228237   6.582   5.071   6.415 -0.0192  0.2275  0.2048
 9431TIP3    H128238   6.547   4.982   6.416 -2.1066  0.9965  0.7314
 9431TIP3    H228239   6.571   5.100   6.324 -0.5657  0.3685  0.3081
 9432TIP3   OH228240   5.670   1.708   2.504  0.0291  0.0713  0.3122
 9432TIP3    H128241   5.712   1.793   2.491 -0.4203 -0.0957 -3.2320
 9432TIP3    H228242   5.577   1.727   2.512  0.0796 -0.0122  1.2002
 9433TIP3   OH228243   4.882   3.564   1.278  0.3462 -0.3724  0.2008
 9433TIP3    H128244   4.915   3.584   1.191 -1.7128 -0.9579 -0.7688
 9433TIP3    H228245   4.813   3.628   1.293  1.6528  0.7076  2.0976
 9434TIP3   OH228246   7.624   2.578   2.942  0.1387 -0.5944  0.3579
 9434TIP3    H128247   7.589   2.666   2.926 -1.9897 -1.4631 -0.1380
 9434TIP3    H228248   7.691   2.590   3.008 -0.4889  1.3426  0.7061
 9435TIP3   OH228249   1.686   7.421   5.746 -0.6866  0.3193  0.1751
 9435TIP3    H128250   1.603   7.376   5.727  0.1935 -2.1147  1.6210
 9435TIP3    H228251   1.661   7.493   5.803 -1.7911 -0.8225  1.1965
 9436TIP3   OH228252   0.077   6.101   5.751 -0.1967 -0.1663  0.0352
 9436TIP3    H128253   0.160   6.088   5.796 -1.2821 -2.2270  1.6252
 9436TIP3    H228254   0.101   6.119   5.661  1.9905  0.8395  0.7576
 9437TIP3   OH228255   7.966   7.396   1.984 -0.1184 -0.0301 -0.0018
 9437TIP3    H128256   7.875   7.415   1.962 -0.8916 -1.3114  1.8479
 9437TIP3    H228257   7.972   7.415   2.078  1.2807 -0.8252  0.0860
 9438TIP3   OH228258   3.752   6.161   5.066 -0.8488  0.2132 -0.1209
 9438TIP3    H128259   3.743   6.175   5.160  0.3761 -0.5076  0.1371
 9438TIP3    H228260   3.738   6.067   5.055  0.0415  0.1092 -0.4874
 9439TIP3   OH228261   2.930   1.042   1.606 -0.5803  0.1728 -0.3122
 9439TIP3    H128262   2.923   0.947   1.597  0.2730  0.1662 -1.0875
 9439TIP3    H228263   3.019   1.063   1.577 -0.0447  1.0101  1.7873
 9440TIP3   OH228264   1.005   6.954   4.922  0.4002  0.2191 -0.0942
 9440TIP3    H128265   1.025   6.974   5.013  1.6633 -0.9444 -0.0870
 9440TIP3    H228266   0.934   7.015   4.899  0.5191  0.9850  1.4438
 9441TIP3   OH228267   1.692   6.513   4.831 -0.1722  0.3937  0.4894
 9441TIP3    H128268   1.651   6.498   4.916  0.8684  0.9328  1.1200
 9441TIP3    H228269   1.742   6.433   4.814  0.9074  0.8983  1.1772
 9442TIP3   OH228270   3.111   6.233   0.284  0.7676 -0.3468  0.2114
 9442TIP3    H128271   3.176   6.171   0.252 -2.0827 -3.1640 -0.6401
 9442TIP3    H228272   3.075   6.191   0.363 -0.5421  0.7051  0.2109
 9443TIP3   OH228273   6.430   0.792   1.563  0.7082  0.0608 -0.0822
 9443TIP3    H128274   6.427   0.702   1.529  0.1748 -0.0425  0.2366
 9443TIP3    H228275   6.371   0.792   1.637  0.8078  0.6489  0.0024
 9444TIP3   OH228276   5.064   6.460   0.925 -0.6333 -0.3321 -0.2769
 9444TIP3    H128277   4.985   6.505   0.896 -1.6025 -1.9672 -0.3007
 9444TIP3    H228278   5.085   6.501   1.009 -0.1540  1.6541 -1.2949
 9445TIP3   OH228279   3.047   1.674   5.596  0.3133 -0.0137  0.0385
 9445TIP3    H128280   3.122   1.617   5.582 -0.4445 -0.7994 -0.9918
 9445TIP3    H228281   3.014   1.648   5.682  1.7283  0.9805  0.9283
 9446TIP3   OH228282   7.010   2.480   6.656  0.4817 -0.0507 -0.0049
 9446TIP3    H128283   6.921   2.444   6.647  0.9032 -0.8374 -1.4294
 9446TIP3    H228284   7.037   2.455   6.744 -0.4037 -0.5388  0.1417
 9447TIP3   OH228285   3.509   6.122   0.705 -0.1680  0.2776 -0.1470
 9447TIP3    H128286   3.475   6.032   0.709 -0.1895  0.3393  1.3168
 9447TIP3    H228287   3.497   6.147   0.613  0.5858 -1.5011 -0.7730
 9448TIP3   OH228288   8.278   6.999   4.410 -0.2374 -0.5056 -0.5153
 9448TIP3    H128289   8.195   6.981   4.366 -0.2458 -1.4398 -0.1450
 9448TIP3    H228290   8.339   6.934   4.374 -0.5809 -2.2253  1.7802
 9449TIP3   OH228291   1.245   0.566   4.367  0.0539  0.0331  0.2580
 9449TIP3    H128292   1.189   0.506   4.417  1.3186 -0.3611  1.2655
 9449TIP3    H228293   1.276   0.630   4.432 -0.5550  1.2601 -0.6246
 9450TIP3   OH228294   2.209   2.672   5.145  0.0512  0.1625 -0.5287
 9450TIP3    H128295   2.272   2.669   5.217 -0.5610 -0.1848 -0.0008
 9450TIP3    H228296   2.124   2.654   5.186 -0.1813 -1.0419 -1.4764
 9451TIP3   OH228297   2.610   6.127   4.041 -0.1293  0.1890 -0.2290
 9451TIP3    H128298   2.634   6.219   4.031 -1.5805  0.5556 -0.5527
 9451TIP3    H228299   2.521   6.121   4.006  0.2869 -1.5364 -1.1091
 9452TIP3   OH228300   6.398   5.165   4.273  0.2301 -0.4976 -0.7640
 9452TIP3    H128301   6.321   5.190   4.323  0.2666  0.4470 -1.1542
 9452TIP3    H228302   6.365   5.143   4.186  0.0911 -2.7409 -0.1921
 9453TIP3   OH228303   4.648   5.931   1.856  0.1933 -0.1648  0.4313
 9453TIP3    H128304   4.713   5.861   1.855  0.1707 -0.1795 -0.7453
 9453TIP3    H228305   4.687   6.000   1.802 -1.6531 -1.0072 -2.1812
 9454TIP3   OH228306   5.671   5.811   1.500 -0.3831  0.7877  0.1364
 9454TIP3    H128307   5.584   5.830   1.463  0.1731 -0.1893 -1.7832
 9454TIP3    H228308   5.711   5.751   1.438  0.9774 -0.2791  1.9472
 9455TIP3   OH228309   2.925   7.133   0.022  0.0539 -0.1973 -0.5904
 9455TIP3    H128310   2.956   7.069  -0.043  0.6217 -0.3120 -0.2126
 9455TIP3    H228311   3.005   7.171   0.058 -0.2354 -0.6180  0.5387
 9456TIP3   OH228312   1.531   1.812   5.702 -0.0125 -0.1628  0.1522
 9456TIP3    H128313   1.534   1.895   5.653 -2.4336 -1.2732 -2.0874
 9456TIP3    H228314   1.581   1.830   5.781  2.1344  2.5093 -1.6068
 9457TIP3   OH228315   5.590   3.196   2.568 -0.7354  0.2459  0.3943
 9457TIP3    H128316   5.548   3.237   2.643 -1.5551  0.3265 -0.1002
 9457TIP3    H228317   5.531   3.125   2.543 -0.0895 -0.2703  0.2974
 9458TIP3   OH228318   4.838   3.302   1.176  0.1481  0.4682  0.3735
 9458TIP3    H128319   4.928   3.324   1.199 -0.1540  1.3402  0.7691
 9458TIP3    H228320   4.784   3.366   1.224 -0.5638  1.6790 -1.8829
 9459TIP3   OH228321   7.597   4.771   2.275 -0.2603  0.0431  0.0912
 9459TIP3    H128322   7.656   4.809   2.340 -0.3234 -1.3998  1.0358
 9459TIP3    H228323   7.604   4.830   2.200 -0.2877  1.8285  1.4184
 9460TIP3   OH228324   7.005   5.624   6.715 -0.1629 -0.1307 -0.3218
 9460TIP3    H128325   6.975   5.631   6.805 -0.4209 -0.3107 -0.3953
 9460TIP3    H228326   7.098   5.646   6.719 -0.4235  1.0067 -0.1848
 9461TIP3   OH228327   7.740   2.203   0.365  0.6227 -0.2312  0.0591
 9461TIP3    H128328   7.736   2.108   0.371  2.0187 -0.2612  1.1529
 9461TIP3    H228329   7.701   2.234   0.447 -0.2863  0.1796 -0.5088
 9462TIP3   OH228330   6.957   6.639   2.026  0.1294  0.7923 -0.1207
 9462TIP3    H128331   7.002   6.719   1.999  4.8959  0.4100  4.9645
 9462TIP3    H228332   6.899   6.667   2.097  1.5082 -0.0435  1.4015
 9463TIP3   OH228333   7.086   4.739   2.970 -0.0293 -0.3568  0.5250
 9463TIP3    H128334   7.028   4.666   2.949 -0.8724  0.7883 -1.3955
 9463TIP3    H228335   7.028   4.809   3.000  0.5985  0.0421  0.8496
 9464TIP3   OH228336   5.582   1.027   3.812  0.1617  0.3781  0.1816
 9464TIP3    H128337   5.577   1.122   3.822  0.4825  0.3646  0.4748
 9464TIP3    H228338   5.581   1.012   3.717 -1.9006  0.5608  0.1251
 9465TIP3   OH228339   2.670   0.146   6.689 -0.2090 -0.1071 -0.1075
 9465TIP3    H128340   2.615   0.138   6.611 -1.7784  0.0317  0.9434
 9465TIP3    H228341   2.680   0.056   6.720 -1.6687  0.0264  0.8736
 9466TIP3   OH228342   7.298   1.367   6.393  0.0001  0.4230  0.2274
 9466TIP3    H128343   7.299   1.316   6.474  0.9243  0.9827  0.5818
 9466TIP3    H228344   7.242   1.317   6.334  1.3630 -1.3241  0.3371
 9467TIP3   OH228345   5.922   3.315   0.849 -0.1297  0.0164 -0.5893
 9467TIP3    H128346   5.967   3.235   0.821 -0.3503 -1.9731  3.8427
 9467TIP3    H228347   5.993   3.374   0.877 -0.0470 -0.0419 -0.6773
 9468TIP3   OH228348   2.541   2.641   3.015  0.5630 -0.5707  0.4745
 9468TIP3    H128349   2.487   2.573   2.975 -0.9339 -0.8831  2.8539
 9468TIP3    H228350   2.495   2.723   2.997  1.1036 -0.4347 -0.3439
 9469TIP3   OH228351   5.044   0.993   1.745  0.0428  0.2937  0.7447
 9469TIP3    H128352   4.962   0.952   1.716  0.1708  1.8370 -2.2030
 9469TIP3    H228353   5.019   1.083   1.766  0.9795  0.8187 -0.3225
 9470TIP3   OH228354   3.922   0.178   6.216 -0.4503 -0.3644  0.0232
 9470TIP3    H128355   3.952   0.144   6.300 -2.6708  0.0728  1.0771
 9470TIP3    H228356   3.956   0.116   6.152  2.2456 -0.1041  1.0627
 9471TIP3   OH228357   0.044   4.303   4.251  0.0624 -0.0390  0.6298
 9471TIP3    H128358  -0.029   4.265   4.202 -0.4115  0.8034  0.6690
 9471TIP3    H228359   0.096   4.227   4.279  0.1497 -0.5601 -0.8466
 9472TIP3   OH228360   6.547   6.524   5.590 -0.5336  0.7733  0.8964
 9472TIP3    H128361   6.611   6.573   5.539 -1.8618  0.0257 -1.6099
 9472TIP3    H228362   6.463   6.544   5.549 -1.2366 -2.8072  0.3046
 9473TIP3   OH228363   3.840   4.990   0.809  0.1241  0.2633  0.0971
 9473TIP3    H128364   3.798   4.930   0.870 -0.2688 -0.1872 -0.6066
 9473TIP3    H228365   3.768   5.031   0.761  0.4604 -0.8940 -1.4691
 9474TIP3   OH228366   6.712   2.154   4.229  0.1658  0.5961  0.0406
 9474TIP3    H128367   6.710   2.234   4.177  0.5682  1.1031  0.7750
 9474TIP3    H228368   6.626   2.115   4.217 -0.1835  1.3596  0.0028
 9475TIP3   OH228369   3.056   1.131   1.971 -0.3537 -0.4146  0.4376
 9475TIP3    H128370   3.030   1.043   1.942 -0.5486 -0.4522  0.7283
 9475TIP3    H228371   2.975   1.181   1.973  0.0476  0.5080 -2.1917
 9476TIP3   OH228372   1.079   3.626   1.842  0.3460  0.0030  0.1357
 9476TIP3    H128373   1.140   3.631   1.916  0.7528  1.4134 -0.2726
 9476TIP3    H228374   1.134   3.600   1.768  0.0936 -0.5912  0.1560
 9477TIP3   OH228375   1.008   0.970   2.835  0.0466 -0.6518 -0.0436
 9477TIP3    H128376   0.941   1.010   2.889 -1.8439 -0.7830 -2.1460
 9477TIP3    H228377   0.996   0.876   2.848  0.9430 -0.6573  0.8250
 9478TIP3   OH228378   1.984   1.200   0.413  0.1721 -0.1456  0.5479
 9478TIP3    H128379   1.986   1.241   0.499  0.1050  0.9524  0.0523
 9478TIP3    H228380   1.967   1.273   0.353 -0.6610 -1.0303 -0.3130
 9479TIP3   OH228381   2.371   5.218   6.330  0.7286 -0.3765 -0.9471
 9479TIP3    H128382   2.351   5.300   6.284 -2.7007 -0.3635  0.2563
 9479TIP3    H228383   2.412   5.246   6.412  0.5554  0.0767 -1.0080
 9480TIP3   OH228384   3.508   5.341   5.500  0.4975  0.3717 -0.0112
 9480TIP3    H128385   3.523   5.414   5.440  2.0628 -0.3003 -0.4711
 9480TIP3    H228386   3.495   5.383   5.585 -0.4262  1.2613 -0.5593
 9481TIP3   OH228387   6.176   4.874   2.003 -1.1179 -0.4122 -0.3420
 9481TIP3    H128388   6.267   4.844   2.010 -0.5400  1.2524 -0.1831
 9481TIP3    H228389   6.125   4.806   2.047 -0.1732 -2.2247 -1.8576
 9482TIP3   OH228390   4.712   2.581   5.333 -0.0557 -0.0923  0.2139
 9482TIP3    H128391   4.764   2.549   5.259 -1.5813 -1.7694 -0.2070
 9482TIP3    H228392   4.707   2.675   5.320 -1.5268 -0.4594 -2.7424
 9483TIP3   OH228393   2.818   1.369   3.115  0.2545  0.3733  0.1326
 9483TIP3    H128394   2.880   1.319   3.168  0.1315  0.8744  0.7648
 9483TIP3    H228395   2.869   1.398   3.039  0.6133  0.2054  0.3084
 9484TIP3   OH228396   0.312   5.367   5.812 -0.2091 -0.3111  0.2236
 9484TIP3    H128397   0.281   5.383   5.902  0.6077 -0.8825  0.6216
 9484TIP3    H228398   0.345   5.452   5.783  0.3835 -0.3295  0.8177
 9485TIP3   OH228399   3.420   2.241   1.382  0.4403  0.4032 -0.5661
 9485TIP3    H128400   3.481   2.301   1.338  0.3648  0.4917 -0.5494
 9485TIP3    H228401   3.360   2.213   1.313  0.4699  0.3548 -0.5720
 9486TIP3   OH228402   3.734   2.519   3.842 -0.0279  0.4151  0.2166
 9486TIP3    H128403   3.654   2.554   3.802 -0.7756 -1.0898  0.3045
 9486TIP3    H228404   3.703   2.478   3.923  1.1795  1.7290  1.4002
 9487TIP3   OH228405   6.496   0.448   4.219  0.3254 -0.5156 -0.5678
 9487TIP3    H128406   6.534   0.505   4.153  0.7455 -2.3680 -2.0103
 9487TIP3    H228407   6.448   0.507   4.277  1.9813  1.4416 -1.0726
 9488TIP3   OH228408   6.789   7.316   3.212  0.4644  0.1542 -0.2234
 9488TIP3    H128409   6.842   7.358   3.144  0.0957 -1.7222 -1.7725
 9488TIP3    H228410   6.850   7.259   3.258  0.1409 -0.9132 -1.0634
 9489TIP3   OH228411   7.938   3.190   0.378  0.0778 -0.2791  0.0611
 9489TIP3    H128412   7.977   3.134   0.311  2.7400  0.9768  0.4596
 9489TIP3    H228413   7.906   3.129   0.445  1.2924 -1.3926 -0.3461
 9490TIP3   OH228414   5.016   5.483   5.703 -0.4017 -0.0384 -0.0335
 9490TIP3    H128415   5.056   5.463   5.618 -0.7321  0.5005 -0.3149
 9490TIP3    H228416   4.928   5.513   5.682 -1.0873 -1.4985  0.5991
 9491TIP3   OH228417   0.271   1.295   2.104 -0.4637 -0.2354  0.4122
 9491TIP3    H128418   0.256   1.201   2.114 -0.7837 -0.0447  2.1761
 9491TIP3    H228419   0.195   1.327   2.056 -0.7881 -0.7515  0.5682
 9492TIP3   OH228420   1.485   4.853   2.248  0.0994 -0.3218  0.0856
 9492TIP3    H128421   1.391   4.850   2.232  0.0938  0.8011 -0.2047
 9492TIP3    H228422   1.506   4.768   2.286 -1.0380 -0.5610  0.2087
 9493TIP3   OH228423   5.446   1.429   2.671  0.1903 -0.0612 -0.6840
 9493TIP3    H128424   5.476   1.482   2.745  0.3063 -0.2731 -0.5781
 9493TIP3    H228425   5.511   1.358   2.665 -0.0705 -0.3004 -0.7009
 9494TIP3   OH228426   0.050   3.632   3.223  0.2625  0.3037 -0.4331
 9494TIP3    H128427   0.078   3.543   3.201  2.1317  1.1037 -1.5821
 9494TIP3    H228428  -0.045   3.632   3.209 -0.1261 -2.0014  1.5662
 9495TIP3   OH228429   1.046   3.972   1.375 -0.2135  0.2384 -0.5303
 9495TIP3    H128430   1.103   4.039   1.338  0.9510 -1.0747 -1.2027
 9495TIP3    H228431   1.081   3.955   1.462  1.0411 -1.1934 -1.2667
 9496TIP3   OH228432   0.817   1.351   5.941 -0.5272  0.4472  0.5897
 9496TIP3    H128433   0.796   1.437   5.905 -0.2892 -0.1167 -0.9590
 9496TIP3    H228434   0.769   1.348   6.024  2.3637  3.4819  2.6129
 9497TIP3   OH228435   0.663   6.556   2.010  0.4713 -0.0785 -0.4892
 9497TIP3    H128436   0.740   6.577   2.063 -0.3303  0.6877  0.3821
 9497TIP3    H228437   0.667   6.619   1.938  0.5596  0.0743 -0.3517
 9498TIP3   OH228438   5.493   1.099   0.943 -0.3741  0.4568 -0.0097
 9498TIP3    H128439   5.479   1.102   1.037  0.9259  2.0551  0.1737
 9498TIP3    H228440   5.573   1.149   0.928  1.4381 -2.6032 -1.6212
 9499TIP3   OH228441   3.783   0.224   2.496  0.3366  0.3899  0.0954
 9499TIP3    H128442   3.753   0.314   2.509 -0.8070 -0.1658  1.5311
 9499TIP3    H228443   3.825   0.200   2.578  2.6394  0.3016 -1.0247
 9500TIP3   OH228444   2.965   5.090   4.620 -0.0665  0.3066  0.3669
 9500TIP3    H128445   2.995   5.099   4.710 -2.2925  2.3639  1.0339
 9500TIP3    H228446   2.890   5.030   4.625 -1.7024  2.2159  0.4181
 9501TIP3   OH228447   2.374   4.335   0.160  0.1909 -0.2557  0.1798
 9501TIP3    H128448   2.330   4.377   0.235 -0.5786 -0.2098 -0.2912
 9501TIP3    H228449   2.339   4.246   0.159 -1.7436  0.4456 -1.6085
 9502TIP3   OH228450   0.361   0.171   0.416 -0.1783 -0.5233  0.4789
 9502TIP3    H128451   0.379   0.125   0.333 -0.2435  0.4679 -0.0971
 9502TIP3    H228452   0.448   0.186   0.454 -0.0735  0.0246  0.0319
 9503TIP3   OH228453   3.907   2.469   2.061  0.1536 -0.4320  0.3413
 9503TIP3    H128454   3.846   2.527   2.106  0.8640 -0.4164  1.2826
 9503TIP3    H228455   3.963   2.527   2.010  0.2599 -0.3539  0.5467
 9504TIP3   OH228456   6.125   0.401   5.911  0.3995  0.1139 -0.5353
 9504TIP3    H128457   6.211   0.373   5.943  0.8631  0.3960 -1.4950
 9504TIP3    H228458   6.137   0.409   5.816 -0.2009  1.8215 -0.4910
 9505TIP3   OH228459   5.595   5.388   6.246 -0.1974  0.0398  0.1065
 9505TIP3    H128460   5.550   5.362   6.327 -0.5126 -2.4013 -0.7815
 9505TIP3    H228461   5.656   5.317   6.228  1.6537  1.7103 -0.5397
 9506TIP3   OH228462   3.766   1.614   2.606  0.0444 -0.0112  0.0884
 9506TIP3    H128463   3.710   1.691   2.596  0.4467  0.8243  3.3005
 9506TIP3    H228464   3.711   1.550   2.651  0.8896 -0.1021  1.0196
 9507TIP3   OH228465   0.935   3.824   0.603 -0.3623 -0.3037 -0.0668
 9507TIP3    H128466   0.915   3.758   0.669 -0.8688  2.7937  3.2237
 9507TIP3    H228467   0.895   3.904   0.637  1.6814  2.1095 -2.8403
 9508TIP3   OH228468   7.100   1.656   5.053  0.1189 -0.1638  0.0589
 9508TIP3    H128469   7.087   1.613   5.138  1.7618  0.7397  0.8233
 9508TIP3    H228470   7.158   1.597   5.005  1.2211  0.4793  0.5609
 9509TIP3   OH228471   6.071   3.391   0.608  0.0591 -0.0737 -0.3319
 9509TIP3    H128472   6.056   3.361   0.518  0.8665 -1.4433 -0.0312
 9509TIP3    H228473   6.158   3.431   0.605  0.1290 -0.2110 -0.1403
 9510TIP3   OH228474   7.689   6.760   1.186 -0.2468  0.2895  0.0628
 9510TIP3    H128475   7.718   6.670   1.196 -3.2200 -0.8552 -0.5626
 9510TIP3    H228476   7.666   6.768   1.093  0.7698  1.9972 -0.0907
 9511TIP3   OH228477   6.063   3.110   2.499  0.6232 -0.6103  0.2043
 9511TIP3    H128478   6.117   3.163   2.559 -0.6587 -0.5271  1.3366
 9511TIP3    H228479   5.982   3.096   2.547 -1.2329  1.0390 -2.2489
 9512TIP3   OH228480   6.333   0.356   0.937  0.1256  0.6691 -0.4420
 9512TIP3    H128481   6.339   0.337   1.030  2.3363  0.7243 -0.5162
 9512TIP3    H228482   6.284   0.438   0.932  1.2856  1.4861  0.8279
 9513TIP3   OH228483   1.502   6.735   5.817 -0.5368  0.6230  0.6166
 9513TIP3    H128484   1.458   6.650   5.824 -2.0987  1.3027 -0.4798
 9513TIP3    H228485   1.583   6.724   5.868 -0.9669 -1.3297  0.9630
 9514TIP3   OH228486   2.736   5.228   0.216 -0.8057 -0.5028  0.0216
 9514TIP3    H128487   2.708   5.314   0.248 -0.4289 -0.1525 -0.5632
 9514TIP3    H228488   2.726   5.233   0.121  1.3893 -0.2716 -0.2546
 9515TIP3   OH228489   4.149   5.883   4.796  0.0645  0.4528  0.1758
 9515TIP3    H128490   4.084   5.937   4.841 -1.7914  1.0705 -2.9105
 9515TIP3    H228491   4.099   5.839   4.727  2.2095 -2.4153  0.2855
 9516TIP3   OH228492   3.919   6.138   6.157 -0.2734 -0.2870 -0.0888
 9516TIP3    H128493   3.857   6.120   6.227 -0.2750  0.3757  0.0914
 9516TIP3    H228494   3.891   6.223   6.122 -1.3442 -1.3913 -2.0617
 9517TIP3   OH228495   4.443   0.441   0.561 -0.5043  0.0603 -0.3948
 9517TIP3    H128496   4.522   0.490   0.538 -0.9254  0.9416  0.0085
 9517TIP3    H228497   4.381   0.461   0.490  0.0187 -1.6128 -1.3773
 9518TIP3   OH228498   0.368   2.452   0.933 -0.4362  0.0126  0.3120
 9518TIP3    H128499   0.352   2.401   0.854  1.5849  0.6305 -0.5719
 9518TIP3    H228500   0.282   2.487   0.957 -1.2394 -0.8983 -1.1096
 9519TIP3   OH228501   7.288   5.437   5.847  0.1566  0.1470  0.2762
 9519TIP3    H128502   7.214   5.494   5.825  0.3716 -0.1809 -1.4854
 9519TIP3    H228503   7.361   5.497   5.864  0.2500  0.4428 -1.0570
 9520TIP3   OH228504   5.542   2.644   3.439  0.0908 -0.3133 -0.1070
 9520TIP3    H128505   5.632   2.614   3.424  0.2624  0.0175  0.2380
 9520TIP3    H228506   5.549   2.704   3.513 -0.2381  0.6143 -0.8066
 9521TIP3   OH228507   3.954   1.051   0.731  0.1550  0.0482  0.2133
 9521TIP3    H128508   3.919   0.962   0.739 -0.6082  0.3401  0.2124
 9521TIP3    H228509   3.917   1.098   0.805 -0.5955  0.7287 -0.5679
 9522TIP3   OH228510   5.088   7.444   5.010 -0.5005 -0.0339 -0.0095
 9522TIP3    H128511   5.178   7.414   4.998 -0.3263  0.1325  0.8139
 9522TIP3    H228512   5.044   7.373   5.056 -1.1595 -0.6661 -1.5322
 9523TIP3   OH228513   5.644   2.087   3.573  0.2262  0.0627 -0.1249
 9523TIP3    H128514   5.675   2.126   3.655 -2.9322  0.8041  0.8729
 9523TIP3    H228515   5.719   2.092   3.514  2.5736 -0.3228  2.6111
 9524TIP3   OH228516   7.734   7.553   6.386  0.2490 -0.2983 -0.1030
 9524TIP3    H128517   7.771   7.534   6.300  0.7408 -0.4698  0.1424
 9524TIP3    H228518   7.716   7.467   6.424 -1.2190 -0.2139 -0.5558
 9525TIP3   OH228519   2.561   2.092   3.106 -0.2173 -0.2184 -0.2234
 9525TIP3    H128520   2.529   2.162   3.049  0.6226 -0.3949 -0.9265
 9525TIP3    H228521   2.553   2.012   3.053 -0.7339 -0.5963  0.4068
 9526TIP3   OH228522   7.009   2.143   2.699 -0.4052 -0.0788 -0.6463
 9526TIP3    H128523   7.008   2.068   2.639 -1.1405  0.2060 -0.9983
 9526TIP3    H228524   6.931   2.131   2.753 -0.8309  0.7221 -1.0671
 9527TIP3   OH228525   0.514   1.157   4.301 -0.0341  0.2024  0.2162
 9527TIP3    H128526   0.574   1.201   4.362  0.8450 -0.8094  0.1165
 9527TIP3    H228527   0.502   1.219   4.229  0.4874  0.6213  0.4857
 9528TIP3   OH228528   6.147   7.303   1.398  0.3187  0.1556 -0.5269
 9528TIP3    H128529   6.102   7.375   1.442 -0.7884 -0.5248 -0.4833
 9528TIP3    H228530   6.077   7.256   1.352  0.9257 -1.1618 -0.1614
 9529TIP3   OH228531   2.078   7.181   1.506  0.1839  0.3569  0.5532
 9529TIP3    H128532   2.165   7.152   1.534  0.6535 -0.3199 -1.4649
 9529TIP3    H228533   2.033   7.101   1.480 -0.3814  0.8870 -0.1528
 9530TIP3   OH228534   6.446   7.311   2.810  0.4934 -0.4659 -0.5032
 9530TIP3    H128535   6.377   7.373   2.832  0.0829 -1.2968  0.6700
 9530TIP3    H228536   6.441   7.244   2.878  0.5646 -2.0887 -2.0182
 9531TIP3   OH228537   8.118   3.752   5.040  0.1589 -0.0635 -0.1514
 9531TIP3    H128538   8.059   3.802   5.095  0.7316 -0.0634  0.4755
 9531TIP3    H228539   8.177   3.708   5.101 -0.1640 -1.3055 -0.6911
 9532TIP3   OH228540   2.782   4.521   1.317  0.4569  0.1638 -0.6558
 9532TIP3    H128541   2.729   4.453   1.277  1.0984  0.6053 -2.3607
 9532TIP3    H228542   2.867   4.481   1.330  0.6415  0.4136 -1.0441
 9533TIP3   OH228543   4.067   2.425   4.418 -0.5636 -0.2766  0.3926
 9533TIP3    H128544   4.084   2.518   4.432 -0.5944 -0.2212  0.0764
 9533TIP3    H228545   4.055   2.417   4.323  1.0252 -0.8661  0.2102
 9534TIP3   OH228546   1.131   4.863   3.809  0.5870  0.4147  0.0181
 9534TIP3    H128547   1.214   4.841   3.765  1.2865  0.6165  1.1850
 9534TIP3    H228548   1.088   4.924   3.750  0.2389 -1.3260 -1.6389
 9535TIP3   OH228549   1.596   7.720   0.906  0.2194 -0.2749 -0.5529
 9535TIP3    H128550   1.556   7.743   0.822 -0.6416 -2.3393 -0.7545
 9535TIP3    H228551   1.524   7.729   0.969  0.1786 -1.1718 -0.4565
 9536TIP3   OH228552   4.715   0.775   0.855  0.0914  0.4252  0.1330
 9536TIP3    H128553   4.632   0.740   0.887 -0.8718  1.2246 -1.4160
 9536TIP3    H228554   4.734   0.849   0.913  0.4516 -0.5703  1.3377
 9537TIP3   OH228555   7.244   5.609   3.634 -0.1273  0.6347 -0.5766
 9537TIP3    H128556   7.169   5.556   3.608  1.4302 -0.7762 -2.4599
 9537TIP3    H228557   7.255   5.672   3.563 -0.0264  1.4111  0.1081
 9538TIP3   OH228558   2.758   7.635   1.555  0.2298  0.2615 -0.0536
 9538TIP3    H128559   2.764   7.721   1.514  0.6926  1.0234  1.5191
 9538TIP3    H228560   2.681   7.594   1.515 -0.4488  1.7097 -0.2855
 9539TIP3   OH228561   7.080   7.061   4.376  0.7688 -0.5017 -0.3725
 9539TIP3    H128562   7.137   7.058   4.453  0.2329 -1.3026 -0.0038
 9539TIP3    H228563   7.140   7.082   4.304  1.2947  0.1194  0.2327
 9540TIP3   OH228564   2.610   6.502   6.248  0.1151  0.0963  0.5422
 9540TIP3    H128565   2.580   6.591   6.229  0.6475 -0.3326 -2.8361
 9540TIP3    H228566   2.688   6.514   6.301 -1.0817  1.5066  2.1038
 9541TIP3   OH228567   1.861   4.365   0.658 -0.1194 -0.0857 -0.0517
 9541TIP3    H128568   1.783   4.343   0.606  0.7433 -0.3191 -1.3038
 9541TIP3    H228569   1.893   4.280   0.689 -1.3579  0.1472  2.0231
 9542TIP3   OH228570   1.501   5.485   4.869  0.1448 -0.6542  0.0439
 9542TIP3    H128571   1.463   5.447   4.790 -0.7514  0.9742 -0.3485
 9542TIP3    H228572   1.441   5.460   4.940 -0.6281  0.2388 -0.2669
 9543TIP3   OH228573  -0.004   6.904   2.735  0.4421 -0.3052  0.2966
 9543TIP3    H128574   0.091   6.905   2.741  0.6894 -2.9396 -1.5227
 9543TIP3    H228575  -0.024   6.830   2.678 -2.6879  0.5847  0.0408
 9544TIP3   OH228576   5.105   0.679   6.135 -0.4936  0.3561  0.4415
 9544TIP3    H128577   5.041   0.609   6.151  0.2256 -0.2801  0.6137
 9544TIP3    H228578   5.071   0.754   6.184  0.3341 -0.7863  2.9482
 9545TIP3   OH228579   5.397   4.506   6.225 -0.3035 -0.0350 -0.2381
 9545TIP3    H128580   5.393   4.419   6.186 -0.1512 -0.2528  0.2229
 9545TIP3    H228581   5.364   4.565   6.157  0.3573 -0.3518 -0.8465
 9546TIP3   OH228582   5.871   0.814   5.779 -0.2437 -0.0754  0.0966
 9546TIP3    H128583   5.965   0.835   5.775 -0.4605  0.7936 -1.8959
 9546TIP3    H228584   5.867   0.725   5.813  1.1974  0.4138  1.6751
 9547TIP3   OH228585   2.384   0.723   4.517  0.0923 -0.0506  1.1794
 9547TIP3    H128586   2.398   0.795   4.577  0.6139  1.1740 -0.3505
 9547TIP3    H228587   2.442   0.654   4.547  2.1513  1.4010  0.7148
 9548TIP3   OH228588   3.405   1.906   6.115 -0.4991  0.0582  0.6888
 9548TIP3    H128589   3.419   1.858   6.197  2.6643 -0.9933 -0.3022
 9548TIP3    H228590   3.357   1.845   6.059  2.1388 -1.5420 -0.0157
 9549TIP3   OH228591   3.184   3.804   4.118  0.1007 -0.0494 -0.1105
 9549TIP3    H128592   3.160   3.877   4.174 -0.9776 -1.4485  1.3650
 9549TIP3    H228593   3.212   3.735   4.178  0.1798 -1.1723 -1.3702
 9550TIP3   OH228594   4.251   4.074   3.715  0.8533  0.0724 -0.2983
 9550TIP3    H128595   4.326   4.125   3.683 -0.2845  2.4048  0.5463
 9550TIP3    H228596   4.289   4.013   3.779  2.4481 -1.2231 -2.3496
 9551TIP3   OH228597   7.769   6.109   0.460  0.4457 -0.1953  0.2750
 9551TIP3    H128598   7.853   6.088   0.501  1.4774  0.2089 -1.5378
 9551TIP3    H228599   7.715   6.142   0.531  2.0974  0.3223  1.3417
 9552TIP3   OH228600   4.309   5.847   2.736 -0.0739  0.5580 -0.0375
 9552TIP3    H128601   4.374   5.805   2.792 -0.4894  0.1238  0.1336
 9552TIP3    H228602   4.329   5.814   2.648  0.1983  0.7591 -0.0516
 9553TIP3   OH228603   3.405   3.795   5.052 -0.0209  0.1677 -0.3397
 9553TIP3    H128604   3.439   3.782   4.964 -0.3781 -1.7584 -0.2422
 9553TIP3    H228605   3.342   3.724   5.064  1.0797 -0.5072  1.9911
 9554TIP3   OH228606   3.242   5.130   1.461 -0.1689 -0.4760  0.5429
 9554TIP3    H128607   3.205   5.056   1.510 -1.6167  1.6425  2.9065
 9554TIP3    H228608   3.284   5.184   1.528  2.0445  0.2302 -1.2960
 9555TIP3   OH228609   0.647   4.073   6.507 -0.7354 -0.3207  0.5219
 9555TIP3    H128610   0.680   4.083   6.596 -3.2485  2.0476  1.3070
 9555TIP3    H228611   0.555   4.051   6.518 -0.5783 -2.4205 -1.5735
 9556TIP3   OH228612   6.505   1.579   2.564 -0.2737 -0.4780  0.7084
 9556TIP3    H128613   6.470   1.553   2.478  0.1874 -2.1196  0.9732
 9556TIP3    H228614   6.531   1.496   2.604  1.2187  0.4348  1.6992
 9557TIP3   OH228615   4.020   6.358   4.972  0.5344 -0.5106 -0.1042
 9557TIP3    H128616   3.982   6.416   4.907  0.1047  0.4146  0.9435
 9557TIP3    H228617   3.945   6.318   5.016  0.7649  0.0686  0.8580
 9558TIP3   OH228618   4.710   4.665   3.467  0.7327 -0.3438  0.3487
 9558TIP3    H128619   4.791   4.714   3.451  0.2946  0.0141 -0.9214
 9558TIP3    H228620   4.730   4.576   3.440  0.5476 -0.1286 -0.5459
 9559TIP3   OH228621   5.042   2.533   1.781  0.2050 -0.1507  0.8979
 9559TIP3    H128622   5.016   2.521   1.872  0.4430  1.6590  1.2353
 9559TIP3    H228623   4.963   2.565   1.737  0.0270 -1.2339  0.3977
 9560TIP3   OH228624   2.119   1.508   6.615 -0.2077 -0.0096 -0.1579
 9560TIP3    H128625   2.169   1.590   6.612 -1.1682  0.7100  1.5629
 9560TIP3    H228626   2.031   1.533   6.587  0.0152 -0.9899 -1.8873
 9561TIP3   OH228627   0.231   0.160   5.823  0.6159 -0.2980 -0.2571
 9561TIP3    H128628   0.251   0.082   5.772  0.8427 -1.6441  1.7750
 9561TIP3    H228629   0.306   0.218   5.809  1.7657 -1.5947  0.3322
 9562TIP3   OH228630   0.245   6.415   6.504 -0.0259 -0.6509  0.1976
 9562TIP3    H128631   0.191   6.382   6.576 -0.7021 -3.4964 -1.4541
 9562TIP3    H228632   0.182   6.450   6.441  0.1642 -1.9725 -0.7716
 9563TIP3   OH228633   0.941   3.017   3.892  0.2201  0.5275 -0.0754
 9563TIP3    H128634   0.901   2.932   3.876 -2.0346  1.5268 -0.1164
 9563TIP3    H228635   1.021   3.016   3.839 -0.5857 -0.9639 -1.3498
 9564TIP3   OH228636   6.416   6.257   5.429  0.1127 -0.0052 -0.1382
 9564TIP3    H128637   6.417   6.351   5.448 -1.5229  0.0838 -0.3307
 9564TIP3    H228638   6.407   6.252   5.334 -0.1196 -0.3466 -0.0994
 9565TIP3   OH228639   1.734   5.463   6.603 -0.1515  0.0392  0.0633
 9565TIP3    H128640   1.814   5.429   6.564 -0.4502  0.0476 -0.5704
 9565TIP3    H228641   1.721   5.548   6.561 -0.8361 -0.2504 -0.3267
 9566TIP3   OH228642   0.156   2.633   0.972 -0.2302  0.0631 -0.1761
 9566TIP3    H128643   0.230   2.684   0.939 -0.4756 -0.1692 -1.1129
 9566TIP3    H228644   0.110   2.693   1.031 -0.1045  0.6883 -0.7054
 9567TIP3   OH228645   2.523   3.748   2.926 -0.0786 -0.2638  0.0331
 9567TIP3    H128646   2.456   3.712   2.984 -0.2423  1.6880  1.1336
 9567TIP3    H228647   2.549   3.831   2.967  1.5318  0.0306 -1.4499
 9568TIP3   OH228648   2.157   5.112   2.412 -0.1420  0.3306 -0.0392
 9568TIP3    H128649   2.107   5.035   2.437 -0.7164  0.2841 -1.2521
 9568TIP3    H228650   2.248   5.081   2.409 -0.1895  0.0776  0.8699
 9569TIP3   OH228651   6.079   2.813   2.512  0.0480  0.2815  0.1658
 9569TIP3    H128652   6.057   2.887   2.456 -0.7245 -0.4484 -0.5179
 9569TIP3    H228653   6.171   2.828   2.536  0.4375  0.5495 -1.3869
 9570TIP3   OH228654   7.819   5.625   2.213  0.1233 -0.0212  0.3181
 9570TIP3    H128655   7.783   5.698   2.263 -0.6705  0.1247 -0.4449
 9570TIP3    H228656   7.886   5.664   2.158  1.2943 -0.2475  1.5346
 9571TIP3   OH228657   0.134   0.804   1.119  0.4149  0.2648  0.3830
 9571TIP3    H128658   0.179   0.763   1.046 -1.4492 -2.6509  0.6947
 9571TIP3    H228659   0.089   0.879   1.080  2.9667  1.4554 -0.4768
 9572TIP3   OH228660   7.423   7.600   3.181 -0.3790  0.2178  0.1142
 9572TIP3    H128661   7.509   7.633   3.156  0.0371 -0.3257  0.7616
 9572TIP3    H228662   7.391   7.662   3.246 -1.5459  1.7367 -1.8092
 9573TIP3   OH228663   5.774   2.289   4.889 -0.2736  0.1821  0.1936
 9573TIP3    H128664   5.779   2.245   4.804  0.6921  0.3411  0.1564
 9573TIP3    H228665   5.859   2.333   4.898 -0.3174  0.0625  1.2955
 9574TIP3   OH228666   1.703   7.168   3.990  0.5241  0.6928 -0.2754
 9574TIP3    H128667   1.794   7.170   3.959  0.0988 -0.0488 -1.6760
 9574TIP3    H228668   1.660   7.240   3.944  0.2320  0.5794 -0.1818
 9575TIP3   OH228669   4.962   3.719   4.034 -0.1394  0.4086  0.6378
 9575TIP3    H128670   5.025   3.660   4.075  1.0515 -0.9657 -2.8079
 9575TIP3    H228671   5.002   3.806   4.041  0.9724 -0.0944  0.6345
 9576TIP3   OH228672   4.314   1.019   4.024 -0.7187 -0.7412 -0.2964
 9576TIP3    H128673   4.343   1.083   4.089 -0.0020 -0.6762 -0.6711
 9576TIP3    H228674   4.232   0.984   4.060 -0.8081 -0.0502  0.1974
 9577TIP3   OH228675   4.690   6.337   5.859 -0.0691 -1.0067 -0.0202
 9577TIP3    H128676   4.747   6.392   5.914 -1.8782 -0.4420  1.4075
 9577TIP3    H228677   4.715   6.359   5.770  0.6875  0.6172  0.5472
 9578TIP3   OH228678   1.187   0.202   5.134  0.5958  0.6058  0.6666
 9578TIP3    H128679   1.181   0.260   5.058 -1.0902 -0.5894 -0.1582
 9578TIP3    H228680   1.172   0.115   5.099 -1.2425  0.1195  2.5140
 9579TIP3   OH228681   1.233   1.209   5.403  0.6628 -0.3011  0.4527
 9579TIP3    H128682   1.321   1.195   5.368 -0.9652 -3.4183 -3.1228
 9579TIP3    H228683   1.191   1.269   5.342 -0.3575 -0.6482  0.7815
 9580TIP3   OH228684   2.632   5.928   2.916 -0.3532  0.4608  0.3391
 9580TIP3    H128685   2.668   5.918   2.828  0.1767 -1.0688  0.7030
 9580TIP3    H228686   2.697   5.887   2.973 -1.7145 -0.5458  1.2265
 9581TIP3   OH228687   0.461   6.114   0.330  0.1282  0.0602  0.2128
 9581TIP3    H128688   0.404   6.191   0.332 -0.7730 -0.5839  0.2104
 9581TIP3    H228689   0.465   6.090   0.238 -1.2089 -1.0348  0.4112
 9582TIP3   OH228690   8.258   3.107   0.155  0.1720 -0.0579  0.1944
 9582TIP3    H128691   8.328   3.131   0.094  0.2652  0.8156  0.6257
 9582TIP3    H228692   8.283   3.148   0.238 -1.2466  0.9552  0.1493
 9583TIP3   OH228693   1.126   0.079   4.171 -0.2519  0.3687 -0.2372
 9583TIP3    H128694   1.121   0.111   4.081  0.0807 -2.1363 -1.2227
 9583TIP3    H228695   1.219   0.073   4.190 -0.3190  1.0209  0.3558
 9584TIP3   OH228696   5.215   6.965   4.876 -0.0374 -0.0354 -0.1510
 9584TIP3    H128697   5.175   6.995   4.794 -1.6935 -1.3392  0.1327
 9584TIP3    H228698   5.143   6.925   4.925  1.1056 -0.1125  1.5621
 9585TIP3   OH228699   2.139   5.345   4.752  0.2970  0.1549  0.0172
 9585TIP3    H128700   2.119   5.272   4.693 -1.8703 -0.3967  1.3283
 9585TIP3    H228701   2.129   5.423   4.698  0.4422 -0.4153 -0.8503
 9586TIP3   OH228702   6.772   5.433   1.681 -0.1452  0.5822  0.0193
 9586TIP3    H128703   6.809   5.440   1.593 -0.7989 -0.6229 -0.3729
 9586TIP3    H228704   6.787   5.342   1.707  0.7816  1.1136  1.5158
 9587TIP3   OH228705   4.481   3.101   3.630 -0.7882  0.2610  0.1914
 9587TIP3    H128706   4.426   3.092   3.552 -0.0840 -0.0196 -0.2846
 9587TIP3    H228707   4.449   3.181   3.672  0.6730  2.0920 -1.9456
 9588TIP3   OH228708   7.082   5.059   0.615  0.4241 -0.7808 -0.5475
 9588TIP3    H128709   7.118   5.059   0.704  0.8937 -1.8206 -0.7309
 9588TIP3    H228710   7.058   5.150   0.600  2.2864 -0.1732 -0.1372
 9589TIP3   OH228711   4.027   3.603   3.436 -0.3094  0.8612 -0.1436
 9589TIP3    H128712   4.008   3.689   3.398 -0.0348  1.0207  0.0836
 9589TIP3    H228713   4.009   3.613   3.529  0.7317  0.9703  0.0564
 9590TIP3   OH228714   5.769   2.842   6.661 -0.2189  0.2174  0.1388
 9590TIP3    H128715   5.726   2.928   6.661 -0.0822  0.2853  0.4849
 9590TIP3    H228716   5.859   2.861   6.687  0.0027  0.0658 -0.4948
 9591TIP3   OH228717   7.090   0.232   3.445  0.7660  0.1978 -0.2679
 9591TIP3    H128718   7.130   0.145   3.437  1.1080  0.1314  1.7089
 9591TIP3    H228719   7.154   0.291   3.404  1.6030 -0.2468  0.3443
 9592TIP3   OH228720   6.038   4.428   3.764 -0.0636  0.1979  0.7256
 9592TIP3    H128721   5.974   4.384   3.821  1.4843 -1.8601  1.0004
 9592TIP3    H228722   6.100   4.469   3.824  0.5894 -0.4815  0.5346
 9593TIP3   OH228723   6.001   5.866   1.878 -0.0042 -0.9881  0.3526
 9593TIP3    H128724   6.050   5.937   1.919 -0.2675 -0.9028  0.5243
 9593TIP3    H228725   6.063   5.826   1.817 -0.3555  0.4926 -1.0548
 9594TIP3   OH228726   4.482   7.778   4.718  0.4229  0.3972  0.1375
 9594TIP3    H128727   4.550   7.844   4.717  1.9833 -1.1216  0.4854
 9594TIP3    H228728   4.504   7.722   4.793 -0.2328 -1.0816 -0.7284
 9595TIP3   OH228729   7.596   2.623   5.684 -0.3035  0.3194  0.5018
 9595TIP3    H128730   7.610   2.695   5.623  0.7326 -0.2654  0.0248
 9595TIP3    H228731   7.627   2.657   5.768 -0.0148  0.5048  0.3224
 9596TIP3   OH228732   7.669   0.504   5.690  0.1536 -0.4046  0.2195
 9596TIP3    H128733   7.639   0.565   5.624 -2.8490 -0.8380  1.0357
 9596TIP3    H228734   7.591   0.453   5.713  1.8761 -2.6071  1.6083
 9597TIP3   OH228735   4.328   1.567   4.433  0.0450  0.2385  0.3605
 9597TIP3    H128736   4.390   1.498   4.409 -0.2968 -0.0671  0.3360
 9597TIP3    H228737   4.343   1.637   4.370 -1.0190 -0.6556 -0.9578
 9598TIP3   OH228738   0.600   1.095   2.485 -0.0822 -0.5666 -0.1206
 9598TIP3    H128739   0.563   1.012   2.516 -0.2334 -0.0002  1.2643
 9598TIP3    H228740   0.526   1.141   2.445 -0.0902 -0.9120 -0.5070
 9599TIP3   OH228741   2.275   2.129   1.230  0.1347 -0.1874  0.1050
 9599TIP3    H128742   2.197   2.150   1.282  0.6716 -0.5106  1.0665
 9599TIP3    H228743   2.347   2.136   1.292  1.1012  1.7675 -1.1356
 9600TIP3   OH228744   1.798   6.563   4.466 -0.3926  0.2078 -0.4406
 9600TIP3    H128745   1.759   6.514   4.393 -1.4093 -0.0973  0.2781
 9600TIP3    H228746   1.823   6.496   4.529 -2.1639  0.5633  0.7303
 9601TIP3   OH228747   1.589   7.092   4.239 -0.5307 -0.6175 -0.2991
 9601TIP3    H128748   1.648   7.104   4.165 -1.3643 -1.2303 -1.0952
 9601TIP3    H228749   1.561   7.180   4.262  2.1753 -0.0824  1.4025
 9602TIP3   OH228750   5.490   6.120   3.569  0.0894 -0.3664  0.2395
 9602TIP3    H128751   5.437   6.200   3.566  0.4396  0.0110  2.4423
 9602TIP3    H228752   5.580   6.150   3.556  0.1112 -0.5712 -0.1063
 9603TIP3   OH228753   0.672   2.319   1.626 -0.0799  0.0023  0.4034
 9603TIP3    H128754   0.766   2.319   1.608 -0.4267  0.4394 -1.6712
 9603TIP3    H228755   0.655   2.406   1.662  0.1799  0.2931 -0.1523
 9604TIP3   OH228756   5.834   4.086   1.633 -0.3283 -0.2545  0.1137
 9604TIP3    H128757   5.925   4.077   1.605 -0.6535  2.4460 -2.3004
 9604TIP3    H228758   5.837   4.149   1.704 -0.2732 -0.7889  0.5940
 9605TIP3   OH228759   0.490   3.326   6.600 -0.1309  0.2724  0.1378
 9605TIP3    H128760   0.495   3.314   6.695  0.7951  3.4340  0.5942
 9605TIP3    H228761   0.566   3.279   6.565  0.8483  1.0178  1.2229
 9606TIP3   OH228762   3.169   2.276   2.964 -0.0730 -0.2797  0.5638
 9606TIP3    H128763   3.114   2.340   3.009 -0.5537  0.9680 -1.6081
 9606TIP3    H228764   3.235   2.329   2.920  1.0209 -1.5187  0.6787
 9607TIP3   OH228765   6.860   3.782   0.986 -0.5317 -0.0899  0.3378
 9607TIP3    H128766   6.899   3.775   0.898  0.2829  1.0379  0.5956
 9607TIP3    H228767   6.772   3.745   0.975 -0.0797 -0.9504 -0.6999
 9608TIP3   OH228768   0.848   6.965   1.534 -0.0826 -0.2082 -0.4566
 9608TIP3    H128769   0.769   6.936   1.580 -0.1841 -0.5737 -0.8517
 9608TIP3    H228770   0.882   6.886   1.492 -0.3261  0.2322 -1.5119
 9609TIP3   OH228771   8.186   3.632   4.584  0.0866 -0.0020  0.4417
 9609TIP3    H128772   8.198   3.612   4.677  1.0697 -0.8477  0.1481
 9609TIP3    H228773   8.091   3.632   4.572 -0.0304 -2.0522  1.0157
 9610TIP3   OH228774   2.400   5.298   3.750  0.3922  0.1691  0.6197
 9610TIP3    H128775   2.361   5.211   3.743 -0.3691  0.5955 -1.8870
 9610TIP3    H228776   2.448   5.309   3.668  2.2454  1.3382  1.7948
 9611TIP3   OH228777   7.362   0.947   2.064  0.3975 -0.3112 -0.0421
 9611TIP3    H128778   7.425   1.019   2.061  1.3081 -1.0953 -0.2482
 9611TIP3    H228779   7.357   0.924   2.157  0.9979 -0.7326 -0.1067
 9612TIP3   OH228780   0.568   5.469   2.180  0.0828 -0.8287  0.4713
 9612TIP3    H128781   0.561   5.373   2.178 -0.5596 -0.8067  1.4190
 9612TIP3    H228782   0.614   5.489   2.261 -0.7317 -0.2945  0.8237
 9613TIP3   OH228783   7.693   4.840   0.938  0.1299 -0.5121  0.5359
 9613TIP3    H128784   7.782   4.854   0.970 -0.1949 -0.2572  1.3418
 9613TIP3    H228785   7.651   4.925   0.944 -0.2904 -0.7154  0.5281
 9614TIP3   OH228786   4.170   1.529   2.305  0.2216 -0.2453  0.4478
 9614TIP3    H128787   4.157   1.607   2.251  0.2312 -0.4583  0.1339
 9614TIP3    H228788   4.136   1.553   2.391  0.8792  0.3451  0.5449
 9615TIP3   OH228789   2.300   2.781   5.493  0.0349 -0.0410 -0.3938
 9615TIP3    H128790   2.348   2.820   5.420 -1.9717  0.9050 -1.2883
 9615TIP3    H228791   2.208   2.788   5.468 -0.8283  1.2911  2.6855
 9616TIP3   OH228792   2.255   2.245   4.112  0.0370  0.3633 -0.4214
 9616TIP3    H128793   2.178   2.300   4.126  0.1282  0.7804 -1.4826
 9616TIP3    H228794   2.268   2.245   4.018  1.1030 -0.0388 -0.2875
 9617TIP3   OH228795   4.502   0.244   5.864  0.4742  0.5974  0.9114
 9617TIP3    H128796   4.424   0.195   5.837 -0.5199  1.5084  2.0550
 9617TIP3    H228797   4.551   0.183   5.919  0.3913  0.1537  0.5039
 9618TIP3   OH228798   4.335   0.206   4.787  0.4251  0.1236  0.2264
 9618TIP3    H128799   4.358   0.298   4.770 -0.0184  0.0517 -0.8474
 9618TIP3    H228800   4.355   0.193   4.879  1.4948  1.0083  0.1429
 9619TIP3   OH228801   0.513   2.760   0.125  0.0225 -0.2630 -0.6610
 9619TIP3    H128802   0.461   2.740   0.048 -1.0670 -4.8904  0.9450
 9619TIP3    H228803   0.593   2.708   0.114  0.3184 -0.1563  0.8009
 9620TIP3   OH228804   0.150   1.541   1.052  0.1823 -0.4919 -1.0739
 9620TIP3    H128805   0.082   1.499   1.105 -0.6645  1.3186 -0.6579
 9620TIP3    H228806   0.164   1.626   1.093  0.7853  0.2577 -2.7209
 9621TIP3   OH228807   1.584   5.972   5.242  0.3884 -0.3168 -0.2783
 9621TIP3    H128808   1.584   6.068   5.238  0.2564 -0.1835  1.8029
 9621TIP3    H228809   1.675   5.947   5.230  0.2532 -0.0542 -2.1665
 9622TIP3   OH228810   6.694   3.381   1.722  0.5275 -0.2486 -0.4915
 9622TIP3    H128811   6.735   3.324   1.787 -0.1375 -0.3214 -0.1264
 9622TIP3    H228812   6.650   3.449   1.774  0.0637 -0.2559 -0.8664
 9623TIP3   OH228813   0.390   6.190   2.231  0.3311  0.3483  0.0390
 9623TIP3    H128814   0.323   6.211   2.166  0.1990  0.6457  0.2685
 9623TIP3    H228815   0.452   6.263   2.227 -0.6098  1.2810  1.4819
 9624TIP3   OH228816   7.926   5.744   0.825 -0.4830 -0.7098  0.2493
 9624TIP3    H128817   7.912   5.720   0.916 -0.2472 -1.1380  0.1780
 9624TIP3    H228818   7.849   5.712   0.779 -0.4688 -0.7540  0.2562
 9625TIP3   OH228819   8.271   2.621   0.231  0.1708  0.7419 -0.5921
 9625TIP3    H128820   8.241   2.542   0.185 -0.4341  1.3776 -1.3106
 9625TIP3    H228821   8.339   2.589   0.291  1.8219 -0.0018 -2.7052
 9626TIP3   OH228822   1.912   7.746   4.164 -0.9675 -0.5996 -0.0050
 9626TIP3    H128823   1.865   7.825   4.137  1.7045  1.4053  0.7232
 9626TIP3    H228824   1.922   7.755   4.259 -1.1432 -2.1481  0.1872
 9627TIP3   OH228825   7.468   0.574   3.948 -0.0336 -0.2526  0.1185
 9627TIP3    H128826   7.546   0.580   3.893  0.6812  1.3608  1.2323
 9627TIP3    H228827   7.464   0.482   3.974  2.3167 -0.1338  1.1261
 9628TIP3   OH228828   5.370   3.884   2.382 -0.3491 -0.1993  0.2824
 9628TIP3    H128829   5.290   3.879   2.434 -1.4422  2.0797 -1.0026
 9628TIP3    H228830   5.344   3.933   2.304  2.3422  0.8604 -0.0513
 9629TIP3   OH228831   5.983   3.802   1.865 -0.4002  0.4826 -0.0509
 9629TIP3    H128832   6.004   3.878   1.920  0.9988  0.6574 -0.7970
 9629TIP3    H228833   5.888   3.808   1.852 -0.4983  1.4131  0.8866
 9630TIP3   OH228834   4.210   3.509   4.618 -0.3907 -0.0270 -0.3091
 9630TIP3    H128835   4.202   3.576   4.685 -0.6987 -0.5732  0.2077
 9630TIP3    H228836   4.185   3.554   4.537 -0.5984  0.4804  0.0303
 9631TIP3   OH228837   6.797   3.729   3.529  0.7213 -0.6456  0.6503
 9631TIP3    H128838   6.725   3.675   3.562  1.3764 -2.2928 -0.4611
 9631TIP3    H228839   6.864   3.665   3.502  1.2491  0.6730 -1.3910
 9632TIP3   OH228840   2.728   0.717   1.321  0.1069  0.2481 -0.0405
 9632TIP3    H128841   2.774   0.794   1.357  0.8891  0.2299 -0.9744
 9632TIP3    H228842   2.714   0.661   1.397 -0.1845  1.1627  0.6057
 9633TIP3   OH228843   5.311   1.337   4.038  0.5710 -0.6633 -0.0752
 9633TIP3    H128844   5.224   1.299   4.029 -0.2708  0.9963  0.5372
 9633TIP3    H228845   5.311   1.377   4.125  1.7570 -0.1893 -0.2703
 9634TIP3   OH228846   7.780   4.447   0.124 -0.3434 -0.0916 -0.0670
 9634TIP3    H128847   7.861   4.439   0.174  0.9751  0.0750 -2.0577
 9634TIP3    H228848   7.771   4.363   0.079 -0.7336  0.2333 -0.6121
 9635TIP3   OH228849   0.720   6.214   3.917  0.0321 -0.4363  0.4755
 9635TIP3    H128850   0.722   6.155   3.842  0.7650 -2.1131  1.7588
 9635TIP3    H228851   0.806   6.255   3.919  0.0762 -0.5318  0.5159
 9636TIP3   OH228852   3.034   3.657   6.778  0.8645  0.1179  0.1171
 9636TIP3    H128853   3.039   3.708   6.697 -1.1153 -1.3420 -1.0205
 9636TIP3    H228854   3.097   3.586   6.766 -0.0298 -0.5825 -0.5565
 9637TIP3   OH228855   7.741   7.499   1.540 -0.1543  0.0755  0.2729
 9637TIP3    H128856   7.803   7.570   1.561  0.4217 -0.6660  1.1606
 9637TIP3    H228857   7.655   7.541   1.541  0.2538  0.9493 -0.1136
 9638TIP3   OH228858   1.783   7.342   1.761 -0.2081  0.0084  0.3251
 9638TIP3    H128859   1.701   7.311   1.721 -0.0439  0.1301 -0.1045
 9638TIP3    H228860   1.811   7.415   1.706 -0.3439  0.6291  1.0664
 9639TIP3   OH228861   6.396   2.433   6.373 -0.1999  0.4629 -0.0217
 9639TIP3    H128862   6.462   2.502   6.380 -0.6280  1.0287 -1.2355
 9639TIP3    H228863   6.353   2.450   6.289 -1.3528 -0.3635  0.3802
 9640TIP3   OH228864   0.063   4.217   4.728  0.1386 -0.2416 -0.3839
 9640TIP3    H128865   0.077   4.238   4.820 -1.6600  0.6312 -0.2746
 9640TIP3    H228866  -0.018   4.167   4.726  0.3393 -0.5594 -1.4562
 9641TIP3   OH228867   3.404   2.382   3.357 -0.1325  0.1688  0.4180
 9641TIP3    H128868   3.481   2.420   3.400  0.2401  0.3453 -0.3967
 9641TIP3    H228869   3.435   2.355   3.271  0.2704 -4.2258  1.6959
 9642TIP3   OH228870   7.258   1.010   1.533  0.5578  0.4441 -0.0888
 9642TIP3    H128871   7.187   0.966   1.485  1.0179 -1.2423  0.7018
 9642TIP3    H228872   7.214   1.056   1.604  0.0968  0.9777 -0.7030
 9643TIP3   OH228873   1.545   7.356   4.916 -0.4807 -0.1719  0.7680
 9643TIP3    H128874   1.616   7.310   4.871 -0.3775  1.4845 -0.9063
 9643TIP3    H228875   1.467   7.332   4.866 -0.4605  1.1764  0.0318
 9644TIP3   OH228876   4.943   3.752   2.324 -0.7629  0.4641  0.2270
 9644TIP3    H128877   4.946   3.657   2.324 -0.7667  0.4330  1.9808
 9644TIP3    H228878   4.852   3.774   2.304 -0.8379  0.0953  0.1598
 9645TIP3   OH228879   5.809   6.585   5.581  0.0728 -0.4495  0.6321
 9645TIP3    H128880   5.740   6.571   5.517 -1.0273 -2.0602  2.0913
 9645TIP3    H228881   5.789   6.670   5.620  0.4532  0.2994 -0.7258
 9646TIP3   OH228882   1.112   2.177   5.517 -0.4409 -0.3134 -0.2234
 9646TIP3    H128883   1.019   2.170   5.493 -0.2017 -1.0284 -0.9842
 9646TIP3    H228884   1.133   2.269   5.501 -0.7184 -0.4061 -1.2509
 9647TIP3   OH228885   6.886   1.014   0.702  0.0331  0.3140 -0.3960
 9647TIP3    H128886   6.932   0.990   0.783 -1.2648  1.6002  0.7685
 9647TIP3    H228887   6.848   0.932   0.671 -0.5090 -0.0003  1.0049
 9648TIP3   OH228888   2.898   2.863   0.601  0.2468 -0.2441 -0.3998
 9648TIP3    H128889   2.957   2.923   0.648  0.3570  0.4882 -1.4496
 9648TIP3    H228890   2.814   2.872   0.645  0.4627  0.0802 -0.0492
 9649TIP3   OH228891   2.625   4.956   3.487 -0.2269 -0.5687  0.5071
 9649TIP3    H128892   2.536   4.968   3.454 -0.9732 -2.1637  1.7718
 9649TIP3    H228893   2.647   4.866   3.462  1.0292 -0.2135  0.2676
 9650TIP3   OH228894   0.368   6.002   3.033 -0.4302 -0.2119  0.0713
 9650TIP3    H128895   0.383   6.096   3.024  1.0480  0.0305  3.5146
 9650TIP3    H228896   0.274   5.995   3.050 -0.3319  0.8519  1.2239
 9651TIP3   OH228897   2.019   3.230   3.816 -0.0094 -0.2533 -0.0137
 9651TIP3    H128898   2.081   3.240   3.889 -1.3833  0.2883  1.1197
 9651TIP3    H228899   1.983   3.142   3.828  0.8141 -0.7315 -0.9179
 9652TIP3   OH228900   6.905   0.261   4.920 -0.3394 -0.3261 -0.2500
 9652TIP3    H128901   6.863   0.338   4.960 -0.3211  0.4401 -1.6280
 9652TIP3    H228902   6.856   0.247   4.839 -0.2278 -1.6894 -0.1061
 9653TIP3   OH228903   8.063   6.245   6.230  0.6641  0.4744  0.5354
 9653TIP3    H128904   8.075   6.185   6.157 -0.2306  0.4506  0.3988
 9653TIP3    H228905   7.999   6.201   6.287  1.3804  0.4689  1.3607
 9654TIP3   OH228906   2.933   3.101   3.557 -0.4230 -0.1995  0.0481
 9654TIP3    H128907   2.856   3.101   3.615 -1.2793  0.0155 -1.0516
 9654TIP3    H228908   2.904   3.051   3.480  0.7517 -0.6354 -0.1217
 9655TIP3   OH228909   0.753   4.377   2.124 -0.1104 -0.4265 -0.8361
 9655TIP3    H128910   0.734   4.320   2.198  0.2346 -0.7934 -1.0263
 9655TIP3    H228911   0.768   4.317   2.051 -2.6536 -0.0354 -1.7703
 9656TIP3   OH228912   2.241   3.767   0.157  0.5283  0.4147 -0.0144
 9656TIP3    H128913   2.295   3.698   0.195 -0.9888  1.3798  4.5064
 9656TIP3    H228914   2.261   3.845   0.209 -0.0625  2.6880 -2.9067
 9657TIP3   OH228915   0.313   5.926   0.742  0.3021  0.6750  0.0090
 9657TIP3    H128916   0.348   5.916   0.830  2.1795 -0.1471 -0.7677
 9657TIP3    H228917   0.327   6.018   0.720  0.6208  0.6880  0.2666
 9658TIP3   OH228918   3.725   5.223   4.512 -0.1417  0.4888  0.3807
 9658TIP3    H128919   3.818   5.208   4.528 -0.2430  0.6040  1.1240
 9658TIP3    H228920   3.693   5.265   4.592 -0.8569  0.3383  0.1863
 9659TIP3   OH228921   3.979   5.958   3.428  0.4196 -0.0270 -0.3480
 9659TIP3    H128922   4.041   6.015   3.383 -0.1389 -0.2557 -1.4240
 9659TIP3    H228923   3.956   5.891   3.364 -1.7978  0.6846 -0.3882
 9660TIP3   OH228924   1.862   4.517   6.413  0.2504  0.2951  0.3815
 9660TIP3    H128925   1.825   4.553   6.494  1.1146 -1.1869  1.4909
 9660TIP3    H228926   1.872   4.424   6.431  3.1030  0.3752 -0.3728
 9661TIP3   OH228927   1.257   3.090   4.218 -0.2033 -0.2968 -0.4820
 9661TIP3    H128928   1.212   3.151   4.277 -0.3881 -0.8264 -0.0636
 9661TIP3    H228929   1.350   3.107   4.231 -0.2591  0.1521 -0.6489
 9662TIP3   OH228930   7.047   7.769   6.426  1.0754  0.1536  0.3597
 9662TIP3    H128931   7.094   7.696   6.467 -0.2502 -0.2276  1.2512
 9662TIP3    H228932   6.980   7.727   6.372  0.5599  0.7096  0.5625
 9663TIP3   OH228933   2.820   7.710   2.568  1.0087 -0.0165  0.1205
 9663TIP3    H128934   2.896   7.733   2.515 -1.3686  1.5546 -2.9429
 9663TIP3    H228935   2.764   7.660   2.508 -1.2040  0.5762  1.5789
 9664TIP3   OH228936   0.719   4.673   1.597  0.0482 -0.4063  0.4824
 9664TIP3    H128937   0.725   4.644   1.506 -0.7378  0.4790  0.1345
 9664TIP3    H228938   0.626   4.679   1.614  0.1941 -0.2162  1.2368
 9665TIP3   OH228939   0.722   2.560   3.179  0.9360  0.2116  0.2017
 9665TIP3    H128940   0.664   2.588   3.250  1.5729  0.7733  0.5085
 9665TIP3    H228941   0.721   2.633   3.117  1.4019  0.2633  0.2578
 9666TIP3   OH228942   0.498   6.595   5.694 -0.0360  0.0212  0.2802
 9666TIP3    H128943   0.452   6.568   5.615  1.3986 -0.3042 -0.4731
 9666TIP3    H228944   0.514   6.688   5.682  0.3226 -0.0621  0.1189
 9667TIP3   OH228945   6.373   5.981   2.541 -0.1854 -0.0334 -0.2814
 9667TIP3    H128946   6.342   6.057   2.590  2.5882  1.5759 -0.7839
 9667TIP3    H228947   6.465   6.001   2.522  0.9899 -3.9706  0.3756
 9668TIP3   OH228948   0.105   6.542   5.613 -0.2801  0.1907  0.0068
 9668TIP3    H128949   0.018   6.504   5.600  0.3583 -1.4214  0.1730
 9668TIP3    H228950   0.160   6.467   5.637  1.2970  1.0637 -0.7440
 9669TIP3   OH228951   2.915   4.964   1.252 -0.5421 -0.1725 -0.4241
 9669TIP3    H128952   2.874   5.040   1.210  1.1641  1.1362  0.1735
 9669TIP3    H228953   2.857   4.943   1.326  1.1707  3.5484  2.2741
 9670TIP3   OH228954   0.661   3.276   5.723 -0.2462  0.5629 -0.3360
 9670TIP3    H128955   0.725   3.312   5.662 -0.2797  1.2920  0.0514
 9670TIP3    H228956   0.649   3.344   5.789  0.3891 -0.5191  0.9545
 9671TIP3   OH228957   6.257   2.485   4.212 -0.2604  0.3241 -0.1801
 9671TIP3    H128958   6.344   2.503   4.177 -0.3658  0.5957 -0.3105
 9671TIP3    H228959   6.240   2.557   4.273  0.6514 -1.0604  1.8396
 9672TIP3   OH228960   6.486   1.389   4.139  0.1205 -0.1992 -0.3109
 9672TIP3    H128961   6.561   1.388   4.198  1.1241  0.4430 -1.5380
 9672TIP3    H228962   6.428   1.321   4.173  0.3705  0.5634  1.7738
 9673TIP3   OH228963   0.639   4.201   0.254 -0.3175  0.0422 -0.5015
 9673TIP3    H128964   0.624   4.117   0.297  0.3558  0.0386 -0.2655
 9673TIP3    H228965   0.734   4.214   0.259 -0.3505  0.5286 -1.0735
 9674TIP3   OH228966   1.734   5.963   1.992 -0.4604 -0.1725  0.3083
 9674TIP3    H128967   1.753   6.053   2.020  0.7229 -0.0378 -0.8210
 9674TIP3    H228968   1.664   5.973   1.927  0.0593  0.0116 -0.2365
 9675TIP3   OH228969   1.196   1.715   0.606 -0.4475 -0.2941 -0.2943
 9675TIP3    H128970   1.237   1.792   0.644  0.5596 -0.7079 -0.5220
 9675TIP3    H228971   1.254   1.688   0.535 -0.8697 -1.1550 -0.3359
 9676TIP3   OH228972   5.040   6.078   5.014 -0.1580  0.1933 -0.2042
 9676TIP3    H128973   5.102   6.066   4.942  0.2517 -1.1801  0.3392
 9676TIP3    H228974   4.968   6.019   4.993  0.5428 -1.2086  1.0959
 9677TIP3   OH228975   6.499   4.244   0.985  0.2891  0.1122  0.0165
 9677TIP3    H128976   6.508   4.183   0.912 -2.9900 -0.1616 -0.2904
 9677TIP3    H228977   6.444   4.315   0.951  0.0692  0.8063  1.7342
 9678TIP3   OH228978   6.702   0.069   4.866 -0.6380  0.2721  0.0983
 9678TIP3    H128979   6.615   0.033   4.849 -0.3755 -0.8903  1.0817
 9678TIP3    H228980   6.720   0.047   4.958  0.3746  1.1794  0.1442
 9679TIP3   OH228981   5.388   3.775   2.840 -0.2843 -1.2136 -0.0357
 9679TIP3    H128982   5.332   3.851   2.825  1.0245 -0.1098  0.4245
 9679TIP3    H228983   5.328   3.700   2.839 -1.4686 -0.3016 -1.5342
 9680TIP3   OH228984   1.896   1.451   0.076 -0.1375 -0.4835  0.0188
 9680TIP3    H128985   1.937   1.461   0.162 -0.0439  0.7422 -0.1485
 9680TIP3    H228986   1.904   1.537   0.036 -0.0039 -1.0956 -1.3074
 9681TIP3   OH228987   0.357   0.121   1.343  0.2137 -0.4469 -0.0255
 9681TIP3    H128988   0.425   0.164   1.395  0.2776  0.4522 -0.8444
 9681TIP3    H228989   0.403   0.088   1.266 -0.1729 -0.3650 -0.2911
 9682TIP3   OH228990   8.016   2.486   1.063  0.0372 -0.0851  0.1064
 9682TIP3    H128991   8.090   2.485   1.002  0.4468 -0.7040  0.5956
 9682TIP3    H228992   8.042   2.549   1.131  0.3503 -0.6858  0.5510
 9683TIP3   OH228993   4.409   2.303   1.795  0.3717 -0.7924  0.0879
 9683TIP3    H128994   4.397   2.313   1.889 -1.4018 -1.0934 -0.0614
 9683TIP3    H228995   4.492   2.347   1.776 -0.2173  1.0537  1.4918
 9684TIP3   OH228996   0.868   4.491   3.459 -0.0197 -0.9850  0.3940
 9684TIP3    H128997   0.886   4.582   3.483  0.8828 -1.2557  0.7949
 9684TIP3    H228998   0.779   4.493   3.423  0.1396  0.1196  0.0196
 9685TIP3   OH228999   7.709   2.801   6.137  0.1739 -0.5226  0.3919
 9685TIP3    H129000   7.751   2.812   6.223 -1.1006 -0.7513  1.0683
 9685TIP3    H229001   7.673   2.712   6.140  0.2564 -0.5886 -0.4492
 9686TIP3   OH229002   3.074   1.413   3.522 -0.1585  0.3963 -0.1125
 9686TIP3    H129003   3.138   1.470   3.564  0.9430 -0.4414 -0.5972
 9686TIP3    H229004   3.083   1.329   3.567  0.5318 -0.3097 -1.5014
 9687TIP3   OH229005   0.856   7.309   4.373  0.2128  0.0152  0.2416
 9687TIP3    H129006   0.814   7.384   4.415 -0.5197 -0.4146  0.2720
 9687TIP3    H229007   0.799   7.235   4.391 -0.3295 -0.1204 -1.8137
 9688TIP3   OH229008   5.889   6.435   4.613 -0.1556 -0.1442 -0.2725
 9688TIP3    H129009   5.844   6.395   4.539 -0.9833 -0.1696  0.2275
 9688TIP3    H229010   5.891   6.366   4.680  1.0365 -0.2905 -0.4402
 9689TIP3   OH229011   2.497   4.773   0.127 -0.3308 -0.1873  0.6145
 9689TIP3    H129012   2.524   4.699   0.072  0.0510  0.8854 -0.6993
 9689TIP3    H229013   2.404   4.786   0.107  0.4516  2.1325 -2.2929
 9690TIP3   OH229014   8.221   7.748   3.964  0.6702 -0.4901  0.4435
 9690TIP3    H129015   8.167   7.774   3.890  0.5503 -1.4239  0.1892
 9690TIP3    H229016   8.165   7.761   4.041  0.7245  0.2850  0.3597
 9691TIP3   OH229017   8.180   1.899   6.718 -0.5564 -0.3653 -0.1006
 9691TIP3    H129018   8.177   1.870   6.627 -0.8504 -2.0212  0.4144
 9691TIP3    H229019   8.227   1.830   6.765  2.5376  1.9448  0.5333
 9692TIP3   OH229020   7.981   3.875   3.885  0.0598  0.2011 -0.0797
 9692TIP3    H129021   7.912   3.941   3.875  0.8520  0.8652 -1.3311
 9692TIP3    H229022   7.961   3.809   3.819  0.6395  0.4112 -0.4671
 9693TIP3   OH229023   2.855   2.110   1.705 -0.2834  0.0916  0.7464
 9693TIP3    H129024   2.918   2.181   1.689  1.8542 -1.9933 -0.5906
 9693TIP3    H229025   2.879   2.076   1.791  0.2355 -0.4944  0.3765
 9694TIP3   OH229026   0.371   1.287   1.458  0.1968 -0.3658 -0.2140
 9694TIP3    H129027   0.335   1.372   1.480  2.1899  0.1178  1.4434
 9694TIP3    H229028   0.308   1.250   1.396 -2.2597  1.0233  1.2890
 9695TIP3   OH229029   8.061   7.627   5.808  0.0499 -0.2406  0.2252
 9695TIP3    H129030   8.092   7.538   5.823 -0.8570 -0.6728 -0.4260
 9695TIP3    H229031   8.047   7.633   5.714  0.0527  0.5847  0.2636
 9696TIP3   OH229032   2.731   6.819   1.917  0.1453  0.2587 -0.2295
 9696TIP3    H129033   2.802   6.883   1.921  0.6319 -0.2874  0.1276
 9696TIP3    H229034   2.712   6.809   1.824 -1.2265  2.2984 -0.2250
 9697TIP3   OH229035   6.947   5.492   6.020 -0.6751 -0.4011 -0.1052
 9697TIP3    H129036   6.879   5.495   6.087 -1.0099 -1.6914 -0.3506
 9697TIP3    H229037   6.907   5.531   5.942 -1.3727 -1.6940 -0.4219
 9698TIP3   OH229038   7.059   1.463   4.449 -0.7599  0.0366 -0.1641
 9698TIP3    H129039   6.995   1.534   4.439 -1.3188 -0.3613  0.5130
 9698TIP3    H229040   7.051   1.435   4.540  1.5060  1.0157  0.3878
 9699TIP3   OH229041   4.657   6.720   6.084 -0.5607 -0.1706 -0.2249
 9699TIP3    H129042   4.712   6.790   6.120  0.1990 -0.2489 -1.1910
 9699TIP3    H229043   4.714   6.643   6.081 -1.0630 -0.5493 -0.1837
 9700TIP3   OH229044   4.731   5.910   5.398  0.0819  0.2741 -0.3854
 9700TIP3    H129045   4.758   5.962   5.474  2.4741 -0.5282 -0.6137
 9700TIP3    H229046   4.683   5.836   5.436  3.9233 -1.8566  0.8124
 9701TIP3   OH229047   7.105   7.617   4.104 -0.0036 -0.4178  0.4693
 9701TIP3    H129048   7.101   7.527   4.137  2.1123 -0.5750  0.4281
 9701TIP3    H229049   7.130   7.607   4.012 -0.6543  0.2051  0.2166
 9702TIP3   OH229050   4.772   0.273   4.214 -0.3708  0.5994 -0.5233
 9702TIP3    H129051   4.824   0.195   4.236 -0.6150  1.2923  3.2914
 9702TIP3    H229052   4.699   0.269   4.276 -0.2981  3.9016 -0.0860
 9703TIP3   OH229053   1.308   1.392   0.457  0.3198 -0.0234  0.1936
 9703TIP3    H129054   1.318   1.388   0.552  2.0525 -0.3950  0.0301
 9703TIP3    H229055   1.287   1.303   0.431  1.0933 -0.1885  0.1194
 9704TIP3   OH229056   1.896   2.136   1.226 -0.8433 -0.0225 -0.1178
 9704TIP3    H129057   1.831   2.082   1.270 -1.6484  0.4442 -0.7072
 9704TIP3    H229058   1.849   2.176   1.152  0.4947 -0.9105 -1.5210
 9705TIP3   OH229059   4.722   7.153   2.624  0.0860 -0.3668 -0.1137
 9705TIP3    H129060   4.787   7.222   2.628 -0.7397  0.4426 -0.2009
 9705TIP3    H229061   4.724   7.124   2.533  1.4395 -1.4837  0.2404
 9706TIP3   OH229062   3.103   4.486   4.690 -0.0553  0.4729  0.0172
 9706TIP3    H129063   3.038   4.515   4.754  0.1005  1.6243 -0.3222
 9706TIP3    H229064   3.072   4.399   4.662  0.2163 -0.3624  2.1012
 9707TIP3   OH229065   0.730   6.547   0.596  0.0069 -0.0319  0.5437
 9707TIP3    H129066   0.668   6.512   0.532  2.7425 -1.7395 -1.4189
 9707TIP3    H229067   0.677   6.565   0.673 -3.0140 -0.6554 -1.2079
 9708TIP3   OH229068   0.092   5.168   5.093  0.0283  0.2125  0.6555
 9708TIP3    H129069   0.158   5.139   5.156  2.8729 -0.1260 -2.2047
 9708TIP3    H229070   0.074   5.259   5.117  1.1033  0.1433  1.8367
 9709TIP3   OH229071   6.689   2.297   2.044  0.2082 -0.0552 -0.1135
 9709TIP3    H129072   6.637   2.331   1.972 -1.2693 -1.0433  0.4326
 9709TIP3    H229073   6.667   2.352   2.119 -0.1555 -0.5423  0.1462
 9710TIP3   OH229074   2.718   1.606   4.424 -0.0916 -0.2102  0.2190
 9710TIP3    H129075   2.797   1.554   4.410  0.1223 -0.1579  1.1695
 9710TIP3    H229076   2.662   1.551   4.478 -0.3503  0.0899  0.2583
 9711TIP3   OH229077   4.766   6.686   2.241 -0.0430  0.4356 -0.1302
 9711TIP3    H129078   4.820   6.642   2.176 -0.4037  0.3054 -0.3447
 9711TIP3    H229079   4.818   6.762   2.268  0.7825 -0.3430  0.5635
 9712TIP3   OH229080   1.397   5.667   2.866 -0.1216 -0.4471  0.1196
 9712TIP3    H129081   1.459   5.595   2.881 -0.9629 -1.3249 -0.4586
 9712TIP3    H229082   1.357   5.682   2.951  1.6571  0.9187  0.7809
 9713TIP3   OH229083   2.723   7.187   1.186 -0.1982 -0.1168 -0.1886
 9713TIP3    H129084   2.637   7.194   1.146 -0.4949  2.0293  0.6716
 9713TIP3    H229085   2.783   7.224   1.120 -0.1735 -0.0714 -0.1408
 9714TIP3   OH229086   0.028   3.240   5.393  0.3158 -0.1544  0.2174
 9714TIP3    H129087   0.052   3.197   5.475  0.1068  0.2576  0.5000
 9714TIP3    H229088  -0.056   3.200   5.369 -0.7099  1.2143  1.3417
 9715TIP3   OH229089   6.808   6.493   2.917  0.0874  0.2264  0.2704
 9715TIP3    H129090   6.874   6.539   2.866 -0.3218  0.5876  0.0610
 9715TIP3    H229091   6.819   6.526   3.006  0.4714 -0.0344  0.3204
 9716TIP3   OH229092   5.272   3.279   6.760  0.6074  0.6860 -0.4570
 9716TIP3    H129093   5.328   3.345   6.800  1.3314  0.7878 -1.5764
 9716TIP3    H229094   5.315   3.259   6.676  0.4168 -1.2096 -0.1509
 9717TIP3   OH229095   7.438   3.366   2.741  0.1408  0.3096 -0.3759
 9717TIP3    H129096   7.473   3.284   2.776 -0.2696 -0.1470 -1.0136
 9717TIP3    H229097   7.426   3.422   2.817 -0.4266 -0.5520  0.1775
 9718TIP3   OH229098   0.197   3.711   3.873  0.6356  0.2458 -0.0997
 9718TIP3    H129099   0.106   3.682   3.886  1.2934 -1.8607  0.2899
 9718TIP3    H229100   0.233   3.718   3.962  1.7067 -2.1846 -0.2409
 9719TIP3   OH229101   5.446   6.163   0.722  0.3863  0.4413  0.4571
 9719TIP3    H129102   5.390   6.148   0.797 -1.7048  0.5578 -1.0059
 9719TIP3    H229103   5.434   6.255   0.699  1.0753  0.4405  0.0427
 9720TIP3   OH229104   7.780   4.583   6.787  0.1589 -0.1261  0.8085
 9720TIP3    H129105   7.753   4.571   6.696  0.1598 -0.3597  0.8377
 9720TIP3    H229106   7.795   4.677   6.795  0.2998 -0.1226  0.5286
 9721TIP3   OH229107   4.563   2.897   5.785 -0.0368  0.2092  0.3161
 9721TIP3    H129108   4.629   2.892   5.715  0.0589 -2.1924  0.4825
 9721TIP3    H229109   4.614   2.903   5.866 -0.1288  1.7885  0.2863
 9722TIP3   OH229110   0.867   0.982   0.613 -0.3832 -0.0631 -0.2849
 9722TIP3    H129111   0.804   0.943   0.553 -0.6599 -0.0196 -0.0278
 9722TIP3    H229112   0.904   1.056   0.566 -1.0553  0.3466 -0.1736
 9723TIP3   OH229113   1.160   5.094   6.641  0.0696  0.0878  0.3022
 9723TIP3    H129114   1.206   5.128   6.717  0.8615  2.2735 -1.0499
 9723TIP3    H229115   1.215   5.021   6.611  0.0260 -0.4506  1.4760
 9724TIP3   OH229116   0.555   6.546   3.322  0.2555 -0.4195  0.3341
 9724TIP3    H129117   0.512   6.461   3.313 -4.4210  1.6506 -0.2810
 9724TIP3    H229118   0.555   6.581   3.232 -0.2951  1.1157  0.8986
 9725TIP3   OH229119   1.089   7.116   0.681  0.0715 -0.3540 -0.0954
 9725TIP3    H129120   1.032   7.112   0.758 -0.5004 -1.2009 -0.5518
 9725TIP3    H229121   1.064   7.198   0.638 -0.1537 -0.2650  0.1987
 9726TIP3   OH229122   7.234   7.140   3.397 -0.7961 -0.4199 -0.0502
 9726TIP3    H129123   7.179   7.176   3.327 -1.7107 -3.1147 -0.8798
 9726TIP3    H229124   7.253   7.051   3.367  2.4454 -0.2352  1.1809
 9727TIP3   OH229125   6.712   6.121   6.252 -0.2657 -0.0610 -0.0258
 9727TIP3    H129126   6.675   6.172   6.180 -0.8211 -0.6529 -0.1765
 9727TIP3    H229127   6.801   6.154   6.262 -0.3221  0.3241 -0.7010
 9728TIP3   OH229128   6.107   2.225   6.012 -0.1245 -0.1732 -0.2076
 9728TIP3    H129129   6.016   2.255   6.003 -0.1102  0.6891  2.0329
 9728TIP3    H229130   6.099   2.132   6.035 -0.4946  0.0783  0.7286
 9729TIP3   OH229131   1.054   4.377   2.227 -0.1608  0.6222 -0.2462
 9729TIP3    H129132   1.000   4.298   2.228  1.0763 -0.3218 -2.1231
 9729TIP3    H229133   0.992   4.448   2.205 -0.8460 -0.2819 -1.3740
 9730TIP3   OH229134   7.505   6.240   3.451  0.1347  0.1232 -0.5759
 9730TIP3    H129135   7.530   6.274   3.536  0.1832 -1.9220  0.2887
 9730TIP3    H229136   7.587   6.214   3.410 -0.0899 -1.9955  0.1987
 9731TIP3   OH229137   6.608   5.181   2.599  0.4751  0.5316 -0.6371
 9731TIP3    H129138   6.669   5.111   2.576 -0.1922 -0.8995  1.6625
 9731TIP3    H229139   6.532   5.165   2.542  0.4662 -0.4419 -0.3727
 9732TIP3   OH229140   1.435   4.994   1.181 -0.0358  0.1498  0.0883
 9732TIP3    H129141   1.464   5.068   1.235  1.9845 -0.3967 -0.1583
 9732TIP3    H229142   1.364   5.029   1.128 -0.6673  1.2692  1.5859
 9733TIP3   OH229143   0.739   7.542   6.511 -0.2806  0.5350  0.6268
 9733TIP3    H129144   0.681   7.473   6.478  0.7243 -0.8639  1.6816
 9733TIP3    H229145   0.702   7.566   6.596 -0.2406  0.8133  0.5666
 9734TIP3   OH229146   3.533   3.699   4.829  0.6734  0.1879 -0.2638
 9734TIP3    H129147   3.496   3.611   4.826  1.3447 -0.2380  2.0366
 9734TIP3    H229148   3.589   3.705   4.751  0.4186 -1.3264 -0.5839
 9735TIP3   OH229149   0.143   6.392   3.300  0.2165 -0.0706  0.4600
 9735TIP3    H129150   0.127   6.462   3.363 -1.6354 -0.0946  0.0923
 9735TIP3    H229151   0.093   6.418   3.223  0.1463 -1.3918  0.0368
 9736TIP3   OH229152   1.529   4.948   6.478 -0.0539  0.2933 -0.2087
 9736TIP3    H129153   1.623   4.963   6.493  0.2091  0.5800 -1.8886
 9736TIP3    H229154   1.525   4.908   6.391 -1.4161 -0.9729  0.4074
 9737TIP3   OH229155   5.333   0.667   1.756 -0.9377  0.0051 -0.5158
 9737TIP3    H129156   5.373   0.708   1.679  0.2303  0.1254  0.1226
 9737TIP3    H229157   5.305   0.740   1.810  1.6124  0.0755  0.8645
 9738TIP3   OH229158   5.310   7.444   6.205 -0.1454 -0.2497 -0.9412
 9738TIP3    H129159   5.294   7.463   6.297 -0.3508  0.0469 -1.0366
 9738TIP3    H229160   5.293   7.527   6.160 -0.1613 -0.4238 -1.2588
 9739TIP3   OH229161   7.989   1.254   6.307  0.0049  0.3682  0.0024
 9739TIP3    H129162   7.994   1.349   6.301 -3.2893  0.9466  3.1489
 9739TIP3    H229163   7.946   1.227   6.226 -0.0446  1.6747 -0.4261
 9740TIP3   OH229164   1.624   7.459   2.855 -0.0242  0.2316 -0.2726
 9740TIP3    H129165   1.626   7.528   2.789  0.6349  0.1399 -0.3555
 9740TIP3    H229166   1.557   7.488   2.917  0.1045  0.8453 -0.4110
 9741TIP3   OH229167   1.770   7.411   0.289 -0.2504 -0.4214 -0.0775
 9741TIP3    H129168   1.737   7.353   0.219 -1.1057 -0.9260  0.7242
 9741TIP3    H229169   1.841   7.361   0.329  0.9846  0.3237 -1.2704
 9742TIP3   OH229170   6.133   6.102   4.906 -0.9123  0.1888  0.5253
 9742TIP3    H129171   6.152   6.024   4.855  1.5330 -0.6533  2.5628
 9742TIP3    H229172   6.102   6.070   4.990 -0.0556  1.3726  1.3380
 9743TIP3   OH229173   2.026   7.023   5.590 -0.2921 -0.0961  0.2854
 9743TIP3    H129174   1.939   6.991   5.566 -0.7277 -0.4210  2.0895
 9743TIP3    H229175   2.017   7.051   5.681  1.5228 -0.2666  0.5683
 9744TIP3   OH229176   4.726   6.385   1.168  0.4315 -0.0312 -0.3720
 9744TIP3    H129177   4.638   6.352   1.188 -0.0678 -0.3069 -2.7024
 9744TIP3    H229178   4.710   6.459   1.109  1.7347 -0.8349 -1.8235
 9745TIP3   OH229179   0.939   1.294   0.056  0.3321 -0.8707 -0.3556
 9745TIP3    H129180   0.950   1.319  -0.036  0.5348  0.0048 -0.0949
 9745TIP3    H229181   0.845   1.307   0.073  0.6861  1.2960  0.2164
 9746TIP3   OH229182   5.065   3.647   1.963 -0.1431 -0.4920  0.1096
 9746TIP3    H129183   5.005   3.614   1.896 -0.6678  1.4083 -0.4095
 9746TIP3    H229184   5.136   3.688   1.913 -0.3671  0.6380  0.6930
 9747TIP3   OH229185   5.514   4.880   2.930  0.2899  0.4170 -0.1414
 9747TIP3    H129186   5.492   4.813   2.866  1.7414  1.8485 -2.2752
 9747TIP3    H229187   5.490   4.842   3.014 -1.5765 -1.6064 -1.4982
 9748TIP3   OH229188   0.610   0.645   4.285 -0.1843  0.2755 -0.1935
 9748TIP3    H129189   0.670   0.671   4.215  0.7176  1.0754  0.8315
 9748TIP3    H229190   0.539   0.708   4.281 -0.3789  0.0299 -0.6786
 9749TIP3   OH229191   0.967   1.255   0.506  0.4048  0.3898 -0.0473
 9749TIP3    H129192   0.891   1.307   0.479  1.1618  1.2416 -0.5941
 9749TIP3    H229193   0.990   1.289   0.592 -1.5893 -1.8647  1.5178
 9750TIP3   OH229194   4.118   6.497   6.238  0.1091  0.5850 -0.5497
 9750TIP3    H129195   4.070   6.484   6.156  1.6999  0.7436 -1.5302
 9750TIP3    H229196   4.128   6.592   6.244  0.7084  0.5253 -0.5961
 9751TIP3   OH229197   1.136   0.630   2.192  0.9769  0.1658  0.2880
 9751TIP3    H129198   1.209   0.667   2.143  1.3728 -0.9124  0.0249
 9751TIP3    H229199   1.149   0.535   2.186 -0.0318 -0.0256  0.8686
 9752TIP3   OH229200   5.161   6.855   0.723 -0.4900  0.3807 -0.3374
 9752TIP3    H129201   5.238   6.882   0.674  0.3184 -1.4357 -0.1666
 9752TIP3    H229202   5.188   6.857   0.815 -0.3725 -0.8945 -0.3138
 9753TIP3   OH229203   7.020   5.805   4.677 -0.3475  0.0858 -0.1514
 9753TIP3    H129204   7.078   5.781   4.749  2.7581  1.3455 -2.0008
 9753TIP3    H229205   7.054   5.755   4.602 -1.4898  1.0983 -1.3932
 9754TIP3   OH229206   2.237   6.001   6.515 -0.6940 -0.3703 -0.0683
 9754TIP3    H129207   2.215   6.005   6.608 -0.3972 -1.5148  0.0683
 9754TIP3    H229208   2.235   5.907   6.494  0.9657 -0.2771 -0.7863
 9755TIP3   OH229209   3.572   1.172   3.338  0.0580 -0.3954  0.2687
 9755TIP3    H129210   3.486   1.177   3.379  0.6437  1.2022  1.4128
 9755TIP3    H229211   3.633   1.174   3.412  1.1156  0.2832 -0.5973
 9756TIP3   OH229212   2.190   4.984   1.294 -0.9080 -0.1995  0.2313
 9756TIP3    H129213   2.184   5.032   1.212 -1.0561 -0.6964 -0.0568
 9756TIP3    H229214   2.173   4.893   1.269 -3.2004 -0.0752  1.1189
 9757TIP3   OH229215   2.876   4.563   2.927  0.5809  0.0862 -0.3912
 9757TIP3    H129216   2.839   4.602   3.007 -0.8298 -0.3985 -0.7811
 9757TIP3    H229217   2.838   4.614   2.856 -1.2455 -1.8934 -0.9146
 9758TIP3   OH229218   4.926   4.522   0.865 -0.1067  0.5295  0.0065
 9758TIP3    H129219   4.841   4.559   0.844 -0.4235  1.2217  2.2510
 9758TIP3    H229220   4.934   4.532   0.960  1.5581 -1.4764  0.1556
 9759TIP3   OH229221   0.050   4.464   4.598  0.4968  0.2042 -0.2450
 9759TIP3    H129222   0.091   4.380   4.616 -0.8221 -0.9361 -2.2383
 9759TIP3    H229223  -0.009   4.479   4.672  0.8730 -0.5399  0.2073
 9760TIP3   OH229224   5.187   3.373   6.059 -0.4619 -0.0884 -0.1769
 9760TIP3    H129225   5.104   3.349   6.099  0.8740  0.2164  3.0903
 9760TIP3    H229226   5.225   3.290   6.029 -1.0232 -0.4979  0.2419
 9761TIP3   OH229227   1.666   4.329   3.416 -0.1289  0.0146  0.2178
 9761TIP3    H129228   1.707   4.374   3.343  3.1758 -1.7411  0.7832
 9761TIP3    H229229   1.626   4.251   3.378 -0.9482  0.5442 -0.0335
 9762TIP3   OH229230   0.146   4.178   1.591  0.3213  0.3861  0.1288
 9762TIP3    H129231   0.125   4.268   1.567  0.0489 -0.1493 -1.8293
 9762TIP3    H229232   0.071   4.148   1.642  0.5072  1.3155  0.9703
 9763TIP3   OH229233   4.889   4.182   2.838 -0.6937 -0.3654 -0.0890
 9763TIP3    H129234   4.906   4.276   2.851  1.0561 -0.8311  1.6568
 9763TIP3    H229235   4.795   4.176   2.826 -0.9776  1.5504  0.7197
 9764TIP3   OH229236   4.474   6.593   4.867  0.0197 -0.0284  0.2774
 9764TIP3    H129237   4.380   6.600   4.878 -0.3192  1.0262 -2.3966
 9764TIP3    H229238   4.494   6.501   4.882 -1.4699 -0.3082  0.6480
 9765TIP3   OH229239   2.776   2.085   2.195  0.0345 -0.0344  0.1415
 9765TIP3    H129240   2.691   2.045   2.214 -0.3704  1.0546  0.6563
 9765TIP3    H229241   2.799   2.133   2.274  1.1233 -0.2696 -0.0079
 9766TIP3   OH229242   2.789   0.058   5.976  0.5563  0.0119 -0.4504
 9766TIP3    H129243   2.816  -0.018   5.925 -0.0285 -0.0729 -0.6438
 9766TIP3    H229244   2.724   0.102   5.921 -2.5911 -1.8336  1.4886
 9767TIP3   OH229245   7.461   3.046   4.520 -0.0982  0.0888 -0.6809
 9767TIP3    H129246   7.448   3.129   4.474  1.1236  0.4863 -0.3451
 9767TIP3    H229247   7.441   2.979   4.454 -0.5952  0.6382 -1.1037
 9768TIP3   OH229248   7.852   5.307   4.148 -0.3078  0.2863 -0.4728
 9768TIP3    H129249   7.876   5.385   4.197 -1.3917 -0.0193  0.5833
 9768TIP3    H229250   7.791   5.260   4.204 -1.8525  0.0636 -2.2232
 9769TIP3   OH229251   7.722   0.893   0.476  0.7065  0.2270  0.5188
 9769TIP3    H129252   7.687   0.811   0.510 -2.5224  1.3880  0.3293
 9769TIP3    H229253   7.751   0.873   0.387  2.1405 -1.1581  1.2584
 9770TIP3   OH229254   0.654   3.378   3.584 -0.5495 -0.1509 -0.1744
 9770TIP3    H129255   0.575   3.384   3.637 -0.2873 -1.1710  0.3430
 9770TIP3    H229256   0.722   3.420   3.636 -0.9589  1.8941 -1.1467
 9771TIP3   OH229257   1.889   3.773   6.592 -0.2121  0.3750 -0.2564
 9771TIP3    H129258   1.949   3.700   6.609 -2.2010 -1.8854 -2.0884
 9771TIP3    H229259   1.855   3.756   6.504 -3.2904  1.6493  0.5507
 9772TIP3   OH229260   2.114   3.621   3.373 -0.2012  0.2756  0.0110
 9772TIP3    H129261   2.026   3.588   3.393  0.8827 -2.3440  1.0033
 9772TIP3    H229262   2.167   3.541   3.361  2.0884  1.7516 -0.3168
 9773TIP3   OH229263   5.686   6.079   0.604  0.0740 -0.2911 -0.5318
 9773TIP3    H129264   5.600   6.094   0.643 -0.1075 -1.9043 -0.2619
 9773TIP3    H229265   5.673   6.097   0.511 -0.2475  0.6071 -0.3276
 9774TIP3   OH229266   7.854   3.586   0.830  0.5511  0.2148  0.5046
 9774TIP3    H129267   7.774   3.625   0.864 -0.4996  0.4467 -2.0434
 9774TIP3    H229268   7.911   3.661   0.811  0.3150  0.2168 -0.1907
 9775TIP3   OH229269   6.502   4.776   0.645 -0.0724  0.2048  0.2066
 9775TIP3    H129270   6.496   4.719   0.568  1.0162  0.9749 -0.4906
 9775TIP3    H229271   6.485   4.864   0.611 -2.8993  0.2464  1.4623
 9776TIP3   OH229272   0.110   0.332   1.762 -0.0687  0.1297  0.0845
 9776TIP3    H129273   0.052   0.369   1.696  2.1128  0.9258 -1.5424
 9776TIP3    H229274   0.077   0.364   1.846 -2.0642  0.3112 -0.7381
 9777TIP3   OH229275   0.810   2.925   3.411 -0.1902  0.3301  0.3081
 9777TIP3    H129276   0.864   2.932   3.332  1.3762  0.4182  1.3347
 9777TIP3    H229277   0.777   3.013   3.426  0.0801  0.4611  0.1334
 9778TIP3   OH229278   5.511   7.189   0.877  0.2505  0.5519  0.0979
 9778TIP3    H129279   5.594   7.171   0.921  0.0532  1.3330  0.8078
 9778TIP3    H229280   5.536   7.238   0.798  0.4009  1.8021  0.8946
 9779TIP3   OH229281   3.129   4.981   2.233 -0.0877  0.2135 -0.6554
 9779TIP3    H129282   3.207   4.932   2.258  1.6004  1.5355 -2.9132
 9779TIP3    H229283   3.077   4.919   2.181 -0.3798 -0.5543  0.5245
 9780TIP3   OH229284   1.737   2.227   0.998 -0.1842 -0.0607  0.1572
 9780TIP3    H129285   1.778   2.309   0.969  0.9620 -0.6597  0.0254
 9780TIP3    H229286   1.743   2.170   0.921 -2.4429  0.2278 -0.2946
 9781TIP3   OH229287   7.904   3.638   1.153  0.2229  0.2109 -0.3652
 9781TIP3    H129288   7.813   3.649   1.125 -0.2673  0.3178  1.2095
 9781TIP3    H229289   7.902   3.648   1.248  1.8024 -0.3449 -0.2427
 9782TIP3   OH229290   4.161   0.477   3.638  0.1864 -0.5078 -0.1862
 9782TIP3    H129291   4.223   0.540   3.604 -0.9282  1.7269  1.6438
 9782TIP3    H229292   4.179   0.396   3.589  2.5628  0.8147 -1.6733
 9783TIP3   OH229293   7.769   4.970   5.355  0.4558  0.1269  0.3193
 9783TIP3    H129294   7.768   4.900   5.420  0.5189 -1.1758 -1.0201
 9783TIP3    H229295   7.715   4.936   5.283 -1.8364  2.5967  0.7360
 9784TIP3   OH229296   5.873   1.080   5.657  0.0014  0.2295 -0.8047
 9784TIP3    H129297   5.835   1.131   5.728  1.5160  1.2445 -0.6737
 9784TIP3    H229298   5.856   0.989   5.681 -0.6936  0.5994  0.1584
 9785TIP3   OH229299   6.224   2.408   0.399 -0.1816  0.5658  0.1210
 9785TIP3    H129300   6.205   2.441   0.311  0.8944  1.4388  0.1930
 9785TIP3    H229301   6.193   2.318   0.398 -0.3528  0.6179 -1.0998
 9786TIP3   OH229302   5.106   2.905   5.504 -0.3640 -0.1248  0.4052
 9786TIP3    H129303   5.130   2.993   5.534 -0.9301 -0.4343  1.8443
 9786TIP3    H229304   5.188   2.868   5.471  0.0135  0.7190  0.3755
 9787TIP3   OH229305   4.397   3.145   6.145 -0.5678  0.0782  0.3413
 9787TIP3    H129306   4.368   3.063   6.106 -2.6078  0.3438  1.1509
 9787TIP3    H229307   4.477   3.168   6.098  0.7015 -2.9012  0.8242
 9788TIP3   OH229308   0.529   3.171   4.627 -0.2690  0.8970 -0.2314
 9788TIP3    H129309   0.505   3.250   4.579 -1.3774  0.7110 -0.0092
 9788TIP3    H229310   0.559   3.203   4.712 -0.8573  1.0747 -0.0874
 9789TIP3   OH229311   3.356   6.704   4.622  0.4374 -0.2689  0.6046
 9789TIP3    H129312   3.299   6.639   4.581 -0.6195  0.8622  0.2336
 9789TIP3    H229313   3.350   6.780   4.565  1.1237  0.3977  1.4066
 9790TIP3   OH229314   5.965   0.968   1.148 -0.1861 -0.0708  0.0139
 9790TIP3    H129315   5.885   1.016   1.170 -0.8046 -0.3447 -1.5535
 9790TIP3    H229316   6.021   0.979   1.225 -1.4576  0.6964  0.8643
 9791TIP3   OH229317   1.423   2.182   2.328  0.3171  0.5761 -0.5639
 9791TIP3    H129318   1.466   2.131   2.259  1.2634  0.2994  0.2074
 9791TIP3    H229319   1.363   2.240   2.281  0.7495  0.2096 -1.6009
 9792TIP3   OH229320   2.109   7.028   3.734  0.1044  0.4391  0.2448
 9792TIP3    H129321   2.150   6.942   3.728 -0.5329  0.0775  0.8862
 9792TIP3    H229322   2.126   7.069   3.649  0.0015 -0.5088 -0.2464
 9793TIP3   OH229323   4.337   6.961   6.607  0.6033 -0.1555 -0.1634
 9793TIP3    H129324   4.407   6.899   6.626  0.6287  0.1260  0.6715
 9793TIP3    H229325   4.379   7.030   6.556  0.6691 -0.5901 -0.7094
 9794TIP3   OH229326   5.670   5.732   0.520  0.7048  0.2758  0.0975
 9794TIP3    H129327   5.756   5.720   0.479  0.6283 -0.9400  0.2630
 9794TIP3    H229328   5.634   5.810   0.478  0.1735 -1.4707 -2.9686
 9795TIP3   OH229329   5.871   6.376   1.943 -0.2784 -0.2155 -0.2679
 9795TIP3    H129330   5.799   6.391   2.003  0.4083 -0.2086  0.5674
 9795TIP3    H229331   5.859   6.286   1.913 -0.7981 -0.1138 -0.3703
 9796TIP3   OH229332   3.552   5.666   6.580  0.0745  0.0595  0.4571
 9796TIP3    H129333   3.516   5.737   6.528  0.9124 -0.8581 -1.4859
 9796TIP3    H229334   3.491   5.593   6.566  0.1596 -0.1236  1.0132
 9797TIP3   OH229335   6.529   2.209   6.731  0.0109  0.3602  1.2363
 9797TIP3    H129336   6.477   2.184   6.654  0.4075 -0.1409  1.1237
 9797TIP3    H229337   6.539   2.127   6.780 -0.8583  0.8150  2.2070
 9798TIP3   OH229338   4.929   1.040   2.078 -0.0922  0.4381  0.2995
 9798TIP3    H129339   4.874   1.024   2.001  0.5712  0.6894 -0.2279
 9798TIP3    H229340   4.901   0.973   2.141 -0.5568  0.1580 -0.1974
 9799TIP3   OH229341   2.112   5.327   5.733  0.0192  0.4252  0.2632
 9799TIP3    H129342   2.075   5.239   5.737 -2.4438  1.3340 -0.6684
 9799TIP3    H229343   2.088   5.368   5.816  0.8180  0.3683  0.5336
 9800TIP3   OH229344   6.527   4.039   1.654 -0.3880 -0.6557  0.6338
 9800TIP3    H129345   6.451   4.042   1.596  1.4052 -1.8891 -1.9914
 9800TIP3    H229346   6.516   3.957   1.703  0.2196 -2.0101 -1.3531
 9801TIP3   OH229347   5.181   0.334   2.100 -0.0871  0.3972 -0.0474
 9801TIP3    H129348   5.275   0.314   2.101  0.0769  1.1221 -0.4940
 9801TIP3    H229349   5.177   0.429   2.094 -0.8483  0.5622  2.0900
 9802TIP3   OH229350   0.574   1.838   5.059 -0.1271  0.0542  0.3116
 9802TIP3    H129351   0.659   1.803   5.085 -0.7017 -0.6590  1.3213
 9802TIP3    H229352   0.594   1.918   5.011  1.3774 -2.3865 -3.5750
 9803TIP3   OH229353   8.131   4.580   0.806  0.7123 -0.4628 -0.3458
 9803TIP3    H129354   8.093   4.497   0.837  4.0395 -0.8941  3.2794
 9803TIP3    H229355   8.173   4.557   0.723 -0.4929 -1.7442 -0.6483
 9804TIP3   OH229356   5.953   5.668  -0.018 -0.3592 -0.4358  0.3181
 9804TIP3    H129357   6.038   5.673   0.027 -0.7810  1.4083  0.9844
 9804TIP3    H229358   5.903   5.741   0.017 -2.5665 -1.9759  0.5811
 9805TIP3   OH229359   2.919   1.778   4.153  0.4442  0.0063  0.8196
 9805TIP3    H129360   2.874   1.694   4.150  0.7144 -0.1096 -0.4426
 9805TIP3    H229361   2.849   1.843   4.157  0.2384 -0.2722  2.4474
 9806TIP3   OH229362   2.762   3.768   5.653  0.2309  0.3760  0.2140
 9806TIP3    H129363   2.779   3.676   5.633 -2.1431  0.2116 -1.3354
 9806TIP3    H229364   2.848   3.803   5.679  1.3051 -2.0883  0.2059
 9807TIP3   OH229365   3.102   0.432   4.254  0.1722  0.3580 -0.1636
 9807TIP3    H129366   3.054   0.369   4.199  1.1119 -0.6956  0.1839
 9807TIP3    H229367   3.187   0.390   4.270  0.3846  1.2091  1.0595
 9808TIP3   OH229368   0.376   4.200   1.332  0.7401  0.4714 -0.1545
 9808TIP3    H129369   0.422   4.182   1.250  0.8678 -0.1710  0.0526
 9808TIP3    H229370   0.305   4.136   1.334  0.9846  0.2028  0.4246
 9809TIP3   OH229371   0.243   1.383   4.595  0.0894 -0.1601 -0.1744
 9809TIP3    H129372   0.274   1.424   4.676  0.4955 -1.2218  0.2248
 9809TIP3    H229373   0.290   1.429   4.526  1.7397 -0.9711  0.3584
 9810TIP3   OH229374   3.308   7.644   6.060  0.3796  0.5842  0.0361
 9810TIP3    H129375   3.374   7.585   6.024 -0.8478 -0.7411 -0.1306
 9810TIP3    H229376   3.226   7.596   6.052 -0.3329  1.3446  2.1239
 9811TIP3   OH229377   7.726   5.360   5.719 -0.1513  0.6833  0.3945
 9811TIP3    H129378   7.717   5.279   5.668  1.1352  0.9551 -0.3185
 9811TIP3    H229379   7.697   5.429   5.660 -0.9087  0.7917  0.8788
 9812TIP3   OH229380   1.950   6.200   5.266  0.0061  1.0976 -0.1972
 9812TIP3    H129381   1.883   6.264   5.243 -0.0596  1.8694  1.9757
 9812TIP3    H229382   1.982   6.227   5.352  0.9694 -0.9874  0.1753
 9813TIP3   OH229383   6.524   5.650   0.837  0.5451 -0.4407 -0.3372
 9813TIP3    H129384   6.526   5.658   0.932  2.1873 -1.0842 -0.2949
 9813TIP3    H229385   6.482   5.565   0.821 -3.6120  1.3724 -0.3907
 9814TIP3   OH229386   3.551   5.955   4.031 -0.2355 -0.3225 -0.0492
 9814TIP3    H129387   3.590   5.908   4.104  0.9558 -3.4409 -2.4740
 9814TIP3    H229388   3.615   5.949   3.960 -2.1618  0.6696 -2.0267
 9815TIP3   OH229389   1.729   3.435   6.434 -0.6645  0.3257  0.0295
 9815TIP3    H129390   1.763   3.428   6.523  2.1534 -1.8236 -1.0397
 9815TIP3    H229391   1.661   3.368   6.428 -0.6169  0.2382  0.4488
 9816TIP3   OH229392   7.294   4.476   1.779  0.5018 -0.0319  0.0243
 9816TIP3    H129393   7.379   4.496   1.739  0.5715  0.7133  0.5179
 9816TIP3    H229394   7.230   4.496   1.710  0.5864  1.7293  0.4041
 9817TIP3   OH229395   2.171   1.134   6.571  0.1323  0.2985  0.3354
 9817TIP3    H129396   2.223   1.095   6.642  0.9106  0.8307  0.0741
 9817TIP3    H229397   2.197   1.085   6.493 -0.8874 -0.4351  0.4365
 9818TIP3   OH229398   7.545   3.009   2.121  0.4184  0.0078  0.6071
 9818TIP3    H129399   7.565   2.995   2.213  0.0761 -1.1823  0.5157
 9818TIP3    H229400   7.519   2.923   2.088 -0.8866  0.6877 -0.2553
 9819TIP3   OH229401   6.519   4.143   0.289  0.2347 -0.4858 -0.2044
 9819TIP3    H129402   6.499   4.051   0.304 -0.2430 -0.4599 -0.6512
 9819TIP3    H229403   6.604   4.157   0.332  0.6105 -1.2826 -0.6738
 9820TIP3   OH229404   2.226   5.498   2.247  0.3698 -0.3399  0.2469
 9820TIP3    H129405   2.242   5.579   2.200  1.8839 -0.1580  0.9947
 9820TIP3    H229406   2.136   5.474   2.225 -0.9817  2.7577  1.8199
 9821TIP3   OH229407   7.481   4.931   5.268  0.0478 -0.6241 -0.6130
 9821TIP3    H129408   7.494   4.891   5.182  1.9962 -0.9130 -0.2354
 9821TIP3    H229409   7.462   4.858   5.326 -0.2334 -0.5494 -0.6104
 9822TIP3   OH229410   3.360   1.684   1.596  0.2975 -0.3109 -0.4679
 9822TIP3    H129411   3.272   1.702   1.562  0.6499 -2.1853 -2.5881
 9822TIP3    H229412   3.419   1.718   1.529  1.1645 -0.5532  0.1457
 9823TIP3   OH229413   1.986   7.211   6.320  0.2861  0.3943 -0.0587
 9823TIP3    H129414   2.000   7.167   6.404  0.2591 -0.9532 -0.7284
 9823TIP3    H229415   1.907   7.264   6.333  0.1125 -0.0352  0.6764
 9824TIP3   OH229416   6.540   6.793   4.495  0.5080 -0.1410 -0.5027
 9824TIP3    H129417   6.461   6.744   4.472 -0.7799  1.1959  0.8320
 9824TIP3    H229418   6.514   6.846   4.570  3.1178 -0.7280  0.9238
 9825TIP3   OH229419   5.833   7.416   2.059 -0.3407  0.1541  0.3331
 9825TIP3    H129420   5.759   7.441   2.004 -1.2096 -0.0628  1.3617
 9825TIP3    H229421   5.870   7.338   2.018 -0.8773  0.0858 -0.0200
 9826TIP3   OH229422   0.100   5.762   2.339  0.2749 -0.1679 -0.7960
 9826TIP3    H129423   0.124   5.670   2.335  0.3333 -0.1426 -1.0989
 9826TIP3    H229424   0.024   5.766   2.397  0.6052 -0.3344 -0.3485
 9827TIP3   OH229425   5.296   3.083   2.975  0.0002 -0.5627 -0.6711
 9827TIP3    H129426   5.317   3.112   3.063  0.0229  0.3652 -0.9682
 9827TIP3    H229427   5.205   3.112   2.961 -0.0322 -0.7770 -0.9235
 9828TIP3   OH229428   1.817   7.169   5.073 -0.1174  0.1186  0.3250
 9828TIP3    H129429   1.865   7.094   5.108  0.1489  0.2044  0.1449
 9828TIP3    H229430   1.727   7.137   5.061 -0.1063 -0.0421  0.6596
 9829TIP3   OH229431   3.257   4.047   1.523  0.6229 -0.3721 -0.0178
 9829TIP3    H129432   3.277   3.972   1.578  0.3074 -1.1732 -0.9722
 9829TIP3    H229433   3.297   4.027   1.439 -0.2459  0.0989 -0.5615
 9830TIP3   OH229434   3.425   7.511   3.615 -0.4286  0.1154  0.3378
 9830TIP3    H129435   3.511   7.539   3.647 -0.2623 -0.2096  0.1839
 9830TIP3    H229436   3.432   7.416   3.610 -0.9450  0.0573  0.7282
 9831TIP3   OH229437   0.458   2.919   3.533 -0.2100 -0.5252  0.1596
 9831TIP3    H129438   0.512   2.994   3.510 -0.9878  1.1345  3.2776
 9831TIP3    H229439   0.512   2.867   3.592  0.2475 -2.4252 -1.8008
 9832TIP3   OH229440   6.557   5.800   5.629 -0.3209 -0.7429 -0.1456
 9832TIP3    H129441   6.619   5.844   5.688 -0.2226 -2.7923  1.4146
 9832TIP3    H229442   6.596   5.714   5.613 -1.7316 -1.2769 -0.9256
 9833TIP3   OH229443   1.500   6.092   4.430 -0.0927 -0.0775 -0.0348
 9833TIP3    H129444   1.563   6.106   4.359 -0.2751  0.4500 -0.0961
 9833TIP3    H229445   1.431   6.038   4.390  0.2312 -0.5100 -0.0139
 9834TIP3   OH229446   5.366   5.790   6.682 -0.2383 -0.1018 -0.2357
 9834TIP3    H129447   5.405   5.878   6.679 -0.0750 -0.1274  0.7794
 9834TIP3    H229448   5.361   5.763   6.591 -0.8949  1.2300 -0.6216
 9835TIP3   OH229449   2.315   5.726   6.046 -0.5381 -0.1796  0.4201
 9835TIP3    H129450   2.395   5.780   6.045 -1.3524  1.0572  0.3386
 9835TIP3    H229451   2.279   5.736   5.959 -0.7489 -0.8097  0.4325
 9836TIP3   OH229452   6.633   7.397   3.411  0.0326 -0.0964  0.5572
 9836TIP3    H129453   6.560   7.336   3.420  1.5421 -1.8138  1.7978
 9836TIP3    H229454   6.683   7.363   3.337  0.0724  0.5647  0.2724
 9837TIP3   OH229455   6.060   2.041   1.341 -0.1921 -0.0334 -0.0450
 9837TIP3    H129456   6.004   1.998   1.277 -0.2300  1.0868 -0.7796
 9837TIP3    H229457   6.036   2.000   1.425  0.4186 -2.0683 -0.8175
 9838TIP3   OH229458   3.592   4.690   0.073 -0.4099  0.1952 -0.4291
 9838TIP3    H129459   3.532   4.655   0.139 -1.2560 -0.0205 -1.3031
 9838TIP3    H229460   3.589   4.627   0.001  1.9059 -0.5172  0.0406
 9839TIP3   OH229461   6.052   2.546   2.778 -0.3153  0.0635  0.5382
 9839TIP3    H129462   6.059   2.637   2.806 -0.1132 -0.1473  1.1881
 9839TIP3    H229463   5.965   2.518   2.809 -0.1924 -0.0988  0.7348
 9840TIP3   OH229464   2.575   0.417   6.462  0.1270 -0.3868 -0.2313
 9840TIP3    H129465   2.582   0.329   6.499  1.0124 -0.3037 -0.1933
 9840TIP3    H229466   2.560   0.402   6.368 -2.1588 -0.5948  0.1204
 9841TIP3   OH229467   5.653   1.895   6.032  0.0827 -0.1799  0.5131
 9841TIP3    H129468   5.638   1.894   6.126 -0.0670  2.2046  0.5657
 9841TIP3    H229469   5.577   1.851   5.994 -0.3999 -0.1678  1.4523
 9842TIP3   OH229470   7.780   0.464   4.015 -0.2103  0.3256  0.1535
 9842TIP3    H129471   7.813   0.417   3.939 -0.6673  0.8437 -0.3647
 9842TIP3    H229472   7.765   0.396   4.081  0.6299 -0.0692 -0.0500
 9843TIP3   OH229473   6.631   3.519   6.142  0.0020  0.4025 -0.2098
 9843TIP3    H129474   6.617   3.431   6.106  1.2864  0.1788 -0.2134
 9843TIP3    H229475   6.578   3.522   6.221  0.4742 -0.6400  0.1660
 9844TIP3   OH229476   2.562   6.400   2.971 -0.0433  0.9646  0.1999
 9844TIP3    H129477   2.642   6.359   2.939 -0.5148 -0.0568  0.2847
 9844TIP3    H229478   2.588   6.489   2.995  0.7627  1.1044 -1.0887
 9845TIP3   OH229479   6.840   7.774   3.650  0.5797 -0.5967 -0.3121
 9845TIP3    H129480   6.754   7.785   3.691  0.9061  2.2755 -0.1575
 9845TIP3    H229481   6.848   7.680   3.635 -1.7778 -1.1649  1.3898
 9846TIP3   OH229482   4.040   0.262   0.423  0.0560 -0.0170 -0.1556
 9846TIP3    H129483   3.952   0.260   0.386 -0.7546  4.5358  0.8694
 9846TIP3    H229484   4.027   0.245   0.517 -0.2262  2.5670  0.3684
 9847TIP3   OH229485   0.439   2.795   6.477 -0.4330 -0.2990  0.0309
 9847TIP3    H129486   0.504   2.864   6.468 -1.6207  0.8656  0.0445
 9847TIP3    H229487   0.464   2.730   6.411 -0.9695  1.5516 -2.1187
 9848TIP3   OH229488   4.221  -0.010   0.703  0.5647 -0.1426  0.2312
 9848TIP3    H129489   4.267   0.001   0.620 -0.5466 -2.7187 -0.8068
 9848TIP3    H229490   4.142   0.044   0.694 -0.6323 -2.0447 -1.3392
 9849TIP3   OH229491   7.521   4.917   1.207  0.2894  0.1440  0.2796
 9849TIP3    H129492   7.544   4.825   1.219  2.2236  0.7439  1.5968
 9849TIP3    H229493   7.596   4.966   1.241 -1.3713  2.2488  1.1615
 9850TIP3   OH229494   2.742   4.103   1.433  0.3208 -0.3789  0.3826
 9850TIP3    H129495   2.787   4.056   1.363 -1.7790 -1.8960 -0.0351
 9850TIP3    H229496   2.758   4.195   1.414  1.3425 -0.8147 -1.0154
 9851TIP3   OH229497   4.364   6.299   2.278  0.0824 -0.5616 -0.0935
 9851TIP3    H129498   4.392   6.375   2.328 -0.6118  1.0478 -2.0386
 9851TIP3    H229499   4.444   6.245   2.270  0.6386  0.0672  1.0981
 9852TIP3   OH229500   3.550   5.094   2.800 -0.6479 -0.2648  0.3120
 9852TIP3    H129501   3.568   5.000   2.802 -1.6760 -0.5655 -1.5165
 9852TIP3    H229502   3.600   5.126   2.725 -1.3635  0.3693  0.0919
 9853TIP3   OH229503   5.346   4.649   0.298  0.2496  0.3701 -0.2449
 9853TIP3    H129504   5.283   4.620   0.232 -1.6865  0.2097  1.5562
 9853TIP3    H229505   5.338   4.744   0.299 -0.0245  0.3474  0.0094
 9854TIP3   OH229506   2.612   0.661   3.705  0.1509 -0.2016 -0.1542
 9854TIP3    H129507   2.521   0.683   3.685 -0.2819 -0.7228  1.1088
 9854TIP3    H229508   2.618   0.567   3.688  0.6272 -0.0510 -0.8251
 9855TIP3   OH229509   5.647   6.112   2.050  0.1935 -0.0839 -0.6498
 9855TIP3    H129510   5.581   6.049   2.078  2.9005 -2.2493  1.5035
 9855TIP3    H229511   5.666   6.164   2.128 -0.4776  2.0456 -1.8350
 9856TIP3   OH229512   5.433   1.729   0.745  0.3052  0.1289  0.1333
 9856TIP3    H129513   5.423   1.701   0.836 -0.5246  0.3317  0.1066
 9856TIP3    H229514   5.344   1.740   0.713  0.4837 -2.4435 -1.4979
 9857TIP3   OH229515   3.533   4.169   1.520  0.2091  0.0343 -0.2731
 9857TIP3    H129516   3.461   4.215   1.477 -0.5027 -1.1587 -0.4074
 9857TIP3    H229517   3.502   4.154   1.609  0.9234  0.8534  0.1240
 9858TIP3   OH229518   1.054   5.303   0.848 -0.0278 -0.1940  0.3355
 9858TIP3    H129519   1.148   5.288   0.836  0.0490  0.8160 -0.5063
 9858TIP3    H229520   1.048   5.356   0.927  0.0165 -1.1154  0.9719
 9859TIP3   OH229521   2.409   3.478   6.216 -0.0730  0.2874  0.1668
 9859TIP3    H129522   2.387   3.443   6.130  0.2834  1.4771 -0.4255
 9859TIP3    H229523   2.419   3.572   6.202 -0.0984  0.5106  1.5303
 9860TIP3   OH229524   2.839   3.822   2.907 -0.0226  0.2820  0.0964
 9860TIP3    H129525   2.932   3.801   2.906 -0.6307 -3.0945  1.6545
 9860TIP3    H229526   2.822   3.853   2.996 -0.4292  0.7776 -0.1473
 9861TIP3   OH229527   0.613   2.192   2.513  0.1587  0.3398  0.0678
 9861TIP3    H129528   0.587   2.284   2.524 -0.0646  0.2597  0.2165
 9861TIP3    H229529   0.595   2.152   2.598 -0.5430 -0.0361 -0.2500
 9862TIP3   OH229530   7.943   0.684   0.633  0.2791  0.0869 -0.2554
 9862TIP3    H129531   8.017   0.694   0.694 -0.7032  0.5885  0.8995
 9862TIP3    H229532   7.967   0.738   0.558  1.9488 -1.2836 -0.7758
 9863TIP3   OH229533   4.769   4.922   1.000  0.2479 -0.6080  0.1325
 9863TIP3    H129534   4.747   4.905   1.091  0.1628  0.6260  0.3632
 9863TIP3    H229535   4.788   5.016   0.997 -0.8818 -0.3834 -1.3324
 9864TIP3   OH229536   6.744   6.089   5.632  0.0887  0.0182 -0.5370
 9864TIP3    H129537   6.806   6.025   5.666 -0.5204 -0.0302  0.4873
 9864TIP3    H229538   6.765   6.170   5.680 -1.4208 -0.2991  0.7102
 9865TIP3   OH229539   6.776   4.347   4.965  0.0616  0.7223  0.7413
 9865TIP3    H129540   6.749   4.380   5.050 -0.4442  0.3314  0.7395
 9865TIP3    H229541   6.813   4.261   4.983 -1.5460 -0.0877  0.4098
 9866TIP3   OH229542   6.021   0.072   3.058 -0.5017  0.2817  0.2708
 9866TIP3    H129543   5.946   0.048   3.003  1.1219 -0.1669 -1.9373
 9866TIP3    H229544   6.079  -0.004   3.052  0.4129  0.8652  1.4078
 9867TIP3   OH229545   6.161   0.346   5.649 -0.2948  0.3987 -0.0290
 9867TIP3    H129546   6.085   0.328   5.594 -0.4445 -0.9423  0.5879
 9867TIP3    H229547   6.236   0.335   5.590 -0.5035  0.0819 -0.2344
 9868TIP3   OH229548   6.276   3.800   4.317  0.3608  0.3018 -0.1683
 9868TIP3    H129549   6.230   3.745   4.380 -0.0251  0.5781 -0.2105
 9868TIP3    H229550   6.362   3.814   4.357  0.8048 -1.0776 -0.5642
 9869TIP3   OH229551   4.925   5.391   0.639 -0.2313  0.3439 -0.6182
 9869TIP3    H129552   4.894   5.415   0.552  1.8454 -0.1832 -1.5719
 9869TIP3    H229553   4.889   5.459   0.696 -0.7198  1.3590 -2.0587
 9870TIP3   OH229554   5.064   4.467   4.365  0.2626  0.1631  0.4379
 9870TIP3    H129555   5.056   4.562   4.361 -2.5498  0.0583  1.3338
 9870TIP3    H229556   5.033   4.437   4.279 -0.1664  0.0234  0.6387
 9871TIP3   OH229557   3.624   2.199   0.660 -0.2700 -0.1654  0.0684
 9871TIP3    H129558   3.690   2.138   0.695 -0.1398 -0.6905 -1.0371
 9871TIP3    H229559   3.671   2.250   0.595 -0.3873  1.1463  0.9781
 9872TIP3   OH229560   3.942   1.624   5.939  0.1956  0.1335 -0.3366
 9872TIP3    H129561   4.034   1.639   5.918  0.0729  2.4748  0.4891
 9872TIP3    H229562   3.920   1.693   6.001 -2.2170 -0.1944 -0.7314
 9873TIP3   OH229563   3.634   4.619   6.632  0.5932 -0.3465  0.2380
 9873TIP3    H129564   3.698   4.548   6.633 -0.5855 -1.4618  2.1740
 9873TIP3    H229565   3.641   4.658   6.720 -0.5194  0.3033  0.0528
 9874TIP3   OH229566   3.903   1.843   2.726 -0.8482 -0.1182 -0.0640
 9874TIP3    H129567   3.861   1.762   2.754 -1.4563  0.5871  1.1588
 9874TIP3    H229568   3.854   1.912   2.771  0.9255  0.8126  0.5492
 9875TIP3   OH229569   1.421   2.096   4.294 -0.1149 -0.3164  0.2981
 9875TIP3    H129570   1.359   2.138   4.353  1.2966  1.7938  0.3950
 9875TIP3    H229571   1.409   2.141   4.210 -0.3487 -1.5667 -0.3785
 9876TIP3   OH229572   4.980   7.540   3.148  0.0165  0.1843 -0.5390
 9876TIP3    H129573   4.955   7.606   3.083  1.2162  2.3247  1.0327
 9876TIP3    H229574   5.054   7.494   3.109  0.6934  1.4018 -0.7427
 9877TIP3   OH229575   3.479   1.312   6.330 -0.5605 -0.1869  0.2316
 9877TIP3    H129576   3.429   1.315   6.411 -2.2994 -4.0787 -0.4729
 9877TIP3    H229577   3.414   1.327   6.261  0.0900 -0.9850 -0.5695
 9878TIP3   OH229578   3.008   0.418   3.052  0.0384  0.6577 -0.1838
 9878TIP3    H129579   3.007   0.385   2.962 -0.4501  1.4288 -0.4721
 9878TIP3    H229580   3.066   0.494   3.049  0.8503  0.0836  0.3917
 9879TIP3   OH229581   7.212   6.480   0.770  0.4155 -0.3835  0.6919
 9879TIP3    H129582   7.200   6.521   0.684 -0.0778 -1.9352 -0.0229
 9879TIP3    H229583   7.236   6.389   0.750 -1.9004 -1.4140  2.1298
 9880TIP3   OH229584   2.159   7.637   5.074  0.0403  1.0016  0.4620
 9880TIP3    H129585   2.093   7.669   5.136 -0.5652 -1.0255  0.9530
 9880TIP3    H229586   2.218   7.584   5.128  0.0874  0.0305 -0.5163
 9881TIP3   OH229587   7.503   2.282   4.627 -0.1909  0.2546 -0.3791
 9881TIP3    H129588   7.522   2.236   4.546  1.4938  0.3951 -0.1050
 9881TIP3    H229589   7.588   2.287   4.672 -0.4791  2.6753  0.0620
 9882TIP3   OH229590   1.326   1.355   3.188  0.4634 -0.1219  0.5601
 9882TIP3    H129591   1.276   1.306   3.253  1.7022 -3.1228 -0.5631
 9882TIP3    H229592   1.261   1.410   3.144 -0.9940 -0.6043  2.0160
 9883TIP3   OH229593   6.600   3.417   6.675 -0.0742  0.4694 -0.0652
 9883TIP3    H129594   6.539   3.413   6.749 -1.1631 -0.2250 -0.9719
 9883TIP3    H229595   6.675   3.364   6.702  0.1032  1.2315  1.0143
 9884TIP3   OH229596   1.134   4.164   0.080 -0.4047 -0.2158  0.2187
 9884TIP3    H129597   1.074   4.103   0.037  1.1866 -1.1185 -0.8153
 9884TIP3    H229598   1.140   4.238   0.021  0.1965 -0.5443 -0.1440
 9885TIP3   OH229599   8.125   6.249   2.809 -0.1552  0.0628 -0.6685
 9885TIP3    H129600   8.128   6.342   2.829 -0.5920  0.3719 -1.9773
 9885TIP3    H229601   8.216   6.220   2.816 -0.2030  0.2226  1.2383
 9886TIP3   OH229602   1.545   7.556   1.659  0.6217  0.4460  0.0672
 9886TIP3    H129603   1.528   7.557   1.753 -0.5402  2.2947 -0.1047
 9886TIP3    H229604   1.640   7.561   1.651  0.7452  0.0185  1.1325
 9887TIP3   OH229605   0.120   1.778   3.802 -0.6744 -0.3704 -0.3070
 9887TIP3    H129606   0.129   1.683   3.793 -1.2334 -0.3715 -0.9273
 9887TIP3    H229607   0.092   1.791   3.893 -1.1743 -0.8490 -0.3858
 9888TIP3   OH229608   3.065   3.498   6.423 -0.8957  0.2661  0.9959
 9888TIP3    H129609   3.031   3.461   6.341 -0.3103  1.5623  0.1496
 9888TIP3    H229610   3.121   3.570   6.396  0.2976 -0.0438  2.4949
 9889TIP3   OH229611   8.223   4.235   1.150  0.0490 -0.0354 -0.1086
 9889TIP3    H129612   8.233   4.230   1.055  1.4184 -0.3563  0.0322
 9889TIP3    H229613   8.129   4.228   1.165 -0.3221  1.2732 -1.5090
 9890TIP3   OH229614   3.230   0.399   5.614 -0.6039 -0.1712 -0.1977
 9890TIP3    H129615   3.272   0.370   5.533  0.6021  1.0979 -0.0730
 9890TIP3    H229616   3.234   0.323   5.672  1.0289 -0.2806 -0.4132
 9891TIP3   OH229617   8.130   1.207   5.595 -0.0277  0.1597 -0.2006
 9891TIP3    H129618   8.218   1.240   5.576 -0.9853  2.5752 -0.8627
 9891TIP3    H229619   8.123   1.127   5.544  2.7584 -1.7814  2.1699
 9892TIP3   OH229620   2.752   7.801   1.909  0.5117 -0.0809  0.3858
 9892TIP3    H129621   2.754   7.891   1.941 -1.7695  0.6713 -1.3193
 9892TIP3    H229622   2.660   7.775   1.917  0.5659 -1.1592 -1.8289
 9893TIP3   OH229623   1.202   2.186   1.938 -0.1940 -0.1285  0.1662
 9893TIP3    H129624   1.205   2.174   2.033  0.6920  0.6899  0.2695
 9893TIP3    H229625   1.249   2.269   1.923  0.8723 -0.9103 -1.0904
 9894TIP3   OH229626   3.274   2.479   4.483  0.0874  0.1589 -0.1670
 9894TIP3    H129627   3.212   2.406   4.478 -0.4791  0.4875  1.4467
 9894TIP3    H229628   3.312   2.471   4.571 -1.1362  2.7009  0.6793
 9895TIP3   OH229629   5.603   4.685   3.651 -0.5147 -0.1933 -0.0936
 9895TIP3    H129630   5.535   4.637   3.604 -0.5604 -1.9450  1.6550
 9895TIP3    H229631   5.682   4.632   3.640 -0.2353  0.0364  0.7485
 9896TIP3   OH229632   2.540   6.403   0.804  0.7994 -0.3629  0.2501
 9896TIP3    H129633   2.466   6.382   0.748  0.9707  0.7710 -0.4282
 9896TIP3    H229634   2.504   6.406   0.893 -0.1833  1.0743 -0.1654
 9897TIP3   OH229635   2.508   0.941   4.034  0.2550 -0.5466  0.3579
 9897TIP3    H129636   2.514   0.889   4.114  1.7641  0.1939  0.7588
 9897TIP3    H229637   2.594   0.933   3.993 -0.2135 -0.1924 -0.7506
 9898TIP3   OH229638   0.742   5.262   6.644 -0.2746 -0.0246  0.3630
 9898TIP3    H129639   0.676   5.331   6.649  0.3250  0.5097  1.2045
 9898TIP3    H229640   0.739   5.232   6.553 -0.4645  1.1858 -0.0437
 9899TIP3   OH229641   3.524   7.716   6.385 -0.3480  0.2701  0.8554
 9899TIP3    H129642   3.495   7.807   6.379 -1.6127 -0.1789 -0.5544
 9899TIP3    H229643   3.446   7.669   6.414 -0.0408 -0.5202  0.4221
 9900TIP3   OH229644   0.510   1.128   6.510 -0.6590 -0.1185 -0.7378
 9900TIP3    H129645   0.549   1.086   6.587 -0.3426 -0.9574 -1.3345
 9900TIP3    H229646   0.423   1.088   6.504 -1.4720  1.4147  0.3270
 9901TIP3   OH229647   1.351   7.375   0.296 -0.4877  0.9282 -0.5087
 9901TIP3    H129648   1.412   7.387   0.368 -2.1195  0.7798  0.9664
 9901TIP3    H229649   1.271   7.342   0.337 -1.6899  1.4380 -2.3115
 9902TIP3   OH229650   1.437   7.796   3.143  0.3457  0.0978  0.1416
 9902TIP3    H129651   1.428   7.701   3.130 -0.7767  0.3102 -0.7956
 9902TIP3    H229652   1.486   7.825   3.066 -1.5178  0.6037 -0.9084
 9903TIP3   OH229653   1.348   3.372   1.773  0.9201 -0.5463 -0.0056
 9903TIP3    H129654   1.371   3.292   1.725 -2.3062 -0.7712 -1.4027
 9903TIP3    H229655   1.339   3.438   1.704  0.9529  0.3700  0.8593
 9904TIP3   OH229656   3.158   2.576   4.808  0.1068  0.2584 -0.0909
 9904TIP3    H129657   3.248   2.550   4.793  0.2221 -0.1637  1.1797
 9904TIP3    H229658   3.161   2.672   4.811  0.7355  0.2241  1.0660
 9905TIP3   OH229659   6.388   3.638   3.375 -0.2258  0.0202 -0.4602
 9905TIP3    H129660   6.370   3.697   3.448  0.9935 -2.2593  1.8703
 9905TIP3    H229661   6.465   3.676   3.332 -0.7315  1.2118 -0.3366
 9906TIP3   OH229662   7.258   3.991   6.099  0.0406 -0.5902 -0.1484
 9906TIP3    H129663   7.332   3.937   6.129  0.0280 -0.3547  0.3199
 9906TIP3    H229664   7.188   3.928   6.082  0.6507 -0.9202 -1.5733
 9907TIP3   OH229665   7.346   4.564   3.725 -0.6234  0.1152  0.6084
 9907TIP3    H129666   7.331   4.470   3.718  1.3649 -0.1838 -0.4883
 9907TIP3    H229667   7.418   4.573   3.788 -0.8247  0.9036  0.7409
 9908TIP3   OH229668   1.425   6.587   5.310 -0.4041 -0.5946 -0.3951
 9908TIP3    H129669   1.335   6.554   5.315  0.3130 -2.4928  0.9686
 9908TIP3    H229670   1.450   6.600   5.402  1.7103 -3.0919 -0.5158
 9909TIP3   OH229671   1.405   0.992   0.005 -0.7300  0.6408 -0.6384
 9909TIP3    H129672   1.394   0.936  -0.072  3.8428 -1.2154 -0.3009
 9909TIP3    H229673   1.361   0.945   0.075 -0.4093 -0.4531 -1.1485
 9910TIP3   OH229674   7.368   7.558   2.917  0.4551 -0.2398 -0.2631
 9910TIP3    H129675   7.372   7.565   3.012 -0.5188 -0.8580 -0.1543
 9910TIP3    H229676   7.417   7.479   2.896  1.0214  0.1233 -0.3183
 9911TIP3   OH229677   4.135   6.611   0.315 -0.9656 -0.5947  0.7422
 9911TIP3    H129678   4.211   6.585   0.263 -1.4653  2.3141 -1.7336
 9911TIP3    H229679   4.160   6.694   0.354 -2.7120  0.2464  0.1536
 9912TIP3   OH229680   7.256   1.807   1.754 -0.0622  0.0546 -0.2604
 9912TIP3    H129681   7.277   1.714   1.767 -0.9097 -0.0213  0.7575
 9912TIP3    H229682   7.331   1.854   1.790 -0.0095 -0.2329  0.0135
 9913TIP3   OH229683   4.321   7.372   0.982 -0.4039 -0.0936  0.1434
 9913TIP3    H129684   4.239   7.421   0.990 -0.5372  0.6091 -3.7561
 9913TIP3    H229685   4.293   7.283   0.960 -0.0817 -0.4761  1.2018
 9914TIP3   OH229686   6.341   3.396   2.874  0.0319 -0.2993  0.0152
 9914TIP3    H129687   6.413   3.456   2.896  0.6562 -0.5685 -1.1906
 9914TIP3    H229688   6.384   3.312   2.858 -0.2285  0.0311 -2.8733
 9915TIP3   OH229689   1.001   0.100   2.858  0.2842  0.0823 -0.5153
 9915TIP3    H129690   0.967   0.148   2.933 -0.0534  0.4817 -0.9217
 9915TIP3    H229691   1.056   0.162   2.811  2.3584 -0.7956  0.6111
 9916TIP3   OH229692   4.664   4.557   2.079 -0.0659  0.2827 -0.3231
 9916TIP3    H129693   4.608   4.627   2.047  1.8427  2.5121  0.9076
 9916TIP3    H229694   4.646   4.552   2.173  0.8048  0.1083 -0.1537
 9917TIP3   OH229695   4.156   1.494   0.565  0.2260 -0.4195 -0.3567
 9917TIP3    H129696   4.175   1.552   0.639 -0.6523  0.4656 -0.8129
 9917TIP3    H229697   4.215   1.524   0.496 -0.7922  0.4923 -0.8583
 9918TIP3   OH229698   1.549   7.622   1.959 -0.1893  0.0591  0.1867
 9918TIP3    H129699   1.568   7.579   2.043 -0.2670  0.1154  0.2331
 9918TIP3    H229700   1.629   7.670   1.938 -0.1630  0.0294  0.2193
 9919TIP3   OH229701   5.253   1.616   5.145 -0.4543 -1.0074 -0.2180
 9919TIP3    H129702   5.208   1.685   5.194  0.2436  0.0089 -0.9513
 9919TIP3    H229703   5.312   1.575   5.207 -1.8534 -1.9032  0.5845
 9920TIP3   OH229704   4.447   7.334   4.011 -0.0566  0.0279 -0.4175
 9920TIP3    H129705   4.358   7.368   4.022  0.0366 -0.0616  0.7368
 9920TIP3    H229706   4.437   7.239   4.015  0.1494  0.0306  0.2811
 9921TIP3   OH229707   4.922   3.151   0.931 -0.2118  0.8964  0.6364
 9921TIP3    H129708   4.932   3.222   0.994 -0.3117  0.3144  1.3231
 9921TIP3    H229709   4.891   3.077   0.983  3.0277 -0.6776  0.6144
 9922TIP3   OH229710   6.400   7.816   5.309 -0.2076 -0.6412  0.3215
 9922TIP3    H129711   6.351   7.842   5.387  1.6229  1.1080  0.9730
 9922TIP3    H229712   6.410   7.721   5.318 -1.8190 -0.7680  1.1058
 9923TIP3   OH229713   5.109   3.351   2.410  0.5724  0.3276  0.4719
 9923TIP3    H129714   5.200   3.355   2.380  0.4171  0.6132  0.0372
 9923TIP3    H229715   5.059   3.395   2.342 -0.3492 -2.8000 -1.0536
 9924TIP3   OH229716   3.304   4.176   5.953 -0.0419  0.1983  0.3801
 9924TIP3    H129717   3.361   4.116   5.905  1.4890  0.5435  1.7163
 9924TIP3    H229718   3.215   4.151   5.925  0.7299  1.0542 -3.4175
 9925TIP3   OH229719   3.228   4.854   3.216  0.2698 -1.1112 -0.0035
 9925TIP3    H129720   3.285   4.867   3.292 -1.0921 -0.5464  0.9544
 9925TIP3    H229721   3.140   4.850   3.252 -0.4758 -0.2421 -1.6160
 9926TIP3   OH229722   4.264   2.804   6.376  0.2280  0.8363  0.0407
 9926TIP3    H129723   4.181   2.796   6.331  0.1641  2.8700 -0.2840
 9926TIP3    H229724   4.267   2.728   6.435 -1.3158  0.1238 -0.7496
 9927TIP3   OH229725   5.470   4.651   3.930  0.1165  0.4667  0.5647
 9927TIP3    H129726   5.532   4.595   3.885  0.1431  0.1962  0.9322
 9927TIP3    H229727   5.523   4.700   3.993  0.0761  0.8185  0.3291
 9928TIP3   OH229728   7.989   1.749   1.244  0.3086 -0.2540  0.6674
 9928TIP3    H129729   7.970   1.672   1.191 -1.8023  0.5479  0.1676
 9928TIP3    H229730   7.946   1.733   1.328 -1.6306  1.0183 -0.0114
 9929TIP3   OH229731   3.505   1.756   5.853  0.4856 -0.0395 -0.0692
 9929TIP3    H129732   3.417   1.730   5.881 -0.7424 -0.5711 -3.8591
 9929TIP3    H229733   3.554   1.675   5.850  0.3248 -0.1285 -0.3491
 9930TIP3   OH229734   7.244   3.113   5.309  0.3384 -0.4663 -0.2686
 9930TIP3    H129735   7.197   3.052   5.252  0.2643  0.3185 -1.0798
 9930TIP3    H229736   7.178   3.178   5.334  0.8747  0.4255 -1.0971
 9931TIP3   OH229737   6.254   4.784   0.050 -0.0518 -0.7242  0.0040
 9931TIP3    H129738   6.201   4.748   0.121 -0.3518  1.6510  1.1124
 9931TIP3    H229739   6.336   4.734   0.053 -0.4706 -1.3654  1.3480
 9932TIP3   OH229740   5.282   7.654   4.362  0.4612  0.2076  0.2579
 9932TIP3    H129741   5.188   7.635   4.365  0.4036  0.6059  0.9701
 9932TIP3    H229742   5.301   7.661   4.268 -0.3560  0.8301  0.1285
 9933TIP3   OH229743   5.108   1.777   5.334  0.2218 -0.6588 -0.2539
 9933TIP3    H129744   5.046   1.834   5.291 -1.0127 -2.3325 -0.8004
 9933TIP3    H229745   5.162   1.835   5.388 -0.4862  1.0568 -1.3398
 9934TIP3   OH229746   1.237   5.231   5.969  0.3436  0.1314  0.1500
 9934TIP3    H129747   1.274   5.187   5.893  2.4644 -0.2353  1.3221
 9934TIP3    H229748   1.221   5.321   5.940  1.2420  0.0215 -0.7059
 9935TIP3   OH229749   5.078   3.401   2.985 -0.0735  0.4696  0.0995
 9935TIP3    H129750   4.990   3.431   3.006  0.1328  0.4663  0.9836
 9935TIP3    H229751   5.075   3.306   2.994  0.0806  0.4887  0.3687
 9936TIP3   OH229752   5.625   0.071   6.183 -0.1034 -0.3644 -0.0681
 9936TIP3    H129753   5.543   0.090   6.228  0.7616  0.2657  1.3441
 9936TIP3    H229754   5.688   0.131   6.224  0.7902  0.0937 -2.0122
 9937TIP3   OH229755   2.933   3.309   5.843 -0.2548 -0.0817  0.1472
 9937TIP3    H129756   2.918   3.359   5.763 -1.3467 -2.4776 -1.2392
 9937TIP3    H229757   3.022   3.275   5.834 -0.0365  0.4088  0.4138
 9938TIP3   OH229758   0.323   6.997   1.320  0.1364  0.2052  0.2883
 9938TIP3    H129759   0.318   6.933   1.391 -1.5424 -0.3227 -0.2704
 9938TIP3    H229760   0.240   7.044   1.325 -0.3803 -0.4041 -1.8383
 9939TIP3   OH229761   5.067   3.153   1.500 -0.0202 -0.3657 -0.3544
 9939TIP3    H129762   5.028   3.236   1.473 -0.1069 -0.3339 -0.1370
 9939TIP3    H229763   5.161   3.167   1.495  0.0177  0.3790  1.5111
 9940TIP3   OH229764   1.846   1.737   2.026 -0.2258 -0.3527  0.0750
 9940TIP3    H129765   1.886   1.732   1.940  0.5884 -0.4844  0.4497
 9940TIP3    H229766   1.839   1.830   2.045 -0.6598 -0.3184 -0.2447
 9941TIP3   OH229767   7.472   0.152   3.084 -0.2797  0.3207  0.2781
 9941TIP3    H129768   7.377   0.162   3.078 -0.1094  1.2734 -1.2196
 9941TIP3    H229769   7.507   0.237   3.059  0.9794  0.1806  1.4451
 9942TIP3   OH229770   1.633   5.438   3.901 -0.0846  0.3015  0.2072
 9942TIP3    H129771   1.662   5.493   3.828 -3.5280 -0.0008 -1.6387
 9942TIP3    H229772   1.674   5.353   3.886 -0.5511  0.3128 -1.3485
 9943TIP3   OH229773   6.409   6.203   5.714  0.1794 -0.1773 -0.0056
 9943TIP3    H129774   6.489   6.154   5.732  0.4968 -0.0870 -1.0804
 9943TIP3    H229775   6.412   6.219   5.619 -0.2065  1.3984  0.2210
 9944TIP3   OH229776   0.840   1.996   1.059  0.3333  0.0891 -0.3260
 9944TIP3    H129777   0.898   1.956   1.124 -0.4078 -2.4765 -1.1373
 9944TIP3    H229778   0.797   2.068   1.106  0.9480 -0.7138  1.5648
 9945TIP3   OH229779   6.241   2.610   3.040 -0.5456 -0.4247  0.8325
 9945TIP3    H129780   6.220   2.517   3.041  0.2392 -0.6275  0.1334
 9945TIP3    H229781   6.160   2.654   3.066 -1.3997 -1.2354 -0.3452
 9946TIP3   OH229782   2.597   4.578   6.372 -0.2360  0.8415 -0.3695
 9946TIP3    H129783   2.568   4.624   6.451 -1.0869 -1.2128  0.6092
 9946TIP3    H229784   2.630   4.494   6.405  0.1447  0.2516 -2.1557
 9947TIP3   OH229785   2.174   7.183   5.101  0.5036 -0.2816  0.3393
 9947TIP3    H129786   2.237   7.254   5.091 -1.6398  1.9832  1.9065
 9947TIP3    H229787   2.089   7.226   5.101 -0.8421 -2.5773  3.3929
 9948TIP3   OH229788   5.761   2.200   3.845 -0.4718  0.3995 -0.5333
 9948TIP3    H129789   5.767   2.266   3.914 -1.4557  1.4621 -1.4186
 9948TIP3    H229790   5.770   2.250   3.764  1.5875 -0.9342 -1.1979
 9949TIP3   OH229791   6.680   6.806   2.464 -0.4194  0.5912 -0.0185
 9949TIP3    H129792   6.770   6.798   2.497 -0.5634 -0.4427  0.1488
 9949TIP3    H229793   6.630   6.841   2.538 -0.7089 -1.5434  0.8463
 9950TIP3   OH229794   4.547   1.599   1.124 -0.2686 -0.4421 -0.6105
 9950TIP3    H129795   4.589   1.611   1.209 -0.2281 -0.7109 -0.5918
 9950TIP3    H229796   4.618   1.570   1.066 -0.4921 -1.2834 -0.4864
 9951TIP3   OH229797   8.031   3.962   2.647 -0.1850  0.6466  0.7243
 9951TIP3    H129798   8.068   4.048   2.667 -0.2339  0.3237  2.3549
 9951TIP3    H229799   8.104   3.913   2.611  0.7630  0.3877  2.8191
 9952TIP3   OH229800   5.773   0.645   0.388  0.3979  0.1711  0.5407
 9952TIP3    H129801   5.717   0.705   0.436  0.6888  0.1137  0.9623
 9952TIP3    H229802   5.832   0.701   0.338 -1.3717  0.2805 -1.5995
 9953TIP3   OH229803   2.022   0.292   6.272 -0.0840  0.0616  0.1565
 9953TIP3    H129804   2.005   0.210   6.319  2.1485 -0.0128  0.9452
 9953TIP3    H229805   1.939   0.339   6.274 -0.9134 -1.3874  1.3106
 9954TIP3   OH229806   0.611   7.297   5.064  0.1393 -0.1680  0.0635
 9954TIP3    H129807   0.678   7.341   5.115  1.0208 -2.3536  0.9092
 9954TIP3    H229808   0.535   7.294   5.122  0.0268  0.3114 -0.0508
 9955TIP3   OH229809   2.529   4.468   4.680  0.0723  0.0068 -0.0047
 9955TIP3    H129810   2.591   4.408   4.639 -0.5484 -0.6747  0.0369
 9955TIP3    H229811   2.562   4.479   4.769  0.6921  0.4558 -0.2802
 9956TIP3   OH229812   1.502   3.159   5.295  0.1815 -0.0415  0.3522
 9956TIP3    H129813   1.444   3.127   5.225  1.4412  1.5586 -1.5386
 9956TIP3    H229814   1.546   3.080   5.326 -0.6409 -0.8518 -0.4583
 9957TIP3   OH229815   7.400   7.443   2.608  0.6479  0.0514 -0.8438
 9957TIP3    H129816   7.359   7.518   2.564  2.0409  1.1768 -0.3224
 9957TIP3    H229817   7.382   7.369   2.551  1.4387  1.2462 -2.7433
 9958TIP3   OH229818   7.616   2.821   0.215 -0.1115 -0.0618 -0.1415
 9958TIP3    H129819   7.678   2.769   0.266 -1.7583 -1.7649  0.1850
 9958TIP3    H229820   7.585   2.762   0.146 -0.8256  1.0018 -0.7647
 9959TIP3   OH229821   0.852   7.230   6.558  0.1289 -0.0022 -0.4240
 9959TIP3    H129822   0.927   7.173   6.540 -0.4624 -1.4357  1.3566
 9959TIP3    H229823   0.884   7.293   6.623 -0.5490 -1.6201  1.5792
 9960TIP3   OH229824   4.021   3.738   5.250  0.4184  0.8157 -0.2687
 9960TIP3    H129825   4.000   3.649   5.223  0.2972  0.5611  0.6237
 9960TIP3    H229826   4.031   3.733   5.345  0.4359  1.7492 -0.2068
 9961TIP3   OH229827   7.690   6.510   5.551 -0.0185  0.3054  0.0727
 9961TIP3    H129828   7.678   6.558   5.469  0.5317  1.0263  0.4032
 9961TIP3    H229829   7.709   6.421   5.523 -2.2122 -0.0307 -0.5287
 9962TIP3   OH229830   5.291   4.341   4.778 -0.4004 -0.0441 -0.0195
 9962TIP3    H129831   5.365   4.361   4.721 -0.8447  0.6476 -0.3855
 9962TIP3    H229832   5.214   4.349   4.721 -0.6543 -3.2603 -0.3090
 9963TIP3   OH229833   5.318   6.317   0.359  0.3495 -0.4361  0.2794
 9963TIP3    H129834   5.366   6.264   0.296 -0.9079 -0.0815 -1.0395
 9963TIP3    H229835   5.263   6.374   0.305  2.7580  3.4483  1.5120
 9964TIP3   OH229836   6.578   2.004   3.366  0.1589 -0.4029 -0.2933
 9964TIP3    H129837   6.625   2.060   3.305  1.9827 -0.5801  0.8761
 9964TIP3    H229838   6.504   2.058   3.395  0.6998  0.6223 -0.7508
 9965TIP3   OH229839   5.561   6.346   1.277 -0.3631  0.1642  0.1708
 9965TIP3    H129840   5.600   6.431   1.299 -0.3324 -0.4282  2.6821
 9965TIP3    H229841   5.618   6.282   1.319 -1.9449 -0.9311  0.7533
 9966TIP3   OH229842   1.645   2.218   3.481  0.1467  0.4132  0.2748
 9966TIP3    H129843   1.658   2.184   3.570  0.3131  0.8467  0.4173
 9966TIP3    H229844   1.733   2.228   3.447  0.0714 -0.9978 -0.4285
 9967TIP3   OH229845   6.732   1.901   0.257  0.7939  0.0349 -0.1772
 9967TIP3    H129846   6.795   1.968   0.282  0.6233 -0.1154  0.7024
 9967TIP3    H229847   6.760   1.872   0.171  1.1242  0.9279 -0.3775
 9968TIP3   OH229848   7.690   0.170   4.643 -0.6959  0.1444  0.6230
 9968TIP3    H129849   7.708   0.127   4.559  1.3960  0.9724  0.5923
 9968TIP3    H229850   7.679   0.098   4.705  1.6909 -0.5337  0.3702
 9969TIP3   OH229851   2.144   4.136   3.026  0.4045 -0.2414  0.7484
 9969TIP3    H129852   2.082   4.193   3.072  1.3883  0.8623  0.7458
 9969TIP3    H229853   2.230   4.165   3.056  0.9500 -1.5173  0.4863
 9970TIP3   OH229854   0.087   7.083   6.068  0.8085 -0.4657 -0.1044
 9970TIP3    H129855   0.114   6.992   6.085  0.3736 -0.4076  0.9865
 9970TIP3    H229856  -0.001   7.089   6.107  0.3123  0.0756 -1.2805
 9971TIP3   OH229857   6.251   7.781   4.269  0.5115  0.5817  0.1370
 9971TIP3    H129858   6.193   7.705   4.275 -0.3396  1.3101  1.7114
 9971TIP3    H229859   6.294   7.786   4.354  0.7490  1.7070 -0.0317
 9972TIP3   OH229860   7.327   1.295   6.651 -0.4000  0.3446  0.2307
 9972TIP3    H129861   7.402   1.350   6.676 -0.5190  0.2015  0.9134
 9972TIP3    H229862   7.255   1.326   6.706 -0.1809 -1.2563  1.4934
 9973TIP3   OH229863   0.136   1.984   5.760  0.3022  0.3897 -0.3876
 9973TIP3    H129864   0.134   2.045   5.834 -0.5498  0.7546 -0.7024
 9973TIP3    H229865   0.169   1.902   5.797 -1.2792  0.2023  0.6797
 9974TIP3   OH229866   4.645   0.587   1.663 -0.0087 -0.4978 -0.7926
 9974TIP3    H129867   4.611   0.613   1.578 -1.0062 -0.4117 -0.3867
 9974TIP3    H229868   4.567   0.574   1.717  0.5768 -1.3093 -0.1100
 9975TIP3   OH229869   2.468   5.561   3.329  0.4592  0.1022  0.3829
 9975TIP3    H129870   2.549   5.530   3.369  0.6043 -0.0794 -0.0541
 9975TIP3    H229871   2.401   5.502   3.362  0.4224  0.5398  1.1244
 9976TIP3   OH229872   5.810   4.183   6.264  0.7262  0.5425 -0.8392
 9976TIP3    H129873   5.769   4.155   6.182 -0.5588  2.9571 -1.1131
 9976TIP3    H229874   5.862   4.260   6.239 -0.7372  2.1222  0.7726
 9977TIP3   OH229875   2.827   6.933   2.528  0.0203 -0.3746 -0.0136
 9977TIP3    H129876   2.787   6.945   2.442 -0.1933  0.8368  0.2355
 9977TIP3    H229877   2.845   7.022   2.559 -0.5882 -0.7510  1.5154
 9978TIP3   OH229878   7.031   6.130   6.437  0.1451  0.4313  0.1682
 9978TIP3    H129879   6.965   6.198   6.422  2.4396  2.7995  0.1721
 9978TIP3    H229880   7.070   6.116   6.351 -0.1673 -0.7972  0.2104
 9979TIP3   OH229881   0.608   4.427   6.453  0.5390  0.3553 -0.5611
 9979TIP3    H129882   0.590   4.416   6.546  2.8765 -1.6929 -0.2419
 9979TIP3    H229883   0.525   4.408   6.409  0.1935 -2.0564  0.9736
 9980TIP3   OH229884   4.600   5.708   0.385  0.4925  0.1760 -0.5937
 9980TIP3    H129885   4.508   5.726   0.365  0.1264 -0.2335  0.6268
 9980TIP3    H229886   4.623   5.773   0.452  1.0142  0.1216 -0.7194
 9981TIP3   OH229887   4.825   7.564   3.360  0.1080  0.3090  0.2361
 9981TIP3    H129888   4.772   7.485   3.372 -1.1347  1.0423 -0.2278
 9981TIP3    H229889   4.891   7.539   3.295 -0.1991 -0.3680  0.1748
 9982TIP3   OH229890   7.078   7.584   4.916  0.0210  0.2869  0.6937
 9982TIP3    H129891   7.027   7.507   4.942 -1.7311  1.2365  0.2372
 9982TIP3    H229892   7.110   7.564   4.828  0.3387 -0.2697  0.9337
 9983TIP3   OH229893   6.938   6.223   1.185 -0.3698 -0.7156 -0.7458
 9983TIP3    H129894   7.021   6.265   1.163 -0.4883 -1.0597 -1.9443
 9983TIP3    H229895   6.963   6.142   1.230 -0.0170 -1.0922 -1.5934
 9984TIP3   OH229896   5.971   1.776   1.882  0.1290 -0.2319  0.4346
 9984TIP3    H129897   6.020   1.817   1.953  0.3103  0.0014  0.1773
 9984TIP3    H229898   5.883   1.763   1.918  0.2504 -0.2240  0.7407
 9985TIP3   OH229899   0.821   6.404   4.851  0.4546 -0.8808  0.2972
 9985TIP3    H129900   0.832   6.499   4.851  2.0865 -1.0386 -0.3269
 9985TIP3    H229901   0.727   6.391   4.859  0.1157  0.8130 -0.4522
 9986TIP3   OH229902   0.395   1.133   0.109 -0.2178  0.3762 -0.0228
 9986TIP3    H129903   0.379   1.039   0.098 -1.7584  0.7299 -1.1245
 9986TIP3    H229904   0.478   1.148   0.065 -0.3019 -0.3582 -0.4497
 9987TIP3   OH229905   5.816   3.852   5.508 -0.4819  0.2810  0.3763
 9987TIP3    H129906   5.762   3.804   5.571 -1.2929  0.7075  0.0253
 9987TIP3    H229907   5.817   3.796   5.430 -0.6813  0.4094  0.2788
 9988TIP3   OH229908   5.086   3.303   4.364  0.4072  0.0884  0.2351
 9988TIP3    H129909   5.180   3.304   4.344  0.4995  1.3361  0.6089
 9988TIP3    H229910   5.078   3.248   4.441  1.0717  1.2134  1.1463
 9989TIP3   OH229911   5.189   6.322   0.591  0.6491  0.1338  0.1769
 9989TIP3    H129912   5.213   6.297   0.502  0.7239  1.5936 -0.2390
 9989TIP3    H229913   5.096   6.300   0.597  0.2768  1.3655 -0.7745
 9990TIP3   OH229914   3.307   0.959   1.254 -0.1286  0.5623  0.1285
 9990TIP3    H129915   3.380   0.988   1.308 -0.8954  1.2686  0.8175
 9990TIP3    H229916   3.283   0.873   1.289 -1.4709  1.5689  1.8484
 9991TIP3   OH229917   2.177   1.142   1.026  0.0165  0.0822  0.2915
 9991TIP3    H129918   2.199   1.060   1.070 -2.2811 -0.1968  1.0705
 9991TIP3    H229919   2.159   1.204   1.097 -1.5580  0.2623 -0.2231
 9992TIP3   OH229920   2.442   3.557   5.158 -0.0733  0.3820 -0.0336
 9992TIP3    H129921   2.442   3.615   5.082 -0.1697 -0.4669 -0.7019
 9992TIP3    H229922   2.496   3.482   5.131  1.4893  0.9297  1.4272
 9993TIP3   OH229923   2.774   7.614   0.768  0.0725  0.0424  0.3866
 9993TIP3    H129924   2.698   7.605   0.711  1.0767 -0.7617 -0.8505
 9993TIP3    H229925   2.843   7.565   0.725  1.4013  1.0164  1.3255
 9994TIP3   OH229926   7.015   7.453   5.782  0.0266  0.5433  0.7223
 9994TIP3    H129927   7.003   7.527   5.723 -0.9354  1.0005  1.4661
 9994TIP3    H229928   6.951   7.388   5.753 -1.1951  1.1795  1.8636
 9995TIP3   OH229929   7.935   3.515   5.075  0.8850 -0.5886 -0.1271
 9995TIP3    H129930   8.021   3.545   5.106 -0.2918  2.5766  0.5417
 9995TIP3    H229931   7.938   3.528   4.980  0.3620  2.3553  0.1358
 9996TIP3   OH229932   7.384   6.010   0.210  0.2260  0.1047  0.0606
 9996TIP3    H129933   7.363   6.047   0.296 -2.9668  1.6257 -1.2185
 9996TIP3    H229934   7.461   6.059   0.181 -1.1928  2.6463  0.3513
 9997TIP3   OH229935   3.354   6.589   0.456  0.4944  0.0373 -0.1192
 9997TIP3    H129936   3.370   6.548   0.541  0.7265  1.4917  0.5859
 9997TIP3    H229937   3.435   6.573   0.407 -0.0239 -1.6755 -0.4637
 9998TIP3   OH229938   6.831   0.638   5.419  0.6532 -0.8636  0.8977
 9998TIP3    H129939   6.765   0.575   5.391 -0.7120  0.1373  1.7258
 9998TIP3    H229940   6.900   0.585   5.459  0.2817 -1.9241  0.1424
 9999TIP3   OH229941   7.909   3.317   0.735 -0.3468  0.0077  0.1357
 9999TIP3    H129942   7.882   3.407   0.756 -0.8213  0.3979 -1.9509
 9999TIP3    H229943   7.975   3.327   0.666  0.6999 -1.2144  0.9037
10000TIP3   OH229944   1.574   2.605   0.654 -1.3656  0.3287  0.1315
10000TIP3    H129945   1.644   2.636   0.712 -1.5856  0.6417  0.2289
10000TIP3    H229946   1.565   2.673   0.588  1.3601 -1.5638 -2.4706
10001TIP3   OH229947   7.741   6.896   5.515 -0.0710 -0.1916  0.5091
10001TIP3    H129948   7.693   6.942   5.584 -1.7910 -1.6331  0.3490
10001TIP3    H229949   7.833   6.920   5.530 -0.3977 -0.2808  3.1878
10002TIP3   OH229950   4.458   3.997   4.669 -0.1341 -0.3371 -1.0606
10002TIP3    H129951   4.421   4.085   4.669 -1.1647 -0.7296 -2.6319
10002TIP3    H229952   4.436   3.961   4.583  0.8208 -1.9091 -0.7043
10003TIP3   OH229953   5.638   0.269   3.533  0.4981  0.7589  0.3260
10003TIP3    H129954   5.629   0.271   3.437 -0.1899  2.8409  0.3855
10003TIP3    H229955   5.730   0.244   3.547  0.7517  0.9071 -0.9024
10004TIP3   OH229956   7.915   1.936   5.782 -0.5761  0.0453 -0.2962
10004TIP3    H129957   7.931   1.848   5.817 -0.9619  0.3816  0.7791
10004TIP3    H229958   7.902   1.923   5.688  1.8276 -0.7476 -0.6065
10005TIP3   OH229959   5.250   4.803   2.717  0.0763  0.5023  0.3815
10005TIP3    H129960   5.268   4.851   2.798 -0.3599  0.0454  0.7529
10005TIP3    H229961   5.215   4.719   2.746 -0.7154  0.5896 -0.2911
10006TIP3   OH229962   4.020   3.228   5.404 -0.8644 -0.2284  0.2502
10006TIP3    H129963   4.015   3.248   5.311 -0.1410  2.0217  0.6303
10006TIP3    H229964   3.988   3.139   5.411  0.4541 -1.0281 -2.3526
10007TIP3   OH229965   0.274   5.229   1.963  0.6032  0.3436  0.1185
10007TIP3    H129966   0.295   5.312   1.920 -0.4163  0.9595  0.7734
10007TIP3    H229967   0.332   5.226   2.038  1.6594 -0.2442 -0.6929
10008TIP3   OH229968   0.209   0.567   4.314  0.4623  0.0416 -0.6452
10008TIP3    H129969   0.258   0.548   4.394 -0.0989  2.1284  0.2529
10008TIP3    H229970   0.265   0.626   4.265 -0.2107  0.7327 -0.6114
10009TIP3   OH229971   4.255   5.924   1.604  0.1092 -0.2248 -0.4799
10009TIP3    H129972   4.229   5.845   1.652 -1.4278 -0.0491 -0.9562
10009TIP3    H229973   4.180   5.983   1.613  0.4317  0.4184 -1.7545
10010TIP3   OH229974   4.870   1.902   3.115  0.0343 -0.5914 -0.0334
10010TIP3    H129975   4.807   1.951   3.062  2.3303  1.1618 -1.3462
10010TIP3    H229976   4.888   1.823   3.064  1.0227  0.3152 -1.1352
10011TIP3   OH229977   3.236   1.394   3.054  0.2750  0.1365 -0.5092
10011TIP3    H129978   3.269   1.328   2.993 -1.0084 -1.8143  0.7909
10011TIP3    H229979   3.305   1.403   3.119  0.5732  0.3122 -0.8442
10012TIP3   OH229980   3.683   5.244   2.615 -0.4885 -0.2404 -0.6353
10012TIP3    H129981   3.756   5.288   2.659 -1.7352  0.2317  1.0171
10012TIP3    H229982   3.689   5.275   2.524 -0.0774  1.7621  0.0058
10013TIP3   OH229983   7.558   5.956   5.717 -0.2322  0.5566 -0.0411
10013TIP3    H129984   7.565   5.922   5.807 -0.2318 -0.9957 -0.6000
10013TIP3    H229985   7.480   5.914   5.682 -0.5547  1.5928 -0.6042
10014TIP3   OH229986   6.839   7.421   0.915  0.5185 -0.3089  0.0091
10014TIP3    H129987   6.871   7.490   0.973 -0.2394  1.0273 -1.0916
10014TIP3    H229988   6.877   7.340   0.950  2.6090  0.8235  0.5080
10015TIP3   OH229989   4.772   4.105   4.193 -0.2949  0.1499 -0.3469
10015TIP3    H129990   4.785   4.064   4.279 -1.9384 -2.2144 -1.1304
10015TIP3    H229991   4.806   4.042   4.130 -1.7136  0.5164 -1.5534
10016TIP3   OH229992   6.389   3.070   1.562 -0.0515  0.1314 -0.0113
10016TIP3    H129993   6.371   2.976   1.563  1.7646 -0.2499  0.4125
10016TIP3    H229994   6.336   3.106   1.633  0.6565 -0.8720  1.0406
10017TIP3   OH229995   0.639   0.321   6.247 -0.8851 -0.6795 -0.0457
10017TIP3    H129996   0.693   0.257   6.200  1.3076  0.1077  1.2848
10017TIP3    H229997   0.563   0.271   6.277 -0.3205 -2.1097 -0.9123
10018TIP3   OH229998   1.392   5.315   5.675  0.5844  0.4880 -0.1690
10018TIP3    H129999   1.408   5.228   5.710 -1.2154  0.2292  0.1318
10018TIP3    H230000   1.408   5.374   5.749 -3.4755 -0.0758  1.4517
10019TIP3   OH230001   1.314   2.230   0.331 -0.9232 -0.4200  0.0075
10019TIP3    H130002   1.231   2.211   0.375 -1.7349  0.8363 -0.9310
10019TIP3    H230003   1.341   2.315   0.365  1.0007 -1.6057  1.7165
10020TIP3   OH230004   4.575   5.451   5.605  0.0103 -0.2228 -0.6914
10020TIP3    H130005   4.525   5.442   5.686  0.6856  1.1257 -0.0871
10020TIP3    H230006   4.509   5.463   5.537 -0.5238  1.6133  0.0991
10021TIP3   OH230007   7.404   2.102   0.272  0.8543 -0.3450 -0.2075
10021TIP3    H130008   7.380   2.194   0.280 -1.1581 -0.8118 -0.4363
10021TIP3    H230009   7.352   2.057   0.338  0.0560 -1.5784 -1.6135
10022TIP3   OH230010   5.005   2.680   5.341  0.4389  0.4944 -0.6436
10022TIP3    H130011   5.039   2.741   5.406  0.8447  1.6255 -1.8544
10022TIP3    H230012   4.935   2.729   5.297  0.0342 -0.3110 -0.9155
10023TIP3   OH230013   0.085   4.541   5.138  0.1033  0.1320  0.3766
10023TIP3    H130014  -0.007   4.570   5.139  0.0550  0.5485 -3.4242
10023TIP3    H230015   0.133   4.616   5.174 -0.8045  1.3822 -0.8744
10024TIP3   OH230016   6.720   3.007   3.958  0.0168  0.6780 -0.4036
10024TIP3    H130017   6.715   3.071   4.029  0.4213  4.9386 -3.8305
10024TIP3    H230018   6.792   3.037   3.903 -1.3310 -1.3036 -3.5494
10025TIP3   OH230019   2.675   5.458   0.927 -0.0387 -0.3409  0.6262
10025TIP3    H130020   2.717   5.520   0.868  0.9494 -1.0173  0.5986
10025TIP3    H230021   2.620   5.404   0.870 -0.0487 -0.2014  0.5036
10026TIP3   OH230022   4.226   7.667   6.656  0.4157 -0.0548 -0.5009
10026TIP3    H130023   4.239   7.573   6.665 -0.1403  0.0123  1.3821
10026TIP3    H230024   4.135   7.675   6.626 -0.3048 -0.1065  1.5056
10027TIP3   OH230025   4.038   2.304   3.228 -0.1837  0.1978 -0.1692
10027TIP3    H130026   4.024   2.262   3.143 -0.2942 -0.3366  0.1069
10027TIP3    H230027   4.121   2.351   3.218  0.3616 -0.7309 -0.2526
10028TIP3   OH230028   1.168   1.156   4.957  0.1116  0.1049  0.1197
10028TIP3    H130029   1.223   1.085   4.990  1.5898  0.7433 -0.8581
10028TIP3    H230030   1.231   1.222   4.927 -1.2201  1.3701  0.0298
10029TIP3   OH230031   6.532   4.861   6.675 -0.2113  0.0406 -0.1017
10029TIP3    H130032   6.443   4.895   6.686 -0.2909 -0.5738  1.5008
10029TIP3    H230033   6.538   4.838   6.582 -0.7440  2.6625 -0.8624
10030TIP3   OH230034   3.436   6.193   4.110 -0.6902 -0.3203 -1.0052
10030TIP3    H130035   3.443   6.110   4.063  0.7002 -0.9979  0.3011
10030TIP3    H230036   3.521   6.235   4.098 -0.5563 -0.1740  0.2507
10031TIP3   OH230037   4.684   6.115   3.691  0.2623  0.3505 -0.4858
10031TIP3    H130038   4.689   6.097   3.597  2.2353 -0.2382 -0.3073
10031TIP3    H230039   4.700   6.209   3.699  2.8886 -0.0304 -0.6058
10032TIP3   OH230040   4.265   7.134   2.498 -0.3397  0.1019  0.1429
10032TIP3    H130041   4.360   7.121   2.509 -0.0132  0.9662 -1.3366
10032TIP3    H230042   4.236   7.056   2.451 -0.1911  0.1988 -0.1185
10033TIP3   OH230043   4.620   6.550   0.480  0.1279 -0.5099 -0.6801
10033TIP3    H130044   4.695   6.609   0.476  1.3379 -1.8258  0.7881
10033TIP3    H230045   4.653   6.467   0.445 -0.4043 -1.2930  0.5609
10034TIP3   OH230046   1.511   6.116   0.332  0.0608  0.2196  0.0774
10034TIP3    H130047   1.419   6.122   0.309  0.1920  2.3619 -0.0822
10034TIP3    H230048   1.557   6.135   0.250  0.5900  1.5745  0.6640
10035TIP3   OH230049   2.928   2.680   5.441  0.4177 -0.3061  0.7627
10035TIP3    H130050   2.839   2.674   5.406 -0.1374  1.4140  1.7538
10035TIP3    H230051   2.980   2.714   5.369 -0.0906  0.3191  0.6815
10036TIP3   OH230052   8.206   3.949   4.870 -0.2904 -0.2247  0.3836
10036TIP3    H130053   8.275   3.976   4.930 -1.2834  0.7523  1.1097
10036TIP3    H230054   8.158   3.880   4.916 -1.3099  0.8122  0.9215
10037TIP3   OH230055   6.069   6.579   1.362 -0.2885 -0.0332  0.2853
10037TIP3    H130056   6.018   6.541   1.291 -0.9418  1.3555 -0.0376
10037TIP3    H230057   6.017   6.563   1.441 -1.4121  1.5986 -0.0759
10038TIP3   OH230058   0.865   4.300   4.626 -0.3545  0.3236 -0.2551
10038TIP3    H130059   0.893   4.278   4.537 -0.1716  0.9770 -0.3614
10038TIP3    H230060   0.937   4.269   4.682  0.3503  1.4923 -0.4813
10039TIP3   OH230061   2.289   3.618   3.005 -0.2346  0.4484 -0.2785
10039TIP3    H130062   2.325   3.547   2.952 -0.1261 -0.2091  0.6601
10039TIP3    H230063   2.222   3.658   2.949 -0.2095 -0.3087 -0.8621
10040TIP3   OH230064   6.023   4.530   4.320  0.0388  0.3056  0.6065
10040TIP3    H130065   6.104   4.486   4.294  0.6794  1.2281  0.9760
10040TIP3    H230066   6.052   4.598   4.380 -1.1601 -0.2628  1.8739
10041TIP3   OH230067   2.960   7.658   3.581  0.3554  0.1141  0.0872
10041TIP3    H130068   2.985   7.682   3.670 -0.1810 -1.3927  0.6754
10041TIP3    H230069   2.864   7.655   3.583  0.3275  0.3586 -0.6224
10042TIP3   OH230070   4.190   5.691   5.032  0.2796 -0.2683 -0.6593
10042TIP3    H130071   4.175   5.773   4.985  0.7499 -0.7109 -1.5945
10042TIP3    H230072   4.247   5.640   4.975 -0.5601 -1.5446 -0.3993
10043TIP3   OH230073   7.917   7.107   3.445 -0.2794  0.0404  0.3640
10043TIP3    H130074   7.886   7.078   3.360 -0.7902 -0.1645  0.6124
10043TIP3    H230075   8.000   7.062   3.457  0.0274  0.4408 -0.2287
10044TIP3   OH230076   1.908   2.356   1.736  0.2282 -0.0642  0.3814
10044TIP3    H130077   1.830   2.360   1.790  0.5189 -1.5864  0.9674
10044TIP3    H230078   1.923   2.446   1.708 -0.6580  0.5450  1.7899
10045TIP3   OH230079   5.665   3.775   3.149 -0.1344  0.3647 -0.2014
10045TIP3    H130080   5.721   3.833   3.096  0.7610 -1.6377 -1.5718
10045TIP3    H230081   5.721   3.749   3.222 -0.6034  1.3211  0.5244
10046TIP3   OH230082   1.819   7.007   0.111  0.1030 -0.0520  0.4966
10046TIP3    H130083   1.877   6.931   0.110 -0.2675 -0.3369  0.1397
10046TIP3    H230084   1.731   6.970   0.106 -0.0995  0.3859  0.7505
10047TIP3   OH230085   1.835   3.113   5.099  0.2416  0.1509  0.0896
10047TIP3    H130086   1.908   3.121   5.038  1.8810  1.2212  2.0849
10047TIP3    H230087   1.853   3.176   5.168 -3.1969  1.3191  0.1342
10048TIP3   OH230088   0.752   5.135   0.993 -0.3179 -0.0657  0.1704
10048TIP3    H130089   0.780   5.122   1.084 -0.1455 -1.8694 -0.1026
10048TIP3    H230090   0.728   5.048   0.963  0.9508  0.2601 -1.9638
10049TIP3   OH230091   7.283   0.634   3.296  0.1945  0.1905 -0.3063
10049TIP3    H130092   7.295   0.616   3.389  2.3020 -0.5870 -0.6582
10049TIP3    H230093   7.188   0.640   3.284 -0.1237  0.2562  1.8606
10050TIP3   OH230094   5.790   2.483   6.694  0.2095  0.1785  0.1198
10050TIP3    H130095   5.819   2.461   6.606  0.6823  1.8896 -0.1900
10050TIP3    H230096   5.867   2.523   6.736 -0.6873  1.6226  0.4577
10051TIP3   OH230097   1.218   1.222   3.454  0.0416 -0.2747  0.2020
10051TIP3    H130098   1.180   1.256   3.535  0.5824  0.4811  0.1470
10051TIP3    H230099   1.155   1.156   3.425  0.5560 -1.6405  2.0076
10052TIP3   OH230100   5.105   2.512   1.500  0.1220  0.0492  0.0154
10052TIP3    H130101   5.074   2.454   1.569  1.1875  1.1269  1.4621
10052TIP3    H230102   5.184   2.551   1.535  1.6741 -0.5884 -2.4914
10053TIP3   OH230103   5.713   4.658   1.998  0.3879 -0.4209  0.1386
10053TIP3    H130104   5.769   4.712   1.943 -0.1230 -0.5666 -0.5339
10053TIP3    H230105   5.771   4.591   2.033  0.5076 -1.0203 -1.1452
10054TIP3   OH230106   4.071   4.282   3.102  0.6494  0.3693 -0.0206
10054TIP3    H130107   4.013   4.288   3.026 -0.3096  0.0472  0.6695
10054TIP3    H230108   4.142   4.344   3.083 -1.3117  2.9157  0.3192
10055TIP3   OH230109   2.424   0.614   1.860  0.0970 -0.0676 -0.2697
10055TIP3    H130110   2.468   0.532   1.839  2.0669  0.7007  0.5809
10055TIP3    H230111   2.444   0.672   1.787  2.0835  0.8220  0.8982
10056TIP3   OH230112   2.428   3.603   4.641 -0.3790  0.0958 -0.2971
10056TIP3    H130113   2.420   3.570   4.552 -0.0203 -1.5333  0.2328
10056TIP3    H230114   2.522   3.598   4.660 -0.4499  0.4547  0.1628
10057TIP3   OH230115   7.841   6.484   3.551 -0.3319 -0.5730  0.2988
10057TIP3    H130116   7.820   6.550   3.617  0.4565  1.3031 -1.2579
10057TIP3    H230117   7.761   6.431   3.545 -0.9901  0.2150  1.5657
10058TIP3   OH230118   8.199   7.412   0.050 -0.5276 -0.3652 -0.0076
10058TIP3    H130119   8.175   7.466  -0.025  0.2254 -0.1395 -0.0980
10058TIP3    H230120   8.149   7.449   0.123 -0.4243  0.1185 -0.1759
10059TIP3   OH230121   8.212   4.906   1.565  0.0136  0.1023 -0.0745
10059TIP3    H130122   8.197   4.858   1.647 -0.3814 -0.0710 -0.2496
10059TIP3    H230123   8.305   4.892   1.546  0.2279  0.5525  0.6066
10060TIP3   OH230124   0.203   3.495   3.481  0.3233 -0.3653  0.1718
10060TIP3    H130125   0.115   3.464   3.503  0.8076 -1.4182  0.6922
10060TIP3    H230126   0.260   3.420   3.499  0.9931 -0.7220 -2.9748
10061TIP3   OH230127   1.807   6.508   1.275  0.1878  0.0142 -0.0744
10061TIP3    H130128   1.864   6.512   1.199 -0.8343 -0.8343 -0.9183
10061TIP3    H230129   1.810   6.416   1.303 -0.5261  0.0209  0.0469
10062TIP3   OH230130   6.445   1.053   1.613  0.3438  0.1654  0.0598
10062TIP3    H130131   6.389   1.020   1.683 -0.2829 -0.1286 -0.5659
10062TIP3    H230132   6.462   0.976   1.559  1.6864  0.1645  0.4555
10063TIP3   OH230133   2.374   1.124   4.606  0.3203 -0.2319 -0.2667
10063TIP3    H130134   2.337   1.212   4.604 -0.2300 -0.3033  2.6583
10063TIP3    H230135   2.463   1.136   4.640  0.4403 -0.7695 -0.3832
10064TIP3   OH230136   6.109   4.715   4.518 -0.0495 -0.0440  0.5977
10064TIP3    H130137   6.109   4.811   4.515 -1.5688 -0.0337  0.3853
10064TIP3    H230138   6.168   4.694   4.591  2.4319  0.9406 -0.9984
10065TIP3   OH230139   7.052   2.598   3.608 -0.2174 -0.1945 -0.7866
10065TIP3    H130140   7.126   2.585   3.667 -0.4791 -0.2597 -0.4699
10065TIP3    H230141   7.092   2.613   3.522  0.1298 -1.5448 -0.8721
10066TIP3   OH230142   2.819   4.778   3.875  0.3090 -0.5376  0.1170
10066TIP3    H130143   2.740   4.760   3.925  0.3849  1.8444  1.2455
10066TIP3    H230144   2.821   4.710   3.807 -2.0679 -1.3299  0.7472
10067TIP3   OH230145   6.886   1.317   3.481  0.4438  0.0252 -0.0107
10067TIP3    H130146   6.869   1.247   3.418 -4.0904  0.8914 -0.0647
10067TIP3    H230147   6.892   1.396   3.428 -0.9369  0.4356  0.4026
10068TIP3   OH230148   1.974   4.059   0.276 -0.1127  0.1342  0.1004
10068TIP3    H130149   2.057   4.077   0.320 -0.8186  1.4501  0.9568
10068TIP3    H230150   1.948   3.972   0.308 -0.1581  0.6694  1.6227
10069TIP3   OH230151   2.810   2.090   3.641 -0.2386 -0.3492  0.2254
10069TIP3    H130152   2.885   2.111   3.585 -0.8352  1.1675 -0.0596
10069TIP3    H230153   2.779   2.175   3.673 -1.3904 -1.0008  0.9292
10070TIP3   OH230154   5.014   4.300   6.054 -0.2614  0.3848 -0.3481
10070TIP3    H130155   5.056   4.229   6.005 -0.6651 -0.0769 -0.0380
10070TIP3    H230156   4.953   4.255   6.113 -1.1924  1.0408 -0.7950
10071TIP3   OH230157   2.671   4.042   5.119  0.1149 -0.1276 -0.6866
10071TIP3    H130158   2.645   4.066   5.208  1.0525  0.0983 -0.4606
10071TIP3    H230159   2.663   3.946   5.116 -0.2084 -0.1072 -0.4588
10072TIP3   OH230160   4.572   0.753   5.302  0.0837  0.2308 -0.7869
10072TIP3    H130161   4.602   0.671   5.261 -1.0071 -0.4621 -0.2599
10072TIP3    H230162   4.505   0.785   5.242 -0.7109 -0.1851 -0.1315
10073TIP3   OH230163   4.048   5.315   3.075 -0.8978 -0.0894  0.1346
10073TIP3    H130164   4.062   5.370   2.999  0.2639 -0.2302  0.2295
10073TIP3    H230165   4.041   5.226   3.040 -0.2288 -0.1702  0.1956
10074TIP3   OH230166   4.353   6.663   3.624  0.0148 -0.1668  0.0453
10074TIP3    H130167   4.345   6.572   3.652 -1.2033  0.0721  0.5213
10074TIP3    H230168   4.447   6.678   3.616  0.2740 -1.1032  1.1605
10075TIP3   OH230169   3.248   4.145   3.744 -0.4488  0.3976  0.2555
10075TIP3    H130170   3.222   4.130   3.654 -0.4144  0.1617  0.2829
10075TIP3    H230171   3.249   4.058   3.784  0.6004  0.3644  0.1904
10076TIP3   OH230172   0.694   5.280   1.697  0.1176  0.2901 -0.1827
10076TIP3    H130173   0.605   5.301   1.668  0.6046 -0.7749 -2.6784
10076TIP3    H230174   0.682   5.241   1.783 -1.7675  0.6542 -0.2348
10077TIP3   OH230175   1.277   0.235   1.241 -0.2889  0.8997 -0.0380
10077TIP3    H130176   1.249   0.177   1.312  3.4812 -0.7632  0.3233
10077TIP3    H230177   1.201   0.289   1.223 -3.2805 -2.4744  1.3105
10078TIP3   OH230178   0.091   4.243   5.283  0.0610 -0.2442  0.3276
10078TIP3    H130179   0.129   4.301   5.217 -0.1266 -0.7956 -0.2813
10078TIP3    H230180   0.002   4.276   5.296 -0.1659 -0.5989 -0.2819
10079TIP3   OH230181   6.416   5.128   1.919 -0.4251  0.4944 -0.6161
10079TIP3    H130182   6.419   5.032   1.921 -1.3330  0.4522  1.0928
10079TIP3    H230183   6.327   5.149   1.948  0.2678  1.8436  0.6438
10080TIP3   OH230184   1.128   3.417   6.454 -0.6745 -0.4870  0.1460
10080TIP3    H130185   1.115   3.328   6.422  0.6816 -0.5294 -0.3527
10080TIP3    H230186   1.101   3.472   6.381 -3.4951 -0.3761  1.1626
10081TIP3   OH230187   1.126   6.036   6.081 -0.3071  0.6692  0.1624
10081TIP3    H130188   1.070   6.103   6.121  0.7374  1.1078  0.9343
10081TIP3    H230189   1.105   5.955   6.127  1.1698  1.2446  1.9452
10082TIP3   OH230190   4.022   5.272   1.876 -0.1970  0.7273  0.1725
10082TIP3    H130191   3.958   5.268   1.806  0.0337  1.0435 -0.0576
10082TIP3    H230192   4.004   5.354   1.922 -0.1512  0.6703  0.2949
10083TIP3   OH230193   6.105   5.003   5.008  0.4815 -0.1480  0.6216
10083TIP3    H130194   6.037   5.018   4.943 -0.2314 -1.6731  0.9661
10083TIP3    H230195   6.061   4.956   5.079  1.0748  2.1004  2.5822
10084TIP3   OH230196   4.481   0.448   4.084 -0.2271 -0.4018 -0.0033
10084TIP3    H130197   4.557   0.488   4.040 -0.0425 -1.2100 -0.4467
10084TIP3    H230198   4.407   0.501   4.056  0.1030  0.0641 -0.0098
10085TIP3   OH230199   6.994   2.326   3.658 -0.1771 -0.0449 -0.1571
10085TIP3    H130200   7.012   2.420   3.656  3.8659 -0.6388 -0.4576
10085TIP3    H230201   7.062   2.290   3.715 -1.2572 -2.8935 -0.4941
10086TIP3   OH230202   0.709   1.667   5.245 -0.2944 -0.3230  0.4989
10086TIP3    H130203   0.614   1.663   5.232 -0.2876 -0.1804  0.4025
10086TIP3    H230204   0.743   1.594   5.193 -0.3538 -0.3890  0.5532
10087TIP3   OH230205   0.625   6.162   0.554  0.3279  0.3680  0.2935
10087TIP3    H130206   0.536   6.150   0.519 -0.0606  1.6720  0.7590
10087TIP3    H230207   0.680   6.175   0.477  0.3291 -1.5224 -0.0670
10088TIP3   OH230208   6.467   5.328   5.533  0.2326  0.4770  0.3253
10088TIP3    H130209   6.508   5.241   5.537 -0.4781  0.0584 -1.0163
10088TIP3    H230210   6.541   5.388   5.533  0.8479 -0.2302 -0.8730
10089TIP3   OH230211   3.157   1.960   1.623  0.3108  0.4069 -0.0925
10089TIP3    H130212   3.121   1.915   1.700  0.0884 -0.8676 -0.9243
10089TIP3    H230213   3.156   1.895   1.554 -0.0587  1.7129 -1.3639
10090TIP3   OH230214   4.618   5.406   5.948  0.0681  0.3666 -0.2054
10090TIP3    H130215   4.634   5.488   5.902  0.0887  0.3292 -0.2653
10090TIP3    H230216   4.534   5.375   5.914 -0.1208  0.5509  0.0910
10091TIP3   OH230217   5.188   1.783   5.971  0.1193 -0.0749  0.3206
10091TIP3    H130218   5.133   1.852   6.008 -1.0061 -0.9297  0.2947
10091TIP3    H230219   5.253   1.764   6.039  1.6584  2.2447 -0.3600
10092TIP3   OH230220   5.509   5.666   6.158  0.4361  0.2159 -0.5660
10092TIP3    H130221   5.454   5.661   6.079  0.4827  0.8523 -0.6407
10092TIP3    H230222   5.543   5.577   6.169  1.1865  0.3303 -1.8036
10093TIP3   OH230223   1.010   0.991   1.288  0.0841 -0.2278 -0.4253
10093TIP3    H130224   1.054   1.029   1.212  0.9704 -0.6446 -0.1428
10093TIP3    H230225   0.941   1.054   1.310  0.2415  0.2160 -1.1736
10094TIP3   OH230226   1.972   7.704   2.626  0.2007  0.1513 -0.3518
10094TIP3    H130227   1.885   7.742   2.634  0.2672  0.0193  1.5689
10094TIP3    H230228   2.032   7.777   2.638  0.3179 -0.2220  1.8683
10095TIP3   OH230229   0.303   0.562   2.355  0.2613 -0.4048  0.3500
10095TIP3    H130230   0.348   0.512   2.287 -0.7154 -0.0845 -0.5683
10095TIP3    H230231   0.259   0.632   2.307 -1.1633 -0.6838  1.1927
10096TIP3   OH230232   6.408   1.164   0.812  0.1763  0.3655 -0.0884
10096TIP3    H130233   6.459   1.100   0.762  1.2392 -0.3918  1.8524
10096TIP3    H230234   6.321   1.162   0.772  0.5734 -1.2763 -0.9491
10097TIP3   OH230235   2.062   7.528   2.255  0.3773  0.5027 -0.4075
10097TIP3    H130236   2.099   7.498   2.173  1.0858  0.7144 -0.1712
10097TIP3    H230237   2.136   7.532   2.315  0.5285  3.4594 -0.6280
10098TIP3   OH230238   5.979   0.564   6.070  0.0591  0.9048 -0.1126
10098TIP3    H130239   6.045   0.522   6.016 -0.1771 -1.4048  1.2630
10098TIP3    H230240   6.017   0.568   6.157 -1.7111 -0.9416  0.8302
10099TIP3   OH230241   6.752   1.673   5.830  0.5820  0.1410 -0.2182
10099TIP3    H130242   6.693   1.748   5.841  1.4910  0.8963 -0.3863
10099TIP3    H230243   6.834   1.701   5.871  1.0063 -0.6703 -0.5012
10100TIP3   OH230244   3.333   0.907   5.434  0.1726  0.1613 -0.5348
10100TIP3    H130245   3.306   0.941   5.520  1.0033  0.3347 -0.3327
10100TIP3    H230246   3.251   0.882   5.392 -0.5095  2.4387 -0.6939
10101TIP3   OH230247   0.181   1.067   4.766 -0.2918  0.2498  0.3311
10101TIP3    H130248   0.235   1.101   4.694 -0.7793 -0.7398 -0.5262
10101TIP3    H230249   0.202   0.973   4.769 -1.3313  0.0170  0.5344
10102TIP3   OH230250   3.656   1.371   2.693  0.4803  0.1973 -0.4879
10102TIP3    H130251   3.651   1.275   2.688 -1.2954  0.2900 -2.0025
10102TIP3    H230252   3.564   1.399   2.693  0.9737  1.9087 -0.3419
10103TIP3   OH230253   2.861   6.743   3.137 -0.5629  0.1602  0.4520
10103TIP3    H130254   2.878   6.721   3.045  0.3727 -0.2911  0.7221
10103TIP3    H230255   2.943   6.722   3.183 -0.7913  1.0116  1.2878
10104TIP3   OH230256   7.440   4.209   5.015  0.0318 -0.4207  0.0054
10104TIP3    H130257   7.466   4.298   4.992  0.0783 -0.9568 -2.2594
10104TIP3    H230258   7.476   4.155   4.945 -1.4749 -2.0211  0.4074
10105TIP3   OH230259   5.001   1.481   0.552  0.8699 -0.1943  0.3037
10105TIP3    H130260   4.942   1.415   0.516  0.6279  0.2717 -0.1705
10105TIP3    H230261   4.993   1.471   0.647 -1.7185  1.3275  0.3405
10106TIP3   OH230262   6.892   2.639   1.544 -0.8875  0.4420 -0.6047
10106TIP3    H130263   6.924   2.645   1.454  2.1863  0.7195  0.4010
10106TIP3    H230264   6.906   2.726   1.581  0.3469 -0.3096  0.8292
10107TIP3   OH230265   3.104   5.703   5.265  0.2227 -0.2819 -0.2579
10107TIP3    H130266   3.068   5.615   5.275  1.2964 -0.6023  0.9514
10107TIP3    H230267   3.028   5.761   5.278  0.1188 -0.9271  2.6213
10108TIP3   OH230268   6.050   5.537   5.773 -0.3251  0.2612 -0.0755
10108TIP3    H130269   5.984   5.600   5.744 -0.0158  1.9132  2.5633
10108TIP3    H230270   6.051   5.545   5.868  2.1249 -1.3408  0.1044
10109TIP3   OH230271   4.541   3.667   1.325 -0.0684 -0.2619  0.5302
10109TIP3    H130272   4.495   3.622   1.396  0.3582  0.4565  1.2828
10109TIP3    H230273   4.584   3.742   1.368 -0.2246  0.4829 -0.5677
10110TIP3   OH230274   2.401   0.470   0.014  0.0450  0.1460  0.3943
10110TIP3    H130275   2.311   0.501   0.013  0.3456  1.0566 -1.1090
10110TIP3    H230276   2.429   0.479   0.105 -1.3464 -0.1047  0.8679
10111TIP3   OH230277   7.157   7.204   5.447 -0.2521  0.1089 -0.1167
10111TIP3    H130278   7.168   7.195   5.542  0.0979 -1.2468 -0.2610
10111TIP3    H230279   7.222   7.269   5.422 -0.6003  0.7567  0.6174
10112TIP3   OH230280   5.832   3.941   5.778  0.3196 -0.4514  0.1914
10112TIP3    H130281   5.848   3.952   5.684  0.7080 -0.3665  0.2638
10112TIP3    H230282   5.751   3.892   5.783  1.2002 -1.9979 -0.2258
10113TIP3   OH230283   8.019   4.712   1.691  0.4536  0.0812  0.4044
10113TIP3    H130284   7.981   4.674   1.770  0.0720  0.0410  0.1999
10113TIP3    H230285   7.962   4.786   1.669  1.1815  0.7745  0.7857
10114TIP3   OH230286   0.388   0.559   3.710 -0.1146 -0.5549  0.0216
10114TIP3    H130287   0.444   0.581   3.635 -1.1711  0.6056 -0.4687
10114TIP3    H230288   0.360   0.645   3.744 -0.7753 -1.0952  0.8771
10115TIP3   OH230289   1.151   6.324   1.206 -0.1524 -0.2892 -0.2399
10115TIP3    H130290   1.135   6.358   1.294 -0.9074 -0.6110 -0.2473
10115TIP3    H230291   1.237   6.280   1.213  1.8195  3.1587 -0.7141
10116TIP3   OH230292   6.031   2.406   4.946  0.1063 -0.1688 -0.1024
10116TIP3    H130293   6.072   2.491   4.930  0.8393 -0.5958 -0.5658
10116TIP3    H230294   6.054   2.385   5.036  2.1513 -1.0417 -0.7776
10117TIP3   OH230295   7.037   4.329   6.630  1.0812 -0.0215  0.1206
10117TIP3    H130296   6.950   4.337   6.591  0.4002 -1.1648  1.3358
10117TIP3    H230297   7.080   4.412   6.608  0.2635 -0.0587 -1.8373
10118TIP3   OH230298   6.317   5.668   1.051 -0.1306  0.6921 -0.0996
10118TIP3    H130299   6.338   5.601   1.115  1.3803 -2.4917 -3.5797
10118TIP3    H230300   6.225   5.690   1.068 -0.3206 -1.3554  1.9318
10119TIP3   OH230301   4.259   0.431   0.360  0.0768 -0.6773 -1.1811
10119TIP3    H130302   4.189   0.369   0.380 -1.4734  1.1418 -0.6678
10119TIP3    H230303   4.218   0.495   0.302  0.9603  1.1111  0.0999
10120TIP3   OH230304   4.087   3.125   2.935 -0.3651  0.0074 -0.4409
10120TIP3    H130305   3.998   3.129   2.900  0.2983 -0.2343 -2.3032
10120TIP3    H230306   4.117   3.037   2.913  0.3529  0.1109  0.0938
10121TIP3   OH230307   7.846   2.371   5.720 -0.1151  0.8688 -0.1832
10121TIP3    H130308   7.857   2.314   5.644  0.7231  0.1378  0.4618
10121TIP3    H230309   7.910   2.338   5.784 -0.6423  1.6061  0.7504
10122TIP3   OH230310   5.091   3.663   5.115  0.6095  0.0936 -0.1815
10122TIP3    H130311   5.076   3.753   5.144  1.8293  0.4078 -0.4460
10122TIP3    H230312   5.071   3.664   5.022  2.4471  0.6028 -0.6152
10123TIP3   OH230313   6.232   0.498   1.776  0.1564 -0.4444  0.1076
10123TIP3    H130314   6.174   0.422   1.774  0.4055 -0.6453  0.4377
10123TIP3    H230315   6.320   0.462   1.764  0.4071 -0.3538  1.4469
10124TIP3   OH230316   1.952   0.579   1.378 -0.3263  0.2627 -0.8347
10124TIP3    H130317   1.961   0.491   1.342  1.0960  0.2381 -0.5019
10124TIP3    H230318   1.884   0.572   1.444 -0.4196 -0.5199 -1.0152
10125TIP3   OH230319   0.033   5.059   4.500  0.1131  0.2979  0.2745
10125TIP3    H130320   0.068   5.041   4.413  1.7096  0.6031  0.8114
10125TIP3    H230321   0.004   4.974   4.532  1.7794 -0.2827  0.3595
10126TIP3   OH230322   7.501   5.650   2.145  0.0210 -0.9164 -0.0993
10126TIP3    H130323   7.423   5.665   2.198  0.4411 -0.6321  0.4560
10126TIP3    H230324   7.509   5.554   2.141  1.0660 -0.9756  2.0249
10127TIP3   OH230325   5.034   4.825   3.402 -0.0686 -0.0885  0.8624
10127TIP3    H130326   5.108   4.772   3.371  0.8538  0.5867  1.8286
10127TIP3    H230327   5.037   4.904   3.347  0.6310  0.4269  1.6074
10128TIP3   OH230328   3.937   3.506   0.717 -0.6873  0.6340 -0.1977
10128TIP3    H130329   3.857   3.511   0.770  0.4151 -0.3450  1.6938
10128TIP3    H230330   3.988   3.437   0.759  1.3923  1.6134 -1.0066
10129TIP3   OH230331   5.972   3.332   4.699  0.0220 -0.0180 -0.5041
10129TIP3    H130332   6.025   3.260   4.733 -1.5102  0.0935  2.4807
10129TIP3    H230333   6.022   3.411   4.720  0.5761 -0.0813 -1.5460
10130TIP3   OH230334   2.998   4.278   6.693 -0.1613  0.5144 -0.0797
10130TIP3    H130335   3.017   4.350   6.633 -0.5689  0.1552 -0.6546
10130TIP3    H230336   2.910   4.249   6.669  0.9458 -1.8952 -1.6841
10131TIP3   OH230337   6.687   7.068   5.148  0.2211  0.1774  0.1709
10131TIP3    H130338   6.609   7.123   5.154 -0.7945 -0.8850 -1.9641
10131TIP3    H230339   6.752   7.124   5.104 -0.1033  0.3713 -0.0704
10132TIP3   OH230340   0.180   4.532   4.374 -0.1451 -0.1336  0.3090
10132TIP3    H130341   0.134   4.472   4.316  0.0196 -0.2997  0.3512
10132TIP3    H230342   0.144   4.514   4.461  1.6690 -1.9240  0.7417
10133TIP3   OH230343   1.891   3.002   3.909  0.0460 -0.0590  0.2280
10133TIP3    H130344   1.905   2.917   3.952  0.0316  0.7464  1.9095
10133TIP3    H230345   1.804   3.030   3.938 -0.6656 -0.1812 -1.6377
10134TIP3   OH230346   1.024   7.022   6.160 -0.1855 -0.1327  0.6882
10134TIP3    H130347   0.956   7.056   6.102  0.0281 -1.2676 -0.2542
10134TIP3    H230348   1.061   7.101   6.201 -2.0289  0.4994  1.2057
10135TIP3   OH230349   5.021   2.323   2.669 -0.0359 -0.3588 -0.0471
10135TIP3    H130350   4.955   2.326   2.739  0.5939 -0.5849  0.5773
10135TIP3    H230351   4.975   2.354   2.591 -0.4851  0.8946  0.6804
10136TIP3   OH230352   6.809   5.029   3.723  0.0345 -0.4199 -0.5249
10136TIP3    H130353   6.801   5.095   3.791 -0.1131  0.3978 -1.3217
10136TIP3    H230354   6.900   5.036   3.693  0.4793 -1.6683  0.4622
10137TIP3   OH230355   5.884   0.556   1.076 -0.6283  0.1991 -0.4521
10137TIP3    H130356   5.919   0.638   1.041  1.1122  0.5722  1.8686
10137TIP3    H230357   5.795   0.577   1.104 -0.0663  1.4892  0.4926
10138TIP3   OH230358   6.146   4.349   6.455 -0.3474  0.4745  0.3607
10138TIP3    H130359   6.051   4.334   6.460 -0.3594  0.3675 -0.1408
10138TIP3    H230360   6.168   4.330   6.364  0.2619 -0.1267  0.6282
10139TIP3   OH230361   5.796   1.339   5.194  0.1975 -0.2451  0.0883
10139TIP3    H130362   5.802   1.278   5.267 -0.8020  0.5941  0.9094
10139TIP3    H230363   5.762   1.287   5.122  0.3576 -0.8848  0.4611
10140TIP3   OH230364   2.224   6.279   5.590 -0.2800  0.0155  0.4313
10140TIP3    H130365   2.141   6.318   5.618 -0.5397 -0.4046  0.2609
10140TIP3    H230366   2.216   6.187   5.613  0.0189 -0.0869  0.1379
10141TIP3   OH230367   5.501   0.777   6.639 -0.0290  0.3529  0.2826
10141TIP3    H130368   5.589   0.741   6.642  0.8498  2.4247  0.6224
10141TIP3    H230369   5.509   0.859   6.591 -1.9062  0.2776 -0.2662
10142TIP3   OH230370   6.476   4.551   1.704 -0.3759  0.0111 -0.1247
10142TIP3    H130371   6.438   4.485   1.646  1.0264 -0.4839 -0.5350
10142TIP3    H230372   6.424   4.629   1.690 -1.9920 -0.9492  0.2631
10143TIP3   OH230373   5.004   0.079   6.279  0.3416  0.0592  0.0343
10143TIP3    H130374   4.928   0.135   6.266 -0.7558 -0.5057  3.0829
10143TIP3    H230375   4.982  -0.004   6.237 -0.2657  0.2526 -0.0301
10144TIP3   OH230376   6.330   1.742   2.707  0.1633 -0.8976  0.4276
10144TIP3    H130377   6.262   1.705   2.651  2.3474 -0.4132 -2.8361
10144TIP3    H230378   6.409   1.694   2.683  1.6528  0.8723  1.5391
10145TIP3   OH230379   0.510   6.613   2.681  0.1454 -0.0731  0.1136
10145TIP3    H130380   0.515   6.694   2.631 -0.2961 -0.0350  0.1253
10145TIP3    H230381   0.453   6.556   2.629 -1.6254  0.5278  1.2981
10146TIP3   OH230382   1.331   7.051   6.463 -0.2412  0.7605 -0.1728
10146TIP3    H130383   1.414   7.004   6.471 -1.1667 -0.9434 -0.1134
10146TIP3    H230384   1.321   7.066   6.369 -0.7863 -0.8227 -0.3911
10147TIP3   OH230385   3.129   3.310   2.040  0.1698 -0.1155 -0.5628
10147TIP3    H130386   3.215   3.347   2.021  0.4665 -0.7451 -0.4851
10147TIP3    H230387   3.069   3.361   1.986  0.1889  2.2684  1.4983
10148TIP3   OH230388   0.190   6.947   2.105 -0.0772  0.4592  0.2612
10148TIP3    H130389   0.272   6.902   2.086 -1.5159 -2.3558  0.2665
10148TIP3    H230390   0.132   6.880   2.141 -2.5042  2.2519  0.0360
10149TIP3   OH230391   7.081   6.004   0.498 -0.6688  0.3314 -0.1784
10149TIP3    H130392   7.173   6.030   0.491 -0.8423  1.2604  0.8265
10149TIP3    H230393   7.082   5.910   0.479  0.8680 -0.2562  2.3403
10150TIP3   OH230394   0.005   0.700   1.759 -0.1260  0.1688 -0.4613
10150TIP3    H130395   0.017   0.772   1.698  1.1777 -0.1603 -0.6113
10150TIP3    H230396   0.060   0.723   1.834  1.5112 -1.3611 -1.1378
10151TIP3   OH230397   1.083   4.951   6.162 -0.5385  0.3871 -0.2933
10151TIP3    H130398   1.038   5.001   6.094 -0.8205  2.3182  1.2316
10151TIP3    H230399   1.025   4.956   6.238  0.1500 -1.0163  0.3613
10152TIP3   OH230400   3.666   5.884   0.232  0.8223 -0.3029  0.1936
10152TIP3    H130401   3.616   5.821   0.181 -0.0164 -2.2980  3.2027
10152TIP3    H230402   3.611   5.903   0.308  1.7386  2.9397  0.1843
10153TIP3   OH230403   4.823   0.962   4.931 -0.1026 -0.0063  0.5278
10153TIP3    H130404   4.851   1.018   5.004 -0.3435 -0.8110  1.2518
10153TIP3    H230405   4.814   1.022   4.857  1.0325  0.6794  0.9279
10154TIP3   OH230406   4.498   2.618   2.570  0.3557  0.2031 -0.1780
10154TIP3    H130407   4.493   2.539   2.623 -1.6324  0.4177  0.0343
10154TIP3    H230408   4.591   2.633   2.556  0.8670 -0.6563  2.0559
10155TIP3   OH230409   2.231   6.260   4.593 -0.6632  0.4976 -0.0489
10155TIP3    H130410   2.232   6.356   4.600  0.8128  0.5305 -0.3687
10155TIP3    H230411   2.265   6.230   4.678  1.5893  0.3874 -0.9151
10156TIP3   OH230412   6.448   1.347   0.079  0.0551  0.0250  0.7372
10156TIP3    H130413   6.378   1.338   0.014  0.0217  0.1614  0.7549
10156TIP3    H230414   6.429   1.279   0.144  1.2394 -1.5062 -0.4420
10157TIP3   OH230415   5.630   4.289   5.189  0.2003  0.4479 -0.0634
10157TIP3    H130416   5.555   4.348   5.186 -0.0571  0.1060 -0.4812
10157TIP3    H230417   5.595   4.207   5.223  0.4630  0.3999  0.0950
10158TIP3   OH230418   1.763   3.855   3.594 -0.5266 -0.1560  0.5857
10158TIP3    H130419   1.831   3.898   3.647  0.2802 -0.3631 -0.2651
10158TIP3    H230420   1.706   3.927   3.566  0.0428  0.1759  0.2845
10159TIP3   OH230421   3.241   2.448   5.758 -0.1166  0.1372  0.5335
10159TIP3    H130422   3.232   2.354   5.774  1.0462 -0.0707  0.0675
10159TIP3    H230423   3.190   2.464   5.678 -0.0163 -0.1756  0.4061
10160TIP3   OH230424   6.953   0.776   5.088 -0.6540 -0.1211 -0.6810
10160TIP3    H130425   6.873   0.724   5.085 -0.3821 -0.6134  0.2958
10160TIP3    H230426   7.024   0.712   5.088 -0.3030  0.2570  0.0139
10161TIP3   OH230427   6.277   5.164   3.757 -0.1045  0.3334 -0.1092
10161TIP3    H130428   6.347   5.099   3.753 -0.2529  0.1998 -0.8223
10161TIP3    H230429   6.239   5.163   3.669 -0.4355  1.0303  0.0186
10162TIP3   OH230430   2.442   4.578   5.559  0.2643 -0.0713 -0.0396
10162TIP3    H130431   2.400   4.657   5.593  1.6909  1.1142 -0.9263
10162TIP3    H230432   2.369   4.519   5.539 -0.8404  1.0418  0.5731
10163TIP3   OH230433   0.525   1.277   4.992 -0.2176 -0.3624  0.1088
10163TIP3    H130434   0.562   1.218   5.058  1.5777 -1.3854 -1.7049
10163TIP3    H230435   0.594   1.340   4.974 -1.5289  1.3709  0.8185
10164TIP3   OH230436   6.332   6.160   4.333  0.3602 -0.3940  0.2408
10164TIP3    H130437   6.239   6.138   4.325  0.5227 -1.1515  0.3855
10164TIP3    H230438   6.345   6.177   4.426 -0.2953  2.8425 -0.1429
10165TIP3   OH230439   2.738   1.377   6.138 -0.1587 -0.4168  0.6634
10165TIP3    H130440   2.745   1.324   6.216 -2.5942  0.0545  1.2753
10165TIP3    H230441   2.775   1.462   6.163  0.1215 -0.6172  0.9282
10166TIP3   OH230442   0.623   0.692   3.205  0.3357  0.1141 -0.1246
10166TIP3    H130443   0.641   0.610   3.251 -0.7067  0.1747  0.4173
10166TIP3    H230444   0.530   0.687   3.182  0.6032  0.5136 -1.3925
10167TIP3   OH230445   1.285   5.621   3.162 -0.0111  0.2131 -0.3536
10167TIP3    H130446   1.190   5.613   3.177  0.0808  0.0298  0.1274
10167TIP3    H230447   1.313   5.534   3.136 -0.2174  0.5868 -1.9178
10168TIP3   OH230448   2.897   2.112   6.621 -0.2021  0.1570 -0.1899
10168TIP3    H130449   2.984   2.143   6.644 -0.2261 -0.0573  0.2182
10168TIP3    H230450   2.838   2.179   6.655 -0.1490  1.0630 -1.7973
10169TIP3   OH230451   3.708   6.706   2.129 -0.3502 -0.1659  0.4981
10169TIP3    H130452   3.799   6.731   2.146 -0.2845 -0.5926  0.7916
10169TIP3    H230453   3.713   6.646   2.055 -0.3933 -0.2004  0.5230
10170TIP3   OH230454   2.639   1.295   0.775 -0.0507  0.4536  0.4054
10170TIP3    H130455   2.677   1.383   0.785  0.9507  0.2564 -1.2805
10170TIP3    H230456   2.545   1.308   0.789  0.1317  1.7171  0.5897
10171TIP3   OH230457   6.146   7.329   5.087 -0.5322 -0.3961  0.1378
10171TIP3    H130458   6.141   7.238   5.115  0.4757 -0.6247 -0.3763
10171TIP3    H230459   6.178   7.377   5.164 -0.4315 -0.5854  0.2132
10172TIP3   OH230460   2.193   2.522   1.831  0.0390 -0.0285 -0.2902
10172TIP3    H130461   2.183   2.488   1.742  0.2692 -2.1263  0.4347
10172TIP3    H230462   2.104   2.547   1.857 -0.5309 -2.0210 -0.1571
10173TIP3   OH230463   8.315   0.033   5.465 -0.1575 -0.4828 -0.2088
10173TIP3    H130464   8.272  -0.021   5.398 -0.0092 -0.5170 -0.2786
10173TIP3    H230465   8.290   0.123   5.444  1.5829 -0.2611 -1.6071
10174TIP3   OH230466   6.623   6.242   5.995  0.9523  0.1643 -0.2880
10174TIP3    H130467   6.584   6.302   5.932 -0.9208 -0.7095 -0.0310
10174TIP3    H230468   6.623   6.157   5.951  2.3578  0.0870 -0.1707
10175TIP3   OH230469   5.090   0.788   4.478  0.1804  0.1353  0.0142
10175TIP3    H130470   5.135   0.766   4.396 -0.9165 -0.6389 -0.4020
10175TIP3    H230471   5.131   0.871   4.506  1.6418 -0.3818 -0.4846
10176TIP3   OH230472   3.573   6.312   1.007  0.5856  0.2296 -0.0510
10176TIP3    H130473   3.644   6.312   1.070 -0.8261  0.8417  1.6382
10176TIP3    H230474   3.584   6.392   0.957  1.1730  0.2210  0.0624
10177TIP3   OH230475   2.247   3.976   6.505 -0.6306 -0.0090  0.2512
10177TIP3    H130476   2.225   3.974   6.598  2.4902 -0.9563  1.0992
10177TIP3    H230477   2.269   4.068   6.488 -2.1750  0.3667  0.1208
10178TIP3   OH230478   5.210   7.663   3.654  0.3507 -0.2408 -0.3493
10178TIP3    H130479   5.155   7.591   3.685 -0.9172  0.8216 -0.0384
10178TIP3    H230480   5.274   7.676   3.725 -0.3856 -0.0693  0.2973
10179TIP3   OH230481   6.261   6.219   3.421 -0.1186 -0.2488 -0.0213
10179TIP3    H130482   6.254   6.282   3.349  0.4406 -0.6554 -0.4492
10179TIP3    H230483   6.349   6.232   3.456 -0.2833 -0.2554  0.3924
10180TIP3   OH230484   0.978   2.122   6.545  0.0873 -0.2203 -0.0734
10180TIP3    H130485   1.008   2.196   6.598  0.5858 -0.7853  0.4592
10180TIP3    H230486   0.920   2.073   6.603 -1.3837  0.4979 -0.8839
10181TIP3   OH230487   6.918   6.195   3.512 -0.2319 -0.3894 -0.3166
10181TIP3    H130488   6.880   6.235   3.433  0.5460 -0.8865 -0.9619
10181TIP3    H230489   6.951   6.269   3.562 -0.7121 -0.0677 -0.4600
10182TIP3   OH230490   5.304   7.480   0.432  0.3165 -0.1338 -0.3049
10182TIP3    H130491   5.351   7.404   0.465 -0.9209  0.0564  2.1390
10182TIP3    H230492   5.354   7.555   0.465  0.0524  0.0758 -0.3794
10183TIP3   OH230493   4.753   2.479   3.018 -0.1270  0.2103  0.2063
10183TIP3    H130494   4.833   2.527   2.995 -0.6558 -1.1572 -6.5355
10183TIP3    H230495   4.774   2.387   2.999 -2.4129 -0.6980  1.6535
10184TIP3   OH230496   2.825   3.756   4.400 -0.1350 -0.2261  0.0267
10184TIP3    H130497   2.887   3.737   4.470 -0.2060 -1.5868 -0.2500
10184TIP3    H230498   2.780   3.673   4.385 -0.0011 -0.0255 -1.7348
10185TIP3   OH230499   7.653   1.710   4.118 -0.4349  0.1910  0.1450
10185TIP3    H130500   7.565   1.724   4.082  0.0285  2.3012 -0.3318
10185TIP3    H230501   7.705   1.781   4.080  0.8385  0.6419  2.5691
10186TIP3   OH230502   4.526   6.629   2.124 -0.2528  0.3037 -0.6725
10186TIP3    H130503   4.611   6.656   2.159 -0.4991 -0.0288  0.2114
10186TIP3    H230504   4.537   6.536   2.102 -0.9447 -0.2892  1.3257
10187TIP3   OH230505   0.754   5.710   2.670 -0.3235  0.1338 -0.1475
10187TIP3    H130506   0.830   5.677   2.622 -0.3996 -0.5874  0.2172
10187TIP3    H230507   0.697   5.746   2.603  0.4895  1.0019 -0.3968
10188TIP3   OH230508   6.622   6.750   1.836  0.0287  0.1998 -0.4859
10188TIP3    H130509   6.536   6.732   1.875  0.1598 -0.9382 -0.6948
10188TIP3    H230510   6.620   6.704   1.752  0.5800  0.7671 -0.8131
10189TIP3   OH230511   3.062   1.283   3.226 -0.0373  0.1255 -0.6827
10189TIP3    H130512   3.108   1.344   3.168  0.1529 -1.2826 -2.1004
10189TIP3    H230513   3.127   1.257   3.291  0.1772  0.6459 -0.6862
10190TIP3   OH230514   6.411   2.806   4.609 -0.0530  0.3062  0.2350
10190TIP3    H130515   6.460   2.795   4.691 -1.6090 -1.4386  1.0223
10190TIP3    H230516   6.440   2.734   4.554 -0.5020  0.2489  0.0682
10191TIP3   OH230517   7.149   4.778   6.338 -0.1569 -0.1473 -0.1054
10191TIP3    H130518   7.237   4.754   6.366 -0.7614 -1.3056  0.8725
10191TIP3    H230519   7.105   4.694   6.325 -1.2361  0.4235 -0.1775
10192TIP3   OH230520   1.331   1.883   3.741 -0.1267 -0.1613 -0.0021
10192TIP3    H130521   1.362   1.853   3.827 -0.4432  0.3535  0.2945
10192TIP3    H230522   1.370   1.969   3.731  0.5250 -0.5287 -0.7169
10193TIP3   OH230523   4.553   1.602   3.730  0.5458 -0.1855  0.1087
10193TIP3    H130524   4.630   1.573   3.680  1.3120  1.3597  0.3325
10193TIP3    H230525   4.582   1.681   3.775 -0.8433 -0.2298  1.1488
10194TIP3   OH230526   0.149   2.049   1.017  0.5458  0.6361 -0.2186
10194TIP3    H130527   0.189   2.112   1.078 -2.6852 -0.2994  3.2642
10194TIP3    H230528   0.093   2.103   0.961 -0.8159  1.1914  1.5600
10195TIP3   OH230529   4.929   7.688   1.780 -0.6788  0.3159  0.4296
10195TIP3    H130530   4.882   7.737   1.713 -0.4136  0.9732  0.7199
10195TIP3    H230531   4.914   7.736   1.861 -1.7274 -0.9480  1.0308
10196TIP3   OH230532   2.643   3.106   4.131  0.2704  0.1445 -0.1545
10196TIP3    H130533   2.570   3.165   4.115 -0.5427 -0.6520  0.4827
10196TIP3    H230534   2.621   3.027   4.081  0.8634  0.0261 -0.2291
10197TIP3   OH230535   3.348   5.959   6.683  0.1794  0.0602  0.1943
10197TIP3    H130536   3.431   6.005   6.698  0.5991 -0.6403  0.0640
10197TIP3    H230537   3.355   5.926   6.593 -0.3101  0.1232  0.1306
10198TIP3   OH230538   5.541   4.998   4.798 -0.0616 -0.7614  0.0804
10198TIP3    H130539   5.471   4.943   4.764  2.0731 -2.4160 -2.0343
10198TIP3    H230540   5.564   5.055   4.725  1.9079 -1.4882  0.0758
10199TIP3   OH230541   4.691   2.530   0.413 -0.4537  0.2237 -0.0032
10199TIP3    H130542   4.662   2.620   0.432 -1.3136 -0.1297  0.3923
10199TIP3    H230543   4.621   2.493   0.360 -0.6633 -0.5791  0.8056
10200TIP3   OH230544   4.935   4.539   0.238 -0.1883 -0.2293 -0.4321
10200TIP3    H130545   5.019   4.575   0.209  0.7062 -1.0484  0.9835
10200TIP3    H230546   4.878   4.545   0.162  1.4828 -0.6716 -1.7759
10201TIP3   OH230547   1.141   3.903   4.127 -0.2594 -0.0902 -0.1275
10201TIP3    H130548   1.058   3.868   4.094  0.5228 -1.3741 -0.8227
10201TIP3    H230549   1.180   3.949   4.052 -0.4675  0.7954  0.2871
10202TIP3   OH230550   6.538   4.017   4.071 -0.9699  0.5899  0.6071
10202TIP3    H130551   6.606   3.972   4.122 -0.4938  0.4365 -0.1386
10202TIP3    H230552   6.549   4.109   4.092  0.6057  0.7648 -0.7718
10203TIP3   OH230553   7.673   2.825   2.865 -0.5223  0.2259  0.6486
10203TIP3    H130554   7.736   2.822   2.938 -0.0516 -0.0513  0.2324
10203TIP3    H230555   7.647   2.917   2.861  1.2517  0.7260 -0.3347
10204TIP3   OH230556   3.035   2.841   1.336 -0.4181  0.1666 -0.7382
10204TIP3    H130557   3.015   2.848   1.430  0.2999  0.8282 -0.6230
10204TIP3    H230558   3.113   2.787   1.332  0.4925  1.4328 -0.8161
10205TIP3   OH230559   6.993   7.754   2.647 -0.0048  0.2315  0.1510
10205TIP3    H130560   6.966   7.731   2.558 -0.5677  0.4710  0.2565
10205TIP3    H230561   6.911   7.769   2.694  0.2650 -0.5597  0.8921
10206TIP3   OH230562   1.084   3.070   0.937  0.5055 -0.1503  0.0264
10206TIP3    H130563   1.090   3.140   0.872 -1.0493  0.2978  0.3112
10206TIP3    H230564   1.086   3.116   1.021  0.6183 -0.5509  0.2428
10207TIP3   OH230565   5.668   1.279   0.035  0.2986 -0.0908 -0.3299
10207TIP3    H130566   5.713   1.196   0.052  1.2327 -0.0165 -2.1302
10207TIP3    H230567   5.730   1.346   0.060  0.2317  0.0393 -0.5085
10208TIP3   OH230568   7.836   0.965   5.555  0.1038 -0.0195  0.0576
10208TIP3    H130569   7.826   0.870   5.563 -1.5449  0.1163  0.0262
10208TIP3    H230570   7.750   0.996   5.525  0.6552  1.4667 -0.0942
10209TIP3   OH230571   5.829   2.589   6.187 -0.4137 -0.1275 -0.0016
10209TIP3    H130572   5.812   2.647   6.261  1.2314  1.2639 -0.6663
10209TIP3    H230573   5.787   2.633   6.112  1.2513  0.5332 -0.6003
10210TIP3   OH230574   4.729   2.507   5.701 -0.7063  0.0219  0.3395
10210TIP3    H130575   4.685   2.436   5.747  0.4810 -2.0052 -1.4483
10210TIP3    H230576   4.673   2.524   5.625  1.1645 -2.3320 -1.7558
10211TIP3   OH230577   6.767   5.050   6.638  0.1303  0.7001 -0.1787
10211TIP3    H130578   6.680   5.051   6.598  0.0195 -1.2417 -0.0784
10211TIP3    H230579   6.827   5.066   6.565 -0.1092 -2.1280 -1.1121
10212TIP3   OH230580   3.602   1.307   6.084  0.5925  0.1002 -0.4431
10212TIP3    H130581   3.653   1.228   6.066  0.7425 -0.1538  0.9946
10212TIP3    H230582   3.562   1.291   6.170  0.5532  1.5395 -0.1682
10213TIP3   OH230583   4.780   5.915   4.444 -0.2423 -0.0962  0.2201
10213TIP3    H130584   4.703   5.859   4.429 -0.8863  0.4852  1.2514
10213TIP3    H230585   4.743   5.999   4.470  0.7542  0.3064  0.3434
10214TIP3   OH230586   8.104   0.745   5.003 -0.4092  0.6049  0.2756
10214TIP3    H130587   8.156   0.759   4.924 -1.4092 -0.8888 -0.7055
10214TIP3    H230588   8.014   0.763   4.976 -0.5275  2.7899  1.8464
10215TIP3   OH230589   6.524   2.829   4.301 -0.4601  0.1334  0.2763
10215TIP3    H130590   6.436   2.795   4.315 -1.0467  1.4698  0.0167
10215TIP3    H230591   6.518   2.921   4.329  0.4950  0.5962 -0.9629
10216TIP3   OH230592   3.759   3.352   3.170 -0.1590  0.4494 -0.1569
10216TIP3    H130593   3.816   3.416   3.127 -0.2893  0.3327 -0.5079
10216TIP3    H230594   3.818   3.279   3.192  0.0312  0.7688  0.4317
10217TIP3   OH230595   2.818   6.335   5.554 -0.0809 -0.1037 -0.5064
10217TIP3    H130596   2.848   6.376   5.473  0.1051 -0.0090 -0.3899
10217TIP3    H230597   2.758   6.400   5.593 -1.5979 -0.8759 -1.4558
10218TIP3   OH230598   1.805   3.614   2.139  0.2166  0.2359  0.0472
10218TIP3    H130599   1.752   3.637   2.214  0.9803 -0.0238  0.6832
10218TIP3    H230600   1.748   3.559   2.085  0.0541 -0.6387  1.0676
10219TIP3   OH230601   5.251   3.746   1.792  0.4516  0.5846  0.7517
10219TIP3    H130602   5.315   3.720   1.726 -0.2477 -1.0620  0.6687
10219TIP3    H230603   5.295   3.815   1.842  1.7964  0.3817 -0.1021
10220TIP3   OH230604   2.721   1.004   6.090 -0.2210  0.1766 -0.2745
10220TIP3    H130605   2.656   1.059   6.134 -0.2025  0.7881 -0.9865
10220TIP3    H230606   2.753   1.058   6.017 -0.3277 -0.8393 -1.0975
10221TIP3   OH230607   0.097   3.089   2.239 -0.1583 -0.4628  0.2920
10221TIP3    H130608   0.077   3.175   2.202 -0.3298 -0.2173  0.9574
10221TIP3    H230609   0.159   3.051   2.176  1.4985  0.9384  0.9962
10222TIP3   OH230610   0.440   0.753   1.161  0.2760  0.1630 -0.1512
10222TIP3    H130611   0.440   0.834   1.111  0.8026 -0.5507 -1.3764
10222TIP3    H230612   0.356   0.712   1.140 -1.0855  1.4587  2.3798
10223TIP3   OH230613   4.344   4.373   3.873 -0.5187 -0.4012 -0.6697
10223TIP3    H130614   4.258   4.339   3.895 -1.3781  1.4120 -1.0136
10223TIP3    H230615   4.331   4.420   3.790  0.8627 -0.3469 -0.8857
10224TIP3   OH230616   1.992   1.167   2.866  0.0430  0.3595  0.0964
10224TIP3    H130617   2.060   1.226   2.900 -1.1162  1.6479  0.2286
10224TIP3    H230618   1.970   1.111   2.941 -0.5892  1.4120  0.7277
10225TIP3   OH230619   3.964   7.821   0.857 -0.4774 -0.9864  0.0769
10225TIP3    H130620   4.050   7.842   0.893 -0.6761  0.9164 -0.4508
10225TIP3    H230621   3.982   7.777   0.774 -0.0086 -1.1818  0.2815
10226TIP3   OH230622   3.000   2.623   3.895  0.2130 -0.3430  0.2702
10226TIP3    H130623   3.089   2.659   3.885 -0.0171  0.0600 -0.3726
10226TIP3    H230624   2.972   2.603   3.805 -0.3115 -0.5622  0.4798
10227TIP3   OH230625   6.182   0.148   6.408  0.0943  0.4319 -0.2086
10227TIP3    H130626   6.091   0.166   6.432  0.4870  0.8136  1.0943
10227TIP3    H230627   6.233   0.214   6.455  0.8867  2.0534 -3.1024
10228TIP3   OH230628   0.762   2.473   0.950  0.0259 -0.3089 -0.0289
10228TIP3    H130629   0.699   2.408   0.980 -0.5403  0.4718  0.5144
10228TIP3    H230630   0.721   2.513   0.873  0.1091 -0.1882 -0.0118
10229TIP3   OH230631   1.957   5.750   1.748  0.5703 -0.2941  0.2106
10229TIP3    H130632   2.031   5.793   1.704 -0.0451  1.2958  0.6846
10229TIP3    H230633   1.879   5.789   1.709 -0.0961 -2.4907 -0.8248
10230TIP3   OH230634   5.757   0.296   2.710 -0.1948 -0.3604 -0.4315
10230TIP3    H130635   5.772   0.320   2.618 -1.4741  0.1825 -0.5188
10230TIP3    H230636   5.667   0.264   2.712 -0.1163 -0.5523  0.6114
10231TIP3   OH230637   6.828   1.195   0.087  0.4692 -0.2834  0.1810
10231TIP3    H130638   6.809   1.209   0.179  0.4245 -1.3951  0.3572
10231TIP3    H230639   6.888   1.120   0.086  1.4290  0.4671 -0.6200
10232TIP3   OH230640   0.384   5.336   3.991  0.2834 -0.7423  0.3059
10232TIP3    H130641   0.376   5.307   4.082 -0.1802 -1.9932 -0.1259
10232TIP3    H230642   0.298   5.371   3.969 -0.1767 -2.1357 -0.2101
10233TIP3   OH230643   8.147   7.558   1.604  0.1979 -0.0870 -0.7618
10233TIP3    H130644   8.059   7.593   1.597 -1.0724 -2.5080  1.4056
10233TIP3    H230645   8.177   7.547   1.514 -1.4415  1.3642 -1.5204
10234TIP3   OH230646   8.149   5.503   3.391  0.2393 -0.3279 -0.3090
10234TIP3    H130647   8.054   5.511   3.405  0.3769  2.0974 -0.3237
10234TIP3    H230648   8.183   5.468   3.473 -0.4862  0.4420  0.3323
10235TIP3   OH230649   6.674   7.860   1.385 -0.1947 -0.1422  0.2817
10235TIP3    H130650   6.625   7.832   1.308  0.2348 -0.8523  0.2568
10235TIP3    H230651   6.707   7.779   1.423  0.2589  0.2622  0.7676
10236TIP3   OH230652   2.096   6.038   4.723 -0.4060  0.6833 -0.1962
10236TIP3    H130653   2.084   5.957   4.674 -1.3576  1.1696 -0.8138
10236TIP3    H230654   2.162   6.086   4.673 -0.8143  0.8471 -0.5921
10237TIP3   OH230655   2.393   5.878   4.896  0.4595 -0.3351  0.1526
10237TIP3    H130656   2.299   5.887   4.882  0.4280 -0.0902  0.5014
10237TIP3    H230657   2.402   5.868   4.991  0.8471  0.4529  0.1999
10238TIP3   OH230658   2.504   5.332   5.238  0.0371  0.1942  0.2585
10238TIP3    H130659   2.493   5.258   5.178  1.6200 -0.1109  0.3051
10238TIP3    H230660   2.429   5.388   5.221 -1.0503 -1.2695  0.0023
10239TIP3   OH230661   1.791   1.530   1.766  0.3631 -0.1877 -0.3299
10239TIP3    H130662   1.846   1.496   1.696 -0.3130  1.0936 -1.5313
10239TIP3    H230663   1.846   1.594   1.811  0.3471  0.0109 -0.5892
10240TIP3   OH230664   2.117   1.890   4.139  0.6536  0.0602 -0.8261
10240TIP3    H130665   2.111   1.801   4.102 -1.0748  0.2805 -1.1426
10240TIP3    H230666   2.093   1.948   4.066  1.8543  0.8180 -0.6454
10241TIP3   OH230667   5.578   3.273   3.806  0.1735 -0.2630 -0.6487
10241TIP3    H130668   5.486   3.299   3.816  0.0484 -0.3211 -1.5563
10241TIP3    H230669   5.574   3.187   3.765  0.6355  0.0675 -1.4072
10242TIP3   OH230670   4.168   5.299   0.225 -0.1568 -0.2280  0.2368
10242TIP3    H130671   4.192   5.275   0.135  2.2305  2.6512 -0.0481
10242TIP3    H230672   4.250   5.294   0.274 -0.8002  1.1490  1.5235
10243TIP3   OH230673   2.867   5.136   1.974 -0.1105 -0.2075 -0.1521
10243TIP3    H130674   2.790   5.142   1.917 -2.0422  0.0641  2.2846
10243TIP3    H230675   2.845   5.067   2.036  1.3164  0.3704  1.0549
10244TIP3   OH230676   7.465   6.375   0.470  0.3417  0.1246 -0.0104
10244TIP3    H130677   7.538   6.330   0.511 -1.2593 -0.9705  1.8231
10244TIP3    H230678   7.504   6.451   0.427  2.7560 -1.4596 -0.7627
10245TIP3   OH230679   3.606   2.069   6.733  0.0737 -0.5280  0.4978
10245TIP3    H130680   3.642   2.060   6.821 -2.5016 -0.8267  1.6207
10245TIP3    H230681   3.649   2.146   6.697  0.2129  0.4106  2.5493
10246TIP3   OH230682   3.608   3.283   1.824  0.3679  0.5034 -0.4792
10246TIP3    H130683   3.659   3.289   1.743 -0.0513  0.3637 -0.7609
10246TIP3    H230684   3.633   3.198   1.862 -1.8825 -1.0791 -2.2001
10247TIP3   OH230685   4.847   3.252   5.823  0.1903 -0.9339  0.0583
10247TIP3    H130686   4.918   3.298   5.777  0.3652 -0.0651  1.1636
10247TIP3    H230687   4.890   3.177   5.864  0.5444 -0.2976  0.8964
10248TIP3   OH230688   1.691   1.493   2.516  0.0522  0.2796  0.0713
10248TIP3    H130689   1.686   1.409   2.469  1.5286 -0.0525  0.4403
10248TIP3    H230690   1.689   1.559   2.447 -2.4120  0.0496 -0.1639
10249TIP3   OH230691   8.002   4.796   1.029 -0.6668  0.8318  0.2945
10249TIP3    H130692   8.051   4.722   0.994 -0.6964  1.7504 -1.8611
10249TIP3    H230693   8.046   4.873   0.995 -1.3672  1.8047  1.4708
10250TIP3   OH230694   4.378   3.509   0.926  0.2152 -0.5954  0.3704
10250TIP3    H130695   4.429   3.551   0.996  1.4976 -0.1485 -0.7908
10250TIP3    H230696   4.320   3.577   0.894  0.6013 -0.4028  0.0815
10251TIP3   OH230697   0.339   3.002   2.090  0.0072  0.3815 -0.1184
10251TIP3    H130698   0.402   2.967   2.153  0.4776  0.6787 -0.4212
10251TIP3    H230699   0.391   3.021   2.012  0.1162  3.3775  0.5742
10252TIP3   OH230700   2.837   6.378   2.870  0.2204 -0.2348  0.1551
10252TIP3    H130701   2.922   6.335   2.862 -1.0026 -2.5863 -0.9153
10252TIP3    H230702   2.790   6.357   2.790 -2.2421 -1.0321  1.6778
10253TIP3   OH230703   4.704   1.667   4.193 -0.0004  0.2504 -0.4349
10253TIP3    H130704   4.744   1.619   4.121 -1.9606 -1.4645 -0.4573
10253TIP3    H230705   4.625   1.706   4.156 -1.3766 -1.1669  0.8316
10254TIP3   OH230706   1.548   6.548   1.199 -0.9982 -0.0960  0.1681
10254TIP3    H130707   1.641   6.536   1.219 -0.6436 -0.4087 -1.4494
10254TIP3    H230708   1.503   6.531   1.281  0.3309 -0.5601  0.8388
10255TIP3   OH230709   7.556   0.656   1.991 -0.6398  0.6883 -0.4072
10255TIP3    H130710   7.513   0.686   1.910 -1.2562 -1.1472 -0.8126
10255TIP3    H230711   7.637   0.616   1.961 -2.2129 -2.7156 -0.5747
10256TIP3   OH230712   3.433   7.738   1.524  0.0184  0.6190 -0.6900
10256TIP3    H130713   3.523   7.735   1.555  0.0367  0.7939 -0.7200
10256TIP3    H230714   3.380   7.742   1.603 -0.1958 -3.1048 -0.4842
10257TIP3   OH230715   5.852   4.321   6.546  0.2419  0.3352  0.1558
10257TIP3    H130716   5.827   4.292   6.459 -0.3802  0.1931  0.3702
10257TIP3    H230717   5.768   4.336   6.591  0.5508  0.5314  0.6833
10258TIP3   OH230718   6.263   1.297   5.740  0.2889  0.2182 -0.3121
10258TIP3    H130719   6.207   1.367   5.708  0.3621  1.0444  1.2601
10258TIP3    H230720   6.205   1.220   5.744 -0.1273  0.4981 -0.8215
10259TIP3   OH230721   4.037   3.728   2.409  0.2111  0.5829 -0.2265
10259TIP3    H130722   4.109   3.692   2.357  1.0821  2.0156 -0.0701
10259TIP3    H230723   4.078   3.754   2.492 -0.6097  0.8989  0.0900
10260TIP3   OH230724   3.983   3.478   1.281 -0.4623  0.2515 -0.0245
10260TIP3    H130725   3.973   3.464   1.187  0.8041 -1.1402  0.0129
10260TIP3    H230726   4.063   3.529   1.290 -1.4802  1.9021  0.2558
10261TIP3   OH230727   6.777   6.363   5.686  0.2021 -0.0943 -0.3114
10261TIP3    H130728   6.704   6.405   5.640 -0.1912 -1.2215 -0.7541
10261TIP3    H230729   6.805   6.427   5.751 -1.4019  0.2381  0.0850
10262TIP3   OH230730   8.065   5.566   1.473 -0.4090 -0.2041  0.5976
10262TIP3    H130731   8.031   5.477   1.480  1.4253 -0.9494  0.5504
10262TIP3    H230732   8.073   5.582   1.379  1.4323 -0.9115  0.5930
10263TIP3   OH230733   1.556   1.690   5.464  0.1014 -0.2202 -0.4811
10263TIP3    H130734   1.546   1.729   5.551 -0.1290 -1.2652 -0.0165
10263TIP3    H230735   1.644   1.653   5.464 -0.1601 -0.8742 -0.3989
10264TIP3   OH230736   6.230   1.865   0.020  0.6741  1.2018 -0.5736
10264TIP3    H130737   6.306   1.817   0.053 -0.6141 -0.6310 -0.1461
10264TIP3    H230738   6.227   1.845  -0.073 -1.3517 -1.8853  0.0187
10265TIP3   OH230739   1.287   3.018   2.047 -0.0725 -0.0811  0.4564
10265TIP3    H130740   1.240   2.952   2.099 -1.0053  0.0965 -0.1325
10265TIP3    H230741   1.242   3.101   2.068  0.5977  0.2518  0.6067
10266TIP3   OH230742   6.255   5.960   0.240  0.0181 -0.0110 -0.2342
10266TIP3    H130743   6.269   6.049   0.208 -0.6276  0.6271  1.1501
10266TIP3    H230744   6.167   5.962   0.279  0.0948 -1.1775  0.0319
10267TIP3   OH230745   0.145   4.046   4.309 -0.6015  0.5334  0.1498
10267TIP3    H130746   0.238   4.042   4.333 -0.3276  1.2265 -0.7263
10267TIP3    H230747   0.144   4.028   4.215 -1.6270 -2.0206  0.5769
10268TIP3   OH230748   5.843   2.306   6.109  0.3452 -0.3557  0.4555
10268TIP3    H130749   5.784   2.279   6.179 -3.4476  0.7109 -2.0580
10268TIP3    H230750   5.843   2.401   6.112 -0.6796 -0.2344 -1.4532
10269TIP3   OH230751   7.950   0.048   6.222  0.6196  0.3195 -0.4114
10269TIP3    H130752   7.862   0.011   6.221  0.9526 -0.5530  0.4964
10269TIP3    H230753   7.958   0.089   6.308  0.1190  2.9477 -1.5381
10270TIP3   OH230754   1.006   1.675   5.135 -0.6981 -0.2184 -0.4742
10270TIP3    H130755   0.942   1.611   5.168  0.8735 -1.4567  0.2922
10270TIP3    H230756   1.001   1.748   5.197 -3.1046  0.8918 -1.8116
10271TIP3   OH230757   0.062   3.359   2.192 -0.2467  0.1639  0.7259
10271TIP3    H130758   0.012   3.438   2.171  1.0900  1.1879  1.2975
10271TIP3    H230759   0.104   3.378   2.275  0.9070 -0.7667  0.3817
10272TIP3   OH230760   5.022   1.246   1.064 -0.3913 -0.0360  0.1413
10272TIP3    H130761   4.961   1.193   1.012 -0.2131 -0.0162 -0.0906
10272TIP3    H230762   5.056   1.310   1.002 -2.8425  2.3464  1.0646
10273TIP3   OH230763   7.691   4.826   3.585  0.2008  0.0818  0.0322
10273TIP3    H130764   7.620   4.825   3.521  0.5945  1.5930 -0.4682
10273TIP3    H230765   7.762   4.873   3.541  0.5115  1.0911  1.5325
10274TIP3   OH230766   8.287   1.094   1.220  0.3781  0.0013 -0.2545
10274TIP3    H130767   8.233   1.017   1.241  0.3918 -0.1955 -0.9259
10274TIP3    H230768   8.290   1.143   1.302  0.4875 -0.7817  0.2294
10275TIP3   OH230769   3.730   1.088   0.511 -0.3123  0.0638 -0.8250
10275TIP3    H130770   3.763   1.137   0.587 -0.7528  1.3769 -1.4511
10275TIP3    H230771   3.809   1.057   0.467 -0.0233  0.1200 -0.3562
10276TIP3   OH230772   0.425   3.605   6.096 -0.4204 -0.4275  0.3372
10276TIP3    H130773   0.439   3.683   6.149 -0.4885  0.4417 -0.8569
10276TIP3    H230774   0.447   3.532   6.153 -1.0606  0.4267  1.7264
10277TIP3   OH230775   1.279   3.888   1.118 -0.0035 -0.3443 -0.3457
10277TIP3    H130776   1.255   3.924   1.032 -0.1883 -1.5839 -0.8359
10277TIP3    H230777   1.350   3.944   1.148 -0.6602  0.7782 -0.8099
10278TIP3   OH230778   2.593   1.761   3.290  0.2994 -0.2087 -0.3013
10278TIP3    H130779   2.587   1.689   3.227 -0.3394  0.1844 -0.7120
10278TIP3    H230780   2.656   1.821   3.250 -0.5929  0.3521 -0.9147
10279TIP3   OH230781   1.430   1.167   6.608 -0.1274  0.5325 -0.3636
10279TIP3    H130782   1.489   1.181   6.682 -0.9431 -0.6064  0.5460
10279TIP3    H230783   1.486   1.173   6.531  0.6831  2.0451  0.3101
10280TIP3   OH230784   1.239   2.301   4.100  0.1254  0.2620 -0.2072
10280TIP3    H130785   1.290   2.382   4.096 -0.8489  0.8676 -1.6499
10280TIP3    H230786   1.199   2.302   4.187 -1.3263  2.3275 -0.8102
10281TIP3   OH230787   5.574   2.173   0.163 -0.2527 -0.6923 -0.0659
10281TIP3    H130788   5.505   2.230   0.128  0.7223  0.0121 -0.9379
10281TIP3    H230789   5.544   2.084   0.142 -1.6257 -0.5074  0.9839
10282TIP3   OH230790   4.386   5.235   4.538 -0.0777 -0.2955 -0.5619
10282TIP3    H130791   4.421   5.150   4.562  0.7930 -0.1780 -1.3582
10282TIP3    H230792   4.318   5.253   4.603  1.6883 -0.2846  1.3934
10283TIP3   OH230793   7.607   1.284   3.387  0.6941 -0.2310  0.1297
10283TIP3    H130794   7.526   1.308   3.431  0.8727 -3.1391  2.3392
10283TIP3    H230795   7.643   1.367   3.356 -0.7217  1.7537  3.3170
10284TIP3   OH230796   6.309   3.374   4.241 -0.1857  0.0520 -0.6747
10284TIP3    H130797   6.227   3.325   4.236 -0.2542  0.0616  0.1709
10284TIP3    H230798   6.295   3.435   4.314  0.3775  0.4210 -0.8735
10285TIP3   OH230799   3.233   3.813   1.979  0.1065  0.0341  0.2917
10285TIP3    H130800   3.270   3.901   1.973  0.6332 -0.2753 -1.9317
10285TIP3    H230801   3.306   3.758   2.008 -0.3819  0.3660  2.2998
10286TIP3   OH230802   5.002   7.436   0.255  0.2738 -0.5825  0.0041
10286TIP3    H130803   5.054   7.357   0.240 -0.5660 -0.9702 -1.0072
10286TIP3    H230804   4.942   7.439   0.181 -0.6103  0.2839  0.7359
10287TIP3   OH230805   0.254   1.723   1.933  0.5469 -0.2678  0.0639
10287TIP3    H130806   0.289   1.658   1.993  0.5592  0.3075  0.6971
10287TIP3    H230807   0.325   1.786   1.921  0.4072 -0.1626 -0.2362
10288TIP3   OH230808   4.730   6.623   1.816  0.2111  0.1461 -0.1315
10288TIP3    H130809   4.779   6.686   1.763  0.0256 -0.8243 -1.5056
10288TIP3    H230810   4.782   6.614   1.896  1.4317  0.3368 -0.8713
10289TIP3   OH230811   6.418   3.900   6.244  0.4987 -0.3121 -0.0862
10289TIP3    H130812   6.461   3.855   6.317  0.0220 -0.3385  0.1788
10289TIP3    H230813   6.359   3.962   6.286  0.9416  0.3691 -0.4488
10290TIP3   OH230814   5.917   1.580   2.801  0.1862 -0.3085  0.1247
10290TIP3    H130815   5.973   1.520   2.849 -0.0975  0.1384  1.0295
10290TIP3    H230816   5.865   1.624   2.868 -0.8767 -0.3338 -0.6462
10291TIP3   OH230817   1.429   4.700   5.173 -0.2258  0.6843 -0.0121
10291TIP3    H130818   1.428   4.741   5.260  1.8072  1.6359 -0.3814
10291TIP3    H230819   1.338   4.705   5.143 -0.1601  4.8966  0.0150
10292TIP3   OH230820   7.392   7.712   4.908 -1.3935  0.6467 -0.2526
10292TIP3    H130821   7.344   7.685   4.986 -2.0009  2.2881 -0.0185
10292TIP3    H230822   7.405   7.631   4.858 -0.9862 -0.4329  1.5248
10293TIP3   OH230823   0.831   2.016   4.480 -0.2599  0.1942 -0.5626
10293TIP3    H130824   0.769   2.084   4.453  0.8792  1.6621  0.3447
10293TIP3    H230825   0.779   1.935   4.482 -1.5170  0.9033 -2.2328
10294TIP3   OH230826   0.326   2.622   1.572 -0.2019  0.3371  1.0120
10294TIP3    H130827   0.308   2.674   1.494 -2.0017  0.3230  1.3645
10294TIP3    H230828   0.320   2.684   1.645  3.1701  0.7076  1.0929
10295TIP3   OH230829   2.602   2.804   1.537  0.5976 -0.5852  0.7196
10295TIP3    H130830   2.519   2.757   1.525  0.5511 -0.2851 -0.2762
10295TIP3    H230831   2.663   2.758   1.479  1.3630 -1.3242  2.0765
10296TIP3   OH230832   3.299   7.248   2.336  0.4172 -0.4219  0.3746
10296TIP3    H130833   3.342   7.283   2.258 -1.3440 -0.4257 -0.6349
10296TIP3    H230834   3.298   7.154   2.323  1.4550 -0.5541  1.1389
10297TIP3   OH230835   4.386   3.337   3.765 -0.7411 -0.3117 -0.7087
10297TIP3    H130836   4.413   3.376   3.682 -0.4910 -0.0865 -0.5226
10297TIP3    H230837   4.340   3.407   3.811  1.7725  0.5713  0.6573
10298TIP3   OH230838   8.028   4.367   0.919 -0.0708  0.0286  0.1072
10298TIP3    H130839   7.969   4.387   0.991  0.4027 -0.5038  0.6553
10298TIP3    H230840   7.978   4.311   0.861 -0.1500 -0.3073  0.4985
10299TIP3   OH230841   3.799   7.284   0.303 -0.2686  0.2377  0.7085
10299TIP3    H130842   3.887   7.283   0.340 -0.2802  1.1460  0.7826
10299TIP3    H230843   3.780   7.192   0.283  1.4389  0.2059 -1.0802
10300TIP3   OH230844   1.387   1.440   5.128 -0.6379 -0.4758  0.3830
10300TIP3    H130845   1.299   1.427   5.162 -0.2050  2.2683  2.8826
10300TIP3    H230846   1.383   1.521   5.078  0.7026  0.4457  1.6886
10301TIP3   OH230847   2.132   6.427   4.979  0.1100  0.0039  0.5777
10301TIP3    H130848   2.097   6.338   4.975  0.7941 -0.2678  0.4021
10301TIP3    H230849   2.129   6.458   4.888 -0.6886  0.3890  0.7307
10302TIP3   OH230850   6.841   3.297   4.499  0.3143  0.2696  0.4701
10302TIP3    H130851   6.827   3.384   4.461  1.5831  0.7369  1.0125
10302TIP3    H230852   6.890   3.249   4.433 -0.5528 -0.1101  0.0915
10303TIP3   OH230853   2.887   3.690   0.356  0.0186 -0.2714  0.2238
10303TIP3    H130854   2.819   3.623   0.354 -0.4652  0.2222 -1.4615
10303TIP3    H230855   2.967   3.642   0.379 -1.0323 -0.6303  3.7420
10304TIP3   OH230856   1.063   7.271   2.850  0.4549  0.4120 -0.3123
10304TIP3    H130857   1.002   7.342   2.873 -0.8659 -1.0937  1.1504
10304TIP3    H230858   1.010   7.211   2.798  0.6277 -0.9161  0.9657
10305TIP3   OH230859   2.902   3.334   0.157  0.0207  0.3069 -0.4047
10305TIP3    H130860   2.927   3.333   0.065  1.1876  0.8868 -0.1180
10305TIP3    H230861   2.952   3.406   0.195  0.4393 -0.6308  0.9150
10306TIP3   OH230862   5.097   5.516   1.168 -0.2353 -0.4052  0.0467
10306TIP3    H130863   5.109   5.559   1.253  3.1157  1.6221 -1.2359
10306TIP3    H230864   5.032   5.569   1.122  0.1352  0.2658  0.2970
10307TIP3   OH230865   4.911   1.493   5.639  0.1924  0.3116  0.0494
10307TIP3    H130866   4.963   1.545   5.700  1.7062 -1.2345  0.1512
10307TIP3    H230867   4.962   1.494   5.558 -0.2412 -0.2341 -0.2336
10308TIP3   OH230868   3.478   3.990   3.792  0.0661  0.0138  0.6660
10308TIP3    H130869   3.441   4.065   3.747  0.9068 -0.2843 -0.5852
10308TIP3    H230870   3.440   3.914   3.748  1.3487 -0.2859  0.0301
10309TIP3   OH230871   5.073   1.115   5.133 -0.0509 -0.2975 -0.1434
10309TIP3    H130872   4.983   1.127   5.162  0.3169  4.1616 -0.0688
10309TIP3    H230873   5.110   1.052   5.196 -2.2242  0.4184  2.0198
10310TIP3   OH230874   4.154   6.394   4.515 -0.1186  0.5315  0.4486
10310TIP3    H130875   4.216   6.409   4.586 -0.3285  1.5837  0.4248
10310TIP3    H230876   4.128   6.302   4.524  0.5581  0.4042  1.1593
10311TIP3   OH230877   1.714   7.697   5.883  0.2183 -0.4505  0.3137
10311TIP3    H130878   1.704   7.742   5.967  1.9341 -0.8741  0.7843
10311TIP3    H230879   1.681   7.760   5.819 -1.5079 -0.2745  1.3092
10312TIP3   OH230880   0.109   2.163   0.055  0.3492 -0.5524 -0.4162
10312TIP3    H130881   0.147   2.077   0.036 -0.9639 -1.0210 -1.0588
10312TIP3    H230882   0.134   2.218  -0.019  1.3785 -0.2936  0.1017
10313TIP3   OH230883   0.176   6.249   0.154 -0.1311  0.1288  0.3114
10313TIP3    H130884   0.244   6.305   0.114  0.3462 -1.8449 -1.8401
10313TIP3    H230885   0.099   6.261   0.098 -0.3471 -0.5549  0.4587
10314TIP3   OH230886   5.121   1.106   0.195  0.2399  0.0120 -0.0858
10314TIP3    H130887   5.161   1.020   0.205 -0.1136 -0.0872  0.5607
10314TIP3    H230888   5.061   1.097   0.122  0.7944 -0.0612 -0.5397
10315TIP3   OH230889   0.837   6.090   2.582 -0.4134  0.5554  0.2831
10315TIP3    H130890   0.809   6.037   2.656 -1.6452 -0.7915 -1.0718
10315TIP3    H230891   0.803   6.044   2.505  1.9281  1.1574 -1.2429
10316TIP3   OH230892   1.144   3.917   5.646 -0.1362  0.1301  0.1178
10316TIP3    H130893   1.171   3.974   5.718  0.4791 -1.0919  0.8939
10316TIP3    H230894   1.227   3.890   5.606 -0.1650 -2.6011  1.6757
10317TIP3   OH230895   4.062   0.326   0.913 -0.3050  0.5110 -0.4615
10317TIP3    H130896   4.046   0.284   0.997 -0.5594 -0.2392 -0.8786
10317TIP3    H230897   4.020   0.412   0.920  1.3527  1.2892  0.8895
10318TIP3   OH230898   2.266   2.015   2.355 -0.1779 -0.0085 -0.6694
10318TIP3    H130899   2.212   1.974   2.288 -0.2951 -0.6022 -0.2198
10318TIP3    H230900   2.229   2.103   2.365  0.1944  0.2844 -1.7648
10319TIP3   OH230901   6.509   7.763   6.786  0.2217 -0.3746  0.1170
10319TIP3    H130902   6.464   7.682   6.761 -2.0807  1.4941 -2.3814
10319TIP3    H230903   6.528   7.806   6.702  0.3067  2.1984  1.3704
10320TIP3   OH230904   6.120   0.935   5.743  0.1009 -0.3238 -0.0252
10320TIP3    H130905   6.167   0.855   5.720  2.0142  0.5361  0.6143
10320TIP3    H230906   6.116   0.985   5.662  1.5430  0.1505  0.1545
10321TIP3   OH230907   1.203   7.090   1.327  0.3126 -0.3547 -0.7126
10321TIP3    H130908   1.156   7.170   1.351 -2.1056 -1.1358 -2.4755
10321TIP3    H230909   1.252   7.067   1.406 -2.9823  0.0744  1.6743
10322TIP3   OH230910   6.244   3.996   6.437 -0.1705  0.3558  0.2569
10322TIP3    H130911   6.154   3.976   6.465 -1.2044  2.6923 -1.0930
10322TIP3    H230912   6.273   4.066   6.496 -0.0204  1.0026 -0.5720
10323TIP3   OH230913   2.078   4.940   1.533 -0.2751  0.2876  0.0871
10323TIP3    H130914   2.110   4.970   1.448  0.9860  0.6606  0.6696
10323TIP3    H230915   2.088   5.016   1.590  0.7946 -0.5370  1.0386
10324TIP3   OH230916   7.146   3.595   5.131 -0.0515 -0.1532 -0.0051
10324TIP3    H130917   7.150   3.613   5.037  0.7031 -0.3634 -0.0153
10324TIP3    H230918   7.219   3.536   5.147  0.1101  0.2611  0.8011
10325TIP3   OH230919   5.885   2.711   2.179  0.5649  0.1193  0.0056
10325TIP3    H130920   5.840   2.773   2.235  0.6088 -1.3532  1.7657
10325TIP3    H230921   5.938   2.658   2.238  0.6247 -1.5112 -1.4043
10326TIP3   OH230922   2.740   6.297   4.994 -0.3709  0.3930  0.4830
10326TIP3    H130923   2.817   6.340   4.956 -0.1222  0.2001  0.7713
10326TIP3    H230924   2.753   6.204   4.975 -1.5609  0.5360 -1.3419
10327TIP3   OH230925   6.620   5.819   2.753 -0.3340  0.3915  0.1063
10327TIP3    H130926   6.619   5.751   2.686  0.9866  0.1122  0.3373
10327TIP3    H230927   6.537   5.809   2.798 -0.0885 -1.2178  0.2702
10328TIP3   OH230928   7.222   0.359   4.900  0.5056  0.0864 -0.2060
10328TIP3    H130929   7.266   0.311   4.830  1.6177  1.0666 -0.2130
10328TIP3    H230930   7.129   0.351   4.879  0.7752 -0.3030 -1.3576
10329TIP3   OH230931   0.795   0.110   5.051  0.4054 -0.1450 -0.7931
10329TIP3    H130932   0.762   0.200   5.049  2.1867  0.5501 -0.5602
10329TIP3    H230933   0.830   0.100   5.139 -1.3438 -1.7045 -0.2075
10330TIP3   OH230934   7.693   6.455   4.650 -0.0379 -0.0403 -0.1131
10330TIP3    H130935   7.728   6.465   4.739  0.7670 -0.0081 -0.4250
10330TIP3    H230936   7.729   6.372   4.619  0.0159  0.1446 -0.5560
10331TIP3   OH230937   4.522   0.123   0.810 -0.6804  0.2738  0.2691
10331TIP3    H130938   4.478   0.119   0.724 -0.8114  2.6459  0.1657
10331TIP3    H230939   4.468   0.067   0.866  0.7185 -3.3114 -1.6166
10332TIP3   OH230940   2.389   5.567   0.779 -0.6496  0.6616 -0.7847
10332TIP3    H130941   2.314   5.507   0.781  0.5573 -0.8867  0.8841
10332TIP3    H230942   2.446   5.532   0.710  0.2304 -0.4441  0.4351
10333TIP3   OH230943   0.690   4.851   1.190  0.3451 -0.8998  0.1014
10333TIP3    H130944   0.750   4.785   1.224  1.0974  0.3133  1.2538
10333TIP3    H230945   0.715   4.932   1.235 -0.6943  0.1323 -1.0771
10334TIP3   OH230946   6.213   5.052   2.220 -0.0451 -0.0225  0.5495
10334TIP3    H130947   6.161   5.132   2.233 -0.9037 -0.4874  0.0567
10334TIP3    H230948   6.189   5.022   2.133  1.3096 -0.0820  0.1919
10335TIP3   OH230949   5.680   4.162   5.593 -0.2575  0.8469 -0.1781
10335TIP3    H130950   5.765   4.163   5.549  0.0462  0.7920  0.3865
10335TIP3    H230951   5.616   4.168   5.523  0.2016  0.2857 -0.6569
10336TIP3   OH230952   2.755   3.951   0.320 -0.1720 -0.3672 -0.3267
10336TIP3    H130953   2.820   4.010   0.283 -0.6311 -0.2773 -1.0039
10336TIP3    H230954   2.792   3.864   0.307  0.0791 -0.2883 -0.1651
10337TIP3   OH230955   7.518   3.035   4.113 -0.2061  0.4558  0.3608
10337TIP3    H130956   7.469   3.116   4.126  0.3900  1.0673 -0.9877
10337TIP3    H230957   7.500   3.011   4.022  0.0626 -0.6362  0.5848
10338TIP3   OH230958   0.178   7.329   3.611 -0.5558 -0.1500 -0.5513
10338TIP3    H130959   0.234   7.390   3.659 -0.5806 -0.2232 -0.4285
10338TIP3    H230960   0.093   7.337   3.655 -0.7736  0.3223 -1.0394
10339TIP3   OH230961   0.501   6.777   0.773  0.4238  0.7441 -0.3304
10339TIP3    H130962   0.540   6.689   0.771  0.7559  0.8925 -0.4212
10339TIP3    H230963   0.535   6.816   0.853 -1.0186  0.2093  0.5908
10340TIP3   OH230964   6.926   6.583   3.159  0.0625 -0.3697  0.2591
10340TIP3    H130965   6.941   6.566   3.252 -2.3679 -3.9095  0.1654
10340TIP3    H230966   6.989   6.526   3.115  0.9455  1.0204 -0.3419
10341TIP3   OH230967   7.476   1.010   0.463 -0.1507  0.4630  0.0712
10341TIP3    H130968   7.571   0.995   0.460 -0.1896  0.4198 -2.3339
10341TIP3    H230969   7.467   1.106   0.461 -0.1712  0.6154  3.0917
10342TIP3   OH230970   4.515   2.137   6.581  0.0174 -0.1756  0.2159
10342TIP3    H130971   4.496   2.060   6.634 -0.1421 -0.0598  0.3254
10342TIP3    H230972   4.429   2.177   6.566  0.1599  0.2794  0.6079
10343TIP3   OH230973   5.602   4.440   3.829  0.1882 -0.3659  0.0795
10343TIP3    H130974   5.616   4.397   3.913 -3.7466 -1.2969  0.4623
10343TIP3    H230975   5.573   4.371   3.770  0.4865  0.6876 -1.3724
10344TIP3   OH230976   6.927   4.423   2.499 -1.0623 -0.0528  0.3303
10344TIP3    H130977   7.013   4.421   2.540 -0.6491 -0.7253 -0.5617
10344TIP3    H230978   6.944   4.437   2.406 -2.0060  1.9515  0.3960
10345TIP3   OH230979   7.847   0.281   5.656  0.3930  0.3541  0.2714
10345TIP3    H130980   7.931   0.323   5.673  0.8178 -0.2719 -0.2483
10345TIP3    H230981   7.782   0.345   5.687  1.0002  1.7685 -1.2236
10346TIP3   OH230982   4.246   2.865   0.183  0.0696  0.0068  0.4885
10346TIP3    H130983   4.245   2.901   0.271 -0.6433 -0.2768  0.6026
10346TIP3    H230984   4.242   2.941   0.125 -1.2702  0.1402  0.7248
10347TIP3   OH230985   4.928   2.318   3.744  0.4032  0.9274 -0.1513
10347TIP3    H130986   4.923   2.294   3.836  1.2333 -0.1874 -0.3744
10347TIP3    H230987   4.941   2.235   3.698  2.6013  1.6737 -1.0403
10348TIP3   OH230988   2.733   0.832   0.927 -0.2559  0.0146 -0.0961
10348TIP3    H130989   2.768   0.913   0.964 -0.7288  0.6366 -0.9824
10348TIP3    H230990   2.682   0.860   0.851 -0.5083 -1.1072 -0.3594
10349TIP3   OH230991   6.111   6.778   2.863 -0.2011 -0.0095 -0.1253
10349TIP3    H130992   6.140   6.697   2.905  1.4418  0.0465 -1.0629
10349TIP3    H230993   6.050   6.750   2.795 -0.3777 -0.3795  0.1866
10350TIP3   OH230994   1.798   4.724   2.177 -0.1747  0.1363  0.5697
10350TIP3    H130995   1.872   4.710   2.119  0.1223 -0.7013  1.1317
10350TIP3    H230996   1.721   4.712   2.122  0.1049 -0.2925  0.2705
10351TIP3   OH230997   4.472   1.236   4.871 -0.0065 -0.1944 -0.0526
10351TIP3    H130998   4.464   1.290   4.950 -0.5938 -1.6584  0.9444
10351TIP3    H230999   4.547   1.273   4.824  0.1646  0.9133  1.0355
10352TIP3   OH231000   3.154   1.665   0.288 -0.4134 -0.9606  0.5894
10352TIP3    H131001   3.138   1.701   0.375 -2.7075 -0.1115 -0.1259
10352TIP3    H231002   3.165   1.742   0.232 -0.8860 -1.4482 -0.1864
10353TIP3   OH231003   7.926   6.631   1.681  0.2335 -0.0649  0.1912
10353TIP3    H131004   7.873   6.553   1.700 -0.6479  0.0612 -1.5787
10353TIP3    H231005   7.862   6.702   1.677  0.7720  0.3985 -0.2542
10354TIP3   OH231006   0.666   2.340   2.852  0.2944 -0.5458  0.4409
10354TIP3    H131007   0.685   2.284   2.928 -1.4460  0.0579  1.3558
10354TIP3    H231008   0.600   2.292   2.803  1.4287 -0.9451 -0.7704
10355TIP3   OH231009   8.057   0.429   5.715 -0.9227 -0.6393 -0.3572
10355TIP3    H131010   8.094   0.467   5.635 -0.8960  2.1221  0.8532
10355TIP3    H231011   8.133   0.412   5.771 -1.0819 -0.7611 -0.1760
10356TIP3   OH231012   5.323   4.828   5.041 -0.3227 -0.5467  0.1112
10356TIP3    H131013   5.295   4.771   4.968  0.5981  1.1193 -1.6296
10356TIP3    H231014   5.415   4.804   5.056 -1.0867 -2.4891  2.4018
10357TIP3   OH231015   3.431   5.165   3.139  0.3086 -0.7305  0.0720
10357TIP3    H131016   3.390   5.091   3.092 -0.4310  0.0685 -0.5903
10357TIP3    H231017   3.453   5.228   3.070 -0.5437  0.3594  0.7576
10358TIP3   OH231018   5.358   4.851   2.254 -0.3353 -0.6366 -0.5095
10358TIP3    H131019   5.299   4.812   2.319  1.2055 -1.0674  0.6782
10358TIP3    H231020   5.446   4.826   2.283  0.6354  2.3186 -0.6320
10359TIP3   OH231021   6.778   5.759   0.362 -0.1948  0.0561  0.1612
10359TIP3    H131022   6.731   5.716   0.433  0.0839 -0.6853 -0.0913
10359TIP3    H231023   6.761   5.852   0.374 -0.3916 -0.0890  1.0210
10360TIP3   OH231024   7.645   7.109   0.335  0.1302 -0.6369  0.0194
10360TIP3    H131025   7.729   7.104   0.289  0.7025  0.6893  0.8399
10360TIP3    H231026   7.669   7.140   0.423 -1.1800 -0.6617  0.4000
10361TIP3   OH231027   6.929   0.732   6.047  0.0170 -1.0865 -0.2707
10361TIP3    H131028   6.892   0.647   6.071  0.7492 -0.8810  1.8075
10361TIP3    H231029   6.925   0.734   5.951 -0.7468 -3.1084 -0.3282
10362TIP3   OH231030   7.440   4.112   3.385  0.2025  0.5745 -0.5911
10362TIP3    H131031   7.357   4.130   3.341  0.1285  1.8474  0.0182
10362TIP3    H231032   7.486   4.196   3.383  0.1508  0.7128  1.8492
10363TIP3   OH231033   7.521   0.039   2.818  0.0490  0.6407 -0.0215
10363TIP3    H131034   7.472   0.060   2.897 -1.6899 -0.2821 -0.8130
10363TIP3    H231035   7.494   0.106   2.754 -1.2632 -0.6375 -0.8615
10364TIP3   OH231036   5.597   1.433   1.606 -0.2903  0.4643 -0.0880
10364TIP3    H131037   5.671   1.492   1.618  0.5229 -0.8740  2.0998
10364TIP3    H231038   5.636   1.346   1.594 -1.4674 -0.1280  0.1498
10365TIP3   OH231039   1.875   7.321   2.873  0.0428  0.5317 -0.1317
10365TIP3    H131040   1.796   7.376   2.868  2.0219  3.5669 -0.6297
10365TIP3    H231041   1.891   7.309   2.967  0.0485  1.5832  0.0075
10366TIP3   OH231042   2.867   2.701   6.101  0.5155  0.2652  0.2298
10366TIP3    H131043   2.804   2.629   6.107  3.0223 -2.1630 -0.7508
10366TIP3    H231044   2.932   2.682   6.169  2.0970  0.6466 -1.1114
10367TIP3   OH231045   7.951   6.608   1.019 -0.1727 -0.2559 -0.1028
10367TIP3    H131046   7.957   6.690   1.069 -1.0233 -0.3502  0.1627
10367TIP3    H231047   7.996   6.543   1.075 -0.9934 -0.3302  0.4840
10368TIP3   OH231048   0.873   7.704   1.349  0.5352 -0.6717 -0.1059
10368TIP3    H131049   0.882   7.612   1.373  1.6066 -0.1581  1.7338
10368TIP3    H231050   0.789   7.730   1.386  0.7462 -0.6621  0.3845
10369TIP3   OH231051   2.983   2.627   2.086  1.2160  0.2011  0.1147
10369TIP3    H131052   2.890   2.631   2.068  0.7943  3.6469  2.1816
10369TIP3    H231053   2.995   2.546   2.135 -0.5568 -0.5261 -0.5877
10370TIP3   OH231054   4.454   7.806   1.509 -0.1084  0.2344 -0.2075
10370TIP3    H131055   4.491   7.718   1.511 -2.6491 -0.8993  1.2995
10370TIP3    H231056   4.477   7.843   1.594 -0.0376  0.6079 -0.3880
10371TIP3   OH231057   6.448   6.679   2.091 -0.0479 -0.3835 -0.0561
10371TIP3    H131058   6.504   6.669   2.168  0.3887 -0.2487 -0.3473
10371TIP3    H231059   6.385   6.747   2.115 -0.8249 -1.3457  0.6856
10372TIP3   OH231060   2.623   2.849   4.721 -0.0013 -0.0265 -0.3822
10372TIP3    H131061   2.637   2.904   4.797  0.2269 -0.4134 -0.1375
10372TIP3    H231062   2.711   2.818   4.698 -0.2660 -1.3561  0.2988
10373TIP3   OH231063   4.916   1.317   3.200  0.6792 -0.2369  0.4693
10373TIP3    H131064   4.938   1.359   3.283 -0.6411  1.9801 -0.2383
10373TIP3    H231065   4.823   1.298   3.206  0.3469  0.8202 -0.8338
10374TIP3   OH231066   0.853   7.454   2.840 -0.3381 -0.6043  0.1558
10374TIP3    H131067   0.894   7.512   2.776  0.1856 -1.4202 -0.2675
10374TIP3    H231068   0.849   7.506   2.921  1.8056 -0.5700  0.3006
10375TIP3   OH231069   7.636   0.203   0.442  0.2291 -0.3659  0.7732
10375TIP3    H131070   7.694   0.248   0.380 -0.1197  0.5905  1.1249
10375TIP3    H231071   7.680   0.212   0.527  0.0518 -0.5087  0.8813
10376TIP3   OH231072   5.126   6.979   2.670  0.3275  0.2195  0.2855
10376TIP3    H131073   5.096   6.897   2.632  0.1625  0.3083  0.2202
10376TIP3    H231074   5.109   6.969   2.764  1.6155 -0.3707  0.4646
10377TIP3   OH231075   4.208   6.306   5.783  0.0569  1.1425  0.4048
10377TIP3    H131076   4.282   6.274   5.834 -0.9554 -0.0698  1.1568
10377TIP3    H231077   4.132   6.261   5.819 -0.9048  1.4481 -1.1479
10378TIP3   OH231078   4.201   1.356   4.632 -0.0100 -0.5191  0.0611
10378TIP3    H131079   4.142   1.396   4.697  0.7327  3.0866 -1.2352
10378TIP3    H231080   4.286   1.355   4.675  0.6446  2.6004 -0.9363
10379TIP3   OH231081   1.344   6.241   2.599  0.1121 -0.1907  0.0080
10379TIP3    H131082   1.404   6.168   2.616  0.8880  0.6070  0.7641
10379TIP3    H231083   1.260   6.210   2.633  0.3815 -0.8225  0.1163
10380TIP3   OH231084   7.360   2.685   4.469 -0.7873 -0.1912  0.0605
10380TIP3    H131085   7.338   2.776   4.449  2.1613  0.9542  1.4756
10380TIP3    H231086   7.350   2.678   4.564  1.7587 -0.4073  0.3783
10381TIP3   OH231087   4.870   7.111   0.141  0.0554  0.0061  0.1661
10381TIP3    H131088   4.873   7.159   0.059 -0.7952 -1.1911 -0.5914
10381TIP3    H231089   4.960   7.115   0.175  0.1826  1.3991 -0.2721
10382TIP3   OH231090   3.331   1.990   2.638  0.3362 -0.0774 -0.4116
10382TIP3    H131091   3.365   1.929   2.704  0.4428  0.6829  0.2521
10382TIP3    H231092   3.238   1.968   2.631  0.6555 -1.3169 -1.3072
10383TIP3   OH231093   1.563   2.127   0.111  0.4823  0.5275  0.4397
10383TIP3    H131094   1.574   2.169   0.026 -0.4190 -0.3578 -0.1295
10383TIP3    H231095   1.476   2.155   0.140  1.0452  1.3519  1.3868
10384TIP3   OH231096   1.854   5.902   5.249  0.1802  0.7212  0.2378
10384TIP3    H131097   1.861   5.845   5.325  0.2777  1.1054  0.5179
10384TIP3    H231098   1.931   5.958   5.254  0.7703  0.0268 -0.7443
10385TIP3   OH231099   4.664   2.244   1.039  0.1901 -0.5473 -0.3735
10385TIP3    H131100   4.760   2.240   1.030  0.3381 -0.7265  1.1110
10385TIP3    H231101   4.632   2.188   0.968  1.2901 -2.6600  0.7117
10386TIP3   OH231102   7.004   5.895   3.907 -0.0061  0.4023  0.2671
10386TIP3    H131103   6.949   5.903   3.830  1.8085  0.5187 -1.0790
10386TIP3    H231104   7.048   5.979   3.915  0.8291 -0.0518  0.6218
10387TIP3   OH231105   5.577   7.746   4.968 -0.2129 -0.2186  0.7416
10387TIP3    H131106   5.522   7.726   4.892  0.1003 -0.6678  0.6328
10387TIP3    H231107   5.630   7.668   4.981 -0.1956 -0.1076  1.3690
10388TIP3   OH231108   2.803   5.169   3.119  0.3976  0.1218 -0.4245
10388TIP3    H131109   2.886   5.140   3.080  1.4493  2.5669 -0.1473
10388TIP3    H231110   2.816   5.158   3.213 -0.2693 -1.0950 -0.4593
10389TIP3   OH231111   3.962   1.881   1.621  0.6329  0.0957  0.5328
10389TIP3    H131112   3.951   1.963   1.669  0.1175  0.1066  0.4014
10389TIP3    H231113   3.897   1.822   1.660 -0.1693  0.2703 -0.5110
10390TIP3   OH231114   6.743   4.200   0.426 -0.2902 -0.0502  0.1920
10390TIP3    H131115   6.699   4.270   0.473  0.8377 -0.1545  1.4995
10390TIP3    H231116   6.830   4.235   0.407 -0.4408 -0.3274 -1.1128
10391TIP3   OH231117   7.957   4.370   3.247 -0.7174  0.3033 -0.0839
10391TIP3    H131118   8.037   4.396   3.293 -0.6738  1.8705 -0.9587
10391TIP3    H231119   7.962   4.416   3.163 -0.7322 -2.5277 -1.7607
10392TIP3   OH231120   5.222   0.763   0.339  0.0390  0.2573 -0.3755
10392TIP3    H131121   5.227   0.673   0.306  1.2441  0.6365 -1.3188
10392TIP3    H231122   5.129   0.780   0.349 -0.1708 -1.6260  1.3806
10393TIP3   OH231123   3.868   5.955   3.896 -0.0667  0.5087  0.0943
10393TIP3    H131124   3.936   5.991   3.837  0.1187 -2.1536 -1.4839
10393TIP3    H231125   3.862   5.863   3.871 -1.9116 -0.1161  2.5381
10394TIP3   OH231126   5.659   6.017   2.887 -0.0956 -0.4489 -0.0272
10394TIP3    H131127   5.695   6.078   2.823  0.3889 -0.8279 -0.1253
10394TIP3    H231128   5.594   6.067   2.936 -0.1151 -0.0210 -0.4919
10395TIP3   OH231129   3.517   5.384   0.220 -0.0072  0.2309  0.1804
10395TIP3    H131130   3.598   5.334   0.211 -0.6817 -0.7885 -0.3212
10395TIP3    H231131   3.484   5.360   0.307 -0.7333 -0.8225 -0.3729
10396TIP3   OH231132   5.628   0.876   5.503 -0.1766 -0.3299  0.0787
10396TIP3    H131133   5.580   0.958   5.518  0.8568  0.0770  1.3160
10396TIP3    H231134   5.598   0.818   5.572  2.1322  0.4223  1.8267
10397TIP3   OH231135   1.097   6.486   5.025  0.0407 -0.1124  0.5620
10397TIP3    H131136   1.049   6.526   4.953  1.7034  1.5519  0.2996
10397TIP3    H231137   1.114   6.558   5.085 -0.3013 -1.2456  2.0811
10398TIP3   OH231138   0.079   2.328   4.755 -0.4438  0.7317  0.1508
10398TIP3    H131139   0.054   2.315   4.846 -1.2954 -1.8821 -0.3955
10398TIP3    H231140   0.051   2.249   4.710  2.1297  0.8630 -1.9583
10399TIP3   OH231141   1.352   6.462   4.910 -0.0090  0.1104 -0.0802
10399TIP3    H131142   1.273   6.410   4.926  0.0428 -0.1066 -0.5147
10399TIP3    H231143   1.331   6.515   4.833 -0.2015  1.0340  0.5854
10400TIP3   OH231144   1.373   1.155   0.953  0.4227  0.5298  0.4676
10400TIP3    H131145   1.456   1.197   0.933  0.1037  1.0412  0.1835
10400TIP3    H231146   1.381   1.128   1.044  1.1971 -0.1563  0.2011
10401TIP3   OH231147   4.547   5.361   3.108  0.2992 -0.5373 -0.4595
10401TIP3    H131148   4.593   5.276   3.112  0.4142 -0.4268  0.8161
10401TIP3    H231149   4.614   5.425   3.133 -0.5421 -0.3880  1.5866
10402TIP3   OH231150   7.864   1.760   1.485  0.2078  0.2542 -0.6874
10402TIP3    H131151   7.838   1.689   1.544 -0.0360  0.9314  0.0338
10402TIP3    H231152   7.935   1.805   1.531  0.3398  0.5051 -1.1264
10403TIP3   OH231153   3.697   0.158   3.823 -0.5154 -0.4013  0.5033
10403TIP3    H131154   3.604   0.134   3.821 -0.4837 -0.5026 -1.3866
10403TIP3    H231155   3.732   0.127   3.740  0.6780  1.7927  0.1050
10404TIP3   OH231156   3.219   7.011   2.570 -0.1521  0.1782 -0.2180
10404TIP3    H131157   3.311   7.038   2.572 -0.4193  1.1337  1.2722
10404TIP3    H231158   3.206   6.977   2.482  1.4451  0.6828 -0.6905
10405TIP3   OH231159   3.448   2.970   3.640  0.2415 -0.2086  0.5008
10405TIP3    H131160   3.513   3.040   3.630 -0.8284  0.9773  1.5167
10405TIP3    H231161   3.377   2.996   3.581  0.9995 -1.9529 -1.2815
10406TIP3   OH231162   3.625   3.142   0.576  0.5986  0.5451  0.1621
10406TIP3    H131163   3.569   3.106   0.645  2.1478  0.7784  1.6174
10406TIP3    H231164   3.604   3.235   0.574  2.6402  1.1569  2.5369
10407TIP3   OH231165   2.277   1.960   1.667 -0.6629 -0.0999  0.4630
10407TIP3    H131166   2.205   2.020   1.683 -0.7622 -0.0625 -0.0943
10407TIP3    H231167   2.265   1.889   1.730 -2.7291 -1.4610 -1.3335
10408TIP3   OH231168   3.442   6.826   5.092 -0.0786  0.0569 -0.2888
10408TIP3    H131169   3.469   6.836   5.001  2.3233 -2.2645  0.0712
10408TIP3    H231170   3.462   6.911   5.133 -1.4225  1.2157 -1.8692
10409TIP3   OH231171   0.085   2.690   2.305  0.2558 -0.3954  0.4712
10409TIP3    H131172   0.166   2.639   2.309  0.2262 -0.4557  0.2926
10409TIP3    H231173   0.104   2.762   2.246  1.1644  1.3527  2.7640
10410TIP3   OH231174   8.220   1.094   3.777 -0.1796  0.3479 -0.1877
10410TIP3    H131175   8.206   1.042   3.856 -0.1156  1.4786  0.6064
10410TIP3    H231176   8.137   1.088   3.730 -1.1413  1.6615  1.2259
10411TIP3   OH231177   3.463   5.852   4.549  0.0906 -0.0557 -0.1213
10411TIP3    H131178   3.431   5.878   4.462 -0.6966  1.5340  0.6095
10411TIP3    H231179   3.405   5.780   4.575 -1.5307  1.3152  0.2344
10412TIP3   OH231180   2.556   2.418   2.581  0.3325  0.3074 -0.6412
10412TIP3    H131181   2.650   2.411   2.594  0.2929  0.0093 -0.4947
10412TIP3    H231182   2.545   2.490   2.520  0.7061 -0.2003 -1.3211
10413TIP3   OH231183   2.177   7.109   2.273  0.5559  0.3655 -0.0506
10413TIP3    H131184   2.221   7.095   2.357 -0.3621  0.9545  0.5440
10413TIP3    H231185   2.084   7.112   2.295  0.3453  1.1591 -1.0067
10414TIP3   OH231186   0.446   3.718   2.482  0.1841  0.7105  0.0914
10414TIP3    H131187   0.366   3.668   2.464 -0.0642  1.6365 -1.5770
10414TIP3    H231188   0.472   3.753   2.397  1.7546  1.3501  0.7996
10415TIP3   OH231189   5.365   1.468   3.246 -0.4377 -0.2145  0.2106
10415TIP3    H131190   5.415   1.541   3.282  1.7365 -1.1548 -0.6739
10415TIP3    H231191   5.370   1.480   3.151 -0.6823 -1.0895  0.0783
10416TIP3   OH231192   6.389   4.165   5.499 -0.0854 -0.1687 -0.0798
10416TIP3    H131193   6.438   4.083   5.500 -1.2897 -1.0312 -2.6809
10416TIP3    H231194   6.326   4.157   5.570  0.3758 -1.1236  0.2341
10417TIP3   OH231195   1.378   1.049   1.989 -0.3594  0.0838 -0.1054
10417TIP3    H131196   1.344   1.029   1.902 -0.7471  1.1902 -0.2265
10417TIP3    H231197   1.360   1.143   2.001 -1.6053 -0.3344  1.7163
10418TIP3   OH231198   7.846   3.871   4.661 -0.4404 -0.0113 -0.5639
10418TIP3    H131199   7.835   3.966   4.652 -0.3353 -0.0599 -1.1857
10418TIP3    H231200   7.876   3.841   4.576 -2.0233 -0.8370 -0.8696
10419TIP3   OH231201   7.076   2.194   2.042  0.0933  0.2182  0.1783
10419TIP3    H131202   7.040   2.234   2.121 -0.4480  2.3132 -1.0713
10419TIP3    H231203   7.034   2.241   1.970  1.8821 -0.4437 -1.3585
10420TIP3   OH231204   0.396   3.567   2.008 -0.6249  0.6059  0.0983
10420TIP3    H131205   0.362   3.599   2.091 -1.4226 -1.3819  0.5993
10420TIP3    H231206   0.450   3.639   1.975 -3.3112  2.9708  0.4534
10421TIP3   OH231207   3.706   3.805   1.731  0.0285 -0.0631  0.1582
10421TIP3    H131208   3.661   3.831   1.651  0.3401  0.1240  0.0404
10421TIP3    H231209   3.673   3.864   1.798 -0.3401 -0.3140  0.1983
10422TIP3   OH231210   0.727   2.946  -0.002 -0.8458 -0.2775 -0.4550
10422TIP3    H131211   0.821   2.934   0.007 -0.6433  1.9884  1.6108
10422TIP3    H231212   0.688   2.871   0.042  0.0792  0.0331  0.9496
10423TIP3   OH231213   2.010   2.597   3.605 -0.2111  0.1630  0.4284
10423TIP3    H131214   1.943   2.644   3.655 -1.3391 -0.1377 -0.7409
10423TIP3    H231215   2.067   2.557   3.671 -2.2967 -1.1767  1.5088
10424TIP3   OH231216   2.413   0.993   2.920 -0.0689 -0.2695 -0.3590
10424TIP3    H131217   2.414   0.902   2.947  0.4849 -0.5125 -1.1562
10424TIP3    H231218   2.398   0.990   2.826  1.5474  0.3698 -0.6741
10425TIP3   OH231219   5.275   4.653   6.045 -0.7740  0.3193  0.6537
10425TIP3    H131220   5.184   4.651   6.075 -0.5661  1.5880  1.4152
10425TIP3    H231221   5.269   4.646   5.949 -1.7369  1.4668  0.6144
10426TIP3   OH231222   3.076   7.424   2.052  0.1192  0.2798 -0.1224
10426TIP3    H131223   3.066   7.333   2.080 -1.5294  0.3094 -0.5050
10426TIP3    H231224   3.028   7.475   2.117  0.3153  0.7935 -0.3771
10427TIP3   OH231225   2.678   2.283   5.938 -0.5441  0.6941  0.3278
10427TIP3    H131226   2.621   2.228   5.884 -0.0967  0.8246 -0.2901
10427TIP3    H231227   2.763   2.280   5.893  0.4173 -0.8505  2.1074
10428TIP3   OH231228   6.841   5.234   0.684 -0.6613 -0.2056  0.1670
10428TIP3    H131229   6.748   5.216   0.669 -0.4103  0.2905 -2.4299
10428TIP3    H231230   6.857   5.200   0.772 -2.8279 -2.1528 -0.0668
10429TIP3   OH231231   1.893   5.049   5.279 -0.3307 -0.2154 -0.6838
10429TIP3    H131232   1.870   5.138   5.252  2.9722  0.9942  0.0478
10429TIP3    H231233   1.969   5.060   5.336  0.8384 -3.5771 -1.3783
10430TIP3   OH231234   1.934   3.173   3.069  0.3249 -0.0994 -0.3216
10430TIP3    H131235   1.940   3.258   3.026  2.2785 -0.4866 -0.8831
10430TIP3    H231236   1.933   3.109   2.998 -0.6877 -0.5873  0.1087
10431TIP3   OH231237   4.796   6.295   1.419  0.0022 -0.3108  0.1210
10431TIP3    H131238   4.785   6.322   1.328  0.4596 -1.4717 -0.3033
10431TIP3    H231239   4.711   6.311   1.459 -0.8586 -1.6729 -1.0528
10432TIP3   OH231240   4.762   3.479   3.469  0.0427 -0.1918  0.2984
10432TIP3    H131241   4.761   3.513   3.379  0.4411 -1.1238 -0.0670
10432TIP3    H231242   4.773   3.557   3.524 -0.3195  0.3986 -0.4514
10433TIP3   OH231243   4.675   4.704   0.870  0.3696  0.0963 -0.0321
10433TIP3    H131244   4.640   4.637   0.929  0.3350  0.5250  0.4379
10433TIP3    H231245   4.699   4.776   0.927 -0.6199  0.9323 -0.6392
10434TIP3   OH231246   3.167   1.810   5.003 -0.5473 -0.2919  0.0360
10434TIP3    H131247   3.198   1.731   4.961  0.5825 -0.3388  0.8972
10434TIP3    H231248   3.172   1.791   5.097 -0.4834  0.7006  0.2502
10435TIP3   OH231249   5.343   3.432   5.800 -0.6070  0.9364 -0.3144
10435TIP3    H131250   5.396   3.355   5.781  0.9605  1.9229 -0.0775
10435TIP3    H231251   5.343   3.439   5.895  1.3669  2.5892 -0.3764
10436TIP3   OH231252   5.876   7.332   0.213  0.4865  0.0470 -0.6289
10436TIP3    H131253   5.869   7.374   0.127  0.4697  0.5220 -0.3996
10436TIP3    H231254   5.787   7.337   0.249  0.5781  0.2055 -0.4229
10437TIP3   OH231255   0.641   1.359   0.230 -0.1419  0.2956  0.4993
10437TIP3    H131256   0.639   1.395   0.319  0.8896 -0.8447  1.0150
10437TIP3    H231257   0.554   1.379   0.195 -0.3595  1.3149  1.5247
10438TIP3   OH231258   6.377   0.056   4.870 -0.8666 -0.2017  0.0115
10438TIP3    H131259   6.377   0.002   4.949 -1.2271  0.2685  0.3351
10438TIP3    H231260   6.311   0.123   4.886  0.0231  0.7250 -0.1205
10439TIP3   OH231261   2.829   6.536   2.474 -0.7564 -0.1020  0.3659
10439TIP3    H131262   2.780   6.551   2.393 -1.0433 -1.9751  0.1530
10439TIP3    H231263   2.920   6.555   2.452 -0.7895 -0.8932 -0.4935
10440TIP3   OH231264   2.109   5.873   1.551  0.3811 -0.0520  0.6831
10440TIP3    H131265   2.105   5.895   1.458 -1.9174  0.8379  0.9309
10440TIP3    H231266   2.168   5.938   1.589  1.6610 -0.6724 -0.1727
10441TIP3   OH231267   2.666   0.458   2.729  0.1965 -0.3428  0.0746
10441TIP3    H131268   2.650   0.550   2.748  0.7096 -0.6358  2.1173
10441TIP3    H231269   2.692   0.420   2.813  2.3547 -1.8515 -1.1589
10442TIP3   OH231270   1.947   4.552   5.747  0.0345 -0.2568 -0.0040
10442TIP3    H131271   1.871   4.575   5.800  1.0167  1.4327  0.7486
10442TIP3    H231272   1.912   4.494   5.679 -1.6323 -0.7159  1.1932
10443TIP3   OH231273   6.379   4.090   1.424 -1.0154 -0.0474  0.0643
10443TIP3    H131274   6.380   4.133   1.338 -0.3638  0.6586  0.4118
10443TIP3    H231275   6.353   4.000   1.405 -0.1162 -0.1205 -0.9761
10444TIP3   OH231276   5.744   7.181   0.686  0.3588  0.0070  0.1298
10444TIP3    H131277   5.714   7.090   0.682 -1.0848  0.3752  1.7960
10444TIP3    H231278   5.804   7.184   0.761 -0.7197  0.7096  0.9910
10445TIP3   OH231279   6.724   7.153   6.164  0.5414 -0.1060  0.9892
10445TIP3    H131280   6.643   7.164   6.214  0.9763  1.2643  1.4194
10445TIP3    H231281   6.698   7.102   6.087 -0.7727  0.4751  1.0285
10446TIP3   OH231282   3.494   5.129   1.781  0.3384  0.1491  0.5938
10446TIP3    H131283   3.441   5.201   1.747  1.3343  1.3382  1.4780
10446TIP3    H231284   3.441   5.051   1.766 -0.4427  0.9561 -1.1035
10447TIP3   OH231285   4.375   4.612   4.439 -0.2490 -0.0994  0.6331
10447TIP3    H131286   4.336   4.688   4.481  0.0329  0.0852  0.5672
10447TIP3    H231287   4.314   4.540   4.457 -1.7418  0.5936 -1.2598
10448TIP3   OH231288   4.939   2.953   1.836 -0.3485  0.2516  0.2691
10448TIP3    H131289   4.913   3.037   1.797  0.0111  0.2483  0.0174
10448TIP3    H231290   4.940   2.892   1.762 -1.3559 -0.1617  0.5686
10449TIP3   OH231291   3.297   2.028   4.634 -0.1981  0.0038 -0.2612
10449TIP3    H131292   3.248   2.088   4.579 -0.7075 -1.8956 -2.0109
10449TIP3    H231293   3.376   2.008   4.584  1.2984  1.1696  1.4626
10450TIP3   OH231294   1.535   6.253   1.637  0.2369 -0.1648 -0.2708
10450TIP3    H131295   1.546   6.342   1.668  2.1669 -0.3748 -0.1977
10450TIP3    H231296   1.529   6.200   1.717  0.0212 -0.1955 -0.3066
10451TIP3   OH231297   7.238   6.235   5.356 -0.0966 -0.0352 -0.3026
10451TIP3    H131298   7.243   6.274   5.443 -1.3196 -0.2695 -0.1093
10451TIP3    H231299   7.163   6.278   5.315 -0.0827 -0.5725 -0.9042
10452TIP3   OH231300   8.219   0.833   6.220 -0.0481  0.3632  0.3417
10452TIP3    H131301   8.153   0.796   6.162 -1.4623  3.0496  0.1215
10452TIP3    H231302   8.171   0.857   6.299  0.9935  0.8835  0.8361
10453TIP3   OH231303   4.256   7.270   4.308 -0.2301  0.7283 -0.3047
10453TIP3    H131304   4.309   7.287   4.386 -0.0485  1.8783 -0.6595
10453TIP3    H231305   4.238   7.176   4.312  4.8155 -0.6198 -2.0407
10454TIP3   OH231306   3.737   6.734   4.338 -0.0483  0.0615  0.3536
10454TIP3    H131307   3.778   6.740   4.424  0.8000  0.6178 -0.0812
10454TIP3    H231308   3.645   6.757   4.354 -0.3903 -1.8577  1.4423
10455TIP3   OH231309   6.866   4.994   2.024 -0.2298 -0.2069  0.0671
10455TIP3    H131310   6.848   5.076   2.070  1.2815  0.8488 -1.1475
10455TIP3    H231311   6.917   4.942   2.087  0.0920  0.4051  0.3198
10456TIP3   OH231312   7.373   1.331   3.493  0.5591 -0.3819  0.7503
10456TIP3    H131313   7.354   1.401   3.555  0.4119 -0.3631  0.6854
10456TIP3    H231314   7.342   1.252   3.536 -1.6839 -0.1194 -0.2102
10457TIP3   OH231315   3.113   6.803   1.017  0.4187  0.4140  0.3374
10457TIP3    H131316   3.154   6.801   1.103 -0.3023  2.0576  0.7712
10457TIP3    H231317   3.183   6.780   0.956  1.2075  0.2395  1.2905
10458TIP3   OH231318   2.610   7.606   5.959 -0.6152  0.2990 -0.2143
10458TIP3    H131319   2.562   7.542   6.012 -0.8631  0.4278 -0.2809
10458TIP3    H231320   2.542   7.650   5.909 -0.3784  0.1586 -0.6608
10459TIP3   OH231321   0.682   0.392   2.455 -0.0136  0.3386  0.5318
10459TIP3    H131322   0.720   0.423   2.372  1.1369  0.3941  1.0621
10459TIP3    H231323   0.750   0.339   2.495 -0.2512  0.9352  1.8019
10460TIP3   OH231324   1.793   0.695   5.817 -0.1300 -0.2867  0.2293
10460TIP3    H131325   1.750   0.617   5.781  0.9357 -1.3050  1.0898
10460TIP3    H231326   1.778   0.690   5.911  1.1268 -0.2257  0.4559
10461TIP3   OH231327   5.905   6.829   6.293 -0.0510 -0.2432  0.2693
10461TIP3    H131328   5.879   6.848   6.203  1.6988  0.6844 -0.0760
10461TIP3    H231329   5.825   6.843   6.344 -1.5041 -2.3423 -1.2640
10462TIP3   OH231330   1.558   2.044   2.830  0.1199 -0.0572 -0.1361
10462TIP3    H131331   1.518   1.962   2.859 -1.1022  1.0647  1.5503
10462TIP3    H231332   1.484   2.100   2.808  0.8926  1.0368 -0.0114
10463TIP3   OH231333   3.432   3.093   0.335  0.2567  0.1394 -0.2172
10463TIP3    H131334   3.501   3.151   0.301  1.8873 -1.5490  0.0103
10463TIP3    H231335   3.476   3.008   0.345 -1.4615 -0.6172  1.4507
10464TIP3   OH231336   3.506   0.084   2.626  0.9298 -0.2911  0.0490
10464TIP3    H131337   3.545   0.115   2.708 -1.5948 -0.3511  1.3900
10464TIP3    H231338   3.482  -0.007   2.644 -0.1834 -0.1264 -0.5302
10465TIP3   OH231339   7.742   6.979   2.953 -0.7244 -0.5018 -0.1912
10465TIP3    H131340   7.809   7.041   2.922 -1.2831  0.5267  0.5936
10465TIP3    H231341   7.669   6.992   2.893  0.5450 -3.3870 -2.6261
10466TIP3   OH231342   0.752   7.262   1.906 -0.2820 -0.2576  0.3233
10466TIP3    H131343   0.730   7.174   1.936 -2.2880  1.0339  3.0763
10466TIP3    H231344   0.768   7.252   1.812  1.3787 -3.8042  0.8278
10467TIP3   OH231345   5.391   7.510   3.215 -0.0986 -0.4705 -0.0610
10467TIP3    H131346   5.385   7.475   3.304  2.0896  0.5764  0.5678
10467TIP3    H231347   5.308   7.556   3.202  0.2547  0.9969  2.2244
10468TIP3   OH231348   4.247   2.959   5.601  0.4867  0.1295  0.7841
10468TIP3    H131349   4.286   2.880   5.637  1.1826 -0.3270 -0.8640
10468TIP3    H231350   4.161   2.965   5.642  0.9884 -0.6686  2.0115
10469TIP3   OH231351   7.268   6.978   6.064  0.1900  0.0347  0.1421
10469TIP3    H131352   7.360   6.987   6.037  0.0757 -0.5205 -0.4722
10469TIP3    H231353   7.227   7.059   6.036  0.3049 -0.0919 -0.4019
10470TIP3   OH231354   6.698   3.963   5.868  0.0004 -0.4545 -0.3845
10470TIP3    H131355   6.759   4.004   5.805 -1.3793  0.6821 -1.0422
10470TIP3    H231356   6.702   4.020   5.944 -0.1902 -0.4187 -0.4019
10471TIP3   OH231357   5.874   6.606   2.757 -0.4756 -0.0472  0.0486
10471TIP3    H131358   5.790   6.648   2.778 -0.3448 -0.1621  0.8193
10471TIP3    H231359   5.886   6.623   2.664 -1.3313  0.0228 -0.0625
10472TIP3   OH231360   0.280   2.861   3.300  0.4556  0.0468  0.6263
10472TIP3    H131361   0.270   2.770   3.271  0.9419 -0.5190  2.1234
10472TIP3    H231362   0.371   2.866   3.330  0.6398  1.2330 -0.0622
10473TIP3   OH231363   7.368   7.503   4.746  0.2894 -0.1340  0.0786
10473TIP3    H131364   7.302   7.496   4.677  0.8281 -0.9205 -0.3827
10473TIP3    H231365   7.446   7.462   4.708  0.7671 -0.0423  0.9406
10474TIP3   OH231366   2.643   4.982   2.990  0.1142 -0.1317 -0.5278
10474TIP3    H131367   2.691   5.047   3.042 -0.0601 -0.5001  0.1069
10474TIP3    H231368   2.669   4.898   3.027 -0.1263 -0.3920 -0.9485
10475TIP3   OH231369   5.019   2.609   6.630 -0.1203 -0.1763  0.2333
10475TIP3    H131370   4.926   2.596   6.609 -0.3681  0.1114  1.1324
10475TIP3    H231371   5.021   2.686   6.686  0.6376 -0.3191  0.4129
10476TIP3   OH231372   5.655   2.474   1.810  0.6229  0.6477  0.5629
10476TIP3    H131373   5.665   2.380   1.793  1.9390  0.9895 -0.8321
10476TIP3    H231374   5.565   2.493   1.786  1.0833  0.1819 -1.7840
10477TIP3   OH231375   0.495   1.338   0.577 -0.0655  0.9799  0.1834
10477TIP3    H131376   0.468   1.336   0.669 -1.1221  0.6076 -0.1131
10477TIP3    H231377   0.452   1.415   0.541  0.1139  0.9641 -0.0646
10478TIP3   OH231378   0.338   0.898   6.514  0.2366 -0.9129  1.0260
10478TIP3    H131379   0.253   0.917   6.474 -0.6235 -2.8511  1.8203
10478TIP3    H231380   0.359   0.809   6.485  2.6360 -0.0225 -0.1852
10479TIP3   OH231381   8.191   0.591   3.088  0.5447  0.3352 -0.1297
10479TIP3    H131382   8.237   0.606   3.170  0.1412 -0.7726  0.3138
10479TIP3    H231383   8.214   0.501   3.063 -0.4333  0.1736 -0.5066
10480TIP3   OH231384   3.834   4.440   6.623  0.5974 -0.0249  0.2326
10480TIP3    H131385   3.889   4.400   6.690  1.4413  0.3790 -0.1943
10480TIP3    H231386   3.896   4.482   6.563 -0.2256  1.2884  0.2585
10481TIP3   OH231387   2.072   5.766   2.331 -0.4727  0.5012 -0.4676
10481TIP3    H131388   2.108   5.718   2.405 -0.2283  2.0396  0.4602
10481TIP3    H231389   1.998   5.713   2.302 -0.2937 -0.3650  0.5866
10482TIP3   OH231390   3.639   3.443   0.772 -0.5512 -0.2347  0.3793
10482TIP3    H131391   3.669   3.509   0.710  1.0587 -2.4699 -1.3667
10482TIP3    H231392   3.553   3.417   0.739 -0.0746 -0.7929 -0.4598
10483TIP3   OH231393   0.346   2.275   0.716  0.0889  0.1726 -0.2040
10483TIP3    H131394   0.334   2.181   0.709 -0.1434 -0.0168  1.9984
10483TIP3    H231395   0.322   2.309   0.630 -1.4896 -1.6279 -0.5460
10484TIP3   OH231396   4.477   2.501   1.081 -0.5455  0.0043 -0.4745
10484TIP3    H131397   4.541   2.436   1.051 -2.2235 -2.5848  1.1244
10484TIP3    H231398   4.519   2.543   1.155 -0.7468 -1.9996  0.8587
10485TIP3   OH231399   2.745   7.294   4.882 -0.7663  0.1002  0.1806
10485TIP3    H131400   2.728   7.249   4.965  0.2390  0.8049  0.8078
10485TIP3    H231401   2.812   7.241   4.839 -1.3332 -0.2993 -0.2204
10486TIP3   OH231402   1.554   0.940   3.343  0.4776  0.4355 -0.1980
10486TIP3    H131403   1.605   0.925   3.264 -0.6013 -1.1809 -0.6075
10486TIP3    H231404   1.466   0.910   3.322 -0.4473  2.2589  0.8268
10487TIP3   OH231405   0.081   2.867   0.157 -0.5819 -0.5782  0.1791
10487TIP3    H131406   0.033   2.942   0.192 -0.8152 -0.8891  0.5400
10487TIP3    H231407   0.021   2.793   0.170 -0.5506 -0.7526 -0.6040
10488TIP3   OH231408   4.386   1.492   2.046  0.4601  0.0480 -0.3195
10488TIP3    H131409   4.334   1.473   1.968 -0.7558 -0.3525  0.5595
10488TIP3    H231410   4.465   1.440   2.035 -0.5831 -1.6093 -0.3685
10489TIP3   OH231411   3.989   5.039   3.771  0.2355  0.3990 -0.2196
10489TIP3    H131412   4.049   4.972   3.737  0.7541 -0.0088  1.4264
10489TIP3    H231413   4.043   5.117   3.780  0.1508  0.4447 -0.1120
10490TIP3   OH231414   2.343   4.620   6.222 -0.0400  0.2526  0.5540
10490TIP3    H131415   2.415   4.564   6.250 -0.8151 -0.7837  0.5371
10490TIP3    H231416   2.286   4.627   6.298  0.3944  1.6440  0.7899
10491TIP3   OH231417   4.052   2.011   2.040  0.1488 -0.2900  0.1162
10491TIP3    H131418   4.086   2.078   2.100  1.5366 -0.1079 -0.8188
10491TIP3    H231419   4.039   2.058   1.958  0.2746 -0.9726 -0.2965
10492TIP3   OH231420   6.690   6.525   6.440 -0.2095  0.1313  0.5048
10492TIP3    H131421   6.698   6.457   6.507 -1.6251  1.0684  1.7001
10492TIP3    H231422   6.676   6.477   6.359 -0.2609 -1.0233  1.1716
10493TIP3   OH231423   6.398   1.264   1.363  0.5215  0.1342  0.2472
10493TIP3    H131424   6.487   1.296   1.374  0.3763  0.2432  1.1819
10493TIP3    H231425   6.406   1.192   1.301  1.0057  1.2515 -1.0424
10494TIP3   OH231426   5.113   6.482   3.134  0.2702 -0.2524  0.2127
10494TIP3    H131427   5.066   6.543   3.078  1.8589  0.1595 -0.7346
10494TIP3    H231428   5.072   6.491   3.220  0.7447  2.5214  0.2194
10495TIP3   OH231429  -0.008   1.815   2.029 -0.4879 -0.2492  0.7863
10495TIP3    H131430   0.087   1.804   2.029 -0.0518  2.6235  1.4430
10495TIP3    H231431  -0.033   1.804   2.121 -0.4940  0.6985  0.9116
10496TIP3   OH231432   7.103   3.476   6.534 -0.4304 -0.5629  0.1395
10496TIP3    H131433   7.061   3.474   6.620 -0.4582  1.0262  0.1854
10496TIP3    H231434   7.065   3.401   6.488 -0.0327 -1.7630  1.6543
10497TIP3   OH231435   3.143   6.799   5.847 -0.4004 -0.0413 -0.4354
10497TIP3    H131436   3.209   6.822   5.781 -0.2022  0.3703 -0.0997
10497TIP3    H231437   3.077   6.750   5.798 -0.6362  0.9020 -1.0920
10498TIP3   OH231438   2.568   6.683   3.381 -0.1275  0.5347  0.0571
10498TIP3    H131439   2.624   6.720   3.449 -0.9688  0.0792  1.0270
10498TIP3    H231440   2.526   6.607   3.422  1.3461 -1.4152 -1.7761
10499TIP3   OH231441   5.702   0.397   1.368  0.7256  0.7668 -0.6604
10499TIP3    H131442   5.635   0.387   1.300 -0.3469  0.7028  0.3814
10499TIP3    H231443   5.782   0.366   1.326 -0.4549 -2.1797 -0.9786
10500TIP3   OH231444   6.871   6.439   6.752  0.4406 -0.1793 -0.0380
10500TIP3    H131445   6.841   6.354   6.720  1.4291 -0.0082 -1.5357
10500TIP3    H231446   6.792   6.483   6.784 -0.5633 -0.5448 -1.9113
10501TIP3   OH231447   6.985   2.757   4.787  0.0288 -0.0252 -0.3344
10501TIP3    H131448   7.018   2.841   4.754  0.3265  0.9794  2.3078
10501TIP3    H231449   7.008   2.757   4.880 -3.2313 -1.3919  0.6031
10502TIP3   OH231450   0.335   5.646   5.775  0.1230 -0.2236  0.2954
10502TIP3    H131451   0.396   5.655   5.848 -0.5429 -0.2416  0.8623
10502TIP3    H231452   0.348   5.725   5.723  0.6732 -0.2575  0.3711
10503TIP3   OH231453   1.326   0.986   2.922 -0.5678 -0.3526  0.3926
10503TIP3    H131454   1.342   1.064   2.868 -0.2453  0.2997  1.4029
10503TIP3    H231455   1.231   0.975   2.919 -0.9342  1.6187  2.2461
10504TIP3   OH231456   2.672   5.128   0.565 -0.4880 -0.0679  0.1135
10504TIP3    H131457   2.761   5.108   0.594 -0.7755 -2.0438 -0.2089
10504TIP3    H231458   2.626   5.044   0.571 -1.7989  0.4736 -1.6118
10505TIP3   OH231459   7.429   3.745   3.033  0.3908  0.0012  0.3181
10505TIP3    H131460   7.484   3.808   3.081 -0.0471  0.4346  0.2545
10505TIP3    H231461   7.403   3.791   2.954  0.8392 -0.6029 -0.1852
10506TIP3   OH231462   4.750   2.315   0.058  0.1732 -0.0186  0.4314
10506TIP3    H131463   4.762   2.338  -0.034 -0.1059  0.7575  0.5771
10506TIP3    H231464   4.658   2.335   0.075 -1.2840 -4.6955 -0.3838
10507TIP3   OH231465   2.449   6.818   4.499 -0.5511 -0.1380  0.3680
10507TIP3    H131466   2.421   6.833   4.589 -3.2250  1.1421 -0.5698
10507TIP3    H231467   2.471   6.906   4.466 -3.7520  0.1698 -1.3762
10508TIP3   OH231468   6.838   7.590   6.314  1.1447  0.0014  0.6073
10508TIP3    H131469   6.750   7.619   6.292  0.3056 -2.2731  0.6716
10508TIP3    H231470   6.871   7.551   6.233  0.3543 -3.0290  1.6098
10509TIP3   OH231471   5.554   6.170   6.272 -0.1421  0.6498  0.0499
10509TIP3    H131472   5.537   6.179   6.178 -1.0167  2.5998  0.3546
10509TIP3    H231473   5.469   6.151   6.310 -0.6508  4.0009  0.8606
10510TIP3   OH231474   3.250   6.971   2.285  0.0254  0.0820  0.3606
10510TIP3    H131475   3.344   6.971   2.266 -0.2980  1.1766 -1.4921
10510TIP3    H231476   3.215   6.899   2.233 -0.3933  0.8800 -0.5001
10511TIP3   OH231477   2.363   4.196   2.695  0.0476  0.1278  0.0844
10511TIP3    H131478   2.378   4.143   2.773 -0.9755 -0.7435 -0.2887
10511TIP3    H231479   2.285   4.158   2.655  0.5717  0.5460 -1.3823
10512TIP3   OH231480   4.935   5.309   4.672  1.0268  0.8591  0.5789
10512TIP3    H131481   4.952   5.219   4.644  0.6718  0.3628  1.8869
10512TIP3    H231482   4.840   5.318   4.666  1.2067  1.9223 -1.7153
10513TIP3   OH231483   4.453   6.480   6.576 -0.1919  0.3845  0.0535
10513TIP3    H131484   4.472   6.388   6.594 -0.6247  0.3986  0.6413
10513TIP3    H231485   4.492   6.497   6.491 -1.9348 -0.9268 -1.0898
10514TIP3   OH231486   0.107   6.120   6.326 -0.2635  0.3909 -0.5349
10514TIP3    H131487   0.173   6.052   6.335 -1.8909 -1.3094 -0.7174
10514TIP3    H231488   0.058   6.095   6.247 -0.6570  2.0234 -0.8473
10515TIP3   OH231489   1.546   3.115   5.757 -0.0962 -0.1680  0.1317
10515TIP3    H131490   1.487   3.057   5.710 -0.2472 -0.1718  0.3255
10515TIP3    H231491   1.581   3.062   5.828  2.0695 -0.9529 -1.4216
10516TIP3   OH231492   1.604   1.378   3.643  0.0090  0.8446  0.0834
10516TIP3    H131493   1.559   1.454   3.606 -1.6319 -0.3327 -0.4601
10516TIP3    H231494   1.605   1.313   3.572 -1.2010 -0.6625  1.3556
10517TIP3   OH231495   7.844   5.716   6.224 -0.3378 -0.4357 -0.1777
10517TIP3    H131496   7.905   5.648   6.194 -0.3429 -0.4840 -0.0770
10517TIP3    H231497   7.837   5.704   6.318  0.4628  0.3665 -0.0066
10518TIP3   OH231498   2.695   1.138   4.651 -0.2859 -0.2584  0.3947
10518TIP3    H131499   2.680   1.132   4.746  0.7576  0.9912  0.6698
10518TIP3    H231500   2.772   1.083   4.636 -0.6949 -0.7859  0.1884
10519TIP3   OH231501   1.658   3.483   1.930  0.4200 -0.0148 -0.0586
10519TIP3    H131502   1.727   3.502   1.867 -0.4704 -0.0666 -1.0821
10519TIP3    H231503   1.589   3.547   1.910  0.1136 -0.0408  0.8602
10520TIP3   OH231504   6.776   4.659   1.019  0.0598 -0.5503 -0.2521
10520TIP3    H131505   6.832   4.600   0.968 -0.3657 -0.9295 -0.2878
10520TIP3    H231506   6.797   4.746   0.987 -0.0446 -0.7697 -0.9308
10521TIP3   OH231507   0.419   0.684   6.725 -0.3776 -0.4345 -0.0123
10521TIP3    H131508   0.327   0.674   6.751 -0.7750  0.4007 -1.0204
10521TIP3    H231509   0.463   0.716   6.803 -1.5790  2.2115 -0.3283
10522TIP3   OH231510   4.289   7.460   5.248 -0.1504 -0.3771 -0.1501
10522TIP3    H131511   4.313   7.547   5.215 -0.3277 -0.4803 -0.5650
10522TIP3    H231512   4.193   7.461   5.250 -0.2165 -1.0625 -1.5725
10523TIP3   OH231513   2.085   2.110   5.849  0.1825  0.3425 -0.0007
10523TIP3    H131514   2.110   2.019   5.833  1.1101  0.9020 -2.2118
10523TIP3    H231515   2.004   2.121   5.798 -0.8057  0.3840  1.5200
10524TIP3   OH231516   1.658   6.708   3.344 -0.0866  0.7585  0.5577
10524TIP3    H131517   1.588   6.653   3.309  0.2053  0.8437 -0.1772
10524TIP3    H231518   1.739   6.666   3.314  0.1623  1.0042  0.8786
10525TIP3   OH231519   6.215   4.741   6.748 -0.2660  0.1070  0.0389
10525TIP3    H131520   6.200   4.836   6.744 -0.7138  0.1189  1.6484
10525TIP3    H231521   6.295   4.731   6.799 -0.9861 -0.4275  1.0908
10526TIP3   OH231522   0.775   4.983   5.906 -0.2280 -0.0476  0.4384
10526TIP3    H131523   0.838   5.052   5.928  0.0906  0.4689 -1.7965
10526TIP3    H231524   0.737   5.012   5.822 -3.0331 -0.6345  1.3945
10527TIP3   OH231525   0.583   0.709   5.420 -0.2285  0.3469  0.3842
10527TIP3    H131526   0.566   0.801   5.440  1.4118  0.4008  1.7696
10527TIP3    H231527   0.654   0.684   5.480 -0.2592 -1.6695 -0.3394
10528TIP3   OH231528   1.116   1.612   3.896 -0.0492 -0.4254 -0.0867
10528TIP3    H131529   1.035   1.572   3.927 -1.6668 -0.2514 -3.5943
10528TIP3    H231530   1.114   1.700   3.932 -1.3580 -0.4771  0.0317
10529TIP3   OH231531   4.627   1.459   1.384 -0.1133  0.7909 -0.3814
10529TIP3    H131532   4.578   1.539   1.404  0.0953  0.2489  2.8488
10529TIP3    H231533   4.704   1.490   1.337 -1.2137  2.1899 -1.3425
10530TIP3   OH231534   0.910   6.615   5.752  0.0808  0.3611 -0.0007
10530TIP3    H131535   0.868   6.692   5.790  2.3046  2.0312 -0.6860
10530TIP3    H231536   0.933   6.561   5.827 -0.4593  0.9552  0.6027
10531TIP3   OH231537   5.489   3.000   4.165 -0.1323 -0.2042 -0.1751
10531TIP3    H131538   5.553   2.942   4.124 -0.3661  0.3064 -1.3245
10531TIP3    H231539   5.506   3.086   4.126 -0.6783  0.2123  0.4716
10532TIP3   OH231540   3.580   4.267   5.437 -0.2309 -0.0856  0.3218
10532TIP3    H131541   3.641   4.286   5.509  0.2166 -0.7131  0.1147
10532TIP3    H231542   3.493   4.280   5.475  0.0141  1.7250  0.3759
10533TIP3   OH231543   4.507   0.961   5.735 -0.4460  0.0226  0.1772
10533TIP3    H131544   4.561   0.974   5.813  1.0872  1.0637 -1.0066
10533TIP3    H231545   4.497   1.048   5.697 -0.4240 -0.5620 -1.2463
10534TIP3   OH231546   0.604   2.888   5.727 -0.2807 -0.3362 -0.5990
10534TIP3    H131547   0.556   2.953   5.779 -0.0039 -0.8982  0.3826
10534TIP3    H231548   0.674   2.938   5.684  0.6000 -0.1318  0.9932
10535TIP3   OH231549   1.680   4.563   5.880  0.2051 -0.2712 -0.0015
10535TIP3    H131550   1.626   4.579   5.957  0.3444  0.1091  0.0203
10535TIP3    H231551   1.706   4.471   5.888 -0.6409 -0.5314 -0.1492
10536TIP3   OH231552   5.146   5.380   2.788 -0.7233 -0.0651 -0.3575
10536TIP3    H131553   5.241   5.369   2.795 -0.8737 -1.0129  0.4201
10536TIP3    H231554   5.135   5.456   2.730  0.5044  0.2104 -0.2645
10537TIP3   OH231555   1.513   6.491   2.775  0.2349 -0.1488  0.3584
10537TIP3    H131556   1.530   6.511   2.682 -0.6155 -0.6655  0.0770
10537TIP3    H231557   1.536   6.572   2.821  1.3400 -0.1143 -0.2122
10538TIP3   OH231558   1.953   6.762   0.145  0.5308 -0.0595  0.2029
10538TIP3    H131559   1.875   6.764   0.200  0.5153 -0.0731  0.1818
10538TIP3    H231560   1.968   6.669   0.129  1.8865 -0.2265  2.0827
10539TIP3   OH231561   1.344   0.943   1.146 -0.1748  0.5716  0.2947
10539TIP3    H131562   1.353   0.853   1.176 -0.6436 -0.3247 -2.0160
10539TIP3    H231563   1.262   0.974   1.184  0.1921  0.1903  1.4286
10540TIP3   OH231564   1.937   4.973   2.616 -0.1646  0.3598 -0.2651
10540TIP3    H131565   1.953   4.923   2.696 -1.3360  0.0163 -0.2302
10540TIP3    H231566   1.980   5.058   2.633 -0.1802  0.2067  0.6178
10541TIP3   OH231567   0.209   1.713   5.312  0.1696  0.0859  0.1186
10541TIP3    H131568   0.209   1.693   5.406  0.7258 -0.1370  0.0773
10541TIP3    H231569   0.118   1.703   5.285  0.0278  0.0249  0.6100
10542TIP3   OH231570   6.046   3.958   6.216 -0.5562  0.0382  0.1802
10542TIP3    H131571   6.110   4.026   6.237  0.1280 -0.4762 -0.1834
10542TIP3    H231572   5.964   3.989   6.255 -0.2403  1.0259  0.0883
10543TIP3   OH231573   2.165   0.011   1.473 -0.6152  0.0407  0.1948
10543TIP3    H131574   2.087  -0.014   1.424 -0.4630  1.3292 -0.7558
10543TIP3    H231575   2.200   0.086   1.426  1.8533 -1.1761 -0.0801
10544TIP3   OH231576   3.190   6.752   5.159  0.8397 -0.6155  0.2535
10544TIP3    H131577   3.275   6.777   5.122  0.5615  0.3087  0.2079
10544TIP3    H231578   3.192   6.784   5.249  0.3505 -0.1150  0.0944
10545TIP3   OH231579   4.666   3.349   1.428 -0.0311  0.0920  0.3467
10545TIP3    H131580   4.639   3.259   1.409 -0.0981  0.3499 -0.9060
10545TIP3    H231581   4.587   3.391   1.462 -0.2818 -0.0655 -0.0284
10546TIP3   OH231582   4.184   7.473   2.116 -0.8138 -0.3629  0.1797
10546TIP3    H131583   4.174   7.467   2.211  1.3188  0.8384  0.5502
10546TIP3    H231584   4.260   7.417   2.097 -0.4128  0.4354 -0.6168
10547TIP3   OH231585   5.861   0.957   1.744 -0.1289 -0.0861 -0.0359
10547TIP3    H131586   5.922   0.904   1.796 -0.4591 -0.8371 -0.3949
10547TIP3    H231587   5.828   0.897   1.677 -0.1962  0.6967 -0.7161
10548TIP3   OH231588   0.500   0.595   2.021  0.4740 -0.1270 -0.1134
10548TIP3    H131589   0.560   0.602   1.946  0.7198 -0.2941  0.0663
10548TIP3    H231590   0.520   0.509   2.058  0.6320  0.1255  0.3870
10549TIP3   OH231591   7.241   0.437   4.539  0.3496 -0.7045  0.4957
10549TIP3    H131592   7.161   0.391   4.565 -1.3556  2.4225  1.2728
10549TIP3    H231593   7.217   0.482   4.458  1.4426 -0.0427  0.5248
10550TIP3   OH231594   3.413   6.419   0.690 -0.3694  0.7494  0.2366
10550TIP3    H131595   3.478   6.430   0.759 -0.0579 -1.0492  0.2700
10550TIP3    H231596   3.375   6.333   0.706  0.4266 -0.2044 -2.3974
10551TIP3   OH231597   5.056   1.529   4.412  0.1375  0.2358  0.7933
10551TIP3    H131598   5.027   1.517   4.503  0.4314  0.1438  0.8760
10551TIP3    H231599   5.016   1.611   4.385 -0.8747 -0.2953  0.6342
10552TIP3   OH231600   7.243   5.739   3.390 -0.2403  0.3403  0.7864
10552TIP3    H131601   7.151   5.763   3.381 -0.3178 -0.4302 -0.7216
10552TIP3    H231602   7.291   5.814   3.355 -0.3014  0.5708  1.1915
10553TIP3   OH231603   0.591   7.013   5.080  0.1080 -0.3485 -0.1622
10553TIP3    H131604   0.500   6.985   5.089  0.7388 -2.5214  0.0396
10553TIP3    H231605   0.586   7.107   5.061 -2.1085 -0.1766  1.0155
10554TIP3   OH231606   0.296   6.629   1.327 -0.2056 -0.2528  0.4050
10554TIP3    H131607   0.306   6.556   1.266  1.4346 -1.8796  2.4539
10554TIP3    H231608   0.385   6.664   1.338 -0.6424  0.7425  0.9856
10555TIP3   OH231609   4.160   5.404   1.571  0.0439  0.1002 -0.0106
10555TIP3    H131610   4.237   5.367   1.615  0.5678  1.6858  0.4756
10555TIP3    H231611   4.139   5.340   1.503  0.7221 -1.2200  0.9551
10556TIP3   OH231612   6.945   1.960   0.881  0.3548 -0.7495 -0.1404
10556TIP3    H131613   6.873   1.944   0.821 -2.3340 -0.1760  2.6779
10556TIP3    H231614   6.903   1.994   0.960  3.5867 -1.7540  2.2128
10557TIP3   OH231615   5.582   3.235   6.187 -0.0024 -0.6678  0.0365
10557TIP3    H131616   5.586   3.330   6.198 -1.9983 -0.3502 -1.3558
10557TIP3    H231617   5.646   3.201   6.249 -0.1172  1.5129  1.4672
10558TIP3   OH231618   2.630   4.194   4.896 -0.0681  0.6999  0.1175
10558TIP3    H131619   2.628   4.136   4.972  1.8330 -1.3580 -1.2545
10558TIP3    H231620   2.541   4.226   4.887 -1.7415 -3.4844 -0.0223
10559TIP3   OH231621   5.015   0.608   5.110 -0.2084 -0.2361 -0.4642
10559TIP3    H131622   5.054   0.562   5.185 -0.5257 -0.2491 -0.3072
10559TIP3    H231623   5.053   0.696   5.113 -0.0428 -0.3085 -0.4263
10560TIP3   OH231624   4.162   4.546   2.589  0.0146  0.0195  0.2257
10560TIP3    H131625   4.116   4.556   2.672  0.6729  0.2302  0.5690
10560TIP3    H231626   4.094   4.521   2.527 -0.4149 -0.5419  0.9103
10561TIP3   OH231627   7.724   1.873   1.770  0.2157 -0.3969 -0.6245
10561TIP3    H131628   7.772   1.919   1.838 -1.3031 -1.6620  1.4051
10561TIP3    H231629   7.780   1.799   1.746  1.6378  1.1090 -2.2802
10562TIP3   OH231630   1.933   5.790   2.059  0.1222  0.5954  0.2187
10562TIP3    H131631   1.856   5.847   2.063 -0.6308 -0.1642 -2.1142
10562TIP3    H231632   1.898   5.703   2.038  1.4826 -0.1935  1.0095
10563TIP3   OH231633   2.164   6.031   3.828 -0.1200  0.0029  0.0291
10563TIP3    H131634   2.076   6.045   3.793  1.1333 -0.3452 -3.6711
10563TIP3    H231635   2.150   5.994   3.915 -3.5853  0.7367 -0.1003
10564TIP3   OH231636   0.446   6.603   6.374  0.5454 -0.2103 -0.1503
10564TIP3    H131637   0.399   6.557   6.443  0.9329 -0.8001 -0.2756
10564TIP3    H231638   0.509   6.659   6.421 -0.0070  0.2921  0.0039
10565TIP3   OH231639   4.159   1.300   4.355 -0.1181  0.3046 -0.1239
10565TIP3    H131640   4.180   1.328   4.445 -0.5911  1.4661 -0.3565
10565TIP3    H231641   4.102   1.224   4.367 -1.2566  1.2396  0.6019
10566TIP3   OH231642   8.271   7.536   2.605  0.5565  0.1855  0.0499
10566TIP3    H131643   8.287   7.493   2.521 -1.1298  0.6864 -0.5614
10566TIP3    H231644   8.336   7.606   2.608 -0.6234  1.4743 -1.8323
10567TIP3   OH231645   3.129   0.765   3.895  0.2384  0.0559  0.0288
10567TIP3    H131646   3.163   0.800   3.978  0.5616 -0.8285  0.2900
10567TIP3    H231647   3.207   0.739   3.847  0.0446  0.4678 -0.5194
10568TIP3   OH231648   0.910   5.351   1.315 -0.7824 -0.0253 -0.6893
10568TIP3    H131649   0.897   5.264   1.277  1.3196 -0.6711 -0.0343
10568TIP3    H231650   0.946   5.335   1.402 -2.2313  1.5039  0.2523
10569TIP3   OH231651   2.022   6.845   3.248  0.3593 -0.2699 -0.1471
10569TIP3    H131652   1.953   6.907   3.223  0.7836 -0.7507 -2.7411
10569TIP3    H231653   2.087   6.853   3.179  1.1210 -2.5604  0.2374
10570TIP3   OH231654   4.029   5.831   3.662 -0.4152 -0.2006 -0.7506
10570TIP3    H131655   3.986   5.868   3.584 -2.2794  0.9894  0.7455
10570TIP3    H231656   4.042   5.739   3.640 -0.5023  0.1842 -2.6226
10571TIP3   OH231657   2.353   4.502   4.485 -0.3500  0.3022  0.0875
10571TIP3    H131658   2.414   4.492   4.559  0.5124 -0.6469 -0.7312
10571TIP3    H231659   2.399   4.560   4.425 -0.6281  0.2686 -0.1562
10572TIP3   OH231660   4.537   2.267   0.800 -0.0104 -0.0975 -0.2589
10572TIP3    H131661   4.608   2.306   0.749 -0.2168  1.4130  0.5614
10572TIP3    H231662   4.492   2.341   0.840 -0.9931 -1.1365  0.6433
10573TIP3   OH231663   1.085   6.072   6.396 -0.3889 -0.2255 -0.5405
10573TIP3    H131664   1.176   6.043   6.394 -0.0903  0.7052 -2.1090
10573TIP3    H231665   1.076   6.129   6.320 -2.4097 -0.6296 -0.6686
10574TIP3   OH231666   1.842   4.857   3.905  0.1001  0.3834  0.5134
10574TIP3    H131667   1.799   4.803   3.839 -1.3578  0.0986  1.6339
10574TIP3    H231668   1.908   4.799   3.944  1.1827  0.6528 -0.8671
10575TIP3   OH231669   1.298   4.531   5.752 -0.5068 -0.3965  0.3335
10575TIP3    H131670   1.321   4.537   5.660  1.2871  1.3997  0.8376
10575TIP3    H231671   1.364   4.473   5.790 -1.3706 -1.3111  0.4765
10576TIP3   OH231672   6.294   0.303   2.312 -0.1580  0.6121  0.8955
10576TIP3    H131673   6.241   0.350   2.248 -0.1142  0.7264  0.9426
10576TIP3    H231674   6.230   0.267   2.374 -0.1462  1.3719  1.3730
10577TIP3   OH231675   7.123   1.478   5.993 -0.4871 -0.2498  0.3698
10577TIP3    H131676   7.155   1.431   5.915 -2.1567  0.3931 -0.7679
10577TIP3    H231677   7.064   1.416   6.035  1.6665 -1.2303  2.1566
10578TIP3   OH231678   3.139   1.938   5.579 -0.2333 -0.6402 -0.4336
10578TIP3    H131679   3.092   1.854   5.579 -1.3861 -0.0164 -0.8580
10578TIP3    H231680   3.231   1.913   5.582 -0.5735 -1.9048  0.8101
10579TIP3   OH231681   7.169   7.410   5.151  0.8630  0.5716 -0.3317
10579TIP3    H131682   7.215   7.389   5.232 -1.1165 -1.6542  0.3392
10579TIP3    H231683   7.093   7.461   5.179  0.1730 -0.1957 -0.7741
10580TIP3   OH231684   5.741   0.992   5.240  0.6997  0.6166  0.5691
10580TIP3    H131685   5.740   0.996   5.144  1.2312 -1.8385  0.3833
10580TIP3    H231686   5.650   1.002   5.266  0.3660  0.0364 -0.3183
10581TIP3   OH231687   6.804   4.678   2.598  0.0131  0.5259 -0.4334
10581TIP3    H131688   6.833   4.588   2.586 -0.2611  0.3592  0.1220
10581TIP3    H231689   6.746   4.675   2.674 -0.1946  1.1282 -0.5608
10582TIP3   OH231690   1.793   2.385   5.343 -0.2948 -0.1011  0.6860
10582TIP3    H131691   1.701   2.397   5.367 -0.3416  0.8384  0.0636
10582TIP3    H231692   1.815   2.462   5.291  1.1913  0.2812  1.8081
10583TIP3   OH231693   3.779   7.049   1.084 -0.3763 -0.2204 -0.5553
10583TIP3    H131694   3.828   7.070   1.004  0.0386 -1.9697 -0.8121
10583TIP3    H231695   3.688   7.069   1.062  0.0669  2.4428 -0.2996
10584TIP3   OH231696   0.869   0.816   1.657 -0.0804  0.2032 -0.2595
10584TIP3    H131697   0.935   0.813   1.587  1.8104  0.4372  1.4183
10584TIP3    H231698   0.864   0.726   1.688 -0.7132  0.1489 -0.5207
10585TIP3   OH231699   3.679   5.543   2.157  1.0547 -0.0405  0.3536
10585TIP3    H131700   3.677   5.456   2.116  2.8652 -0.2887  0.6848
10585TIP3    H231701   3.596   5.584   2.132 -1.5266 -3.0955  2.9612
10586TIP3   OH231702   1.718   1.005   5.702  0.0574  0.8180 -0.0338
10586TIP3    H131703   1.749   1.034   5.788  0.8247  2.5569 -0.8478
10586TIP3    H231704   1.632   1.046   5.692  0.2502  1.1551 -0.3430
10587TIP3   OH231705   4.353   0.814   3.793 -0.3067  0.6297  0.8689
10587TIP3    H131706   4.441   0.831   3.759 -0.1696  0.7610  1.2828
10587TIP3    H231707   4.335   0.888   3.852 -0.0049 -0.2484  2.0984
10588TIP3   OH231708   3.435   4.161   3.381 -0.1932  0.1764  0.7944
10588TIP3    H131709   3.478   4.088   3.334 -0.8097 -0.0449  0.5575
10588TIP3    H231710   3.392   4.211   3.312 -0.6016  0.1986  1.0629
10589TIP3   OH231711   3.647   5.349   4.283 -0.4987 -0.0447 -0.7681
10589TIP3    H131712   3.659   5.290   4.357  1.5356  1.2442  0.0197
10589TIP3    H231713   3.693   5.307   4.210 -1.3678 -0.6792 -0.9656
10590TIP3   OH231714   4.299   2.525   1.465 -0.3607  0.2997 -0.0241
10590TIP3    H131715   4.302   2.606   1.415 -1.1892 -0.8189 -2.0112
10590TIP3    H231716   4.388   2.490   1.460 -0.5000  0.0550 -1.0345
10591TIP3   OH231717   5.042   3.281   3.883 -0.3708  0.3209  0.4647
10591TIP3    H131718   4.986   3.312   3.954 -0.7635  1.5629 -0.3490
10591TIP3    H231719   5.024   3.341   3.810 -0.5652 -1.3991 -0.9606
10592TIP3   OH231720   7.139   6.886   1.456  0.5038  0.1086 -0.4507
10592TIP3    H131721   7.208   6.834   1.416 -0.5160 -1.7281  0.0542
10592TIP3    H231722   7.079   6.906   1.385 -1.2860 -3.1140 -0.0307
10593TIP3   OH231723   8.251   3.225   4.986  0.1299 -0.2521  0.1208
10593TIP3    H131724   8.216   3.300   4.938  0.5691  0.0835  0.3171
10593TIP3    H231725   8.340   3.251   5.009  1.0279 -1.5901 -1.5558
10594TIP3   OH231726   7.882   0.726   5.393 -0.3221  0.0932 -0.1997
10594TIP3    H131727   7.794   0.691   5.404  0.5729 -1.8282  1.4911
10594TIP3    H231728   7.926   0.666   5.334  0.0398  0.7150 -0.5789
10595TIP3   OH231729   5.966   0.501   3.742 -0.2739  0.8452  0.1003
10595TIP3    H131730   6.054   0.468   3.724 -0.9556 -0.1349 -1.7571
10595TIP3    H231731   5.908   0.433   3.710 -1.7186  2.1556 -0.1884
10596TIP3   OH231732   6.614   3.015   5.923  0.1369  0.0680  0.4340
10596TIP3    H131733   6.598   3.106   5.896  2.3555  0.2459 -0.5322
10596TIP3    H231734   6.707   3.013   5.946  0.0360 -1.8784  0.8367
10597TIP3   OH231735   6.475   4.691   6.026  0.1052  0.1914  0.3569
10597TIP3    H131736   6.433   4.633   5.963 -0.3603  2.0646 -1.1283
10597TIP3    H231737   6.413   4.695   6.100 -1.1302  0.8416 -0.6689
10598TIP3   OH231738   0.794   3.268   0.202  0.3573  0.4001  0.2041
10598TIP3    H131739   0.878   3.234   0.172  0.5611  0.9122  0.1841
10598TIP3    H231740   0.784   3.351   0.156 -1.4416 -0.8735 -1.9373
10599TIP3   OH231741   5.140   0.209   3.071  0.7268  0.7166  0.1262
10599TIP3    H131742   5.222   0.202   3.022 -0.9308  1.1952 -3.0097
10599TIP3    H231743   5.097   0.125   3.058  0.0043  1.0548  0.2838
10600TIP3   OH231744   6.969   6.231   3.193  0.0653  0.2570  0.2072
10600TIP3    H131745   6.918   6.188   3.125 -0.0087 -0.6861  0.8457
10600TIP3    H231746   7.060   6.209   3.174  0.1452  0.9249 -0.2231
10601TIP3   OH231747   6.261   3.784   5.178  0.0984 -0.0086 -0.5390
10601TIP3    H131748   6.293   3.866   5.141 -0.5317 -0.3911 -1.9762
10601TIP3    H231749   6.189   3.811   5.236  0.9821  0.5783  0.3091
10602TIP3   OH231750   1.160   6.700   3.388  0.8898 -0.2079  0.2819
10602TIP3    H131751   1.141   6.607   3.372  3.4886 -1.0848  1.7667
10602TIP3    H231752   1.246   6.714   3.348 -0.9513  2.6682 -3.2879
10603TIP3   OH231753   0.118   6.791   4.286 -0.3680  0.4810  0.0644
10603TIP3    H131754   0.054   6.720   4.285 -0.3563  0.4441  0.8030
10603TIP3    H231755   0.200   6.749   4.314 -0.5151  0.8797  1.1767
10604TIP3   OH231756   2.868   4.679   3.167  0.7669 -0.5939  0.0130
10604TIP3    H131757   2.815   4.635   3.233  0.5457 -1.0766 -0.4731
10604TIP3    H231758   2.917   4.746   3.215 -1.1820  0.7088  0.2994
10605TIP3   OH231759   7.773   7.495   2.964  0.0962 -0.1398  0.4575
10605TIP3    H131760   7.804   7.576   2.923 -0.1154 -0.5251 -0.5048
10605TIP3    H231761   7.828   7.426   2.925 -1.5984 -0.7811 -0.9481
10606TIP3   OH231762   0.552   7.379   1.551 -0.2739  0.1450  0.2483
10606TIP3    H131763   0.533   7.413   1.463  0.1466 -0.1525  0.0388
10606TIP3    H231764   0.469   7.386   1.597 -0.3233  0.9835  0.0555
10607TIP3   OH231765   1.648   6.508   1.823  0.6952 -0.3219  0.3864
10607TIP3    H131766   1.660   6.510   1.917  0.3478 -1.5317  0.4783
10607TIP3    H231767   1.736   6.513   1.786  0.7519  1.6782  0.7090
10608TIP3   OH231768   7.227   5.937   2.828  0.2313 -0.2405  0.3628
10608TIP3    H131769   7.213   5.842   2.823  0.9323 -0.4061  1.2090
10608TIP3    H231770   7.310   5.952   2.783  0.4866 -0.1357  0.8568
10609TIP3   OH231771   1.110   3.970   2.896  0.1957 -0.0665  0.3541
10609TIP3    H131772   1.065   3.885   2.890  1.4926 -0.8248  0.8502
10609TIP3    H231773   1.183   3.963   2.834  0.7571  0.3903  0.9444
10610TIP3   OH231774   1.042   2.698   4.252 -0.3727  0.0135 -0.0683
10610TIP3    H131775   0.987   2.742   4.318  0.6095 -0.9537  1.4493
10610TIP3    H231776   1.125   2.744   4.256 -0.1839 -0.2962 -0.3810
10611TIP3   OH231777   3.001   6.476   5.361  0.1289  0.0759 -0.0248
10611TIP3    H131778   2.972   6.564   5.389 -0.3533  0.5157 -1.7997
10611TIP3    H231779   3.096   6.479   5.368  0.0348 -0.1681  2.3985
10612TIP3   OH231780   1.958   2.704   4.566 -0.3999 -0.2174 -0.0169
10612TIP3    H131781   1.926   2.778   4.514 -0.3004  1.0479  1.6453
10612TIP3    H231782   1.882   2.645   4.573 -1.2398  0.8967  0.6442
10613TIP3   OH231783   5.417   2.722   2.662  0.1045 -0.3283  0.1403
10613TIP3    H131784   5.413   2.752   2.571  2.3837 -0.7836 -0.1796
10613TIP3    H231785   5.382   2.633   2.660  2.2705 -1.2537 -0.8361
10614TIP3   OH231786   1.850   3.671   3.394 -0.7528 -0.2283  0.1913
10614TIP3    H131787   1.774   3.616   3.375 -0.9215 -0.0615  0.3681
10614TIP3    H231788   1.815   3.741   3.449 -0.2405 -0.7884  1.2558
10615TIP3   OH231789   5.623   5.636   5.442  0.1882 -0.0469  0.2406
10615TIP3    H131790   5.584   5.718   5.410  0.3619 -0.1864 -0.3337
10615TIP3    H231791   5.717   5.648   5.429  0.0871 -1.1991 -1.9473
10616TIP3   OH231792   1.837   4.209   6.389  0.4974 -0.6192 -0.3787
10616TIP3    H131793   1.882   4.209   6.474  0.2939 -0.3536 -0.2696
10616TIP3    H231794   1.907   4.221   6.325  0.7986 -2.0505 -0.3331
10617TIP3   OH231795   0.143   5.017   3.738 -0.1764  0.2617 -0.1637
10617TIP3    H131796   0.119   5.040   3.828 -0.2367  1.2233 -0.4196
10617TIP3    H231797   0.116   5.093   3.686  0.0298 -0.2109 -0.9684
10618TIP3   OH231798   5.328   1.779   4.651  0.2686 -0.2164  0.1108
10618TIP3    H131799   5.275   1.822   4.584 -1.2839 -0.9644  0.8189
10618TIP3    H231800   5.418   1.790   4.620  0.1287  4.3975  0.7731
10619TIP3   OH231801   0.575   4.054   5.844 -0.0188 -0.0939  0.0936
10619TIP3    H131802   0.513   4.127   5.846 -1.4068 -1.2121  1.9778
10619TIP3    H231803   0.572   4.023   5.754 -1.7405  0.3341 -0.0448
10620TIP3   OH231804   5.384   5.265   4.333  0.3127 -0.1744  1.0310
10620TIP3    H131805   5.450   5.304   4.275 -0.5086  0.9391  0.8290
10620TIP3    H231806   5.343   5.339   4.377 -0.3091 -0.9001  1.7118
10621TIP3   OH231807   3.031   3.713   4.583  0.3977 -0.5214 -0.5011
10621TIP3    H131808   3.054   3.718   4.676 -0.9455  0.9303 -0.2130
10621TIP3    H231809   3.090   3.646   4.548 -0.3877 -2.5785  1.7882
10622TIP3   OH231810   4.087   1.445   5.095 -0.2311 -0.0863 -0.5735
10622TIP3    H131811   4.134   1.519   5.058  0.5959 -0.4105 -0.1942
10622TIP3    H231812   4.082   1.464   5.189 -0.2039 -0.3957 -0.5058
10623TIP3   OH231813   3.998   2.848   1.752 -0.1512 -0.0625  1.3741
10623TIP3    H131814   4.029   2.760   1.731  1.4699  0.8058 -0.1332
10623TIP3    H231815   4.053   2.906   1.700 -0.9987  1.8820  2.5241
10624TIP3   OH231816   1.260   7.173   0.055 -0.0400 -0.3380 -0.2949
10624TIP3    H131817   1.238   7.216   0.138 -2.5165 -0.4837 -0.8175
10624TIP3    H231818   1.285   7.084   0.080  4.3638  0.9098  0.7157
10625TIP3   OH231819   1.903   1.401   2.677  0.4404 -0.0212  0.7274
10625TIP3    H131820   1.874   1.471   2.619 -1.4409  0.2193  1.8612
10625TIP3    H231821   1.969   1.442   2.733 -0.6067  0.8630  1.3515
10626TIP3   OH231822   1.652   0.692   2.374 -0.2643 -0.2820 -0.3196
10626TIP3    H131823   1.711   0.721   2.444 -1.1219 -1.0675  0.7541
10626TIP3    H231824   1.664   0.756   2.304  1.0454  0.1877  0.3071
10627TIP3   OH231825   3.637   0.415   4.620 -0.4393  0.1611 -0.1759
10627TIP3    H131826   3.697   0.417   4.545 -0.0193  2.6885  0.1295
10627TIP3    H231827   3.695   0.422   4.696 -1.0135  0.2873  0.2500
10628TIP3   OH231828   7.384   5.076   6.471 -0.7926 -0.0979 -0.2295
10628TIP3    H131829   7.331   5.007   6.432 -0.7964  0.8262 -1.9229
10628TIP3    H231830   7.396   5.140   6.401  0.9205  0.6485  0.6919
10629TIP3   OH231831   6.185   0.282   0.221  0.0915 -0.2332  0.1422
10629TIP3    H131832   6.122   0.215   0.244 -0.3135  0.5286  1.3805
10629TIP3    H231833   6.254   0.274   0.287  0.1921  0.3508  0.1192
10630TIP3   OH231834   1.949   6.956   5.860 -0.5555  0.6576  0.3004
10630TIP3    H131835   1.969   6.997   5.944  1.2978 -2.8285  1.7244
10630TIP3    H231836   1.865   6.994   5.835 -0.1819  3.3472  2.6437
10631TIP3   OH231837   0.724   5.900   3.332  0.0411 -0.1304 -0.1352
10631TIP3    H131838   0.698   5.875   3.244  1.4988 -0.6743 -0.4425
10631TIP3    H231839   0.677   5.839   3.389  0.3769 -0.8924 -0.6520
10632TIP3   OH231840   4.184   3.278   4.466 -0.0806 -0.2812 -0.4249
10632TIP3    H131841   4.212   3.314   4.382  0.7401 -0.4810 -0.2441
10632TIP3    H231842   4.190   3.352   4.527 -1.2865  0.0346 -0.6452
10633TIP3   OH231843   1.078   4.979   5.744  0.1728  0.3855  0.6916
10633TIP3    H131844   1.166   5.011   5.760  1.1026 -0.3963 -2.1575
10633TIP3    H231845   1.088   4.884   5.736 -0.5853  0.4108 -1.0970
10634TIP3   OH231846   1.253   7.750   6.322 -0.5067 -0.3160 -0.0528
10634TIP3    H131847   1.263   7.780   6.232  1.4637 -0.8965 -0.0818
10634TIP3    H231848   1.237   7.656   6.315 -0.8271 -0.2829  0.1979
10635TIP3   OH231849   2.541   2.214   4.293  0.0806  0.3068 -0.2006
10635TIP3    H131850   2.552   2.237   4.385 -0.9619  0.6078 -0.1370
10635TIP3    H231851   2.608   2.264   4.248 -0.0883  0.9885  0.2887
10636TIP3   OH231852   3.133   0.858   0.659 -0.0882 -0.5146  0.0408
10636TIP3    H131853   3.092   0.789   0.606 -0.4229 -0.3634  0.1041
10636TIP3    H231854   3.141   0.819   0.746  1.3283 -1.1127 -0.3260
10637TIP3   OH231855   6.467   1.940   5.573  0.0385 -0.0946 -0.1720
10637TIP3    H131856   6.526   1.986   5.633  1.4175  0.5359 -1.9284
10637TIP3    H231857   6.507   1.854   5.562 -0.0110 -0.0823 -0.4531
10638TIP3   OH231858   4.533   7.039   2.425 -0.8082 -0.3210  0.7281
10638TIP3    H131859   4.491   6.996   2.350 -0.8974  1.1950 -0.1255
10638TIP3    H231860   4.618   7.067   2.393 -0.0076 -1.3970  1.8057
10639TIP3   OH231861   5.788   2.907   2.352 -0.2703  0.4091 -0.1543
10639TIP3    H131862   5.749   2.870   2.431  0.7469  0.3966  0.3600
10639TIP3    H231863   5.715   2.916   2.291 -1.1887  0.9254  0.9711
10640TIP3   OH231864   5.470   0.766   1.508 -0.6767  0.8385  0.0114
10640TIP3    H131865   5.521   0.834   1.552 -0.7476  1.3346 -0.6526
10640TIP3    H231866   5.518   0.749   1.427 -0.9315  0.4583 -0.0617
10641TIP3   OH231867   5.035   1.517   5.382 -0.2990  0.0574  0.3493
10641TIP3    H131868   5.071   1.600   5.350  3.8044 -1.3963  0.5033
10641TIP3    H231869   5.020   1.466   5.303  0.8000 -0.2867  0.3435
10642TIP3   OH231870   0.339   7.479   3.781  0.1130 -0.1967 -0.4083
10642TIP3    H131871   0.373   7.546   3.841 -0.3317 -0.6613  0.3691
10642TIP3    H231872   0.319   7.404   3.837  0.0067 -0.7582 -1.1858
10643TIP3   OH231873   2.397   0.596   2.214  0.5605 -0.8431  0.2675
10643TIP3    H131874   2.392   0.502   2.233 -2.4052 -0.2489  3.5167
10643TIP3    H231875   2.307   0.621   2.195  1.1869  1.4631  0.0666
10644TIP3   OH231876   5.048   5.616   1.421 -0.1449 -0.4331  0.3587
10644TIP3    H131877   4.965   5.663   1.425  0.3381  0.3952  0.7572
10644TIP3    H231878   5.045   5.557   1.496  0.6313  1.3122  1.8230
10645TIP3   OH231879   2.597   3.938   2.032 -0.4798 -0.5304  0.2105
10645TIP3    H131880   2.505   3.947   2.008 -0.6913 -0.6501  0.9502
10645TIP3    H231881   2.611   4.002   2.102  0.2352  0.1213 -0.5020
10646TIP3   OH231882   5.534   7.368   6.356 -0.1737  0.8202  0.1618
10646TIP3    H131883   5.493   7.393   6.273 -1.1525  0.2084  0.4378
10646TIP3    H231884   5.544   7.450   6.403 -1.4776  0.9565  0.2386
10647TIP3   OH231885   7.714   6.702   5.309  0.8529  0.1888  0.0857
10647TIP3    H131886   7.723   6.748   5.393  0.2466 -0.3687  0.4644
10647TIP3    H231887   7.621   6.705   5.290  0.7445 -1.1933  0.3015
10648TIP3   OH231888   3.677   1.260   1.910 -0.1912  0.0156 -0.1546
10648TIP3    H131889   3.729   1.331   1.871  0.7915 -0.2854  0.5544
10648TIP3    H231890   3.606   1.305   1.956 -0.4109  0.4544 -0.9146
10649TIP3   OH231891   4.482   2.402   3.852  0.5030  0.3255  0.7883
10649TIP3    H131892   4.428   2.481   3.857 -0.0252 -0.0871  2.2760
10649TIP3    H231893   4.558   2.421   3.907  1.0501  0.2716  0.0695
10650TIP3   OH231894   7.028   3.620   3.451  0.1437 -0.4315 -0.1257
10650TIP3    H131895   7.053   3.564   3.524  0.0018 -1.1047 -0.5840
10650TIP3    H231896   7.102   3.680   3.440  0.0937 -0.2221  0.6641
10651TIP3   OH231897   6.404   0.569   5.448  0.5570  0.0332  0.6447
10651TIP3    H131898   6.381   0.615   5.368  0.5861 -0.4050  0.3855
10651TIP3    H231899   6.432   0.482   5.420 -0.2622 -0.4242  1.1906
10652TIP3   OH231900   0.692   3.827   5.933  0.0658 -0.0440  0.1016
10652TIP3    H131901   0.655   3.911   5.908  1.4756  0.8963  0.9962
10652TIP3    H231902   0.684   3.824   6.028  1.9956  0.1195  0.3194
10653TIP3   OH231903   0.845   1.566   0.198 -0.4841  0.1994  0.1926
10653TIP3    H131904   0.898   1.552   0.276 -1.0937 -0.5417  0.4922
10653TIP3    H231905   0.815   1.478   0.174 -0.1991  0.4013 -0.9561
10654TIP3   OH231906   2.447   2.551   4.674 -0.3499 -0.6053  0.2649
10654TIP3    H131907   2.354   2.527   4.675 -0.3904 -0.5860 -1.2274
10654TIP3    H231908   2.447   2.646   4.660 -0.1208 -0.8857 -2.0070
10655TIP3   OH231909   1.260   4.031   3.116 -0.4455  0.1863  0.1729
10655TIP3    H131910   1.315   4.105   3.090  0.5796 -0.0567  1.5523
10655TIP3    H231911   1.197   4.022   3.045  1.4096  0.3436 -1.5768
10656TIP3   OH231912   7.963   1.939   0.077  0.2639  0.1190 -0.1313
10656TIP3    H131913   7.985   1.898  -0.006  0.7330 -0.1387  0.1171
10656TIP3    H231914   7.909   1.874   0.122 -1.4971  0.9479 -0.9515
10657TIP3   OH231915   6.439   0.314   5.911  0.0725 -0.0568 -0.3944
10657TIP3    H131916   6.456   0.341   5.821  0.7207 -1.3267 -0.6774
10657TIP3    H231917   6.376   0.242   5.903 -0.0656 -0.0040  0.1890
10658TIP3   OH231918   3.577   7.272   3.598 -0.1393  0.4362  0.3078
10658TIP3    H131919   3.669   7.292   3.612 -0.6404  2.4702  1.1542
10658TIP3    H231920   3.556   7.206   3.664  0.8906 -0.7323 -0.4981
10659TIP3   OH231921   7.606   6.616   6.401 -0.4343 -0.0849  0.3107
10659TIP3    H131922   7.637   6.539   6.355  1.1407  1.1195 -0.7418
10659TIP3    H231923   7.601   6.684   6.334  1.5896  1.6465  1.7587
10660TIP3   OH231924   0.999   5.118   0.124  0.0086  0.5012  0.1126
10660TIP3    H131925   0.980   5.030   0.093  0.7909  0.1105  0.7155
10660TIP3    H231926   0.977   5.117   0.217  0.4612  0.8020  0.2287
10661TIP3   OH231927   5.704   1.503   3.970 -0.1124 -0.1725  0.3403
10661TIP3    H131928   5.654   1.536   3.895 -0.1363  0.0506  0.4529
10661TIP3    H231929   5.675   1.557   4.044 -1.3249 -1.4553  0.8699
10662TIP3   OH231930   2.503   6.123   2.682  0.3547 -0.4480 -0.2903
10662TIP3    H131931   2.495   6.138   2.776  0.2586 -0.7980 -0.2413
10662TIP3    H231932   2.487   6.209   2.642 -1.0227 -0.5681 -0.0570
10663TIP3   OH231933   4.697   1.068   6.633  0.1328 -0.4052 -0.0073
10663TIP3    H131934   4.731   1.148   6.673  1.5120 -0.4294 -1.0423
10663TIP3    H231935   4.666   1.095   6.546 -0.5917 -0.7766  0.1239
10664TIP3   OH231936   2.856   0.447   0.758 -0.2294 -0.0470 -0.7139
10664TIP3    H131937   2.880   0.377   0.697 -0.1954  0.2901 -1.0865
10664TIP3    H231938   2.809   0.402   0.828 -1.2034 -0.2873 -1.5137
10665TIP3   OH231939   0.403   6.759   0.315 -0.4957  0.7174 -0.0566
10665TIP3    H131940   0.347   6.697   0.362 -0.4206 -1.2799 -2.4606
10665TIP3    H231941   0.469   6.705   0.272  1.1695  2.7287 -0.1660
10666TIP3   OH231942   4.963   1.254   1.656  0.1364 -0.0256 -0.1791
10666TIP3    H131943   5.055   1.252   1.630  0.1500 -1.0262 -0.0978
10666TIP3    H231944   4.926   1.330   1.610  0.8006 -0.1136 -0.8680
10667TIP3   OH231945   3.048   4.219   0.374 -0.2940  0.1232 -0.6620
10667TIP3    H131946   3.021   4.214   0.466 -0.2721 -3.0608 -0.7244
10667TIP3    H231947   3.140   4.244   0.378  0.1916 -1.6573  0.3346
10668TIP3   OH231948   0.762   0.748   5.710  0.4420 -0.0078  0.0538
10668TIP3    H131949   0.848   0.719   5.738  0.2120 -1.8791 -1.0072
10668TIP3    H231950   0.776   0.835   5.674  2.2703 -0.9553 -1.7303
10669TIP3   OH231951   0.526   4.106   0.840 -0.0452  0.2941 -0.0378
10669TIP3    H131952   0.587   4.032   0.840 -1.3751 -0.8795 -1.5154
10669TIP3    H231953   0.526   4.138   0.930  1.3222 -0.8580  0.3993
10670TIP3   OH231954   4.157   2.583   5.408 -0.0870 -0.4730 -0.1876
10670TIP3    H131955   4.116   2.540   5.483 -0.1754  0.5312  0.3637
10670TIP3    H231956   4.093   2.575   5.337 -0.7017 -0.0312  0.3062
10671TIP3   OH231957   5.254   2.031   0.864 -0.7758  0.6574  0.0391
10671TIP3    H131958   5.223   2.078   0.941  0.4565 -0.0335  0.9976
10671TIP3    H231959   5.181   2.034   0.802 -1.9761  0.7748  1.4246
10672TIP3   OH231960   1.922   5.386   3.622 -0.1802 -0.0224  0.0140
10672TIP3    H131961   1.964   5.395   3.536  0.4042 -0.3609  0.2516
10672TIP3    H231962   1.996   5.375   3.683 -0.2567  3.9807  1.1369
10673TIP3   OH231963   3.774   3.596   0.976  0.0057 -0.4309 -0.0190
10673TIP3    H131964   3.723   3.614   1.055 -1.6875 -0.2242 -1.1028
10673TIP3    H231965   3.838   3.668   0.972 -1.0594  0.5641  0.2489
10674TIP3   OH231966   3.082   1.108   6.061 -0.1543 -0.1401 -0.5241
10674TIP3    H131967   3.113   1.061   5.983 -2.4412 -1.1865 -0.8659
10674TIP3    H231968   3.014   1.167   6.028  0.1927  0.8210  0.4323
10675TIP3   OH231969   0.369   4.558   6.062 -0.3443  0.0407 -0.2353
10675TIP3    H131970   0.449   4.596   6.023  0.4729  0.7335  1.9569
10675TIP3    H231971   0.305   4.560   5.991  1.1577  0.8451 -1.6511
10676TIP3   OH231972   3.959   6.646   3.039 -0.1897 -0.5885 -0.3203
10676TIP3    H131973   4.026   6.580   3.018 -0.8086 -1.3254 -0.0022
10676TIP3    H231974   3.971   6.663   3.132  1.4246  1.4172 -0.8178
10677TIP3   OH231975   6.862   1.132   4.362  0.4063 -0.2147 -0.0973
10677TIP3    H131976   6.822   1.127   4.275  2.6491 -0.0208 -1.2271
10677TIP3    H231977   6.903   1.046   4.374  1.2316  0.1998  0.1636
10678TIP3   OH231978   4.208   6.498   2.540  0.0167 -0.1992  0.1639
10678TIP3    H131979   4.156   6.569   2.578 -0.3255 -0.9471  1.1550
10678TIP3    H231980   4.295   6.510   2.577 -0.0496 -0.2977  0.3584
10679TIP3   OH231981   3.592   6.127   3.429  0.0682  0.2986  0.1362
10679TIP3    H131982   3.671   6.137   3.481  0.5415 -0.0110 -0.5093
10679TIP3    H231983   3.549   6.212   3.433  0.2512  0.3650  0.7758
10680TIP3   OH231984   7.502   6.156   5.945 -0.0285  0.0166 -0.2275
10680TIP3    H131985   7.556   6.174   6.021 -0.0632  0.6995 -0.3618
10680TIP3    H231986   7.502   6.060   5.938 -2.6578 -0.3588  2.5382
10681TIP3   OH231987   0.896   2.118   2.615  0.2058 -0.0645  0.1021
10681TIP3    H131988   0.964   2.121   2.682 -2.1145  0.5165  2.6272
10681TIP3    H231989   0.875   2.210   2.598 -2.0802 -0.1929  1.8235
10682TIP3   OH231990   0.548   1.769   4.008  0.2516  0.2690  0.6182
10682TIP3    H131991   0.569   1.678   4.030  0.4640  0.1877  0.0934
10682TIP3    H231992   0.536   1.769   3.913 -0.5605  0.6323  0.7133
10683TIP3   OH231993   0.440   6.682   5.011  0.1865  0.0501 -0.1776
10683TIP3    H131994   0.458   6.610   5.072 -1.1471  0.4816  0.7925
10683TIP3    H231995   0.526   6.718   4.990  0.6961  0.3384  2.0699
10684TIP3   OH231996   0.233   5.130   5.694  0.6547  0.3073  0.1333
10684TIP3    H131997   0.260   5.216   5.726  0.3643  0.4579 -0.0191
10684TIP3    H231998   0.191   5.088   5.769 -1.3038  1.2126 -0.4146
10685TIP3   OH231999   1.911   1.644   2.916 -0.1806 -0.2476  0.1465
10685TIP3    H132000   1.877   1.646   3.005  0.7808  4.5688  0.6392
10685TIP3    H232001   1.833   1.658   2.861 -0.2158  1.7033  0.6403
10686TIP3   OH232002   4.063   5.544   6.369 -0.4445 -0.4105  0.1369
10686TIP3    H132003   4.141   5.516   6.418 -0.5049  0.1898  0.5858
10686TIP3    H232004   4.019   5.462   6.346  1.5420 -0.9277 -2.2250
10687TIP3   OH232005   5.175   7.413   1.565  0.4114  0.1515  0.0458
10687TIP3    H132006   5.109   7.401   1.633  0.1342  4.2050  0.7192
10687TIP3    H232007   5.126   7.446   1.490  1.3257  0.4922 -0.4131
10688TIP3   OH232008   8.052   6.171   6.512  0.5519 -0.1982 -0.4389
10688TIP3    H132009   8.003   6.250   6.532  1.4887  0.4132 -0.4993
10688TIP3    H232010   8.144   6.199   6.509  0.9663 -1.3988  0.1545
10689TIP3   OH232011   4.290   2.115   6.220  0.0924 -0.0357  0.0536
10689TIP3    H132012   4.202   2.135   6.188  0.7787  0.7800 -1.4161
10689TIP3    H232013   4.276   2.089   6.311 -1.6258  0.4789 -0.0131
10690TIP3   OH232014   2.744   1.269   6.374  0.4493 -0.0086  0.6603
10690TIP3    H132015   2.708   1.327   6.442 -0.7120 -0.4491  0.4455
10690TIP3    H232016   2.790   1.201   6.423 -2.0606 -1.4629  1.1794
10691TIP3   OH232017   5.621   4.338   0.434 -0.0892 -0.0625 -1.0124
10691TIP3    H132018   5.692   4.403   0.435 -1.6390  1.7375 -1.2157
10691TIP3    H232019   5.605   4.322   0.341 -1.3182  1.1881 -1.0474
10692TIP3   OH232020   2.359   7.322   2.217  0.2259  0.0842 -0.0384
10692TIP3    H132021   2.430   7.286   2.271 -0.0826  1.2050  1.1819
10692TIP3    H232022   2.299   7.249   2.204  0.4423 -0.2811  0.9256
10693TIP3   OH232023   2.435   2.544   4.356 -0.0247  0.4896 -0.6790
10693TIP3    H132024   2.520   2.532   4.313  0.4106 -1.6583  0.6547
10693TIP3    H232025   2.454   2.604   4.428  1.0994 -2.1458  1.3640
10694TIP3   OH232026   5.901   0.986   2.859 -0.1017 -0.0284  0.2208
10694TIP3    H132027   5.846   1.060   2.882  0.8868  0.9885 -0.6039
10694TIP3    H232028   5.922   0.998   2.767  1.1585 -0.5994  0.3998
10695TIP3   OH232029   2.787   3.900   6.271 -0.9012 -0.5844  0.4039
10695TIP3    H132030   2.732   3.824   6.253 -1.5846  0.0761 -0.3656
10695TIP3    H232031   2.793   3.903   6.367  0.4530 -2.5046  0.4559
10696TIP3   OH232032   2.499   3.884   2.402  0.3929 -0.2658  0.1185
10696TIP3    H132033   2.531   3.970   2.374  2.0829 -0.5564  1.0471
10696TIP3    H232034   2.524   3.878   2.494  0.6972 -1.9340 -0.0479
10697TIP3   OH232035   1.255   0.630   2.680 -0.2839 -0.4831 -0.1743
10697TIP3    H132036   1.284   0.594   2.764  0.2541  1.9469  0.7660
10697TIP3    H232037   1.336   0.653   2.634 -0.6035  0.4107 -0.3121
10698TIP3   OH232038   4.564   1.872   1.651 -0.2964  0.5789 -0.2548
10698TIP3    H132039   4.469   1.866   1.644 -0.2447 -1.0052  0.0497
10698TIP3    H232040   4.584   1.840   1.739  0.6081 -0.5229 -0.8311
10699TIP3   OH232041   7.744   5.363   2.253 -0.2342  0.0016  0.0361
10699TIP3    H132042   7.773   5.453   2.238 -2.2547  0.9132  1.1412
10699TIP3    H232043   7.824   5.311   2.250  1.0115  1.8509 -0.4949
10700TIP3   OH232044   4.806   6.233   4.346  0.2220 -0.6999 -0.3352
10700TIP3    H132045   4.887   6.186   4.329  0.2421 -0.5421 -0.6794
10700TIP3    H232046   4.814   6.263   4.437  0.3106 -1.1524 -0.1901
10701TIP3   OH232047   2.395   2.349   1.377 -0.5949 -0.4568 -0.0011
10701TIP3    H132048   2.425   2.324   1.465 -1.1770  0.6940  0.5491
10701TIP3    H232049   2.327   2.415   1.393 -0.4167  0.0753 -1.3281
10702TIP3   OH232050   6.693   1.329   2.189  0.4061 -0.1566 -0.2291
10702TIP3    H132051   6.647   1.288   2.263 -0.6614 -1.4199 -1.5320
10702TIP3    H232052   6.757   1.387   2.230  0.7307 -1.7717  1.7078
10703TIP3   OH232053   4.080   7.394   1.567  0.3418  0.1860  0.0582
10703TIP3    H132054   4.076   7.481   1.608  1.9919 -0.2257  1.1611
10703TIP3    H232055   4.018   7.400   1.494 -1.1393  1.6111  1.3498
10704TIP3   OH232056   1.988   7.386   5.042 -0.1494  0.3121  0.0662
10704TIP3    H132057   1.957   7.463   5.090  0.5720 -0.1110  1.2746
10704TIP3    H232058   1.914   7.325   5.045 -0.1786  0.3638  0.4821
10705TIP3   OH232059   4.984   1.871   0.961 -0.1206  0.1715 -0.0303
10705TIP3    H132060   5.031   1.947   0.995  2.0137 -0.9318 -0.3466
10705TIP3    H232061   4.893   1.901   0.953 -0.1126  1.5566  3.2682
10706TIP3   OH232062   7.772   4.056   4.399  0.1655 -0.2210 -0.4702
10706TIP3    H132063   7.771   4.113   4.321  1.9387 -1.3417 -1.3616
10706TIP3    H232064   7.862   4.059   4.430 -0.1039 -1.2432  0.4635
10707TIP3   OH232065   0.942   2.186   1.345 -0.5723  0.1539  0.0283
10707TIP3    H132066   0.873   2.199   1.279 -0.9618  3.5751  0.9285
10707TIP3    H232067   0.985   2.271   1.352  0.3954 -0.4801  3.1789
10708TIP3   OH232068   5.940   5.280   3.215 -0.5735  0.5251  0.1569
10708TIP3    H132069   5.861   5.249   3.171 -0.2888  0.6676 -0.4521
10708TIP3    H232070   5.915   5.284   3.308 -0.9037 -0.6133  0.1346
10709TIP3   OH232071   3.467   5.161   3.415  0.5830 -0.2645 -0.6237
10709TIP3    H132072   3.491   5.247   3.450  0.0989  0.3307 -1.7232
10709TIP3    H232073   3.443   5.177   3.324 -1.0526 -1.3198 -0.4201
10710TIP3   OH232074   2.153   7.562   0.417 -0.0587 -0.0641  0.1432
10710TIP3    H132075   2.193   7.648   0.401 -0.4429  0.0193 -0.4171
10710TIP3    H232076   2.063   7.572   0.385 -0.1991 -0.5818  0.3731
10711TIP3   OH232077   1.298   5.957   4.326 -0.0151  0.2590 -0.1078
10711TIP3    H132078   1.299   6.007   4.244 -1.4074 -0.2134 -0.4370
10711TIP3    H232079   1.208   5.965   4.358 -0.0678 -1.4052  0.2239
10712TIP3   OH232080   2.659   3.073   3.042  0.2866 -0.1497  0.1437
10712TIP3    H132081   2.584   3.021   3.012 -0.8023  1.7097 -0.5963
10712TIP3    H232082   2.730   3.049   2.983  0.2633 -1.8245  0.7447
10713TIP3   OH232083   3.532   4.967   2.087 -0.1136 -0.0888 -0.1956
10713TIP3    H132084   3.452   4.923   2.117 -1.1570  1.8623  0.0284
10713TIP3    H232085   3.539   4.944   1.995 -0.8005 -0.4701 -0.1576
10714TIP3   OH232086   4.931   3.870   3.272 -0.7165  0.5758 -0.5355
10714TIP3    H132087   4.903   3.961   3.265 -0.3662  0.6859 -0.4949
10714TIP3    H232088   4.992   3.858   3.199 -1.7667  0.0064 -1.3462
10715TIP3   OH232089   1.976   3.195   5.583  0.0716 -0.2578 -0.8570
10715TIP3    H132090   2.056   3.168   5.628  0.3542  0.4754 -0.9144
10715TIP3    H232091   1.924   3.115   5.577  1.5533 -1.1728 -2.4063
10716TIP3   OH232092   7.461   7.216   3.738 -0.2224  0.4341  0.3516
10716TIP3    H132093   7.399   7.146   3.714 -0.7397  0.8190  0.5497
10716TIP3    H232094   7.501   7.184   3.819 -1.0892  0.7435  0.9191
10717TIP3   OH232095   7.591   6.855   4.235 -0.1393 -0.2371  0.3619
10717TIP3    H132096   7.658   6.821   4.294  1.1545 -1.2595 -1.5827
10717TIP3    H232097   7.640   6.885   4.159 -1.7979  0.2715 -0.5409
10718TIP3   OH232098   0.152   3.985   1.315 -0.3024  0.1465  0.0029
10718TIP3    H132099   0.086   4.040   1.273 -1.1042 -1.5042 -0.9985
10718TIP3    H232100   0.123   3.978   1.406 -0.6488  0.6978 -0.0618
10719TIP3   OH232101   4.852   7.091   5.947  0.1887 -0.2742  0.1759
10719TIP3    H132102   4.914   7.059   5.881  0.7581 -0.0481  0.5964
10719TIP3    H232103   4.874   7.043   6.026 -1.1625 -1.2855 -0.0382
10720TIP3   OH232104   5.027   4.125   6.718 -0.4084 -0.3233  0.1959
10720TIP3    H132105   5.053   4.074   6.641 -3.4415 -0.7779 -0.6606
10720TIP3    H232106   5.076   4.206   6.711  0.7683 -1.1056 -1.1861
10721TIP3   OH232107   0.062   0.619   6.481 -0.1925  0.2950 -0.8426
10721TIP3    H132108   0.109   0.550   6.434 -2.7420 -1.5028 -0.9435
10721TIP3    H232109  -0.027   0.585   6.491 -1.1634  2.9551  0.4857
10722TIP3   OH232110   1.325   2.570   5.742  0.3008  0.0228  0.0025
10722TIP3    H132111   1.248   2.536   5.788  1.9087 -1.4011  1.8172
10722TIP3    H232112   1.359   2.640   5.799  1.9393 -1.3150  0.7748
10723TIP3   OH232113   6.116   2.710   2.007  0.2918  0.2016 -0.2067
10723TIP3    H132114   6.023   2.712   2.029  0.3243 -0.9549  0.1329
10723TIP3    H232115   6.141   2.802   1.997 -0.5671  0.6035  1.0744
10724TIP3   OH232116   7.516   0.840   4.154  0.0683 -0.6377 -0.3742
10724TIP3    H132117   7.594   0.789   4.133  0.6423 -0.9600  2.1936
10724TIP3    H232118   7.466   0.784   4.213 -1.1832  0.3233 -0.4774
10725TIP3   OH232119   6.615   6.268   0.923  0.0417  0.3379  0.3840
10725TIP3    H132120   6.690   6.210   0.911 -0.7528 -0.7026  0.2508
10725TIP3    H232121   6.628   6.306   1.010  0.2791 -0.5205  0.7387
10726TIP3   OH232122   6.911   6.050   4.942  0.2822 -0.2310 -0.1763
10726TIP3    H132123   6.987   6.103   4.967  1.3978 -1.3921 -0.9668
10726TIP3    H232124   6.871   6.024   5.026  0.0236  1.3679  0.2304
10727TIP3   OH232125   5.607   4.506   1.457  0.1006  0.3571  0.2416
10727TIP3    H132126   5.683   4.554   1.488  0.5751  0.1024 -0.5169
10727TIP3    H232127   5.590   4.542   1.369  0.3527 -0.7205 -0.2609
10728TIP3   OH232128   4.552   4.014   0.487 -0.1600 -0.1661 -0.2364
10728TIP3    H132129   4.569   3.935   0.436  2.9965  0.1619  0.1289
10728TIP3    H232130   4.504   4.071   0.427  0.5349 -1.0457 -1.6935
10729TIP3   OH232131   3.431   3.003   3.924  0.1058  0.1548  0.1164
10729TIP3    H132132   3.455   2.986   3.833  1.5496 -0.6042  0.6136
10729TIP3    H232133   3.496   3.065   3.955 -0.9907  1.2233  0.3631
10730TIP3   OH232134   5.144   2.025   2.253  0.1980  0.6518 -0.1946
10730TIP3    H132135   5.117   2.095   2.194 -0.3529  0.5654 -0.0470
10730TIP3    H232136   5.175   2.071   2.331 -0.2567  0.7339 -0.0578
10731TIP3   OH232137   4.835   6.095   5.922 -0.5167  0.4115 -0.0568
10731TIP3    H132138   4.764   6.149   5.888 -0.1305 -0.0479 -1.7141
10731TIP3    H232139   4.915   6.144   5.901 -0.1388 -0.8987 -1.9356
10732TIP3   OH232140   0.538   6.436   5.120 -0.2405 -0.0414  0.1758
10732TIP3    H132141   0.563   6.431   5.213 -0.7062  0.5916  0.3405
10732TIP3    H232142   0.513   6.347   5.098  0.2203 -0.2757  0.5589
10733TIP3   OH232143   2.907   4.025   3.499  0.0673 -0.0853 -0.0761
10733TIP3    H132144   2.998   4.034   3.472  0.4698  1.3691  1.5456
10733TIP3    H232145   2.910   3.969   3.576 -0.3570  0.2364  0.1812
10734TIP3   OH232146   3.955   2.821   2.577  0.2267  0.2156  0.2738
10734TIP3    H132147   3.968   2.743   2.523 -0.9801 -0.3809  0.8124
10734TIP3    H232148   4.033   2.873   2.562  0.8475 -0.8795 -0.4618
10735TIP3   OH232149   5.584   3.144   1.660 -0.0352 -0.1949  0.1995
10735TIP3    H132150   5.491   3.141   1.680  0.2480 -0.1050  1.6110
10735TIP3    H232151   5.614   3.054   1.670  0.2619 -0.0157  0.9508
10736TIP3   OH232152   1.233   0.861   5.313  0.0684 -0.1930 -0.3656
10736TIP3    H132153   1.298   0.930   5.302 -0.7777  0.7157  0.1620
10736TIP3    H232154   1.281   0.787   5.350  0.5956  0.8585  1.1125
10737TIP3   OH232155   7.525   3.031   1.509  0.1454  0.3964  0.5627
10737TIP3    H132156   7.439   2.993   1.527  0.6954 -1.0757  0.2429
10737TIP3    H232157   7.582   2.955   1.497  1.9217  1.2972  2.6703
10738TIP3   OH232158   4.394   1.113   6.685  0.2906 -0.5698 -0.3321
10738TIP3    H132159   4.372   1.075   6.600 -0.2459 -2.3147  0.5275
10738TIP3    H232160   4.354   1.200   6.684  2.0189  0.2851 -2.5917
10739TIP3   OH232161   2.369   6.629   3.609  0.2779  0.5220 -0.2791
10739TIP3    H132162   2.292   6.592   3.566 -0.1412  0.2505  0.6766
10739TIP3    H232163   2.377   6.578   3.690  1.2560  0.7851 -0.2070
10740TIP3   OH232164   6.400   5.892   4.215  0.0666 -0.0417  0.6664
10740TIP3    H132165   6.323   5.923   4.262 -0.0525  0.0483  0.4109
10740TIP3    H232166   6.469   5.891   4.281 -0.0848  0.1456  0.8290
10741TIP3   OH232167   2.483   5.306   1.408 -0.0134  0.2355 -0.0839
10741TIP3    H132168   2.505   5.359   1.331  1.8927  0.7617  0.7649
10741TIP3    H232169   2.446   5.369   1.470 -0.3111  0.0654 -0.0909
10742TIP3   OH232170   0.564   2.224   5.702 -0.2812 -0.4518 -0.2053
10742TIP3    H132171   0.503   2.189   5.638 -1.0293 -1.2239  0.8800
10742TIP3    H232172   0.605   2.299   5.659 -3.1260  1.1093 -0.4451
10743TIP3   OH232173   2.359   6.818   3.267  0.3320 -0.1077  0.2614
10743TIP3    H132174   2.322   6.834   3.354  0.1473 -0.3217  0.2227
10743TIP3    H232175   2.446   6.781   3.284 -0.1621 -1.2411  0.3623
10744TIP3   OH232176   7.580   6.182   0.652  0.0119 -0.2711  0.4517
10744TIP3    H132177   7.513   6.212   0.714 -0.9990 -1.1549 -0.1958
10744TIP3    H232178   7.578   6.087   0.658  1.0299 -0.3168  0.2224
10745TIP3   OH232179   4.129   4.844   4.237 -0.3270 -0.2962 -0.2289
10745TIP3    H132180   4.173   4.808   4.161 -1.2811  0.0824 -0.9867
10745TIP3    H232181   4.090   4.926   4.206 -0.8824 -0.2214  0.6134
10746TIP3   OH232182   2.177   7.196   2.001  0.0697 -0.2024 -0.2428
10746TIP3    H132183   2.162   7.158   2.088 -1.5859 -0.0114 -0.4179
10746TIP3    H232184   2.118   7.147   1.943  1.4952 -0.6552 -1.3814
10747TIP3   OH232185   2.083   6.742   3.514 -0.3042  0.0464 -0.3001
10747TIP3    H132186   2.003   6.698   3.543  0.3071 -0.1390  1.1977
10747TIP3    H232187   2.077   6.741   3.419 -0.9922 -2.0126 -0.2907
10748TIP3   OH232188   2.799   2.435   2.688 -0.1631  0.0145  0.2325
10748TIP3    H132189   2.891   2.453   2.667 -0.2478  0.3809  0.1781
10748TIP3    H232190   2.770   2.511   2.738 -1.7597  2.2499 -3.6066
10749TIP3   OH232191   0.125   2.428   2.507  0.1075  0.4158 -0.5167
10749TIP3    H132192   0.109   2.417   2.413  1.3442 -1.6585 -0.5448
10749TIP3    H232193   0.056   2.376   2.549  0.3508  0.2620 -0.3091
10750TIP3   OH232194   5.426   5.720   3.641  0.3372  0.6401 -0.2777
10750TIP3    H132195   5.491   5.690   3.577  1.7925  0.5478  1.1826
10750TIP3    H232196   5.362   5.649   3.646 -0.0931  0.8636 -1.9665
10751TIP3   OH232197   5.847   1.731   3.032 -0.4540 -0.1511 -0.3865
10751TIP3    H132198   5.873   1.823   3.033  0.6882 -0.4474 -1.1399
10751TIP3    H232199   5.776   1.725   3.096 -1.1410  1.4237 -0.9635
10752TIP3   OH232200   0.315   5.181   3.117 -0.3350 -0.4836 -0.1882
10752TIP3    H132201   0.342   5.141   3.200  0.3029  0.3159 -0.0010
10752TIP3    H232202   0.393   5.175   3.062  0.3229  1.8735  0.3615
10753TIP3   OH232203   3.818   2.600   0.760  0.3834 -0.4723  0.5472
10753TIP3    H132204   3.880   2.527   0.757  0.9823  0.0633 -0.9591
10753TIP3    H232205   3.763   2.588   0.683  0.7055  0.8282  0.0863
10754TIP3   OH232206   7.446   1.764   2.662 -0.0503 -0.5078 -0.0517
10754TIP3    H132207   7.526   1.778   2.611 -1.4236  0.6349 -2.0204
10754TIP3    H232208   7.403   1.849   2.662 -0.3653 -0.5783  2.7081
10755TIP3   OH232209   3.233   7.284   0.103  0.1746  0.6866 -0.1331
10755TIP3    H132210   3.300   7.351   0.114 -0.2705  1.6199 -2.5930
10755TIP3    H232211   3.150   7.330   0.115 -0.0989  0.0952  0.3118
10756TIP3   OH232212   5.466   6.437   3.781  0.3443 -0.6156 -0.1893
10756TIP3    H132213   5.445   6.412   3.691  2.0523  0.3162 -0.8872
10756TIP3    H232214   5.381   6.461   3.819 -0.0385  4.9312 -3.4031
10757TIP3   OH232215   3.005   1.919   4.696  0.2235  0.1251 -0.6328
10757TIP3    H132216   3.013   1.835   4.651 -0.4269 -0.2310 -0.0881
10757TIP3    H232217   3.093   1.957   4.688  1.0125 -1.3265  0.5144
10758TIP3   OH232218   7.210   3.720   4.025  0.1694  0.2554 -0.0614
10758TIP3    H132219   7.255   3.655   4.079 -0.9589 -0.4937  0.0066
10758TIP3    H232220   7.117   3.697   4.032 -0.1851  1.4446 -0.6149
10759TIP3   OH232221   0.878   4.180   2.285  0.0442 -0.1699 -0.1607
10759TIP3    H132222   0.835   4.210   2.364  0.6799  0.0824  0.0993
10759TIP3    H232223   0.827   4.105   2.256 -0.7019  0.2612  0.0031
10760TIP3   OH232224   7.254   2.627   0.745 -0.1436 -0.3600 -0.2388
10760TIP3    H132225   7.177   2.621   0.802  0.5227 -0.7684  0.6320
10760TIP3    H232226   7.246   2.551   0.687 -1.2317  0.4808 -1.2446
10761TIP3   OH232227   2.618   5.065   1.350 -0.1933  0.3984 -0.6535
10761TIP3    H132228   2.586   5.139   1.401  0.7115  1.3673 -1.4537
10761TIP3    H232229   2.668   5.104   1.279  2.1451 -1.0145  0.1230
10762TIP3   OH232230   3.154   3.304   3.475 -0.8833  0.1486  0.5264
10762TIP3    H132231   3.222   3.236   3.476 -0.4535  0.5013 -1.4487
10762TIP3    H232232   3.083   3.266   3.526  0.1663 -0.9047  1.2794
10763TIP3   OH232233   4.530   6.974   5.307 -0.2035 -0.2005  0.0166
10763TIP3    H132234   4.524   7.036   5.380 -1.0383 -1.9475  1.5192
10763TIP3    H232235   4.441   6.940   5.298  0.3616 -1.6600 -0.3099
10764TIP3   OH232236   1.875   7.020   3.475  0.0061  0.0450  1.0832
10764TIP3    H132237   1.918   7.103   3.495  1.6164 -0.5914  0.4419
10764TIP3    H232238   1.886   6.968   3.555 -0.1670  0.1067  1.1486
10765TIP3   OH232239   1.768   1.254   4.779  0.0694  0.2167  0.1685
10765TIP3    H132240   1.714   1.283   4.706  1.2746  0.4188 -0.6707
10765TIP3    H232241   1.857   1.253   4.744  0.5923 -0.2905  1.4566
10766TIP3   OH232242   6.011   3.974   4.960 -0.3343 -0.1686  0.7234
10766TIP3    H132243   5.995   4.066   4.984  0.5703  0.1005  0.3737
10766TIP3    H232244   6.021   3.929   5.044 -1.9284 -0.1857  0.9257
10767TIP3   OH232245   6.820   3.466   0.280  0.5270 -0.1415  0.2248
10767TIP3    H132246   6.874   3.387   0.273 -0.9337 -1.4926  2.7861
10767TIP3    H232247   6.754   3.456   0.212  0.8763 -0.6723 -0.0456
10768TIP3   OH232248   6.278   3.833   1.379 -0.4761 -0.2804 -0.2002
10768TIP3    H132249   6.317   3.747   1.395 -0.5259 -0.1645  0.5999
10768TIP3    H232250   6.236   3.825   1.293  1.3844 -0.3751 -1.1622
10769TIP3   OH232251   1.262   0.902   0.215 -0.3212 -0.0016  0.5317
10769TIP3    H132252   1.205   0.828   0.233 -0.5582  0.0065 -0.1567
10769TIP3    H232253   1.205   0.979   0.224  0.2477  0.2361  2.6934
10770TIP3   OH232254   6.357   7.247   3.675  0.0305 -0.0488  0.6151
10770TIP3    H132255   6.436   7.297   3.697  1.0548 -0.7878 -1.1562
10770TIP3    H232256   6.381   7.156   3.691  0.9356 -0.6919 -3.2728
10771TIP3   OH232257   5.069   6.639   6.136  0.2560 -0.7031  0.2848
10771TIP3    H132258   5.075   6.728   6.170 -2.6290 -0.4587  0.4019
10771TIP3    H232259   5.103   6.645   6.047  1.3756  0.1729  0.7509
10772TIP3   OH232260   7.268   3.210   3.103  0.0171  0.2304 -0.0722
10772TIP3    H132261   7.270   3.269   3.028  1.7637  0.0709 -0.1904
10772TIP3    H232262   7.272   3.268   3.180 -0.4049  0.3364 -0.1272
10773TIP3   OH232263   0.480   1.676   6.488  0.1920  0.0149  0.4076
10773TIP3    H132264   0.498   1.582   6.491  0.6590  0.1227  1.3643
10773TIP3    H232265   0.502   1.708   6.576  2.1011  1.3792 -0.4712
10774TIP3   OH232266   2.404   7.575   4.247 -0.5728  0.0958 -0.2512
10774TIP3    H132267   2.387   7.494   4.199  0.8226 -0.2100 -0.2814
10774TIP3    H232268   2.327   7.629   4.231 -2.7468 -2.1212  1.8059
10775TIP3   OH232269   0.426   4.376   0.284  0.0095 -0.3718 -0.2196
10775TIP3    H132270   0.459   4.465   0.272  1.6669 -0.4690  2.7564
10775TIP3    H232271   0.504   4.321   0.286 -0.9916 -2.0297 -2.3260
10776TIP3   OH232272   5.478   5.582   4.194  0.2172 -0.2619 -0.5595
10776TIP3    H132273   5.415   5.591   4.265  0.7486  2.0686 -0.2934
10776TIP3    H232274   5.432   5.530   4.128 -1.5702  0.4156  0.0949
10777TIP3   OH232275   6.050   7.338   0.426  0.7003  0.4013 -0.3035
10777TIP3    H132276   5.984   7.334   0.357 -0.1503  0.0220  0.5120
10777TIP3    H232277   6.008   7.299   0.502  1.7847  0.3859  0.3090
10778TIP3   OH232278   2.940   3.132   4.085  0.1261  0.0775 -0.1638
10778TIP3    H132279   3.010   3.068   4.093 -1.0177 -1.1428  0.5851
10778TIP3    H232280   2.860   3.079   4.083 -0.7883  1.4354 -0.7783
10779TIP3   OH232281   5.744   5.480   1.640 -0.3100  0.2326 -0.5222
10779TIP3    H132282   5.792   5.423   1.580  0.7034  0.9288 -0.3980
10779TIP3    H232283   5.670   5.513   1.589 -0.9253 -1.1725 -0.5983
10780TIP3   OH232284   3.736   0.742   1.106  0.5969  0.1229 -0.3577
10780TIP3    H132285   3.678   0.776   1.037  0.1787  2.0512  0.8685
10780TIP3    H232286   3.782   0.819   1.139  3.1225 -1.2042 -0.5347
10781TIP3   OH232287   2.290   2.569   6.386 -0.4381  0.0754 -0.3452
10781TIP3    H132288   2.211   2.557   6.332 -0.1860  1.9300 -1.2098
10781TIP3    H232289   2.356   2.600   6.325  1.2855 -2.2480  0.1992
10782TIP3   OH232290   6.606   1.855   1.278 -0.1679 -0.0500  0.2327
10782TIP3    H132291   6.516   1.833   1.253  0.1293 -1.5616  0.4085
10782TIP3    H232292   6.629   1.792   1.346  1.1005  0.1566  0.0324
10783TIP3   OH232293   1.862   7.713   2.233 -0.0130 -0.2529 -0.1563
10783TIP3    H132294   1.919   7.642   2.262  1.1578  0.8785  0.4409
10783TIP3    H232295   1.921   7.789   2.224 -1.0145  0.3784 -1.8595
10784TIP3   OH232296   7.623   6.338   3.077 -0.0916 -0.2311  0.5850
10784TIP3    H132297   7.697   6.280   3.094  0.0273  0.1382  1.3713
10784TIP3    H232298   7.652   6.394   3.005 -0.5824 -1.7912 -0.8712
10785TIP3   OH232299   7.903   0.016   5.750 -0.1065 -0.8239 -0.2744
10785TIP3    H132300   7.849   0.095   5.752  1.4974  0.3151  0.1914
10785TIP3    H232301   7.857  -0.046   5.805  0.3150  1.0130  2.3214
10786TIP3   OH232302   0.546   0.060   1.119 -0.0717  0.2216  0.0154
10786TIP3    H132303   0.591   0.108   1.049  1.6129  2.4433  2.4287
10786TIP3    H232304   0.590  -0.024   1.122  3.3060  1.8607  1.4304
10787TIP3   OH232305   5.727   5.091   0.361  0.2202  0.0485 -0.2405
10787TIP3    H132306   5.768   5.165   0.315 -2.2542  0.8505 -1.3275
10787TIP3    H232307   5.665   5.132   0.421  1.0625 -1.1118  1.4810
10788TIP3   OH232308   6.079   5.871   4.218 -0.0196  0.2726  0.2778
10788TIP3    H132309   6.141   5.828   4.159 -0.9488 -0.4801 -0.1690
10788TIP3    H232310   6.021   5.801   4.248  0.3153  0.6702  1.9675
10789TIP3   OH232311   0.948   6.396   0.582  0.1283 -0.6292  0.0932
10789TIP3    H132312   0.870   6.450   0.595  1.1351  0.6120  1.2039
10789TIP3    H232313   0.971   6.408   0.490 -1.7031 -2.0478 -0.6113
10790TIP3   OH232314   4.107   7.108   3.193  0.4397  0.2187 -0.3341
10790TIP3    H132315   4.169   7.139   3.126  0.9443 -1.0359 -0.4754
10790TIP3    H232316   4.146   7.027   3.226 -0.7067 -0.1316  0.2043
10791TIP3   OH232317   7.517   2.572   4.274 -0.0496 -0.6877 -0.4518
10791TIP3    H132318   7.600   2.598   4.316  0.1585 -1.6326 -0.2614
10791TIP3    H232319   7.451   2.592   4.340  0.3163 -2.5750  0.5712
10792TIP3   OH232320   3.331   2.867   1.675  0.2990 -0.0182 -0.3487
10792TIP3    H132321   3.248   2.868   1.721  1.7221 -0.8106  2.4187
10792TIP3    H232322   3.364   2.956   1.682 -0.2004  0.2635 -1.3331
10793TIP3   OH232323   7.950   2.757   6.641  0.1882  0.1606  0.1299
10793TIP3    H132324   7.883   2.780   6.705  0.3354  0.8720  0.0442
10793TIP3    H232325   8.033   2.782   6.682  0.4768 -1.3689  0.5209
10794TIP3   OH232326   3.305   7.410   6.294  0.4247 -0.1258  0.3183
10794TIP3    H132327   3.317   7.446   6.382  0.2624  1.3476 -0.2275
10794TIP3    H232328   3.212   7.388   6.290  0.0803  1.2526  0.0390
10795TIP3   OH232329   8.195   6.911   4.941  0.3152  0.3150 -0.2626
10795TIP3    H132330   8.149   6.976   4.994 -0.2764 -0.5745  0.3314
10795TIP3    H232331   8.161   6.925   4.852  1.5567  2.0343 -0.5322
10796TIP3   OH232332   5.607   6.116   5.156 -0.1070  0.0039 -0.4420
10796TIP3    H132333   5.527   6.100   5.206 -0.2258  0.0036 -0.6301
10796TIP3    H232334   5.651   6.186   5.203 -0.0738 -0.1964 -0.1732
10797TIP3   OH232335   3.764   3.385   5.267  0.2147  0.1335 -0.4357
10797TIP3    H132336   3.792   3.398   5.176 -0.0749  1.7973 -0.3106
10797TIP3    H232337   3.711   3.462   5.287  0.3219 -0.1884  1.1807
10798TIP3   OH232338   0.207   3.883   1.957 -0.4176  0.1371  0.3006
10798TIP3    H132339   0.221   3.956   2.017  1.3124 -0.8428  1.1768
10798TIP3    H232340   0.258   3.906   1.879  0.3643 -0.2290  0.6895
10799TIP3   OH232341   5.013   7.548   4.666  0.2972 -0.0279  0.4047
10799TIP3    H132342   4.955   7.473   4.679 -0.4910  0.6155  0.7493
10799TIP3    H232343   5.094   7.526   4.712 -1.1707  0.7620  3.6691
10800TIP3   OH232344   7.759   7.323   1.151 -0.1439  0.0771 -0.4554
10800TIP3    H132345   7.764   7.288   1.062  1.8250 -0.9383  0.0126
10800TIP3    H232346   7.710   7.405   1.141 -0.3304 -0.2178 -2.3981
10801TIP3   OH232347   6.406   7.273   4.068  0.0840 -0.4533  0.4982
10801TIP3    H132348   6.430   7.348   4.013 -0.5147  0.0598  0.9260
10801TIP3    H232349   6.480   7.213   4.060  0.0012 -0.3939 -0.8788
10802TIP3   OH232350   3.886   4.724   5.926 -0.3679  0.0045  0.0352
10802TIP3    H132351   3.979   4.718   5.945  0.3159  0.3736 -2.8943
10802TIP3    H232352   3.859   4.807   5.965 -0.0107 -1.0059  2.6455
10803TIP3   OH232353   2.604   1.525   3.115  1.1909  0.1823 -0.0392
10803TIP3    H132354   2.687   1.479   3.125  1.2091  0.1301 -0.4124
10803TIP3    H232355   2.575   1.504   3.026  0.1275 -0.8525  0.5302
10804TIP3   OH232356   6.244   1.962   4.975 -0.0355 -0.6006 -0.2884
10804TIP3    H132357   6.183   1.981   4.904 -0.6497 -1.8162 -0.1146
10804TIP3    H232358   6.199   1.993   5.054  0.5314  0.5049 -0.3853
10805TIP3   OH232359   2.482   7.711   1.899  0.0627 -0.0211  0.4398
10805TIP3    H132360   2.471   7.673   1.812 -1.5230  2.4377 -0.5424
10805TIP3    H232361   2.436   7.651   1.957 -3.3526  0.7264 -1.1887
10806TIP3   OH232362   6.316   7.486   4.802  0.6949  0.6830 -0.4228
10806TIP3    H132363   6.231   7.442   4.792  0.1999  1.3715  0.5261
10806TIP3    H232364   6.354   7.486   4.715  0.8849 -1.9371 -0.4172
10807TIP3   OH232365   5.549   4.208   1.444  0.5585  0.6095  0.1473
10807TIP3    H132366   5.617   4.189   1.381  0.6335  0.2431  0.3371
10807TIP3    H232367   5.527   4.300   1.429 -0.5342  0.1148 -1.4781
10808TIP3   OH232368   0.915   1.817   1.867 -0.0153  0.3782  0.0172
10808TIP3    H132369   0.916   1.910   1.891  2.3590  0.3486  0.2447
10808TIP3    H232370   0.933   1.816   1.773  0.4249  0.1352  0.1028
10809TIP3   OH232371   2.750   0.644   6.145  0.5712 -0.0859 -0.0870
10809TIP3    H132372   2.731   0.681   6.231 -0.0150 -0.6779  0.0491
10809TIP3    H232373   2.676   0.671   6.090  0.6701 -0.1599 -0.2584
10810TIP3   OH232374   5.862   2.935   5.221 -0.1785  0.1187 -0.1673
10810TIP3    H132375   5.858   2.882   5.301  0.8734 -1.2985 -1.0132
10810TIP3    H232376   5.877   3.025   5.253  0.5803 -0.4683  1.2199
10811TIP3   OH232377   7.903   0.047   6.693  0.5276  0.2392  0.2797
10811TIP3    H132378   7.958   0.092   6.756 -2.5940 -0.5508  3.9089
10811TIP3    H232379   7.926  -0.046   6.702  0.1125  0.1262  0.2004
10812TIP3   OH232380   5.309   1.722   1.300 -0.0040  0.1280 -0.0544
10812TIP3    H132381   5.234   1.782   1.299  0.1761  0.3519 -0.3265
10812TIP3    H232382   5.272   1.637   1.321 -0.4487  0.0876 -0.9975
10813TIP3   OH232383   1.834   4.270   4.635 -0.3245 -0.5372  0.6361
10813TIP3    H132384   1.875   4.334   4.578 -0.2348  0.0775  1.3735
10813TIP3    H232385   1.814   4.318   4.715  0.6125 -1.6620  1.5762
10814TIP3   OH232386   0.931   7.728   5.855  0.0127 -0.1917 -0.9806
10814TIP3    H132387   0.963   7.818   5.862 -2.1286  0.5550  0.0138
10814TIP3    H232388   1.006   7.674   5.882  1.4023  1.2286 -1.7663
10815TIP3   OH232389   4.504   2.807   5.218 -0.5110 -0.2472 -0.2392
10815TIP3    H132390   4.499   2.716   5.248 -0.4385 -0.1017  0.2384
10815TIP3    H232391   4.428   2.849   5.257  0.7037  0.4334  1.5362
10816TIP3   OH232392   4.362   0.962   4.646 -0.2485  0.4220 -0.6361
10816TIP3    H132393   4.396   1.038   4.600  1.3540 -0.2859 -0.6699
10816TIP3    H232394   4.323   0.998   4.726  0.5664  1.2665 -0.6074
10817TIP3   OH232395   2.057   1.444   4.816  0.1509  0.3808 -0.0873
10817TIP3    H132396   2.111   1.521   4.798  0.2383  0.0313 -1.4113
10817TIP3    H232397   2.059   1.394   4.735 -0.3565 -0.7522  0.5757
10818TIP3   OH232398   5.880   4.620   6.307 -0.1859 -0.2925  0.0692
10818TIP3    H132399   5.929   4.667   6.375  1.4153 -1.5789 -0.1352
10818TIP3    H232400   5.800   4.590   6.352 -0.1149  0.6045  0.8242
10819TIP3   OH232401   2.904   0.788   1.735  0.2903  0.6590  0.7311
10819TIP3    H132402   2.954   0.736   1.672 -1.0381  0.4136 -0.1613
10819TIP3    H232403   2.960   0.792   1.812  0.4502 -2.1056  0.8465
10820TIP3   OH232404   2.026   7.641   4.832 -0.7174  0.2949  0.1128
10820TIP3    H132405   2.052   7.586   4.906  1.9878  1.4422  0.1379
10820TIP3    H232406   1.956   7.593   4.790  0.2620 -2.2593  1.2085
10821TIP3   OH232407   6.336   2.136   1.276  0.1514  0.2748 -0.2915
10821TIP3    H132408   6.326   2.170   1.364 -0.5717 -1.6071  0.3987
10821TIP3    H232409   6.258   2.082   1.261  1.5802 -1.7406 -0.9705
10822TIP3   OH232410   2.017   1.847   5.018  0.3472 -0.3253  0.4911
10822TIP3    H132411   2.095   1.794   5.034 -0.0310 -0.6173  1.4079
10822TIP3    H232412   1.954   1.788   4.978  0.4815 -0.1642  0.0331
10823TIP3   OH232413   1.150   5.794   5.461  0.2708 -0.0550 -0.3385
10823TIP3    H132414   1.125   5.886   5.454 -1.4060 -0.3347  1.2164
10823TIP3    H232415   1.218   5.782   5.395 -1.0514  1.7443 -2.1283
10824TIP3   OH232416   3.256   2.047   3.091  0.7964 -0.0472  0.2906
10824TIP3    H132417   3.282   1.991   3.017 -2.7067 -0.2898 -0.9799
10824TIP3    H232418   3.237   2.132   3.051 -1.1749 -0.1860  0.8435
10825TIP3   OH232419   5.746   7.573   1.309 -0.5819 -0.9215  0.1574
10825TIP3    H132420   5.682   7.593   1.377 -1.7084 -0.5683 -0.9649
10825TIP3    H232421   5.725   7.633   1.237  1.0678 -0.7506 -0.2190
10826TIP3   OH232422   3.152   4.004   5.066  0.3143  0.5996 -0.0739
10826TIP3    H132423   3.135   4.077   5.007 -0.9809  1.9248  1.8114
10826TIP3    H232424   3.140   3.926   5.012 -1.5955  1.7134 -1.3881
10827TIP3   OH232425   2.593   2.817   2.257  0.6937  0.5524 -0.0364
10827TIP3    H132426   2.500   2.839   2.261  0.3117 -1.0482  0.3694
10827TIP3    H232427   2.611   2.808   2.163  0.4027  0.7274 -0.1113
10828TIP3   OH232428   6.884   5.035   1.471  0.0394  0.0523  0.3185
10828TIP3    H132429   6.866   4.979   1.395  1.0609 -1.0791  0.8631
10828TIP3    H232430   6.867   4.978   1.547 -0.7355  1.0895  0.9481
10829TIP3   OH232431   3.547   0.308   3.538 -0.9511  0.7432  0.3719
10829TIP3    H132432   3.533   0.259   3.619  4.5709  1.9117  2.4599
10829TIP3    H232433   3.502   0.392   3.552 -0.5758  0.6965  2.0140
10830TIP3   OH232434   7.438   2.059   5.348 -1.1466  0.0245 -0.1448
10830TIP3    H132435   7.351   2.096   5.331 -1.5347 -1.2005 -1.0203
10830TIP3    H232436   7.420   1.972   5.383 -0.2606 -0.0262  0.2050
10831TIP3   OH232437   4.287   4.171   0.073 -0.1469 -1.2526 -0.1065
10831TIP3    H132438   4.327   4.109   0.013 -0.8809 -1.6846 -0.1600
10831TIP3    H232439   4.327   4.152   0.158  0.2048 -1.2685 -0.2766
10832TIP3   OH232440   4.485   4.400   6.314 -0.1043  0.1645  0.0645
10832TIP3    H132441   4.528   4.389   6.229 -1.7768  0.5263 -0.8609
10832TIP3    H232442   4.518   4.483   6.347  1.4508 -0.5315  0.3436
10833TIP3   OH232443   2.459   1.798   3.526 -0.1413 -0.4440 -0.5628
10833TIP3    H132444   2.505   1.856   3.586 -2.0085 -0.4421  0.9610
10833TIP3    H232445   2.498   1.816   3.441  0.4354  1.8821  0.1165
10834TIP3   OH232446   2.547   0.383   3.798  0.1538  0.5367  0.1363
10834TIP3    H132447   2.629   0.334   3.800  0.4420  1.0375  0.6442
10834TIP3    H232448   2.499   0.345   3.724  0.7011  0.0240  0.0349
10835TIP3   OH232449   5.050   5.985   3.664  0.6418  0.2357  0.3728
10835TIP3    H132450   4.981   5.962   3.726  0.2833  0.6255  0.1161
10835TIP3    H232451   5.129   5.991   3.719  0.1154  1.7790  0.9995
10836TIP3   OH232452   4.965   2.730   3.992 -0.0545  0.2829  0.2189
10836TIP3    H132453   4.943   2.811   4.038 -1.7119 -0.1671  0.2811
10836TIP3    H232454   4.955   2.752   3.899  0.1492  0.3201  0.2047
10837TIP3   OH232455   2.303   5.023   6.533  0.1318  0.1764  0.4140
10837TIP3    H132456   2.213   5.016   6.562 -0.1081  0.7848 -0.1466
10837TIP3    H232457   2.351   5.057   6.608  0.2509 -1.8385  1.2996
10838TIP3   OH232458   2.523   5.583   5.839  0.1340 -0.6420  0.8045
10838TIP3    H132459   2.449   5.564   5.781  0.7743 -0.0934 -0.2246
10838TIP3    H232460   2.531   5.506   5.894 -2.0181 -0.2078  1.8380
10839TIP3   OH232461   6.775   6.163   6.750 -0.5733  0.5680  0.2892
10839TIP3    H132462   6.865   6.133   6.732 -0.4974 -0.0148  1.5627
10839TIP3    H232463   6.726   6.083   6.768 -1.1901  0.9480  0.3214
10840TIP3   OH232464   2.446   2.607   3.309 -0.0011  0.0674 -0.0162
10840TIP3    H132465   2.417   2.694   3.282 -1.9728 -0.1947  1.0597
10840TIP3    H232466   2.449   2.611   3.405 -0.2564 -1.0762  0.0564
10841TIP3   OH232467   5.734   7.257   2.687  0.4797  0.3746 -0.1136
10841TIP3    H132468   5.666   7.291   2.630 -1.9428 -2.4602  0.8340
10841TIP3    H232469   5.749   7.168   2.657 -0.0961 -0.8506  2.8452
10842TIP3   OH232470   6.378   3.513   5.636 -0.4525 -0.1276 -0.2305
10842TIP3    H132471   6.400   3.548   5.550  0.9347 -1.5984 -0.5147
10842TIP3    H232472   6.300   3.562   5.663  0.1983  1.6540 -1.4826
10843TIP3   OH232473   5.642   5.176   2.434  0.2602 -0.5261 -0.0450
10843TIP3    H132474   5.580   5.235   2.392 -0.2243 -0.2246  1.0548
10843TIP3    H232475   5.720   5.179   2.379  0.1437  0.9262 -0.1540
10844TIP3   OH232476   4.201   7.095   3.604  0.2767 -0.4664  0.0415
10844TIP3    H132477   4.282   7.082   3.654  1.2009  1.1781 -0.9270
10844TIP3    H232478   4.229   7.140   3.524 -1.7694  1.6661  0.4235
10845TIP3   OH232479   1.170   2.781   5.044  0.4269 -0.8410  0.2346
10845TIP3    H132480   1.118   2.835   5.103 -0.3640 -1.3931  0.0652
10845TIP3    H232481   1.188   2.701   5.094  0.4482 -0.9745  0.0177
10846TIP3   OH232482   5.846   3.058   6.081  0.5435 -0.1165  0.4166
10846TIP3    H132483   5.897   2.983   6.111 -1.2179 -1.2442  0.7384
10846TIP3    H232484   5.819   3.034   5.992  1.4715  0.9668 -0.1884
10847TIP3   OH232485   6.624   4.425   6.762 -0.1373 -0.3688 -0.0340
10847TIP3    H132486   6.574   4.491   6.810  0.8227 -1.0437  1.9875
10847TIP3    H232487   6.612   4.449   6.670  0.0582  2.5460  0.5868
10848TIP3   OH232488   2.129   2.200   0.780 -0.3591  0.2700  0.0907
10848TIP3    H132489   2.139   2.110   0.809 -0.5677  0.2236  0.0163
10848TIP3    H232490   2.147   2.253   0.858  0.7097  0.1956 -0.0810
10849TIP3   OH232491   3.079   2.255   3.837  0.2476  0.3970 -0.0785
10849TIP3    H132492   3.136   2.178   3.827 -1.4602 -0.9497  0.1091
10849TIP3    H232493   3.100   2.310   3.761  1.3550 -0.3625 -0.3433
10850TIP3   OH232494   5.585   7.623   1.541 -0.3629  0.1164 -0.3232
10850TIP3    H132495   5.607   7.714   1.562  1.8540 -0.6683  1.1870
10850TIP3    H232496   5.509   7.603   1.595 -1.3722  1.2765 -1.2771
10851TIP3   OH232497   1.006   7.107   5.148  0.1345 -0.0157  0.3742
10851TIP3    H132498   0.929   7.103   5.206 -0.7623  0.0558 -0.7867
10851TIP3    H232499   1.017   7.200   5.129 -0.2728 -0.1315 -0.4650
10852TIP3   OH232500   1.319   5.970   3.340 -0.7999 -0.1147 -0.0364
10852TIP3    H132501   1.273   5.945   3.260 -1.1751 -0.4531  0.2774
10852TIP3    H232502   1.387   5.903   3.350 -0.2628  0.3604 -0.4769
10853TIP3   OH232503   6.236   1.620   3.133 -0.1495 -0.8173  0.0567
10853TIP3    H132504   6.232   1.531   3.097  1.3957 -1.4900  1.4123
10853TIP3    H232505   6.187   1.614   3.215 -0.8571 -0.1537 -0.3124
10854TIP3   OH232506   6.898   2.350   1.882  0.0617 -0.4043 -0.3297
10854TIP3    H132507   6.827   2.328   1.942  0.4070  0.3109  0.3455
10854TIP3    H232508   6.859   2.412   1.820 -0.3161 -1.2054 -0.9173
10855TIP3   OH232509   5.708   0.852   4.298  0.2598  0.1875  0.4831
10855TIP3    H132510   5.661   0.936   4.300  0.0367  0.0526  1.7258
10855TIP3    H232511   5.692   0.818   4.210 -2.6781 -0.2228  1.0713
10856TIP3   OH232512   3.378   4.679   1.859  0.4698 -0.0274 -0.7362
10856TIP3    H132513   3.357   4.728   1.780  0.7305  2.9740  0.9259
10856TIP3    H232514   3.472   4.663   1.854  0.2585 -1.1150 -1.6391
10857TIP3   OH232515   7.478   0.854   1.812 -0.3709  0.1099 -0.2441
10857TIP3    H132516   7.451   0.889   1.897  0.1774 -2.0717  0.9287
10857TIP3    H232517   7.498   0.931   1.759  0.1644  1.5552  1.9201
10858TIP3   OH232518   7.341   5.121   1.941  0.1220 -0.3734 -0.0545
10858TIP3    H132519   7.326   5.203   1.894  0.6158  0.4690  1.2208
10858TIP3    H232520   7.428   5.092   1.911 -0.3281 -0.7904 -0.9949
10859TIP3   OH232521   4.527   0.446   3.258 -0.6409 -0.4189 -0.1549
10859TIP3    H132522   4.443   0.464   3.217  0.0315  1.2865 -0.8990
10859TIP3    H232523   4.592   0.474   3.193  0.4839 -0.7422  0.7905
10860TIP3   OH232524   1.495   2.801   1.767 -0.3197 -0.0846  0.4234
10860TIP3    H132525   1.442   2.736   1.813  2.0953 -0.9866  2.1927
10860TIP3    H232526   1.485   2.780   1.674 -0.4902 -2.2812  0.8955
10861TIP3   OH232527   4.966   6.568   3.745 -0.0382  0.1497  0.3711
10861TIP3    H132528   4.940   6.476   3.755  1.0735 -0.3007 -0.6546
10861TIP3    H232529   5.047   6.575   3.796  1.1837 -0.0924 -1.4187
10862TIP3   OH232530   5.559   1.593   5.636  0.3886  0.5159 -0.4593
10862TIP3    H132531   5.508   1.512   5.635  1.7152 -0.3464 -1.1334
10862TIP3    H232532   5.650   1.564   5.627  1.1600  1.8987  1.9233
10863TIP3   OH232533   5.593   3.195   4.595 -0.1496 -0.1254  0.2445
10863TIP3    H132534   5.686   3.199   4.571  0.2911 -0.1015  1.8511
10863TIP3    H232535   5.560   3.119   4.547  0.3477  0.6591 -1.4136
10864TIP3   OH232536   6.198   3.982   0.101  0.0492  0.1514  0.2654
10864TIP3    H132537   6.270   3.920   0.100  0.0964  0.1701  1.2227
10864TIP3    H232538   6.129   3.941   0.049  0.3371 -0.3928  0.3144
10865TIP3   OH232539   1.335   0.935   6.367  0.5947 -0.1034 -0.3867
10865TIP3    H132540   1.253   0.890   6.383 -0.0553  0.9143 -0.7794
10865TIP3    H232541   1.312   1.028   6.364  1.7122  0.1835 -0.7520
10866TIP3   OH232542   0.987   0.519   1.968  0.4264 -0.0375 -0.1198
10866TIP3    H132543   1.037   0.470   1.903  2.0168  0.0559  0.9882
10866TIP3    H232544   1.020   0.608   1.963 -0.6999  0.3871 -0.3846
10867TIP3   OH232545   5.299   0.383   3.684 -0.3120  0.3776  0.2497
10867TIP3    H132546   5.342   0.332   3.616 -0.2354  0.3016  0.3543
10867TIP3    H232547   5.329   0.473   3.670  1.0082  0.1012  1.1954
10868TIP3   OH232548   7.190   3.538   0.275 -0.0418 -0.0844  0.2510
10868TIP3    H132549   7.140   3.460   0.251 -0.6240  0.4138 -0.1794
10868TIP3    H232550   7.157   3.562   0.361 -0.1650 -0.0658  0.1985
10869TIP3   OH232551   1.525   7.018   3.074 -0.1689 -0.0260  0.2963
10869TIP3    H132552   1.617   7.036   3.088 -0.0038 -0.3481 -0.3343
10869TIP3    H232553   1.519   6.993   2.982 -1.0047  0.7326  0.1286
10870TIP3   OH232554   2.453   3.353   3.495  0.0486 -0.5579 -0.1876
10870TIP3    H132555   2.487   3.373   3.582  0.5366 -1.3534 -0.1830
10870TIP3    H232556   2.358   3.351   3.506 -0.1786  3.0227 -0.4781
10871TIP3   OH232557   4.303   3.899   1.164  0.1162  0.3162  0.4901
10871TIP3    H132558   4.378   3.866   1.115 -0.6450  0.1848 -0.6205
10871TIP3    H232559   4.291   3.988   1.132 -1.1178 -0.1713 -0.4885
10872TIP3   OH232560   1.469   2.524   1.637  0.7327 -0.0126  0.0863
10872TIP3    H132561   1.445   2.461   1.569  0.6408 -0.8852  0.9261
10872TIP3    H232562   1.467   2.609   1.591 -0.2839 -0.4692 -0.7693
10873TIP3   OH232563   5.672   6.125   6.712  0.0774  0.0180 -0.8193
10873TIP3    H132564   5.690   6.218   6.700 -0.2631  0.3952  1.1343
10873TIP3    H232565   5.693   6.085   6.628  1.5002  1.6684 -1.3140
10874TIP3   OH232566   6.895   1.137   1.421  0.3496  0.1020  0.0575
10874TIP3    H132567   6.921   1.228   1.436 -1.2187  0.6810 -0.5406
10874TIP3    H232568   6.803   1.134   1.446  0.1923 -1.1528 -0.6076
10875TIP3   OH232569   5.914   1.764   0.545 -0.0362  0.0016  0.6580
10875TIP3    H132570   5.871   1.827   0.488  2.3009  0.5670 -0.5638
10875TIP3    H232571   5.842   1.727   0.597 -2.1263  0.2474 -1.8317
10876TIP3   OH232572   6.383   0.319   6.518 -0.3465  0.0625  0.0081
10876TIP3    H132573   6.446   0.318   6.446  1.6470  0.3834  1.6445
10876TIP3    H232574   6.374   0.411   6.541 -0.7364 -0.0580  0.3507
10877TIP3   OH232575   4.840   6.134   5.602 -0.2618  0.0352  0.3192
10877TIP3    H132576   4.783   6.184   5.661 -0.4524 -0.7945  0.8493
10877TIP3    H232577   4.841   6.186   5.521  0.7819  1.7098  1.3382
10878TIP3   OH232578   4.552   3.990   1.813 -1.0060  0.0200 -0.5438
10878TIP3    H132579   4.575   4.057   1.749 -0.5370 -0.8870 -1.3692
10878TIP3    H232580   4.630   3.983   1.869 -0.2494 -1.1923 -1.6904
10879TIP3   OH232581   8.250   0.461   1.564 -0.4215  0.2478 -0.5428
10879TIP3    H132582   8.245   0.552   1.592  0.3841 -0.2532  1.3883
10879TIP3    H232583   8.239   0.464   1.469  1.1061  2.4923 -0.7050
10880TIP3   OH232584   4.126   1.156   5.179 -0.3506 -0.3969  0.0557
10880TIP3    H132585   4.093   1.242   5.204  1.4054  0.4745 -0.4514
10880TIP3    H232586   4.219   1.158   5.201 -0.1579 -1.9826 -0.4406
10881TIP3   OH232587   0.384   6.799   6.179  0.0543  0.1601 -0.4674
10881TIP3    H132588   0.290   6.781   6.176  0.0142 -0.3857  2.1228
10881TIP3    H232589   0.424   6.717   6.208  1.0426  1.0725  0.8671
10882TIP3   OH232590   7.869   5.546   4.270 -0.0144 -0.2771  0.1700
10882TIP3    H132591   7.796   5.594   4.309 -0.6014 -1.0622  0.0498
10882TIP3    H232592   7.946   5.578   4.318 -0.4499  0.4408  0.4032
10883TIP3   OH232593   0.325   2.186   2.165  0.3096 -0.0441  0.8869
10883TIP3    H132594   0.321   2.122   2.094  0.0464  0.4847  0.4142
10883TIP3    H232595   0.283   2.265   2.129  0.6979  0.4218  1.4285
10884TIP3   OH232596   7.958   2.729   4.327  0.0953 -0.1929  0.3546
10884TIP3    H132597   8.042   2.682   4.323 -0.6120 -1.4011 -1.5833
10884TIP3    H232598   7.897   2.666   4.366 -0.1914  0.2351  0.6042
10885TIP3   OH232599   4.282   4.303   0.565 -0.5040 -0.1973 -0.0532
10885TIP3    H132600   4.238   4.381   0.533 -1.0429 -0.6229 -0.3716
10885TIP3    H232601   4.342   4.335   0.633 -1.2952  0.3915  0.3780
10886TIP3   OH232602   0.564   4.670   2.172 -0.1548 -0.1483  0.3173
10886TIP3    H132603   0.495   4.725   2.210 -0.6167 -1.7336  1.8992
10886TIP3    H232604   0.636   4.730   2.156 -1.3405  1.2747  0.0834
10887TIP3   OH232605   7.482   0.543   1.721 -0.2226 -0.1281  0.0480
10887TIP3    H132606   7.391   0.540   1.692 -0.7207 -0.4794  1.5278
10887TIP3    H232607   7.505   0.636   1.716 -1.2521  0.2342  1.2670
10888TIP3   OH232608   0.583   6.099   2.015 -0.5366 -0.0503  0.2695
10888TIP3    H132609   0.514   6.106   2.081  0.7032 -0.1602  1.6329
10888TIP3    H232610   0.539   6.118   1.932 -2.2512 -0.4167  1.0539
10889TIP3   OH232611   2.597   6.255   6.098 -0.1265 -0.4783  0.1116
10889TIP3    H132612   2.578   6.346   6.120 -0.2003 -0.6922  1.0156
10889TIP3    H232613   2.581   6.248   6.004 -0.8393  0.2632  0.1695
10890TIP3   OH232614   4.980   6.246   6.650  0.0262 -0.0527 -0.2797
10890TIP3    H132615   4.958   6.254   6.557  0.2841  1.5854 -0.2283
10890TIP3    H232616   4.906   6.285   6.696  0.4939  0.3572  0.1400
10891TIP3   OH232617   0.555   1.722   2.974  0.5276  0.5843  0.1331
10891TIP3    H132618   0.468   1.683   2.975  0.3352  1.0099  0.0928
10891TIP3    H232619   0.574   1.743   3.066  0.4426  0.8102  0.0996
10892TIP3   OH232620   1.609   0.976   1.066 -0.2767  0.4539 -0.1455
10892TIP3    H132621   1.517   0.955   1.082  0.1377  0.0743  1.9594
10892TIP3    H232622   1.653   0.957   1.149  2.2099 -2.1585 -1.8503
10893TIP3   OH232623   2.391   4.092   1.799  0.1279  0.3791  0.3837
10893TIP3    H132624   2.448   4.034   1.749 -2.1312 -0.4404 -1.4168
10893TIP3    H232625   2.374   4.166   1.741 -1.0863  0.3045  0.6073
10894TIP3   OH232626   0.845   6.412   6.716 -0.0006 -0.1525 -0.3017
10894TIP3    H132627   0.853   6.507   6.726  0.0731 -0.0107 -1.5432
10894TIP3    H232628   0.931   6.384   6.684 -0.4208 -0.4566 -1.1826
10895TIP3   OH232629   6.943   5.474   4.584 -0.1098  0.0650 -0.0136
10895TIP3    H132630   6.989   5.398   4.620 -1.3463 -0.4296  0.5433
10895TIP3    H232631   7.013   5.528   4.547  0.7347 -1.8076 -1.3384
10896TIP3   OH232632   3.745   3.163   2.252 -0.5241 -0.7282  0.5814
10896TIP3    H132633   3.785   3.100   2.312 -0.0137 -0.7034  0.2746
10896TIP3    H232634   3.676   3.114   2.207  0.4017 -1.3018 -0.2371
10897TIP3   OH232635   3.060   7.835   2.889 -0.5694 -0.1135 -0.8241
10897TIP3    H132636   3.066   7.748   2.849  0.5674 -0.0882 -0.7378
10897TIP3    H232637   3.049   7.894   2.815 -1.7264 -0.3597 -0.8563
10898TIP3   OH232638   6.315   1.948   1.629 -0.5157  0.6393 -0.0201
10898TIP3    H132639   6.315   1.917   1.538  0.6186 -1.2054  0.5607
10898TIP3    H232640   6.262   2.028   1.627 -0.6363  0.5628 -2.2667
10899TIP3   OH232641   4.135   4.475   3.617  0.1127  0.0415 -0.4650
10899TIP3    H132642   4.176   4.422   3.549  0.6032 -1.7210  1.1309
10899TIP3    H232643   4.041   4.468   3.599  0.2701  0.4511 -1.5290
10900TIP3   OH232644   8.196   4.341   0.465 -0.3194 -0.3904  0.2388
10900TIP3    H132645   8.267   4.331   0.402 -0.2038  1.2226  0.0776
10900TIP3    H232646   8.216   4.422   0.512 -0.6186 -1.3476  2.0894
10901TIP3   OH232647   5.902   5.359   3.576 -0.0895 -0.0461 -0.5120
10901TIP3    H132648   5.813   5.374   3.543 -0.4111 -0.3626  0.1911
10901TIP3    H232649   5.914   5.425   3.643 -0.0282 -0.3955 -0.1745
10902TIP3   OH232650   7.354   5.398   2.887  0.1413  1.0031  0.1847
10902TIP3    H132651   7.428   5.415   2.946  0.6432  1.2539 -0.4943
10902TIP3    H232652   7.314   5.318   2.920  0.6031  0.9718  0.6809
10903TIP3   OH232653   2.729   2.074   0.830 -0.5891 -0.4939  0.7609
10903TIP3    H132654   2.767   2.012   0.768 -1.4954 -0.5232  0.2095
10903TIP3    H232655   2.651   2.029   0.864 -0.6082 -0.1119  1.2342
10904TIP3   OH232656   7.762   4.277   0.504  0.1142  0.1654  0.0486
10904TIP3    H132657   7.732   4.368   0.511 -2.2542 -0.6667  2.2582
10904TIP3    H232658   7.721   4.245   0.424 -0.4388  0.5842  0.1588
10905TIP3   OH232659   7.537   1.034   5.043 -0.7549 -0.3700 -0.1871
10905TIP3    H132660   7.530   0.939   5.030 -0.8569 -0.3491 -0.2786
10905TIP3    H232661   7.631   1.049   5.056 -0.9630 -0.8185  2.2980
10906TIP3   OH232662   0.978   2.321   5.236 -0.2770 -0.3086 -0.4583
10906TIP3    H132663   1.045   2.262   5.201 -0.0943 -1.1408  1.1924
10906TIP3    H232664   0.941   2.364   5.159  3.6492  1.8675 -1.3920
10907TIP3   OH232665   5.985   1.725   5.736  0.2949 -0.0023 -0.0935
10907TIP3    H132666   6.045   1.793   5.705  0.6337  0.3451  1.2640
10907TIP3    H232667   5.963   1.751   5.825 -2.7502  0.5023 -0.8490
10908TIP3   OH232668   7.446   7.665   4.186 -0.0664  0.4109  0.4039
10908TIP3    H132669   7.452   7.664   4.281  1.4881 -0.1771  0.3298
10908TIP3    H232670   7.354   7.682   4.167  0.0778  4.0624  2.0069
10909TIP3   OH232671   1.107   2.251   3.278  0.1235 -0.2350  0.0915
10909TIP3    H132672   1.028   2.305   3.272 -0.3546 -1.0107 -0.9446
10909TIP3    H232673   1.179   2.314   3.287 -0.4348  0.5617 -0.8451
10910TIP3   OH232674   3.440   4.087   4.879 -0.0432  0.2953 -0.5432
10910TIP3    H132675   3.468   4.090   4.971 -0.1736  0.7107 -0.5144
10910TIP3    H232676   3.367   4.149   4.875 -0.5664 -0.3270 -0.7462
10911TIP3   OH232677   6.742   2.647   4.679 -0.4425  0.2240  0.5628
10911TIP3    H132678   6.825   2.685   4.708  0.2859  0.1543 -1.3130
10911TIP3    H232679   6.680   2.671   4.748  0.9587  0.9312  1.6364
10912TIP3   OH232680   3.828   6.844   3.656  0.2674  0.0624 -0.5920
10912TIP3    H132681   3.907   6.796   3.630 -0.7285 -1.6835 -0.5435
10912TIP3    H232682   3.848   6.936   3.635  2.4329 -0.2706 -0.2351
10913TIP3   OH232683   4.318   3.248   2.569 -0.5297 -0.7294  0.4362
10913TIP3    H132684   4.322   3.299   2.650 -0.9285 -0.9685  0.6102
10913TIP3    H232685   4.292   3.312   2.503  3.0952  0.2813 -0.2277
10914TIP3   OH232686   6.319   1.064   4.484 -0.3488 -0.4139 -0.3869
10914TIP3    H132687   6.255   1.007   4.528 -0.4564  0.4373  0.5896
10914TIP3    H232688   6.369   1.104   4.555 -0.1711  0.6005 -1.0568
10915TIP3   OH232689   6.504   0.367   5.042 -0.0166  0.3266 -0.1318
10915TIP3    H132690   6.483   0.460   5.034  0.1444  0.2882 -1.2260
10915TIP3    H232691   6.493   0.347   5.135  2.8226  2.1413  0.7276
10916TIP3   OH232692   7.968   0.100   2.625  0.1678 -0.7106  0.0295
10916TIP3    H132693   7.973   0.158   2.701 -0.7327  1.9641 -1.7816
10916TIP3    H232694   7.874   0.082   2.615  0.1139  0.1322 -1.2008
10917TIP3   OH232695   5.057   0.954   6.538 -0.2097 -0.4756  0.2819
10917TIP3    H132696   4.996   1.027   6.530 -0.9116 -0.8798  1.6942
10917TIP3    H232697   5.141   0.994   6.560 -0.4838 -0.0651  0.5839
10918TIP3   OH232698   4.015   5.613   0.853  0.6187 -0.1994  0.1487
10918TIP3    H132699   3.966   5.578   0.778  0.2479 -0.4029  0.4826
10918TIP3    H232700   4.098   5.643   0.815  1.6076 -2.7801  0.0756
10919TIP3   OH232701   1.014   1.596   4.590 -0.0115  0.1570  0.5184
10919TIP3    H132702   0.985   1.528   4.652  1.3355 -1.3347 -0.4082
10919TIP3    H232703   0.980   1.567   4.506  0.2590  0.8548  0.1647
10920TIP3   OH232704   7.811   3.972   0.887  0.2137  0.6344 -0.4281
10920TIP3    H132705   7.831   4.063   0.867  1.4548  0.4401 -0.1212
10920TIP3    H232706   7.734   3.977   0.943 -0.1393  1.4500 -0.9550
10921TIP3   OH232707   4.340   1.922   5.836 -0.1074 -0.1046 -0.0960
10921TIP3    H132708   4.414   1.908   5.776 -0.8230  0.7611 -1.2286
10921TIP3    H232709   4.330   2.017   5.840 -0.3720 -0.1662  1.0587
10922TIP3   OH232710   0.761   4.907   5.079 -0.3113 -0.4479  0.4534
10922TIP3    H132711   0.849   4.914   5.042 -0.3702  0.8459  0.5252
10922TIP3    H232712   0.775   4.882   5.170  0.1100  1.6293  1.0061
10923TIP3   OH232713   8.045   6.990   0.821  0.2030 -0.1120 -0.6783
10923TIP3    H132714   7.974   6.937   0.858 -1.1945  1.9764 -0.2363
10923TIP3    H232715   8.105   6.925   0.782 -2.1909 -1.9452 -1.5888
10924TIP3   OH232716   2.099   3.414   5.029 -0.2999 -0.9203 -0.2332
10924TIP3    H132717   2.016   3.372   5.006 -0.4950 -1.4351  1.2891
10924TIP3    H232718   2.138   3.438   4.945 -1.0457 -2.4958 -1.0710
10925TIP3   OH232719   2.928   0.959   3.304 -0.1948 -0.4025 -0.3360
10925TIP3    H132720   2.888   1.000   3.227 -0.7099 -0.0877  0.0956
10925TIP3    H232721   2.860   0.902   3.339  0.2387 -1.0068 -0.4498
10926TIP3   OH232722   6.983   1.640   1.028  0.8256 -0.7455  0.1702
10926TIP3    H132723   6.950   1.560   0.987 -0.0582 -0.4377  0.2600
10926TIP3    H232724   6.995   1.701   0.955 -0.7308 -0.2034  0.3351
10927TIP3   OH232725   7.101   3.831   2.903 -0.5454 -0.7592  0.5082
10927TIP3    H132726   7.182   3.825   2.852 -1.4659 -2.7200 -0.8211
10927TIP3    H232727   7.051   3.901   2.860 -0.0624 -0.3265  0.6336
10928TIP3   OH232728   1.774   3.470   0.204 -0.6930  0.0781  0.9680
10928TIP3    H132729   1.810   3.400   0.148 -2.6693 -0.6449  0.5083
10928TIP3    H232730   1.777   3.548   0.149 -1.2423 -0.3127  0.3594
10929TIP3   OH232731   5.351   7.518   3.468 -0.2916 -0.1216 -0.4420
10929TIP3    H132732   5.320   7.572   3.541  0.1302 -1.1395  0.5127
10929TIP3    H232733   5.399   7.446   3.510  0.8167 -0.1905 -1.7585
10930TIP3   OH232734   4.846   1.910   4.013  0.3922  0.3933  0.2366
10930TIP3    H132735   4.937   1.895   4.041  0.0407  0.5982  1.5754
10930TIP3    H232736   4.812   1.972   4.077 -0.6196  0.5325 -0.4227
10931TIP3   OH232737   6.388   3.325   5.246  0.2269 -0.4066 -0.1964
10931TIP3    H132738   6.372   3.303   5.338  0.7170  2.3343  0.6481
10931TIP3    H232739   6.361   3.417   5.239 -0.0915 -0.6310 -2.8971
10932TIP3   OH232740   5.648   4.798   5.264 -0.0302  0.2520 -0.0259
10932TIP3    H132741   5.648   4.829   5.173 -1.9867 -1.2196 -0.6138
10932TIP3    H232742   5.603   4.867   5.312 -0.7222  0.1874 -0.5591
10933TIP3   OH232743   5.904   6.452   1.182 -0.0324  0.3483 -0.1434
10933TIP3    H132744   5.951   6.402   1.115 -1.1968 -0.6011 -0.2669
10933TIP3    H232745   5.893   6.392   1.255 -2.2888  0.0685 -0.6632
10934TIP3   OH232746   0.539   5.788   2.111 -0.0559 -0.3837 -0.1393
10934TIP3    H132747   0.462   5.776   2.056  0.3125  1.6569 -1.2185
10934TIP3    H232748   0.509   5.843   2.183  0.5267  1.3605 -1.1409
10935TIP3   OH232749   0.514   3.377   6.274  0.1124 -0.1117  0.5781
10935TIP3    H132750   0.495   3.286   6.299  0.4372 -0.4173 -0.2495
10935TIP3    H232751   0.607   3.388   6.291  1.0595 -1.2276 -2.9666
10936TIP3   OH232752   8.303   0.625   4.499  0.2077  0.1217  0.1452
10936TIP3    H132753   8.225   0.648   4.448  0.8995  0.2323 -0.8887
10936TIP3    H232754   8.371   0.611   4.434  0.7464 -1.2380  0.9598
10937TIP3   OH232755   0.225   7.807   4.800 -0.2393  0.2276  0.9596
10937TIP3    H132756   0.170   7.810   4.721 -0.5656  3.1925  1.1837
10937TIP3    H232757   0.314   7.797   4.766 -0.4914  0.2505  0.2748
10938TIP3   OH232758   7.045   2.042   4.474 -0.1948 -0.3436 -0.4402
10938TIP3    H132759   7.126   2.062   4.428 -0.0835  0.6279  0.1496
10938TIP3    H232760   7.009   2.128   4.498 -0.5023 -0.8086  0.8358
10939TIP3   OH232761   5.180   0.117   5.071  0.4864 -0.7991  0.5480
10939TIP3    H132762   5.232   0.071   5.137 -1.3421 -3.0077  0.5760
10939TIP3    H232763   5.117   0.169   5.122  1.4246  0.4042  0.5098
10940TIP3   OH232764   4.669   0.055   1.698 -0.1039 -0.0333 -0.2014
10940TIP3    H132765   4.601   0.119   1.723 -0.2355 -0.0810 -0.4318
10940TIP3    H232766   4.740   0.070   1.760  0.3209  1.0946 -0.9181
10941TIP3   OH232767   0.856   4.431   5.277 -0.4629 -0.4242 -0.2862
10941TIP3    H132768   0.895   4.359   5.227 -0.7282 -0.1470 -0.9088
10941TIP3    H232769   0.912   4.442   5.353  0.0997 -0.6804 -0.6627
10942TIP3   OH232770   2.760   4.262   3.501 -0.8608  0.1671  0.2486
10942TIP3    H132771   2.808   4.188   3.463 -1.2936 -0.4733  0.9204
10942TIP3    H232772   2.801   4.274   3.587  0.6685  2.1291 -0.6675
10943TIP3   OH232773   7.044   5.634   0.241 -0.0333  0.0644  0.3112
10943TIP3    H132774   6.973   5.676   0.290 -1.2306 -0.8184 -0.6062
10943TIP3    H232775   7.031   5.540   0.255  0.0782 -0.1747 -1.0327
10944TIP3   OH232776   3.163   0.236   6.680 -0.4345  0.1690  0.0470
10944TIP3    H132777   3.214   0.155   6.679 -0.6874  0.0070 -1.3057
10944TIP3    H232778   3.223   0.303   6.648  0.0410  0.7306  1.9505
10945TIP3   OH232779   6.160   1.527   5.645  0.3452  0.3757  0.3365
10945TIP3    H132780   6.136   1.529   5.552  0.3803  0.2921  0.3254
10945TIP3    H232781   6.101   1.589   5.687  0.6936  0.8200  0.1745
10946TIP3   OH232782   2.086   0.885   5.422 -0.0678 -0.1803  0.3103
10946TIP3    H132783   2.137   0.845   5.352 -1.1066 -0.7448 -0.1559
10946TIP3    H232784   2.070   0.974   5.393  0.8240  0.0691  0.5631
10947TIP3   OH232785   3.692   3.553   2.521 -0.4832  0.2530  0.0006
10947TIP3    H132786   3.611   3.503   2.513 -1.3552  1.5169  0.6554
10947TIP3    H232787   3.759   3.496   2.482 -1.8483 -0.3540 -1.5410
10948TIP3   OH232788   0.588   0.289   5.652  0.0413 -0.0204  0.0339
10948TIP3    H132789   0.641   0.348   5.706  1.9339 -0.9850 -0.6977
10948TIP3    H232790   0.527   0.347   5.607  0.0692  1.0714  1.3318
10949TIP3   OH232791   1.568   4.504   4.593  0.1004 -0.1940  0.0652
10949TIP3    H132792   1.613   4.579   4.553 -1.4567  0.2159 -1.0345
10949TIP3    H232793   1.497   4.484   4.532 -0.5806 -1.4640  1.2189
10950TIP3   OH232794   2.461   0.839   4.796  0.3533 -0.7685  0.0865
10950TIP3    H132795   2.469   0.743   4.804  2.9490 -0.8142 -1.6823
10950TIP3    H232796   2.534   0.873   4.847  0.2522  0.2017 -0.4002
10951TIP3   OH232797   5.954   3.457   6.351 -0.5054  0.3709  0.1240
10951TIP3    H132798   5.936   3.505   6.432 -2.5265 -2.1973  1.3557
10951TIP3    H232799   6.030   3.501   6.314 -0.8650  3.0716  2.2250
10952TIP3   OH232800   7.448   4.787   3.449  0.3361 -0.6170  0.0764
10952TIP3    H132801   7.381   4.797   3.517  0.3937  1.2900 -0.0925
10952TIP3    H232802   7.399   4.781   3.367  0.3198 -1.2686  0.1296
10953TIP3   OH232803   7.381   1.492   0.350  0.5241  0.2446 -0.8750
10953TIP3    H132804   7.301   1.440   0.339 -0.8364  1.7267  1.1681
10953TIP3    H232805   7.349   1.582   0.360  2.4091  0.8248  0.3976
10954TIP3   OH232806   4.433   7.140   3.723 -0.8114  0.2965  0.2107
10954TIP3    H132807   4.462   7.231   3.714 -0.9620  0.1828 -1.9405
10954TIP3    H232808   4.511   7.088   3.704 -0.1604 -0.1362  3.4449
10955TIP3   OH232809   8.073   1.994   4.441 -0.1456 -0.1219  0.3791
10955TIP3    H132810   7.996   1.960   4.486 -0.4568 -0.3314 -0.2960
10955TIP3    H232811   8.045   2.078   4.406 -0.7618 -1.1054 -1.6591
10956TIP3   OH232812   2.424   2.515   5.921  0.0647 -0.0768 -0.0521
10956TIP3    H132813   2.380   2.441   5.878 -1.2505  0.9902 -0.6048
10956TIP3    H232814   2.404   2.503   6.014  0.2548 -0.6682 -0.0822
10957TIP3   OH232815   1.100   0.361   6.076 -0.0045  0.5707  0.1852
10957TIP3    H132816   1.032   0.342   6.011  1.3183 -0.7256 -0.8992
10957TIP3    H232817   1.156   0.425   6.034  0.5191  0.1850  0.2857
10958TIP3   OH232818   6.618   5.634   2.534  0.4387 -0.5165  0.0617
10958TIP3    H132819   6.584   5.704   2.478 -2.2192  1.8259  4.1168
10958TIP3    H232820   6.542   5.580   2.554  1.4660 -1.7404  0.8574
10959TIP3   OH232821   3.116   7.758   5.243  0.2753  0.1396  0.1896
10959TIP3    H132822   3.063   7.827   5.284  1.6853  1.2706  0.1750
10959TIP3    H232823   3.054   7.686   5.227 -1.0334  1.0394  1.0553
10960TIP3   OH232824   6.583   6.590   2.308 -0.2513 -0.1594 -0.3703
10960TIP3    H132825   6.636   6.659   2.349 -1.0557  0.7537 -0.8264
10960TIP3    H232826   6.540   6.547   2.381 -0.2895  0.2860 -0.1245
10961TIP3   OH232827   3.564   7.495   2.096 -0.5472  0.1192 -0.2049
10961TIP3    H132828   3.517   7.415   2.074 -0.4117 -0.2936  0.9045
10961TIP3    H232829   3.498   7.552   2.135 -0.2270 -0.3829  1.1652
10962TIP3   OH232830   7.566   2.786   2.600  0.5529 -0.1720 -0.3122
10962TIP3    H132831   7.621   2.792   2.678  1.7860  0.9272 -1.2089
10962TIP3    H232832   7.479   2.762   2.633  1.3684 -1.1543  1.2266
10963TIP3   OH232833   3.245   0.175   2.130 -0.0444 -0.0806  0.0483
10963TIP3    H132834   3.285   0.156   2.045  1.6155  1.5822  0.4127
10963TIP3    H232835   3.280   0.108   2.189 -0.0203 -0.3210 -0.2398
10964TIP3   OH232836   6.875   4.493   3.266 -0.4282  1.1399 -0.0781
10964TIP3    H132837   6.903   4.449   3.186 -1.2808  2.7840 -1.3412
10964TIP3    H232838   6.820   4.428   3.311  0.1561  0.1568 -0.7568
10965TIP3   OH232839   7.276   2.332   1.471  0.0041 -0.1266  0.4941
10965TIP3    H132840   7.346   2.331   1.536 -0.8095 -2.1590  1.4378
10965TIP3    H232841   7.195   2.325   1.522 -0.9228  2.0194 -0.5703
10966TIP3   OH232842   0.688   7.368   0.493 -0.9608  0.2417 -0.2349
10966TIP3    H132843   0.755   7.430   0.521 -1.3045  0.9584 -0.9674
10966TIP3    H232844   0.643   7.412   0.421 -2.5707 -0.0272  0.5835
10967TIP3   OH232845   7.126   0.718   0.466  0.4140  0.1487 -0.2645
10967TIP3    H132846   7.134   0.631   0.505 -1.4008 -0.3776 -0.9658
10967TIP3    H232847   7.032   0.731   0.454  0.5093  2.7782  1.0288
10968TIP3   OH232848   3.955   7.728   6.257 -0.1686 -0.1189  0.1148
10968TIP3    H132849   3.944   7.647   6.207 -0.3991 -0.8688  1.3410
10968TIP3    H232850   3.909   7.712   6.339 -0.5179  1.3981  0.2421
10969TIP3   OH232851   6.449   3.517   4.662 -0.0971 -0.4579 -0.1775
10969TIP3    H132852   6.478   3.480   4.745 -1.0591  2.3444  1.5503
10969TIP3    H232853   6.496   3.600   4.654 -1.6485  0.3863 -1.2912
10970TIP3   OH232854   6.917   0.956   3.427 -0.8675  0.3997  0.3215
10970TIP3    H132855   6.953   0.894   3.364 -1.1968 -0.5125  0.9932
10970TIP3    H232856   6.982   0.958   3.498 -0.5215  1.3775 -0.0173
10971TIP3   OH232857   5.208   2.294   1.009 -0.2438 -0.2230  0.2006
10971TIP3    H132858   5.207   2.248   1.093  0.3685  0.1156  0.3989
10971TIP3    H232859   5.200   2.386   1.031 -0.4103 -0.1552 -0.1343
10972TIP3   OH232860   4.153   6.930   1.095  0.3741 -0.6984 -0.5693
10972TIP3    H132861   4.135   7.019   1.127 -1.0870 -0.6215 -1.5170
10972TIP3    H232862   4.093   6.874   1.144 -0.1485 -0.8912 -1.4140
10973TIP3   OH232863   5.950   4.699   4.980 -0.0917  0.1760  0.4897
10973TIP3    H132864   5.938   4.775   5.036 -0.6577  0.1188  0.4523
10973TIP3    H232865   5.905   4.722   4.899 -0.8238 -0.4487  0.7097
10974TIP3   OH232866   0.268   1.842   0.847 -0.4233 -0.7250 -0.0961
10974TIP3    H132867   0.243   1.884   0.930 -1.2503  0.0086 -0.7116
10974TIP3    H232868   0.326   1.770   0.874  1.6083  1.1805  0.9670
10975TIP3   OH232869   1.211   2.434   1.161  0.4017  0.1728  0.2286
10975TIP3    H132870   1.306   2.447   1.162  0.7038 -1.7384  1.7976
10975TIP3    H232871   1.199   2.342   1.139 -0.9520 -0.2895  2.5867
10976TIP3   OH232872   2.850   2.534   1.519  0.5707 -0.3460  0.0106
10976TIP3    H132873   2.781   2.495   1.573 -0.8236  0.9301 -0.7717
10976TIP3    H232874   2.912   2.463   1.505 -0.9336 -1.7658  0.1890
10977TIP3   OH232875   0.693   6.375   3.530  0.2057 -0.2865 -0.0198
10977TIP3    H132876   0.709   6.460   3.490 -1.2994 -0.1107 -0.3174
10977TIP3    H232877   0.779   6.344   3.558  0.9138  0.8167 -0.9317
10978TIP3   OH232878   3.504   3.094   3.273  0.3444  0.0677  0.3414
10978TIP3    H132879   3.559   3.145   3.332  0.3089  0.1935  0.2657
10978TIP3    H232880   3.532   3.004   3.287  0.4973  0.1203  0.3809
10979TIP3   OH232881   0.293   4.366   5.504  0.0794  0.0411 -0.4391
10979TIP3    H132882   0.218   4.348   5.447 -0.3996 -0.5407  0.3628
10979TIP3    H232883   0.359   4.301   5.477  0.4372  0.7660 -1.3689
10980TIP3   OH232884   8.162   4.927   5.069  0.0452 -0.2060 -0.1557
10980TIP3    H132885   8.204   4.990   5.010 -0.2063  1.2087  1.0925
10980TIP3    H232886   8.164   4.971   5.155  0.7549 -2.3322  0.9901
10981TIP3   OH232887   4.661   0.579   6.386 -0.0892  0.4395 -0.5324
10981TIP3    H132888   4.729   0.524   6.348  0.3122  1.0330 -0.7023
10981TIP3    H232889   4.705   0.623   6.459 -0.5468  0.1350 -0.0751
10982TIP3   OH232890   4.544   4.942   0.446 -0.3945  0.2624  0.5459
10982TIP3    H132891   4.463   4.992   0.439 -1.8686 -1.9228  0.9212
10982TIP3    H232892   4.544   4.884   0.370  0.6240 -0.0426  0.7584
10983TIP3   OH232893   4.156   7.505   4.452  0.6344  0.3755  0.2669
10983TIP3    H132894   4.209   7.584   4.443  0.6301  0.3480  0.0082
10983TIP3    H232895   4.182   7.449   4.379 -0.8935  1.0122 -0.8151
10984TIP3   OH232896   5.983   5.807   1.416  0.0051 -0.2316 -0.0149
10984TIP3    H132897   6.024   5.889   1.445 -0.2767  0.2440 -0.9103
10984TIP3    H232898   5.988   5.749   1.492  1.3146  0.1957  0.2420
10985TIP3   OH232899   7.011   2.456   0.051  0.1790  0.0133  0.1641
10985TIP3    H132900   6.971   2.395   0.113  0.2681 -0.2029  0.0087
10985TIP3    H232901   6.944   2.473  -0.014  0.4898 -0.7126 -0.3547
10986TIP3   OH232902   4.566   6.245   6.670  0.0080 -0.3156 -0.0660
10986TIP3    H132903   4.481   6.209   6.644 -0.4477 -0.8718  1.9378
10986TIP3    H232904   4.630   6.186   6.630 -0.2117  2.2249 -4.7977
10987TIP3   OH232905   1.142   7.217   5.434  0.5365  0.4389 -0.2349
10987TIP3    H132906   1.235   7.194   5.432  0.6483  0.8957 -2.0230
10987TIP3    H232907   1.128   7.269   5.354 -1.4627 -0.4249 -0.5181
10988TIP3   OH232908  -0.021   1.304   4.499 -0.6151  0.0771  0.2867
10988TIP3    H132909  -0.028   1.331   4.407 -0.4328  0.1922  0.3060
10988TIP3    H232910   0.059   1.345   4.530 -0.6898  0.0593  0.5063
10989TIP3   OH232911   1.052   3.662   5.960  0.2695  0.0393  0.3093
10989TIP3    H132912   1.006   3.728   6.012  0.5830  0.0235  0.6081
10989TIP3    H232913   0.987   3.593   5.945  0.4051 -0.3310  1.3538
10990TIP3   OH232914   7.474   3.628   1.672  0.0598  0.1597 -0.1915
10990TIP3    H132915   7.515   3.626   1.758 -0.3152  0.4600  0.0003
10990TIP3    H232916   7.425   3.711   1.671 -2.5230 -1.2657  0.5152
10991TIP3   OH232917   2.151   1.008   0.297  0.5495 -0.1476 -0.1795
10991TIP3    H132918   2.081   0.960   0.252  0.1504  0.9264 -0.7343
10991TIP3    H232919   2.106   1.075   0.348  1.1405  0.0636  0.0741
10992TIP3   OH232920   3.809   1.100   6.640 -0.0127  0.0125  0.4282
10992TIP3    H132921   3.742   1.111   6.708  0.7622 -0.5814  1.3246
10992TIP3    H232922   3.778   1.152   6.567 -2.0108 -1.1147  0.4000
10993TIP3   OH232923   7.124   2.053   0.056  0.2488  0.4445 -0.6971
10993TIP3    H132924   7.175   1.974   0.076  0.7777  0.9169 -0.1591
10993TIP3    H232925   7.060   2.059   0.128  0.5618  0.8026 -0.4476
10994TIP3   OH232926   1.672   0.595   3.120 -0.2856 -0.1116 -0.4423
10994TIP3    H132927   1.682   0.517   3.066 -1.9358  0.6867 -2.0081
10994TIP3    H232928   1.698   0.567   3.208 -1.2414 -2.5450 -0.8523
10995TIP3   OH232929   0.309   5.273   0.528  0.5717 -0.2959  0.1650
10995TIP3    H132930   0.355   5.226   0.598 -0.8043 -1.3614  0.3886
10995TIP3    H232931   0.236   5.317   0.572 -0.9140 -1.7997 -0.6958
10996TIP3   OH232932   5.443   5.102   6.648 -0.5526  0.2582 -0.5488
10996TIP3    H132933   5.403   5.142   6.725 -0.8873 -0.1988 -0.4818
10996TIP3    H232934   5.387   5.027   6.627 -0.3048  0.2085 -1.0643
10997TIP3   OH232935   6.648   1.234   6.644 -0.2961  0.0620  0.4517
10997TIP3    H132936   6.606   1.166   6.592  2.2054 -1.0561 -0.2548
10997TIP3    H232937   6.608   1.226   6.731 -1.4284 -0.9788 -0.1314
10998TIP3   OH232938   6.531   1.446   1.563  0.3187 -0.1564  0.1169
10998TIP3    H132939   6.498   1.528   1.526  0.4613 -0.7525 -1.3716
10998TIP3    H232940   6.532   1.462   1.658  0.6138  1.6543 -0.1560
10999TIP3   OH232941   4.621   6.989   0.069  0.1141  0.0706 -0.0036
10999TIP3    H132942   4.716   6.983   0.060 -0.0490 -2.4328 -0.9612
10999TIP3    H232943   4.608   7.053   0.139  2.5116  0.2664  0.3641
11000TIP3   OH232944   5.554   4.709   3.149 -0.3660  0.2537 -0.6195
11000TIP3    H132945   5.621   4.779   3.152 -0.5000  0.3720 -0.3558
11000TIP3    H232946   5.596   4.634   3.191  0.5053 -0.4632 -2.6503
11001TIP3   OH232947   5.916   1.379   3.028  0.3020 -0.1646  0.7031
11001TIP3    H132948   6.005   1.345   3.019 -0.1010 -1.4110  1.2912
11001TIP3    H232949   5.860   1.313   2.988 -0.3068  1.1126 -0.6599
11002TIP3   OH232950   4.179   5.566   4.619  0.0123  0.1839  0.3390
11002TIP3    H132951   4.152   5.484   4.577  0.3187  0.4145 -0.3130
11002TIP3    H232952   4.131   5.634   4.572  0.4421  0.4553  0.2915
11003TIP3   OH232953   4.186   0.813   0.452  0.1798  0.0273  0.4199
11003TIP3    H132954   4.280   0.797   0.463  0.5614  1.4258 -0.5026
11003TIP3    H232955   4.144   0.743   0.501  1.7076 -1.1895  0.0807
11004TIP3   OH232956   3.767   4.218   0.032  0.1625 -0.6214 -0.1291
11004TIP3    H132957   3.732   4.291   0.083 -0.0725 -0.1919 -0.8845
11004TIP3    H232958   3.853   4.201   0.069 -0.2241 -0.6795  0.7597
11005TIP3   OH232959   7.602   7.470   2.287  0.5500 -0.1300 -0.3781
11005TIP3    H132960   7.507   7.481   2.281  0.7815  1.8847 -1.4047
11005TIP3    H232961   7.620   7.471   2.381 -0.5836 -2.5471 -0.0686
11006TIP3   OH232962   4.951   7.781   6.318 -0.4947  0.7210 -0.1900
11006TIP3    H132963   4.959   7.686   6.326 -0.5597  0.4966 -2.1885
11006TIP3    H232964   4.928   7.811   6.406 -0.0685 -1.0554  0.5690
11007TIP3   OH232965   6.581   0.521   2.160  0.8175  0.0008 -0.3400
11007TIP3    H132966   6.548   0.470   2.234 -0.4308 -1.6812 -1.9494
11007TIP3    H232967   6.668   0.484   2.143  0.8667 -0.0103 -0.0680
11008TIP3   OH232968   4.649   7.247   6.764  0.3165  0.5048 -0.9406
11008TIP3    H132969   4.609   7.279   6.683 -0.8566 -2.1015 -1.4869
11008TIP3    H232970   4.640   7.152   6.760  2.3782  0.1216  1.1793
11009TIP3   OH232971   3.805   0.453   5.425  0.4618  0.1212  0.0815
11009TIP3    H132972   3.846   0.531   5.462  0.0574 -0.9518  3.0222
11009TIP3    H232973   3.711   0.465   5.438  0.4005 -0.8847  0.7251
11010TIP3   OH232974   7.701   6.496   1.235 -0.1930 -0.0834  0.1508
11010TIP3    H132975   7.688   6.489   1.330 -0.7525 -1.1720  0.0208
11010TIP3    H232976   7.754   6.419   1.213 -0.2747  0.0247 -0.4431
11011TIP3   OH232977   5.753   1.180   1.595 -0.3226  0.4804  0.3831
11011TIP3    H132978   5.787   1.120   1.660 -0.7521 -0.0466  0.1295
11011TIP3    H232979   5.815   1.175   1.522 -0.0804  0.7414  0.5671
11012TIP3   OH232980   5.762   2.271   5.373  1.1210 -0.1475  0.4009
11012TIP3    H132981   5.756   2.365   5.391  1.8876  0.1584 -0.8187
11012TIP3    H232982   5.740   2.229   5.456  2.2199  1.1315  1.3803
11013TIP3   OH232983   0.832   4.441   6.682  0.5208  0.3132  0.3985
11013TIP3    H132984   0.916   4.460   6.641  0.8364 -0.5782  0.6161
11013TIP3    H232985   0.779   4.518   6.665  0.3121 -0.3903 -2.5398
11014TIP3   OH232986   2.570   7.357   6.143 -0.0476  0.0972 -0.3300
11014TIP3    H132987   2.539   7.307   6.218  0.7040 -1.9355 -1.2947
11014TIP3    H232988   2.663   7.333   6.136 -0.0165  0.5514 -1.6732
11015TIP3   OH232989   7.162   3.314   3.423 -0.6844 -0.0831  0.5529
11015TIP3    H132990   7.176   3.227   3.460 -2.5877 -0.8694 -0.4391
11015TIP3    H232991   7.158   3.372   3.499 -0.7673 -1.0795  1.3244
11016TIP3   OH232992   4.719   6.725   3.797  0.2633  0.5398  0.5925
11016TIP3    H132993   4.783   6.797   3.799  1.5516 -0.3422 -2.7427
11016TIP3    H232994   4.772   6.646   3.809 -0.5496 -0.0896  0.1017
11017TIP3   OH232995   1.999   1.423   1.021 -0.3602  0.1143  0.1906
11017TIP3    H132996   1.950   1.344   1.045  1.5865 -1.6707 -1.2740
11017TIP3    H232997   1.938   1.495   1.035 -2.1334 -1.5982  1.9155
11018TIP3   OH232998   8.088   3.129   2.141 -0.4338  0.0205 -0.6970
11018TIP3    H132999   8.160   3.131   2.204 -1.1460  1.3686  0.1119
11018TIP3    H233000   8.129   3.108   2.057  0.6273 -1.0993  0.0697
11019TIP3   OH233001   2.889   3.884   3.772 -0.0537  0.4466  0.0061
11019TIP3    H133002   2.981   3.884   3.799 -0.4849  0.9712  1.6312
11019TIP3    H233003   2.841   3.882   3.855 -1.5064  1.8669 -0.7506
11020TIP3   OH233004   5.834   6.710   3.941  0.0578  0.1305  0.2861
11020TIP3    H133005   5.762   6.710   4.004  0.4898 -3.4852  0.9510
11020TIP3    H233006   5.912   6.689   3.992  1.5881  3.0742 -0.5752
11021TIP3   OH233007   3.303   1.197   3.439 -0.2880  0.0980  0.3269
11021TIP3    H133008   3.293   1.120   3.384 -0.2376  0.6304 -0.4568
11021TIP3    H233009   3.298   1.165   3.528 -0.1196 -0.8266  0.0088
11022TIP3   OH233010   5.664   4.867   5.913  0.7932 -0.2413 -0.4880
11022TIP3    H133011   5.716   4.922   5.854 -1.0061  2.5656  0.3480
11022TIP3    H233012   5.706   4.878   5.999  0.7481 -0.6763 -0.4059
11023TIP3   OH233013   5.305   5.036   3.131  0.0793  0.2356 -0.0992
11023TIP3    H133014   5.212   5.047   3.149  0.2048  2.0974 -0.3879
11023TIP3    H233015   5.316   4.942   3.116 -1.4299 -0.2637  1.6071
11024TIP3   OH233016   1.805   0.237   4.806 -0.1481  0.0578  0.3227
11024TIP3    H133017   1.727   0.181   4.807 -1.5417  1.8815  1.2767
11024TIP3    H233018   1.813   0.267   4.897  3.0245 -1.7402  0.8008
11025TIP3   OH233019   6.960   5.956   3.361 -0.3743  0.6901  0.7614
11025TIP3    H133020   6.957   5.945   3.265 -1.7743 -2.3287  1.0438
11025TIP3    H233021   6.932   6.046   3.375  1.1921  1.6904 -1.7003
11026TIP3   OH233022   1.015   1.940   1.266  0.2407  0.3511 -0.6018
11026TIP3    H133023   1.017   2.024   1.310 -0.3813 -0.5585  1.2683
11026TIP3    H233024   1.032   1.876   1.335 -0.7902 -1.1469 -1.6634
11027TIP3   OH233025   4.401   2.868   2.454  0.1830  0.2632  0.0016
11027TIP3    H133026   4.426   2.780   2.483  1.0613 -0.4292 -2.5611
11027TIP3    H233027   4.468   2.925   2.492 -0.4320 -0.0942  1.7454
11028TIP3   OH233028   5.665   4.215   1.862 -0.0339  0.0846  0.0079
11028TIP3    H133029   5.616   4.186   1.785  0.1156  1.4811 -0.6594
11028TIP3    H233030   5.624   4.299   1.885  0.5575  0.1446  0.8640
11029TIP3   OH233031   4.603   4.192   3.834  0.1648 -0.9534 -0.2601
11029TIP3    H133032   4.645   4.116   3.874  0.9496 -0.0512  0.7106
11029TIP3    H233033   4.532   4.214   3.895  1.6135  0.6732  0.9739
11030TIP3   OH233034   6.909   0.120   6.232  0.5803 -0.1683  0.2761
11030TIP3    H133035   6.861   0.038   6.222  1.6234 -0.7132 -0.3869
11030TIP3    H233036   6.988   0.109   6.179  1.8396  0.4019  1.9303
11031TIP3   OH233037   2.042   3.504   0.846  0.2264  0.3437 -0.7176
11031TIP3    H133038   2.136   3.492   0.830  0.0243  0.0139 -1.7549
11031TIP3    H233039   2.003   3.503   0.759 -0.8753 -0.7186 -0.2470
11032TIP3   OH233040   1.121   4.298   4.884 -0.5414 -0.3045 -0.3552
11032TIP3    H133041   1.039   4.282   4.930 -0.7854  0.7003 -0.4051
11032TIP3    H233042   1.188   4.263   4.942 -0.9207  0.0018  0.2894
11033TIP3   OH233043   6.751   4.588   1.293  0.3252 -0.1106  0.1500
11033TIP3    H133044   6.795   4.633   1.220 -0.4367 -0.1333 -0.3404
11033TIP3    H233045   6.776   4.496   1.283  2.0070  0.2031  1.2428
11034TIP3   OH233046   3.074   0.396   2.755  0.0537  0.7045  0.0682
11034TIP3    H133047   3.002   0.360   2.704 -0.1879 -0.4182  1.1298
11034TIP3    H233048   3.077   0.488   2.731 -0.0567  0.2400 -1.9128
11035TIP3   OH233049   5.514   2.737   2.960  0.6203 -0.2321 -0.4117
11035TIP3    H133050   5.548   2.707   2.876  0.2776  0.6579 -0.8742
11035TIP3    H233051   5.507   2.832   2.951 -0.1455 -0.2038  0.3513
11036TIP3   OH233052   4.572   3.746   4.784  0.2943  0.8140  0.4479
11036TIP3    H133053   4.582   3.838   4.809  3.0062  0.8078 -0.3019
11036TIP3    H233054   4.656   3.705   4.806 -0.3347 -1.1677 -0.5328
11037TIP3   OH233055   3.234   1.158   1.017  0.0606 -0.1008  0.0148
11037TIP3    H133056   3.273   1.197   0.939 -2.3081  0.6272 -0.8886
11037TIP3    H233057   3.253   1.064   1.009  0.2442  0.0253 -1.1986
11038TIP3   OH233058   1.872   7.703   1.016  0.0298 -0.1653  0.1340
11038TIP3    H133059   1.805   7.721   0.950 -1.7367 -2.6497  1.0841
11038TIP3    H233060   1.911   7.621   0.987  1.6719  0.4835  0.4188
11039TIP3   OH233061   4.568   7.757   0.648 -0.3105  0.1575  0.0511
11039TIP3    H133062   4.601   7.673   0.679 -1.3455  0.1551  1.2336
11039TIP3    H233063   4.646   7.804   0.618  0.4864 -0.6053  0.8714
11040TIP3   OH233064   4.934   6.934   2.202  0.1534  0.1345 -0.0836
11040TIP3    H133065   4.954   6.854   2.152 -0.0741  0.5824 -0.9100
11040TIP3    H233066   5.004   6.995   2.179  0.0440  0.3456  0.1421
11041TIP3   OH233067   4.125   6.723   2.642 -0.6277  0.5604 -0.2023
11041TIP3    H133068   4.065   6.769   2.701  0.9289  2.1070  0.2698
11041TIP3    H233069   4.201   6.781   2.636  0.4059 -0.8655 -1.5592
11042TIP3   OH233070   7.768   2.710   1.156 -0.4231 -0.2613 -0.5814
11042TIP3    H133071   7.763   2.619   1.186  0.4070 -1.0843 -2.7637
11042TIP3    H233072   7.812   2.756   1.228 -0.6626 -1.6190  0.4756
11043TIP3   OH233073   5.248   6.043   2.041 -0.6713 -0.5215  0.6718
11043TIP3    H133074   5.319   6.016   1.982 -1.1036  0.6339 -0.4284
11043TIP3    H233075   5.175   5.986   2.017 -0.7166 -0.3509  0.4059
11044TIP3   OH233076   6.092   1.450   6.164  0.5721  0.5533  0.0623
11044TIP3    H133077   6.115   1.375   6.109 -0.0046 -0.7888  1.5779
11044TIP3    H233078   6.009   1.481   6.130  0.1607 -0.3408  0.2337
11045TIP3   OH233079   0.872   0.377   4.400 -0.0684  0.4830  0.5161
11045TIP3    H133080   0.881   0.472   4.408  0.1165  0.3776  1.7394
11045TIP3    H233081   0.958   0.343   4.427  0.5269  0.0299 -1.7796
11046TIP3   OH233082   4.691   5.099   3.929 -0.5207 -0.4190 -0.1717
11046TIP3    H133083   4.685   5.186   3.967 -1.5929  0.1870 -1.6404
11046TIP3    H233084   4.753   5.052   3.986 -0.5510  1.0232  1.1144
11047TIP3   OH233085   6.645   7.845   0.470 -0.2666  0.6242  0.6111
11047TIP3    H133086   6.634   7.789   0.547  1.0821 -2.1611 -1.0353
11047TIP3    H233087   6.593   7.802   0.402 -1.0882  2.7717 -0.2110
11048TIP3   OH233088   2.193   4.689   0.075 -0.0766 -0.2003  0.1094
11048TIP3    H133089   2.192   4.785   0.072 -0.0651 -0.2076 -0.0761
11048TIP3    H233090   2.170   4.668   0.166  0.2030 -0.0166  0.2249
11049TIP3   OH233091   4.516   4.046   2.624  0.4658  0.2410  0.8662
11049TIP3    H133092   4.441   4.100   2.601  0.6433  0.1140 -0.0784
11049TIP3    H233093   4.479   3.971   2.671 -0.5223 -1.6439 -2.5437
11050TIP3   OH233094   3.813   2.411   4.574  0.2332  0.4913  0.4150
11050TIP3    H133095   3.765   2.475   4.521  0.6661 -0.3960 -1.0973
11050TIP3    H233096   3.904   2.418   4.544  0.3833 -0.4483  0.6343
11051TIP3   OH233097   1.339   2.485   6.401  0.4659 -0.5502  0.2741
11051TIP3    H133098   1.290   2.509   6.480 -0.7779 -0.5393 -0.4770
11051TIP3    H233099   1.417   2.541   6.404 -0.5310  0.8668  0.4915
11052TIP3   OH233100   3.277   5.811   2.563  0.1008  0.2918 -0.3898
11052TIP3    H133101   3.318   5.758   2.631  0.8999  0.8198 -0.4503
11052TIP3    H233102   3.348   5.865   2.528 -0.0539 -0.7010 -2.3670
11053TIP3   OH233103   7.565   5.707   0.378  0.5032 -0.1551  0.3160
11053TIP3    H133104   7.661   5.705   0.379  0.5243 -0.4075 -0.8957
11053TIP3    H233105   7.540   5.639   0.316 -0.5015 -0.6985  1.2821
11054TIP3   OH233106   1.504   5.173   1.372  0.3340 -0.1236  0.1931
11054TIP3    H133107   1.595   5.144   1.378  0.0763 -1.0227 -0.0005
11054TIP3    H233108   1.504   5.262   1.407  1.4757  0.3108 -0.8504
11055TIP3   OH233109   0.430   3.727   1.324 -0.4165  0.8132 -0.5290
11055TIP3    H133110   0.436   3.815   1.286 -0.8246  0.5808 -1.1520
11055TIP3    H233111   0.359   3.685   1.276  0.3195 -0.1365 -0.8374
11056TIP3   OH233112   3.300   3.538   1.761 -0.3182  0.4612  0.5134
11056TIP3    H133113   3.359   3.533   1.686  0.0626 -1.0025  0.8818
11056TIP3    H233114   3.354   3.515   1.836 -1.4102 -1.4490  0.7980
11057TIP3   OH233115   1.959   6.280   0.681 -0.1948  0.2950 -0.5721
11057TIP3    H133116   1.879   6.251   0.637 -0.8392  2.2253 -0.7476
11057TIP3    H233117   1.931   6.303   0.769  0.4778 -0.4201 -0.1515
11058TIP3   OH233118   1.481   0.372   3.864 -0.2109  0.1339  0.3490
11058TIP3    H133119   1.546   0.379   3.794 -0.8144 -1.0666 -0.3775
11058TIP3    H233120   1.499   0.446   3.922 -0.0049  1.4775 -1.3429
11059TIP3   OH233121   7.524   2.701   1.308 -0.2423 -0.1317  0.5078
11059TIP3    H133122   7.525   2.638   1.237 -2.2029 -1.6496  1.7230
11059TIP3    H233123   7.485   2.780   1.270 -0.5401 -0.6608 -0.3034
11060TIP3   OH233124   6.030   1.539   1.293  0.1506  0.2861 -0.0113
11060TIP3    H133125   6.116   1.534   1.252  1.1408  1.0835  1.8466
11060TIP3    H233126   6.009   1.632   1.296 -0.8434  0.0938 -0.5473
11061TIP3   OH233127   6.876   5.491   2.577  0.0830  0.2667 -0.0332
11061TIP3    H133128   6.792   5.538   2.576 -0.0559  0.0381 -1.3082
11061TIP3    H233129   6.935   5.548   2.626 -0.3769  1.2644 -0.5889
11062TIP3   OH233130   1.150   7.366   4.428  0.0617  0.3155  0.0797
11062TIP3    H133131   1.147   7.456   4.397 -1.6173  0.3502  0.2358
11062TIP3    H233132   1.223   7.364   4.490  0.1118  1.5743  0.0820
11063TIP3   OH233133   7.654   3.185   0.683 -0.5442  0.0164 -0.5187
11063TIP3    H133134   7.747   3.199   0.700 -0.4510 -0.1884 -0.8472
11063TIP3    H233135   7.651   3.146   0.595 -0.6984 -3.1488  0.7503
11064TIP3   OH233136   6.936   6.942   0.976 -0.6023  0.1829 -0.0880
11064TIP3    H133137   7.000   6.932   0.905  0.8334  2.5204  0.7900
11064TIP3    H233138   6.872   6.872   0.960  1.2675 -1.2273 -1.9443
11065TIP3   OH233139   6.340   0.614   3.671 -0.4902 -0.1113  0.6181
11065TIP3    H133140   6.397   0.545   3.638  0.2825  0.7444  0.1170
11065TIP3    H233141   6.279   0.632   3.600 -0.7498 -0.3342  0.7820
11066TIP3   OH233142   4.908   6.379   1.727  0.1262  0.0213 -0.0291
11066TIP3    H133143   4.978   6.403   1.667 -0.0484 -1.4087 -0.8540
11066TIP3    H233144   4.878   6.462   1.764  4.1437  0.5912  2.6370
11067TIP3   OH233145   5.910   2.876   4.908 -0.6347  0.3478  0.4392
11067TIP3    H133146   5.835   2.844   4.958 -1.5105  1.4990 -0.0762
11067TIP3    H233147   5.971   2.802   4.905 -1.9952 -0.8167  0.3945
11068TIP3   OH233148   1.827   1.826   3.888 -0.2842 -0.4674 -0.0539
11068TIP3    H133149   1.741   1.786   3.882 -0.6261  0.3848 -0.9941
11068TIP3    H233150   1.884   1.755   3.921 -0.9568 -1.5808 -1.2038
11069TIP3   OH233151   8.171   5.426   0.305 -0.0083  0.2352 -0.2846
11069TIP3    H133152   8.100   5.448   0.244  0.6893  0.5970 -0.9824
11069TIP3    H233153   8.134   5.442   0.392 -0.4512  1.4495 -0.6788
11070TIP3   OH233154   3.592   5.086   2.330 -0.3889 -0.2118 -0.3884
11070TIP3    H133155   3.500   5.108   2.340 -0.4130  0.8352 -2.3893
11070TIP3    H233156   3.595   5.029   2.253  0.5515 -1.0057  0.2040
11071TIP3   OH233157   0.660   4.136   3.328 -0.6107 -0.0373 -0.6851
11071TIP3    H133158   0.613   4.053   3.317 -0.3874  0.0314 -2.3038
11071TIP3    H233159   0.658   4.151   3.423 -1.6662 -1.2961 -0.4677
11072TIP3   OH233160   5.935   1.574   6.537  0.1796 -0.4356 -0.2546
11072TIP3    H133161   5.926   1.559   6.443  0.0412  0.5164 -0.4020
11072TIP3    H233162   5.908   1.665   6.550  0.7781 -0.3664  0.6165
11073TIP3   OH233163   6.361   3.224   2.047  0.0510 -0.2049  0.0694
11073TIP3    H133164   6.324   3.230   2.136  0.6480 -1.2643  0.3999
11073TIP3    H233165   6.325   3.300   2.002 -3.6271 -1.7619 -0.0230
11074TIP3   OH233166   3.042   0.541   6.104 -0.0363  0.0764  0.3519
11074TIP3    H133167   3.056   0.446   6.099 -0.7587  0.0240 -2.1649
11074TIP3    H233168   2.947   0.550   6.110 -0.2070  0.5922 -1.9958
11075TIP3   OH233169   5.236   5.479   0.188  0.2011 -0.3092  0.0913
11075TIP3    H133170   5.189   5.438   0.260  0.1354  0.7600  0.6864
11075TIP3    H233171   5.168   5.522   0.136  0.3425 -0.3100 -0.0973
11076TIP3   OH233172   4.280   0.876   1.740  0.1769  0.1833  0.5216
11076TIP3    H133173   4.315   0.894   1.828 -0.9424  2.8168  0.5034
11076TIP3    H233174   4.230   0.795   1.751  0.3719  0.2589  2.2318
11077TIP3   OH233175   3.892   3.904   4.001  1.0765  0.1142 -0.8706
11077TIP3    H133176   3.835   3.832   4.026  0.0221  0.9496 -0.8183
11077TIP3    H233177   3.920   3.942   4.084 -0.1213  1.0987 -0.8884
11078TIP3   OH233178   3.167   0.185   0.142 -0.0161  0.3692 -0.4883
11078TIP3    H133179   3.192   0.272   0.109 -1.0970  0.7757 -0.2652
11078TIP3    H233180   3.108   0.151   0.075  1.3897 -0.7660 -1.2192
11079TIP3   OH233181   1.991   0.076   5.022 -0.3926  0.2838 -0.1499
11079TIP3    H133182   1.937   0.028   4.958  1.0062  0.9923 -1.9409
11079TIP3    H233183   1.946   0.160   5.032 -0.1549  0.5091 -0.9032
11080TIP3   OH233184   7.055   2.542   4.579 -0.0906  0.2721  0.1731
11080TIP3    H133185   7.014   2.612   4.630 -0.3480  0.0446  0.2849
11080TIP3    H233186   7.136   2.523   4.625 -0.3037  0.0946  0.4770
11081TIP3   OH233187   1.023   0.732   4.208  0.0003 -0.2740 -0.0700
11081TIP3    H133188   1.087   0.662   4.202  0.3421 -0.1322  1.3591
11081TIP3    H233189   1.066   0.808   4.167 -0.1345 -0.7268 -1.0727
11082TIP3   OH233190   2.058   1.776   0.070 -0.0002  0.3703 -0.2410
11082TIP3    H133191   1.984   1.727   0.035  0.1522  0.7572 -1.1187
11082TIP3    H233192   2.034   1.794   0.161 -0.7636  0.0738 -0.3752
11083TIP3   OH233193   8.111   5.369   0.581 -0.0937  0.4755  0.2102
11083TIP3    H133194   8.157   5.285   0.574  1.5121  1.2011  1.5151
11083TIP3    H233195   8.045   5.355   0.649  0.6659  0.4527  0.9619
11084TIP3   OH233196   7.156   5.286   1.182 -0.8389  0.1775 -0.3591
11084TIP3    H133197   7.216   5.214   1.201 -0.5863 -0.5069 -3.2446
11084TIP3    H233198   7.141   5.328   1.266  2.0754 -0.8724  0.8076
11085TIP3   OH233199   5.794   4.065   3.685 -0.1037  0.1427 -0.0344
11085TIP3    H133200   5.840   4.064   3.769  0.7282  1.5519 -0.4240
11085TIP3    H233201   5.856   4.026   3.623  0.3250  1.3535 -0.4165
11086TIP3   OH233202   2.890   5.877   5.307 -0.1940  0.2895  0.0183
11086TIP3    H133203   2.943   5.944   5.350 -0.2796  1.3196 -1.4039
11086TIP3    H233204   2.807   5.921   5.287 -0.7684 -0.6526  0.2731
11087TIP3   OH233205   3.921   0.775   1.969  0.0041  0.0636  0.7208
11087TIP3    H133206   3.909   0.766   2.063  0.3554  2.2541  1.0242
11087TIP3    H233207   3.882   0.860   1.948  0.3344 -0.1912 -1.0374
11088TIP3   OH233208   3.945   7.661   3.766  0.1577 -0.1138 -0.0031
11088TIP3    H133209   3.866   7.646   3.715  1.0794  0.6005 -1.6951
11088TIP3    H233210   3.913   7.690   3.852 -1.4389 -2.6821  0.3700
11089TIP3   OH233211   3.796   2.350   5.166  0.3582 -0.0817  0.0914
11089TIP3    H133212   3.866   2.415   5.157  0.6224 -0.1325  1.5493
11089TIP3    H233213   3.726   2.382   5.109  0.5612  1.3916  0.6164
11090TIP3   OH233214   5.591   4.653   4.785 -0.3730 -0.2345  0.1306
11090TIP3    H133215   5.528   4.703   4.733  0.8558  3.5448  1.8537
11090TIP3    H233216   5.654   4.620   4.722 -1.4695  0.0761 -1.1646
11091TIP3   OH233217   1.751   3.196   2.322  0.0051 -0.4034  0.4073
11091TIP3    H133218   1.776   3.268   2.380 -0.6581 -1.9650  2.7822
11091TIP3    H233219   1.713   3.239   2.245  2.4190  1.8158  0.3074
11092TIP3   OH233220   1.629   1.614   0.343 -0.1570 -0.3065 -0.7505
11092TIP3    H133221   1.642   1.694   0.395  0.4635  0.8342 -2.5805
11092TIP3    H233222   1.717   1.577   0.335 -0.1699 -0.2035 -1.3803
11093TIP3   OH233223   0.761   7.470   3.796 -0.1573  0.0981  0.6131
11093TIP3    H133224   0.840   7.453   3.745 -1.5933  0.3120 -1.8687
11093TIP3    H233225   0.759   7.565   3.809  0.8648 -0.0689  2.3264
11094TIP3   OH233226   1.511   2.857   0.210  0.0187 -0.6578 -0.3329
11094TIP3    H133227   1.580   2.794   0.186  2.3064  2.0267 -1.3795
11094TIP3    H233228   1.526   2.932   0.152 -1.7727  1.3645  1.6320
11095TIP3   OH233229   4.232   0.515   5.920 -0.4014 -0.7819 -0.3932
11095TIP3    H133230   4.220   0.432   5.968 -0.4843 -0.2090  0.6153
11095TIP3    H233231   4.216   0.582   5.986 -0.1810  0.0395 -1.1681
11096TIP3   OH233232   3.414   2.840   5.799 -0.3183  0.6160  0.1528
11096TIP3    H133233   3.454   2.919   5.763  0.0002  0.0415 -0.8199
11096TIP3    H233234   3.334   2.827   5.748 -0.2910  0.2368  0.1991
11097TIP3   OH233235   4.088   5.964   6.479 -0.0157  0.1902  0.1197
11097TIP3    H133236   4.131   5.936   6.560 -0.4216  1.0772  0.6704
11097TIP3    H233237   4.121   6.052   6.464  1.8037 -0.7869 -1.9807
11098TIP3   OH233238   7.699   2.278   4.300 -0.2225  0.1981  0.1034
11098TIP3    H133239   7.643   2.216   4.348 -1.6549  0.3953 -1.2109
11098TIP3    H233240   7.667   2.364   4.325 -1.3583  0.2983 -1.5415
11099TIP3   OH233241   4.890   6.606   4.596 -0.6028  0.0862  0.3690
11099TIP3    H133242   4.984   6.596   4.609 -0.6386 -0.2262  0.3986
11099TIP3    H233243   4.855   6.518   4.609 -0.8423  0.1042 -0.1456
11100TIP3   OH233244   1.555   6.501   5.073 -0.6777 -0.2403 -0.2695
11100TIP3    H133245   1.527   6.513   5.164 -2.1245 -0.0928 -0.7060
11100TIP3    H233246   1.475   6.513   5.022  0.3377  0.9234 -1.6668
11101TIP3   OH233247   1.553   2.370   3.025 -0.0566 -0.2201  0.1208
11101TIP3    H133248   1.510   2.284   3.020  1.5400 -1.1230  1.1333
11101TIP3    H233249   1.549   2.393   3.117  1.3613 -0.2094  0.2022
11102TIP3   OH233250   3.190   3.089   6.030 -0.4752  0.3695 -0.3678
11102TIP3    H133251   3.117   3.077   6.090 -0.7568  1.3004 -0.5184
11102TIP3    H233252   3.168   3.036   5.954 -0.3095 -0.4891  0.1718
11103TIP3   OH233253   6.631   7.644   4.148 -0.3364  0.0617 -0.3484
11103TIP3    H133254   6.621   7.737   4.164  0.6401  0.2888 -0.9668
11103TIP3    H233255   6.702   7.617   4.205  1.9097  0.4991 -2.7629
11104TIP3   OH233256   6.112   1.870   2.090 -0.2377  0.5334  0.6301
11104TIP3    H133257   6.113   1.965   2.098 -2.0578  0.5219  1.5786
11104TIP3    H233258   6.061   1.840   2.166 -0.6577 -1.1289 -0.2560
11105TIP3   OH233259   0.447   3.835   0.701 -0.1916  0.0473 -0.2097
11105TIP3    H133260   0.409   3.824   0.788 -0.7831 -0.6534 -0.5388
11105TIP3    H233261   0.542   3.832   0.716 -0.2900 -0.5967  0.3545
11106TIP3   OH233262   5.466   5.152   6.074 -0.1928  0.3323 -0.1543
11106TIP3    H133263   5.556   5.159   6.105 -0.7155  2.4261  1.0646
11106TIP3    H233264   5.428   5.081   6.126  0.6761 -0.4242 -0.5351
11107TIP3   OH233265   4.426   7.271   5.388  0.0198  0.2377 -0.0323
11107TIP3    H133266   4.464   7.271   5.300  0.7662  1.5023  0.2590
11107TIP3    H233267   4.380   7.355   5.395 -2.6457 -1.0944 -0.2483
11108TIP3   OH233268   6.038   5.411   2.987  0.2372 -0.6355  0.7766
11108TIP3    H133269   6.033   5.351   2.912 -1.5214 -0.0389  0.3506
11108TIP3    H233270   6.024   5.355   3.063  1.6256 -1.1902  0.6494
11109TIP3   OH233271   3.166   0.703   1.286  0.5925  0.3517 -0.3172
11109TIP3    H133272   3.211   0.624   1.257  1.9921  0.6475  0.9007
11109TIP3    H233273   3.111   0.728   1.212  1.8407 -0.4899 -1.5934
11110TIP3   OH233274   4.245   6.576   2.167  0.1397 -0.1863 -0.1270
11110TIP3    H133275   4.337   6.600   2.154 -0.2819  0.6881 -1.8589
11110TIP3    H233276   4.226   6.514   2.096 -0.5944 -0.3694  0.2212
11111TIP3   OH233277   0.338   4.034   0.401  0.1936 -0.8815 -0.2586
11111TIP3    H133278   0.418   3.984   0.417  0.3614 -0.1368  1.5035
11111TIP3    H233279   0.329   4.090   0.479 -1.0200  0.4125 -1.2732
11112TIP3   OH233280   0.908   6.504   3.272  0.8127 -0.3334 -0.1965
11112TIP3    H133281   0.968   6.458   3.332 -1.4898  0.0643  2.6458
11112TIP3    H233282   0.830   6.450   3.270  0.1370  0.6280 -1.4253
11113TIP3   OH233283   0.336   2.865   5.569 -0.2907 -0.2185  0.0219
11113TIP3    H133284   0.364   2.822   5.650 -1.9000  1.1081  1.3515
11113TIP3    H233285   0.413   2.863   5.512  0.6602 -1.8257  1.2858
11114TIP3   OH233286   0.803   7.505   2.513  0.7899 -0.3413  0.7154
11114TIP3    H133287   0.840   7.537   2.431 -0.5331  1.7223  0.8495
11114TIP3    H233288   0.726   7.455   2.487  0.9403 -0.5516  0.6686
11115TIP3   OH233289   1.364   7.185   4.804 -0.1582 -0.5985 -0.5924
11115TIP3    H133290   1.297   7.149   4.746  0.4264 -0.7887 -1.1677
11115TIP3    H233291   1.442   7.133   4.786  0.2244 -0.1933 -0.1490
11116TIP3   OH233292   8.248   6.948   3.240 -0.2712 -0.1667 -0.3976
11116TIP3    H133293   8.332   6.902   3.234 -0.0272  0.1137  0.6046
11116TIP3    H233294   8.207   6.933   3.155  0.4782 -0.9156 -0.6550
11117TIP3   OH233295   5.255   7.196   1.325 -0.0686  0.0006  0.0348
11117TIP3    H133296   5.231   7.288   1.332 -0.0487  0.0751 -0.8510
11117TIP3    H233297   5.269   7.168   1.416 -1.3791  0.5215  0.4157
11118TIP3   OH233298   3.805   5.743   0.996  0.5153 -0.3924  0.2689
11118TIP3    H133299   3.875   5.689   0.962  0.6901 -1.0326  1.5685
11118TIP3    H233300   3.849   5.815   1.041  0.2851  0.9083 -1.4737
11119TIP3   OH233301   4.569   6.891   4.936 -0.4781 -0.6230  0.4234
11119TIP3    H133302   4.558   6.833   4.861 -1.3417  0.0687 -0.0054
11119TIP3    H233303   4.607   6.836   5.005 -0.3672 -1.4401 -0.2839
11120TIP3   OH233304   5.053   3.140   3.113 -1.0405  0.5121 -0.3123
11120TIP3    H133305   5.002   3.174   3.186 -1.5195 -1.1694  0.1757
11120TIP3    H233306   5.091   3.058   3.146  2.0733  1.6726 -0.6105
11121TIP3   OH233307   3.443   4.103   6.614 -0.1689 -0.3414 -0.4023
11121TIP3    H133308   3.502   4.158   6.666  0.9870 -0.7079 -1.2948
11121TIP3    H233309   3.440   4.146   6.528 -0.2977 -0.9560 -0.7076
11122TIP3   OH233310   3.177   5.541   6.083 -0.5496  0.0923  0.4804
11122TIP3    H133311   3.107   5.505   6.028 -0.1067  1.5037 -1.0656
11122TIP3    H233312   3.178   5.634   6.063  0.4953  0.4381  1.9638
11123TIP3   OH233313   1.958   3.778   5.387  0.0879  0.0327  0.3570
11123TIP3    H133314   2.005   3.738   5.314  0.9425  0.7041  0.5215
11123TIP3    H233315   1.921   3.703   5.435 -0.3685 -0.4187 -0.6630
11124TIP3   OH233316   7.424   4.236   1.892  0.2119 -0.0504 -0.3429
11124TIP3    H133317   7.381   4.317   1.865  1.3333  0.1874 -1.5325
11124TIP3    H233318   7.363   4.167   1.868 -0.8883  0.4325  0.9576
11125TIP3   OH233319   0.860   7.429   1.278 -0.2213 -0.1413 -1.3755
11125TIP3    H133320   0.765   7.417   1.280 -0.3455  0.7981 -1.5048
11125TIP3    H233321   0.884   7.414   1.187 -0.5537  1.7882 -1.8192
11126TIP3   OH233322   2.290   5.173   0.959 -0.3348 -0.2029 -0.3411
11126TIP3    H133323   2.223   5.108   0.937 -0.5335 -0.3360  0.5930
11126TIP3    H233324   2.285   5.181   1.055  2.5731 -1.9916  0.1057
11127TIP3   OH233325   7.651   4.506   3.627 -0.8668 -0.0831  0.1608
11127TIP3    H133326   7.629   4.570   3.694 -0.2087  0.3587 -0.0419
11127TIP3    H233327   7.746   4.511   3.618 -0.6433 -1.9868  1.0355
11128TIP3   OH233328   4.172   1.081   0.566  0.0331  0.4661 -0.3138
11128TIP3    H133329   4.162   0.991   0.534 -0.3610  0.2398  0.4306
11128TIP3    H233330   4.098   1.094   0.626  0.8848  0.7944  0.6960
11129TIP3   OH233331   6.745   5.892   6.058 -0.4520 -0.2857  0.1521
11129TIP3    H133332   6.734   5.948   6.136  0.7240 -2.1579  1.7577
11129TIP3    H233333   6.820   5.837   6.079  0.8553  0.1127 -2.9847
11130TIP3   OH233334   2.658   0.845   5.474  0.1558 -0.2439  1.0597
11130TIP3    H133335   2.708   0.838   5.555  0.8258  2.0553  0.9339
11130TIP3    H233336   2.569   0.818   5.498  0.5361 -0.4180  2.3353
11131TIP3   OH233337   5.967   5.720   4.716  0.2240  0.2373  0.3895
11131TIP3    H133338   6.020   5.644   4.739  0.1762  0.3274  0.8029
11131TIP3    H233339   5.904   5.687   4.652 -0.0227 -0.1529  0.8291
11132TIP3   OH233340   4.146   6.176   6.332 -0.2851  1.2650  0.6531
11132TIP3    H133341   4.111   6.265   6.336  0.6363  1.7359 -0.7805
11132TIP3    H233342   4.089   6.130   6.270 -1.7145  0.3480  2.5612
11133TIP3   OH233343   7.967   4.475   6.463  0.3812 -0.0778  0.2065
11133TIP3    H133344   8.038   4.508   6.408  0.0912 -0.7647 -0.5999
11133TIP3    H233345   8.009   4.416   6.525  0.4190 -1.2763 -0.9182
11134TIP3   OH233346   5.321   7.586   2.822 -0.5612  0.0806 -0.3793
11134TIP3    H133347   5.282   7.528   2.888  1.7417 -1.7592 -0.5037
11134TIP3    H233348   5.413   7.561   2.820  0.0470  2.1869 -2.1770
11135TIP3   OH233349   7.617   1.533   5.495  0.4691  0.3371  0.4401
11135TIP3    H133350   7.612   1.531   5.400 -0.3983  0.1974  0.4864
11135TIP3    H233351   7.619   1.441   5.522  1.6361  0.3717  0.5205
11136TIP3   OH233352   1.206   0.486   0.065  0.0620  0.1156 -0.1063
11136TIP3    H133353   1.156   0.454   0.140 -1.3258  0.8767 -0.6754
11136TIP3    H233354   1.279   0.425   0.057 -0.9299 -1.2174  0.5835
11137TIP3   OH233355   6.258   1.034   1.851 -0.3923 -0.7789  0.4084
11137TIP3    H133356   6.168   1.005   1.869 -2.1867  2.4633 -2.2035
11137TIP3    H233357   6.289   1.067   1.935 -1.1596 -2.9188  1.6120
11138TIP3   OH233358   7.438   0.165   5.047  0.5983 -0.1220  0.7241
11138TIP3    H133359   7.402   0.153   5.134 -1.7071  0.2710 -0.1148
11138TIP3    H233360   7.384   0.233   5.007  1.8154 -0.0385 -0.8951
11139TIP3   OH233361   3.356   1.201   3.788 -0.2980  0.3763 -0.0460
11139TIP3    H133362   3.382   1.206   3.880 -0.9496 -1.0161  0.2404
11139TIP3    H233363   3.398   1.277   3.747 -0.1259  1.1042  1.4196
11140TIP3   OH233364   7.924   7.293   6.592 -0.1661 -0.1100  0.2832
11140TIP3    H133365   7.847   7.273   6.539  0.1089 -0.8302  0.1455
11140TIP3    H233366   7.995   7.244   6.551  0.8332  2.1504 -0.8257
11141TIP3   OH233367   5.197   6.381   2.854 -0.0342  0.8021  0.0845
11141TIP3    H133368   5.177   6.381   2.947  1.2097  2.4878  0.3904
11141TIP3    H233369   5.233   6.294   2.837 -0.3292  0.4605  1.1614
11142TIP3   OH233370   6.406   3.337   1.588 -0.0786 -0.2696 -0.1620
11142TIP3    H133371   6.391   3.247   1.558  0.8243  0.1050 -1.8714
11142TIP3    H233372   6.494   3.337   1.624 -0.1218 -0.0947 -0.0523
11143TIP3   OH233373   3.662   2.251   1.576 -0.2824 -0.4181 -0.5483
11143TIP3    H133374   3.745   2.216   1.545 -0.4745 -1.9245  0.5410
11143TIP3    H233375   3.638   2.316   1.511  1.7356  0.0505 -0.9005
11144TIP3   OH233376   7.822   0.431   4.611  0.2070  0.7026 -0.4234
11144TIP3    H133377   7.790   0.341   4.610  1.3003  0.2823 -1.6546
11144TIP3    H233378   7.889   0.432   4.679 -0.9701  1.0595  0.7674
11145TIP3   OH233379   3.263   0.416   1.368  0.1285  0.0612  0.7406
11145TIP3    H133380   3.247   0.424   1.463  2.1400  1.7231  0.9940
11145TIP3    H233381   3.358   0.411   1.360  0.0430  0.8225 -1.2565
11146TIP3   OH233382   2.013   2.008   3.907 -0.3573  0.3786 -0.4332
11146TIP3    H133383   2.040   2.014   3.815 -0.8065 -0.4116 -0.6307
11146TIP3    H233384   1.933   1.956   3.905 -0.6269  0.7497  0.3655
11147TIP3   OH233385   7.159   5.237   3.002  0.1942  0.0810  0.5502
11147TIP3    H133386   7.088   5.298   3.018  0.4740  0.4359  0.4713
11147TIP3    H233387   7.143   5.164   3.061 -0.3230  0.0797  0.4148
11148TIP3   OH233388   1.703   2.029   0.771  0.5798  0.2463  0.1105
11148TIP3    H133389   1.759   2.051   0.697 -0.6109 -0.2384 -0.9745
11148TIP3    H233390   1.735   1.944   0.802 -0.2250 -0.6018 -1.2502
11149TIP3   OH233391   6.361   4.198   0.088  0.0742 -0.1134  0.2639
11149TIP3    H133392   6.301   4.124   0.088  2.6520 -2.3708 -0.4949
11149TIP3    H233393   6.422   4.180   0.159  0.3810  1.6765  0.4998
11150TIP3   OH233394   5.765   7.224   3.964 -0.1902 -0.2937 -0.3403
11150TIP3    H133395   5.690   7.196   3.911 -1.9346  2.3830  0.4897
11150TIP3    H233396   5.746   7.192   4.052 -0.5602  0.5965 -0.0766
11151TIP3   OH233397   2.652   0.852   2.433  0.1238 -0.1290  0.1374
11151TIP3    H133398   2.723   0.817   2.380  0.9444  1.1836  0.3273
11151TIP3    H233399   2.695   0.912   2.494 -1.0920  0.3434  0.5541
11152TIP3   OH233400   5.279   2.622   5.590  0.1830  0.2654  0.9543
11152TIP3    H133401   5.310   2.627   5.681 -1.0575  0.0643  1.4108
11152TIP3    H233402   5.242   2.534   5.582 -0.2323  0.4830  0.4366
11153TIP3   OH233403   3.363   3.827   1.674  0.1505  0.4150 -0.3232
11153TIP3    H133404   3.357   3.749   1.728  2.1492 -0.6035 -1.4705
11153TIP3    H233405   3.428   3.806   1.607  0.7180  3.0266 -0.7290
11154TIP3   OH233406   0.133   1.048   5.072  0.0420  0.1439  0.4697
11154TIP3    H133407   0.186   1.088   5.003 -1.3506 -1.3103 -1.5538
11154TIP3    H233408   0.196   1.009   5.132  1.2938  0.0917 -0.8400
11155TIP3   OH233409   0.102   4.641   1.765 -0.2066 -0.2092  0.6224
11155TIP3    H133410   0.048   4.585   1.821 -0.2959  0.1457  0.8949
11155TIP3    H233411   0.110   4.723   1.814 -0.1458  0.0450  0.1905
11156TIP3   OH233412   6.958   1.330   5.099  0.1425  0.4776 -0.2604
11156TIP3    H133413   6.868   1.362   5.099  0.2865  0.9869  1.0992
11156TIP3    H233414   6.957   1.258   5.162  0.4500 -0.2970 -1.1220
11157TIP3   OH233415   6.340   5.320   6.707 -0.1365 -0.1588 -0.0044
11157TIP3    H133416   6.282   5.367   6.766  0.3205 -0.5706  0.7824
11157TIP3    H233417   6.425   5.322   6.750  1.2157  2.9432 -2.4053
11158TIP3   OH233418   1.586   3.591   4.791 -0.9401  0.3170  0.4926
11158TIP3    H133419   1.650   3.587   4.720 -1.7421 -1.3807 -0.1881
11158TIP3    H233420   1.637   3.578   4.870 -0.3174 -0.0891  0.0332
11159TIP3   OH233421   6.367   7.791   4.547  0.9966  0.0055 -0.2685
11159TIP3    H133422   6.350   7.845   4.624  0.0842 -0.5048 -0.0927
11159TIP3    H233423   6.412   7.714   4.581 -1.4698 -1.3635  0.1930
11160TIP3   OH233424   2.627   6.484   1.232  0.0057 -0.2742  0.4379
11160TIP3    H133425   2.705   6.487   1.288  1.1237 -1.9753 -0.9249
11160TIP3    H233426   2.582   6.403   1.257  0.4151 -0.9530 -0.9450
11161TIP3   OH233427   7.639   5.066   2.301 -0.4150 -0.1661 -0.7259
11161TIP3    H133428   7.563   5.009   2.309 -0.2357 -0.3575 -0.3593
11161TIP3    H233429   7.675   5.071   2.389  1.5127 -2.1784 -1.3179
11162TIP3   OH233430   0.865   0.374   1.679 -0.1074 -0.1113 -0.6719
11162TIP3    H133431   0.867   0.352   1.586 -1.4304  0.2334 -0.8075
11162TIP3    H233432   0.956   0.387   1.703  0.2623 -0.3543 -1.8874
11163TIP3   OH233433   3.920   5.506   1.982  0.1090  0.0605 -0.1144
11163TIP3    H133434   3.876   5.570   1.926  0.3530  0.4105  0.0884
11163TIP3    H233435   3.864   5.498   2.059 -1.2163 -1.8288 -1.1994
11164TIP3   OH233436   5.285   6.932   5.198  0.3163  0.5390 -0.3708
11164TIP3    H133437   5.342   6.868   5.155 -1.5064 -0.3461 -1.5586
11164TIP3    H233438   5.213   6.881   5.234 -0.3529  1.7502  0.0726
11165TIP3   OH233439   7.398   2.897   1.884  0.3550  0.2889 -0.4267
11165TIP3    H133440   7.345   2.882   1.962  0.8542  1.2459  0.1180
11165TIP3    H233441   7.366   2.833   1.821 -0.7086  0.1339  0.2401
11166TIP3   OH233442   2.578   6.037   0.136  0.2723 -0.4250  0.2159
11166TIP3    H133443   2.579   5.976   0.062  2.1055 -0.1003 -0.0594
11166TIP3    H233444   2.576   5.981   0.213 -2.2678 -0.7688 -0.0168
11167TIP3   OH233445   1.376   1.106   1.713  0.3415 -0.1460  0.0420
11167TIP3    H133446   1.313   1.074   1.648 -0.8833  0.1633  1.0343
11167TIP3    H233447   1.366   1.201   1.710  1.2469 -0.0544 -0.2498
11168TIP3   OH233448   6.192   5.720   4.492  0.0929 -0.0876  0.2208
11168TIP3    H133449   6.242   5.795   4.460 -1.1661  0.2769 -0.9931
11168TIP3    H233450   6.255   5.648   4.493  1.2113  0.8592  0.9797
11169TIP3   OH233451   8.004   4.406   1.699 -0.0346 -0.2553 -0.1869
11169TIP3    H133452   7.931   4.437   1.645  0.8571  0.3014 -1.0843
11169TIP3    H233453   8.027   4.321   1.663 -0.2461 -0.4407  0.1103
11170TIP3   OH233454   5.195   6.432   2.405 -0.1915 -0.7224  0.4460
11170TIP3    H133455   5.198   6.341   2.377 -0.6841 -0.3051 -1.1187
11170TIP3    H233456   5.102   6.455   2.401  0.0052  0.0497  0.0154
11171TIP3   OH233457   1.294   6.504   2.559  0.1198 -0.0524  0.4319
11171TIP3    H133458   1.336   6.433   2.607  0.1139 -0.4144 -0.1018
11171TIP3    H233459   1.241   6.461   2.492  1.4108  0.4924 -0.9943
11172TIP3   OH233460   6.380   6.670   6.707 -0.3695  0.1107  0.2438
11172TIP3    H133461   6.367   6.589   6.657 -1.0327  0.4194 -0.0959
11172TIP3    H233462   6.448   6.716   6.659 -0.7810  0.2610 -0.2032
11173TIP3   OH233463   2.794   4.226   0.804 -0.4058  0.2425  0.3476
11173TIP3    H133464   2.787   4.289   0.875 -2.5399  0.4052  0.0399
11173TIP3    H233465   2.757   4.270   0.728  0.2570 -0.5480 -0.4586
11174TIP3   OH233466   4.076   0.200   3.194  0.2596 -0.1365 -0.2487
11174TIP3    H133467   4.120   0.116   3.180  0.8687  0.0828  0.3236
11174TIP3    H233468   3.983   0.176   3.204  0.5309 -0.8528  0.8126
11175TIP3   OH233469   1.091   2.724   3.743 -0.2347  0.1955  0.0905
11175TIP3    H133470   1.046   2.745   3.825  1.1308  1.7361  0.4970
11175TIP3    H233471   1.147   2.649   3.765  0.6868  1.0615  0.8212
11176TIP3   OH233472   4.142   4.931   2.119  0.1456  0.0558  0.1691
11176TIP3    H133473   4.107   4.851   2.158  1.0774 -0.2350  0.4382
11176TIP3    H233474   4.150   4.992   2.192 -0.4799  0.3782 -0.0206
11177TIP3   OH233475   0.887   6.859   6.756 -0.3835 -0.2184  0.0498
11177TIP3    H133476   0.924   6.941   6.723 -1.3132  0.4458  0.6062
11177TIP3    H233477   0.934   6.844   6.838 -0.1737 -0.2816 -0.0790
11178TIP3   OH233478   5.617   5.919   6.505  0.2195  0.3812 -0.7595
11178TIP3    H133479   5.537   5.874   6.477  0.5785 -0.5891 -0.2606
11178TIP3    H233480   5.667   5.929   6.424 -0.0649  0.2994 -0.9492
11179TIP3   OH233481   2.000   0.077   5.853  0.0236 -0.6490 -0.5919
11179TIP3    H133482   2.006   0.162   5.895  0.5594 -0.1271 -1.6720
11179TIP3    H233483   1.906   0.064   5.837 -0.0012  0.1065 -1.1209
11180TIP3   OH233484   0.077   2.854   1.117 -0.1598  0.0182  0.2068
11180TIP3    H133485   0.169   2.869   1.141  0.0812  2.0199 -1.5837
11180TIP3    H233486   0.040   2.942   1.110 -1.2311 -0.5512 -2.5568
11181TIP3   OH233487   0.922   3.305   5.211  0.3419  0.4607  0.2718
11181TIP3    H133488   0.856   3.359   5.254  0.0500 -0.8679  1.5572
11181TIP3    H233489   0.989   3.290   5.278  0.4124 -0.7628 -0.0541
11182TIP3   OH233490   2.358   6.813   4.768  0.0495  0.0255 -0.1466
11182TIP3    H133491   2.334   6.774   4.852 -0.6435  1.9519  0.6101
11182TIP3    H233492   2.289   6.876   4.750  1.0009  0.7670 -1.4028
11183TIP3   OH233493   1.943   7.717   4.521 -0.2159 -0.0876  0.0851
11183TIP3    H133494   2.012   7.779   4.543  1.1332 -2.3126  2.8138
11183TIP3    H233495   1.882   7.721   4.594  0.9984 -3.2715  1.4549
11184TIP3   OH233496   7.330   5.102   1.583 -0.0796  0.1063 -0.4606
11184TIP3    H133497   7.322   5.189   1.621 -0.6544 -0.9524  2.0728
11184TIP3    H233498   7.409   5.065   1.623  0.4800 -0.3693 -1.9274
11185TIP3   OH233499   4.537   7.455   5.793 -0.5521 -0.7123 -0.4066
11185TIP3    H133500   4.503   7.497   5.872  0.7786  0.0735 -0.2277
11185TIP3    H233501   4.488   7.373   5.787 -2.6208  0.4585 -0.2973
11186TIP3   OH233502   6.223   5.332   1.609  0.3130 -0.5565  0.1618
11186TIP3    H133503   6.218   5.332   1.704  0.3627 -1.2579  0.1735
11186TIP3    H233504   6.209   5.423   1.584  0.5209 -0.3281  0.8484
11187TIP3   OH233505   2.973   2.075   2.706 -0.2673  0.3906 -0.3111
11187TIP3    H133506   3.005   2.051   2.793 -0.0066 -0.1890 -0.5650
11187TIP3    H233507   2.880   2.055   2.708  0.0193 -1.1140 -0.6621
11188TIP3   OH233508   4.007   4.132   0.748  1.1692 -0.2053 -0.4758
11188TIP3    H133509   3.948   4.149   0.822  2.5919 -1.5252  1.0684
11188TIP3    H233510   3.963   4.064   0.697 -0.5852  1.8477 -1.8627
11189TIP3   OH233511   5.944   0.681   2.380 -0.1234  0.3768 -0.4671
11189TIP3    H133512   6.024   0.699   2.430 -0.2335  0.5716 -0.3593
11189TIP3    H233513   5.968   0.609   2.322 -0.5851 -1.3023  1.3390
11190TIP3   OH233514   3.793   3.996   2.614 -0.0538  0.5901 -0.0194
11190TIP3    H133515   3.715   4.042   2.582 -0.8655  0.5733  1.8426
11190TIP3    H233516   3.855   4.066   2.633  0.0575  0.6603 -0.6039
11191TIP3   OH233517   7.102   1.185   1.713 -0.6936  0.1092 -0.0989
11191TIP3    H133518   7.142   1.125   1.776  1.1370  1.2459 -0.1065
11191TIP3    H233519   7.010   1.189   1.739 -0.6731 -1.9067  0.4965
11192TIP3   OH233520   0.360   0.150   6.378 -0.0865 -0.3990 -0.3598
11192TIP3    H133521   0.374   0.154   6.283  0.3576  3.0074 -0.2642
11192TIP3    H233522   0.431   0.094   6.410  0.7625 -0.2751 -1.9168
11193TIP3   OH233523   5.928   1.497   0.258  0.4180  0.5019  0.6695
11193TIP3    H133524   5.997   1.478   0.194 -1.6089 -1.9882 -0.9953
11193TIP3    H233525   5.875   1.566   0.216  0.2215  0.2932  0.5727
11194TIP3   OH233526   3.060   3.918   0.488  0.6910 -0.0844  0.2713
11194TIP3    H133527   3.010   4.000   0.493  0.4831 -0.2372  0.7400
11194TIP3    H233528   3.028   3.866   0.562  1.2037 -0.3733  0.2919
11195TIP3   OH233529   1.871   3.946   3.306 -0.5863  0.1291  0.3268
11195TIP3    H133530   1.898   3.922   3.395  0.6037  1.2051  0.2946
11195TIP3    H233531   1.911   3.880   3.250 -0.5678 -0.0257  0.5209
11196TIP3   OH233532   7.592   5.997   6.524  0.3378  0.1263  0.0135
11196TIP3    H133533   7.566   5.907   6.544  0.1912 -0.2831 -1.8206
11196TIP3    H233534   7.509   6.044   6.515  0.3930  0.2732  0.2843
11197TIP3   OH233535   7.064   5.786   5.931 -0.3230 -0.5821  0.7604
11197TIP3    H133536   7.037   5.773   6.022  0.3006 -0.8158  0.9250
11197TIP3    H233537   7.052   5.700   5.890  0.5969 -0.8223  0.9625
11198TIP3   OH233538   8.149   7.091   0.335  0.3997  0.0539 -0.1383
11198TIP3    H133539   8.122   7.016   0.282 -0.2475 -0.8569  1.4161
11198TIP3    H233540   8.068   7.137   0.356  0.5396 -0.0993  0.7850
11199TIP3   OH233541   4.385   0.692   4.799 -0.4996 -0.0090 -0.1646
11199TIP3    H133542   4.449   0.740   4.851 -0.3036  0.1266 -0.5306
11199TIP3    H233543   4.301   0.735   4.818 -0.1016  1.6429 -1.8232
11200TIP3   OH233544   7.956   2.015   1.238 -0.1728  0.1556 -0.1734
11200TIP3    H133545   7.974   1.921   1.244  1.2141  0.3958 -0.0880
11200TIP3    H233546   7.960   2.046   1.328 -1.5995  0.1484 -0.0977
11201TIP3   OH233547   1.343   1.525   1.431  0.0440  0.3137  0.0127
11201TIP3    H133548   1.382   1.493   1.349  1.3149  1.0144  0.3083
11201TIP3    H233549   1.409   1.584   1.467 -0.8034  0.5818  1.1911
11202TIP3   OH233550   2.308   5.543   5.270 -0.4490  0.0166  0.2292
11202TIP3    H133551   2.252   5.518   5.343 -1.6159 -2.2103 -1.3124
11202TIP3    H233552   2.253   5.599   5.215  0.0901  0.8486  0.5169
11203TIP3   OH233553   1.202   4.762   5.028 -0.2314 -0.1193 -0.7020
11203TIP3    H133554   1.125   4.709   5.010  0.0761 -1.1136  0.7386
11203TIP3    H233555   1.170   4.852   5.030 -1.3531 -0.5179 -0.1574
11204TIP3   OH233556   1.454   7.311   5.651 -0.1919 -0.3024  0.4110
11204TIP3    H133557   1.399   7.386   5.632  0.1420 -0.1866 -0.1032
11204TIP3    H233558   1.420   7.241   5.595  1.4661  0.3300 -1.5074
11205TIP3   OH233559   6.507   0.082   2.780 -0.3083  0.0030  0.8003
11205TIP3    H133560   6.477   0.080   2.871 -0.4565  1.0088  0.7873
11205TIP3    H233561   6.436   0.125   2.732 -1.1344 -2.2826 -0.1684
11206TIP3   OH233562   6.193   5.253   1.997  0.2727  0.3862 -0.7583
11206TIP3    H133563   6.102   5.263   2.024  0.4371 -0.3491  0.0831
11206TIP3    H233564   6.207   5.325   1.935 -0.7405  0.7858 -0.5423
11207TIP3   OH233565   7.360   6.626   4.054 -0.1423  0.1919  0.2548
11207TIP3    H133566   7.388   6.535   4.045 -2.0071 -0.6385  1.9945
11207TIP3    H233567   7.421   6.664   4.117  0.5725  0.1307 -0.3895
11208TIP3   OH233568   6.281   7.005   0.622 -0.4664  0.0496  0.6587
11208TIP3    H133569   6.198   6.971   0.590 -0.6019  0.5147  0.5119
11208TIP3    H233570   6.304   7.075   0.561  0.8274 -1.0991 -0.2317
11209TIP3   OH233571   3.471   7.084   2.616  0.2819  0.3153  0.1567
11209TIP3    H133572   3.565   7.086   2.599  0.2016  0.9188 -0.2636
11209TIP3    H233573   3.462   7.113   2.707  0.5704 -0.8233  0.5587
11210TIP3   OH233574   5.557   1.916   6.303 -0.0419  0.2013  0.1399
11210TIP3    H133575   5.520   1.914   6.391 -1.2212  0.4414 -0.3380
11210TIP3    H233576   5.495   1.867   6.249  0.9028 -0.3356 -0.4840
11211TIP3   OH233577   4.168   4.227   1.884 -0.5632  0.4435  0.1068
11211TIP3    H133578   4.238   4.163   1.900 -0.6656 -0.1919 -1.7875
11211TIP3    H233579   4.143   4.257   1.972  1.6306  0.2245  0.8655
11212TIP3   OH233580   7.633   0.704   3.041 -0.0202 -0.1507 -0.0849
11212TIP3    H133581   7.720   0.669   3.023 -0.5784 -0.5732 -2.2580
11212TIP3    H233582   7.616   0.680   3.133  1.2146 -2.1031 -0.3027
11213TIP3   OH233583   3.953   3.965   4.281 -0.5622 -0.2348 -0.2542
11213TIP3    H133584   3.899   4.031   4.326  0.2375  1.0334 -1.0738
11213TIP3    H233585   3.966   3.897   4.346  0.0093  1.2374  1.2580
11214TIP3   OH233586   0.731   7.109   3.874  0.3333  1.0692  0.2913
11214TIP3    H133587   0.683   7.059   3.941  0.5398  0.2086 -0.1861
11214TIP3    H233588   0.665   7.165   3.834 -0.2460  0.0635 -0.2024
11215TIP3   OH233589   0.617   7.466   4.345 -0.1722 -0.0374  0.0128
11215TIP3    H133590   0.618   7.413   4.266 -0.2722  0.2710 -0.1971
11215TIP3    H233591   0.575   7.548   4.319  0.1900  0.2367  0.2717
11216TIP3   OH233592   2.690   5.644   2.646 -0.5467 -0.1362 -0.1547
11216TIP3    H133593   2.627   5.620   2.714  0.1900  1.2109  1.0661
11216TIP3    H233594   2.642   5.703   2.588 -0.4148  0.9453  0.8120
11217TIP3   OH233595   5.993   7.441   1.158 -0.0435  0.1381 -0.6258
11217TIP3    H133596   5.906   7.456   1.197  1.2378  1.8527  1.8464
11217TIP3    H233597   6.008   7.347   1.167 -0.7529  0.1548  0.9420
11218TIP3   OH233598   2.867   3.403   6.616 -0.1278 -0.3466  0.6524
11218TIP3    H133599   2.930   3.430   6.548  1.3142 -1.0757  1.6452
11218TIP3    H233600   2.801   3.472   6.615  0.3561  0.1434 -0.8512
11219TIP3   OH233601   5.666   5.742   4.663 -0.3569  0.4486 -0.2138
11219TIP3    H133602   5.688   5.670   4.722  0.1744  1.1553  0.4756
11219TIP3    H233603   5.713   5.723   4.582  0.3705  0.4006  0.2153
11220TIP3   OH233604   6.671   3.342   5.241  0.1054 -0.0078  0.0708
11220TIP3    H133605   6.580   3.314   5.235 -0.1918  0.7257  1.0203
11220TIP3    H233606   6.684   3.398   5.164  0.2569 -1.3869 -0.9701
11221TIP3   OH233607   7.508   5.574   5.933  0.5976 -0.4284  0.1541
11221TIP3    H133608   7.577   5.638   5.952  0.7392 -0.3493 -0.5904
11221TIP3    H233609   7.512   5.562   5.838 -1.5344  0.8519 -0.1635
11222TIP3   OH233610   7.561   6.957   1.889 -0.4705 -0.3747 -0.0592
11222TIP3    H133611   7.585   7.026   1.950  0.4652 -2.1440  1.6924
11222TIP3    H233612   7.618   6.884   1.912 -2.7420 -2.4048 -0.5121
11223TIP3   OH233613   7.078   2.514   5.962  0.2841 -0.5186  0.3356
11223TIP3    H133614   7.172   2.507   5.947  0.0385 -0.8552 -1.2316
11223TIP3    H233615   7.040   2.521   5.875 -1.1431 -0.2273  0.9426
11224TIP3   OH233616   4.237   3.169   1.443  0.0837 -0.0877  0.5202
11224TIP3    H133617   4.223   3.200   1.353  1.7041  0.5632  0.4641
11224TIP3    H233618   4.331   3.174   1.456  0.0176 -1.5235  1.8027
11225TIP3   OH233619   6.538   3.561   1.885 -0.0081  0.0001  0.3290
11225TIP3    H133620   6.616   3.566   1.940  0.5031  0.3663 -0.4174
11225TIP3    H233621   6.467   3.542   1.947  0.7030 -0.6168  0.9788
11226TIP3   OH233622   7.646   3.674   0.966  0.2597  0.1015 -0.3056
11226TIP3    H133623   7.604   3.746   1.014  1.8626  0.9314 -0.0839
11226TIP3    H233624   7.573   3.620   0.935 -1.0025  1.7668 -0.3855
11227TIP3   OH233625   5.400   0.056   5.217 -0.2665  0.3454  0.1218
11227TIP3    H133626   5.404   0.058   5.313  0.4176  1.3125  0.0824
11227TIP3    H233627   5.489   0.077   5.189 -0.6226  0.7386 -0.7279
11228TIP3   OH233628   0.956   2.389   1.636 -0.6067  0.2564  0.2432
11228TIP3    H133629   0.984   2.403   1.546 -1.1871 -1.1906 -0.1885
11228TIP3    H233630   1.038   2.377   1.685 -0.3307 -0.4037 -0.3660
11229TIP3   OH233631   4.679   1.530   5.427  0.3486 -0.2750 -0.3822
11229TIP3    H133632   4.698   1.605   5.371 -0.4584 -0.4546 -0.9139
11229TIP3    H233633   4.720   1.552   5.511 -1.0865  1.4320 -0.0537
11230TIP3   OH233634   5.202   3.890   1.090 -0.3596 -0.5797  0.1033
11230TIP3    H133635   5.194   3.884   0.995  0.5874  0.2825 -0.0459
11230TIP3    H233636   5.149   3.967   1.113 -2.1096 -1.8363  0.5219
11231TIP3   OH233637   4.395   3.252   0.877  0.6210 -0.4805 -0.2397
11231TIP3    H133638   4.383   3.345   0.893 -1.6884 -0.7844  0.2185
11231TIP3    H233639   4.336   3.232   0.804 -0.4649 -1.8833  0.9380
11232TIP3   OH233640   3.571   6.583   2.348 -0.5772 -0.3149  0.1177
11232TIP3    H133641   3.640   6.580   2.414 -0.5903 -0.4676  0.1266
11232TIP3    H233642   3.610   6.629   2.274 -0.4143 -0.5357  0.0650
11233TIP3   OH233643   3.599   0.861   0.897 -0.4770  0.2578 -0.0686
11233TIP3    H133644   3.611   0.946   0.855  2.0096  0.3898  0.7780
11233TIP3    H233645   3.507   0.861   0.925 -1.0759  1.8092 -1.8226
11234TIP3   OH233646   2.100   6.427   4.362  0.4170  0.3121 -0.2598
11234TIP3    H133647   2.082   6.520   4.366 -0.7458  0.0702  1.2391
11234TIP3    H233648   2.195   6.420   4.369  0.4685  1.3697  0.2769
11235TIP3   OH233649   7.172   0.547   5.104 -0.0666 -0.3214  0.2077
11235TIP3    H133650   7.189   0.503   5.021  0.6833 -0.1687  0.2711
11235TIP3    H233651   7.102   0.496   5.145  0.0069 -0.7757 -0.2244
11236TIP3   OH233652   4.865   6.219   3.167 -0.1472  0.2647 -0.0764
11236TIP3    H133653   4.952   6.189   3.139 -0.6979 -1.3479 -0.1792
11236TIP3    H233654   4.882   6.297   3.219  1.1232  1.8323 -2.6350
11237TIP3   OH233655   1.016   1.607   6.022 -0.3220  0.3655  0.2908
11237TIP3    H133656   0.960   1.627   5.947 -0.4428 -0.1181  0.2511
11237TIP3    H233657   1.017   1.688   6.073  0.5526  1.0195 -0.7324
11238TIP3   OH233658   0.334   6.580   3.064  0.3293  0.3614 -0.5278
11238TIP3    H133659   0.277   6.648   3.099 -1.2409 -1.6808  1.0931
11238TIP3    H233660   0.288   6.547   2.987  0.9110  0.8043 -1.0878
11239TIP3   OH233661   6.826   5.490   4.852 -0.1605 -0.0778 -0.2367
11239TIP3    H133662   6.873   5.485   4.768 -1.7517  0.1084 -1.1734
11239TIP3    H233663   6.884   5.541   4.908  1.3233 -0.9170 -0.9434
11240TIP3   OH233664   3.790   3.897   0.892  0.8741 -0.0474 -0.0035
11240TIP3    H133665   3.770   3.862   0.805 -1.0955  0.2542  0.2890
11240TIP3    H233666   3.877   3.862   0.913  1.0085 -0.8114 -1.7238
11241TIP3   OH233667   3.925   6.858   2.803 -0.1732  0.6941 -0.3940
11241TIP3    H133668   3.902   6.931   2.862 -1.5440  1.3325 -1.6390
11241TIP3    H233669   3.944   6.785   2.862 -0.6728  1.5338  0.8636
11242TIP3   OH233670   4.412   1.984   1.349 -0.0414 -0.0244 -0.5093
11242TIP3    H133671   4.326   1.959   1.316  1.1003 -1.3297 -2.7308
11242TIP3    H233672   4.423   2.075   1.322 -0.4696 -0.0400 -0.7438
11243TIP3   OH233673   5.481   3.505   0.393  0.3978  0.0063 -0.0293
11243TIP3    H133674   5.502   3.584   0.443  0.4081  0.6603 -1.0489
11243TIP3    H233675   5.399   3.474   0.433 -0.1191  1.0691 -0.2108
11244TIP3   OH233676   7.156   4.569   6.576 -0.0767  1.0437 -0.3087
11244TIP3    H133677   7.240   4.612   6.592 -0.7396  3.0583 -1.8975
11244TIP3    H233678   7.155   4.552   6.482 -0.7077 -0.6858 -0.0199
11245TIP3   OH233679   2.709   5.427   2.176  0.0030 -0.3768 -0.0464
11245TIP3    H133680   2.725   5.422   2.270 -0.6220 -0.7793  0.0426
11245TIP3    H233681   2.621   5.391   2.164 -0.6935  1.3639 -0.5593
11246TIP3   OH233682   5.554   0.500   1.772 -0.1686 -0.7217  0.0422
11246TIP3    H133683   5.532   0.431   1.835 -0.6774 -1.9035 -1.3780
11246TIP3    H233684   5.478   0.558   1.774 -0.6456 -1.3270 -0.2398
11247TIP3   OH233685   4.389   4.645   2.855 -0.2010 -0.1519 -0.4609
11247TIP3    H133686   4.391   4.697   2.775  0.4558  0.1378 -0.2631
11247TIP3    H233687   4.390   4.710   2.926  2.6105 -0.3856 -0.1723
11248TIP3   OH233688   5.764   1.640   3.684  0.0424  0.1753  0.1357
11248TIP3    H133689   5.784   1.570   3.622 -0.4931  0.6211 -0.5630
11248TIP3    H233690   5.686   1.682   3.647 -0.3401  0.3940  1.1674
11249TIP3   OH233691   2.373   4.466   2.683 -0.3029 -0.2902  0.0622
11249TIP3    H133692   2.348   4.376   2.702  0.0992 -0.4353 -0.0672
11249TIP3    H233693   2.300   4.502   2.632 -0.0207 -0.8657 -0.7659
11250TIP3   OH233694   5.448   4.986   4.117 -0.4755  0.6052 -0.1280
11250TIP3    H133695   5.485   4.901   4.094  0.0718  0.8932 -0.3333
11250TIP3    H233696   5.416   4.975   4.206 -1.0916 -0.0322 -0.4196
11251TIP3   OH233697   4.774   6.456   0.065 -0.2603  0.0024 -0.2616
11251TIP3    H133698   4.712   6.389   0.037  0.3955 -0.3155 -1.0052
11251TIP3    H233699   4.772   6.522  -0.005  2.1909 -1.3203 -1.7463
11252TIP3   OH233700   2.819   6.221   2.035  0.0338  0.3762  0.4318
11252TIP3    H133701   2.886   6.222   1.967 -0.6120 -0.7274 -0.2518
11252TIP3    H233702   2.844   6.148   2.092 -0.3361  0.2423  0.4258
11253TIP3   OH233703   4.053   2.068   0.478  0.0005  0.1651  0.6137
11253TIP3    H133704   3.993   2.124   0.428  1.1061 -0.0947 -1.0951
11253TIP3    H233705   4.122   2.128   0.508 -0.7278  0.3438  2.0069
11254TIP3   OH233706   6.121   2.212   0.708 -0.3762  0.2726 -0.4131
11254TIP3    H133707   6.109   2.118   0.695  1.2959  0.1869 -1.6309
11254TIP3    H233708   6.087   2.252   0.628 -1.2740  0.7550  0.1864
11255TIP3   OH233709   1.546   0.408   6.081 -0.7485  0.4048 -1.1388
11255TIP3    H133710   1.474   0.383   6.139  0.4749  0.1073  0.3332
11255TIP3    H233711   1.566   0.329   6.032 -0.6386  0.1236 -0.6529
11256TIP3   OH233712   0.171   2.497   4.040  0.6125 -0.3258  0.1295
11256TIP3    H133713   0.187   2.515   3.947 -3.3001 -1.1348 -0.8783
11256TIP3    H233714   0.224   2.563   4.086  0.2857  2.2084 -2.7809
11257TIP3   OH233715   4.349   5.480   5.854 -0.2591  0.5157 -0.1905
11257TIP3    H133716   4.263   5.439   5.853 -0.3829  0.7742 -1.3288
11257TIP3    H233717   4.347   5.538   5.931 -0.6855 -0.3128  0.4376
11258TIP3   OH233718   1.414   0.973   2.272 -0.0879 -0.4111  0.1245
11258TIP3    H133719   1.336   1.030   2.272  0.3656  0.2175  0.4343
11258TIP3    H233720   1.470   1.010   2.204  0.2570 -0.4205  0.4045
11259TIP3   OH233721   3.279   1.899   3.571 -0.0415 -0.0320 -0.1464
11259TIP3    H133722   3.252   1.971   3.514 -0.8254 -0.0625  0.1684
11259TIP3    H233723   3.374   1.907   3.578 -0.0846  0.7552 -0.3991
11260TIP3   OH233724   7.075   1.716   5.907  0.3309 -0.0747  0.1218
11260TIP3    H133725   7.079   1.629   5.947  0.6197  0.0029  0.2698
11260TIP3    H233726   7.094   1.702   5.815  1.9732  0.0014  0.4070
11261TIP3   OH233727   4.615   1.325   1.963  0.5610 -0.1185  0.6603
11261TIP3    H133728   4.706   1.296   1.960 -0.0403 -2.0385 -0.9761
11261TIP3    H233729   4.596   1.354   1.874 -0.2286  0.9902  1.1707
11262TIP3   OH233730   1.182   0.312   0.609  0.3302  0.1103 -0.1002
11262TIP3    H133731   1.165   0.269   0.526  1.6030 -1.1842  0.2656
11262TIP3    H233732   1.203   0.403   0.585  0.1701 -0.1112 -1.1279
11263TIP3   OH233733   5.233   2.152   4.943 -0.1210  0.3917 -0.1535
11263TIP3    H133734   5.238   2.247   4.953  2.4062  0.4296 -1.0341
11263TIP3    H233735   5.185   2.122   5.020  1.8668  2.1376  1.8799
11264TIP3   OH233736   7.038   1.152   5.287 -0.3414  0.2774  0.0500
11264TIP3    H133737   7.128   1.143   5.255 -0.8871  1.0119 -1.8145
11264TIP3    H233738   7.017   1.065   5.321  1.1737  0.1883  0.8614
11265TIP3   OH233739   0.912   7.731   5.402  0.6978 -0.2964  0.3331
11265TIP3    H133740   0.818   7.733   5.388  0.7156 -0.6237  0.1510
11265TIP3    H233741   0.935   7.638   5.400  0.9689 -0.2433  0.7628
11266TIP3   OH233742   6.513   5.317   3.973  0.1398 -0.5672  0.1039
11266TIP3    H133743   6.420   5.300   3.980  0.1370 -0.1629  1.1724
11266TIP3    H233744   6.526   5.341   3.881 -1.1170  1.1025  0.3107
11267TIP3   OH233745   1.930   4.559   5.019  0.5052  0.1000 -0.5698
11267TIP3    H133746   2.009   4.531   4.972 -0.3860 -1.0534 -1.4391
11267TIP3    H233747   1.935   4.654   5.020  1.3507  0.0844 -1.5841
11268TIP3   OH233748   3.016   6.219   1.845  0.2241 -0.1200  0.4484
11268TIP3    H133749   3.078   6.283   1.810 -0.6732  0.0485 -0.8826
11268TIP3    H233750   3.029   6.141   1.792 -0.8622  0.0002 -0.0314
11269TIP3   OH233751   5.723   3.005   5.819 -0.8667  0.0789  0.2536
11269TIP3    H133752   5.753   3.095   5.808  0.4767 -0.4432 -0.5376
11269TIP3    H233753   5.703   2.975   5.730  0.2403 -0.9119  0.3196
11270TIP3   OH233754   0.734   4.881   1.861  0.6772 -0.2484  0.1166
11270TIP3    H133755   0.730   4.785   1.855  0.3990 -0.4303  2.3910
11270TIP3    H233756   0.711   4.900   1.952  0.0168  2.0423 -0.4736
11271TIP3   OH233757   3.166   6.895   5.436 -0.0381 -0.2406 -0.2955
11271TIP3    H133758   3.170   6.987   5.407 -1.9209 -0.0113 -0.0063
11271TIP3    H233759   3.212   6.894   5.520 -1.1906  0.7939  0.3939
11272TIP3   OH233760   5.201   5.574   4.309 -0.0916  0.3470 -0.2211
11272TIP3    H133761   5.122   5.558   4.360 -0.9114 -0.6580 -1.7254
11272TIP3    H233762   5.171   5.577   4.218  1.5618  0.1953 -0.8110
11273TIP3   OH233763   2.234   6.716   3.046 -0.0611 -0.3669 -0.1155
11273TIP3    H133764   2.275   6.754   3.124  0.0383  1.0470 -0.8385
11273TIP3    H233765   2.299   6.652   3.015  0.7455  0.4323 -0.1221
11274TIP3   OH233766   1.019   4.250   1.470 -0.7860 -0.2608 -0.1245
11274TIP3    H133767   1.107   4.223   1.498 -0.7365 -2.6022 -2.1666
11274TIP3    H233768   0.960   4.212   1.534 -0.4214 -1.0339 -0.2366
11275TIP3   OH233769   0.370   2.133   3.937 -0.2867 -0.1282  0.5828
11275TIP3    H133770   0.331   2.057   3.981 -1.6752  1.5086  2.3791
11275TIP3    H233771   0.447   2.154   3.990  0.9210 -1.0469 -0.7274
11276TIP3   OH233772   4.552   1.986   2.338 -0.5684 -0.4091 -0.0049
11276TIP3    H133773   4.498   2.009   2.263  0.6304 -0.8855 -1.0561
11276TIP3    H233774   4.629   1.943   2.300  0.0676 -0.6731  1.4987
11277TIP3   OH233775   6.144   0.925   0.809  0.0210 -0.3068  0.0399
11277TIP3    H133776   6.237   0.944   0.824  0.4596 -1.1092 -1.5430
11277TIP3    H233777   6.101   1.011   0.814  0.4372 -0.1342  3.0604
11278TIP3   OH233778   5.046   2.758   3.740  0.4600 -0.7079  0.1107
11278TIP3    H133779   5.131   2.795   3.766  0.8541 -1.4765 -0.0465
11278TIP3    H233780   5.003   2.829   3.693  1.6315 -0.7442 -1.1001
11279TIP3   OH233781   0.291   1.918   1.375  0.1048  0.0221  0.1572
11279TIP3    H133782   0.277   2.006   1.339 -0.6181 -0.5910 -1.1361
11279TIP3    H233783   0.355   1.930   1.445  0.1023  1.5557 -0.0740
11280TIP3   OH233784   8.196   1.025   5.954  0.3976 -0.0696  0.1201
11280TIP3    H133785   8.125   1.010   5.892  0.2125  3.5452 -0.7624
11280TIP3    H233786   8.167   0.982   6.035 -1.4948 -0.9934 -0.9809
11281TIP3   OH233787   2.697   4.762   5.514  0.5264 -0.3519 -0.0146
11281TIP3    H133788   2.638   4.830   5.481 -0.1452 -0.9406 -0.0324
11281TIP3    H233789   2.785   4.798   5.500  0.2332 -0.1480 -1.5212
11282TIP3   OH233790   6.789   7.253   5.753  0.3538 -0.4429  0.2394
11282TIP3    H133791   6.717   7.266   5.815 -0.6202 -1.0070 -0.7305
11282TIP3    H233792   6.745   7.229   5.671  1.6238 -0.1060 -0.5614
11283TIP3   OH233793   7.939   5.560   5.784  0.7102  0.0122  0.1326
11283TIP3    H133794   8.019   5.508   5.795  0.5851 -0.6463 -1.7932
11283TIP3    H233795   7.868   5.496   5.788  0.2866  0.5066  1.1191
11284TIP3   OH233796   3.137   0.182   1.265 -0.0114 -0.1731  0.7394
11284TIP3    H133797   3.209   0.166   1.204 -0.6352 -1.5312  0.3166
11284TIP3    H233798   3.166   0.256   1.318  1.2376 -0.0167 -0.1221
11285TIP3   OH233799   2.431   6.451   5.603 -0.2418  0.2329  0.1430
11285TIP3    H133800   2.499   6.447   5.535  0.0835  0.2675  0.4669
11285TIP3    H233801   2.366   6.387   5.575  0.4893 -0.6593  0.4426
11286TIP3   OH233802   2.196   4.020   1.551  0.6482 -0.6583  0.9395
11286TIP3    H133803   2.118   4.012   1.606  1.0465  0.0852  1.6268
11286TIP3    H233804   2.221   3.929   1.533  0.0440 -0.9074  1.3028
11287TIP3   OH233805   1.421   7.298   6.582 -0.3382 -0.0114 -0.2749
11287TIP3    H133806   1.372   7.241   6.523 -1.6635  0.7743  0.0398
11287TIP3    H233807   1.357   7.360   6.615  0.5950  0.2132  1.2088
11288TIP3   OH233808   5.173   0.968   5.377 -0.1459  0.2303 -0.3033
11288TIP3    H133809   5.189   1.029   5.449 -0.8565 -0.0755  0.1252
11288TIP3    H233810   5.139   0.889   5.420  1.5526 -0.8030 -0.7615
11289TIP3   OH233811   5.898   6.567   0.865  0.0790  0.0944  0.0599
11289TIP3    H133812   5.953   6.498   0.904 -0.0580 -0.5013 -0.7734
11289TIP3    H233813   5.810   6.546   0.896  0.1928  0.5855  0.7473
11290TIP3   OH233814   5.015   7.147   0.964 -0.0249  0.2658 -0.6104
11290TIP3    H133815   5.045   7.077   1.021 -1.9393 -0.1525 -0.0750
11290TIP3    H233816   5.081   7.151   0.895  0.5469 -1.4929 -0.2036
11291TIP3   OH233817   7.547   7.530   5.769  0.0691  0.4613 -0.1452
11291TIP3    H133818   7.562   7.437   5.786 -0.6478  0.3717  0.0034
11291TIP3    H233819   7.634   7.569   5.775  0.7696 -0.5519 -2.5696
11292TIP3   OH233820   2.437   7.171   0.366 -0.2804 -0.1254 -0.3976
11292TIP3    H133821   2.500   7.099   0.367 -0.8022 -0.5703  0.4265
11292TIP3    H233822   2.492   7.250   0.374  0.1612 -0.5191  0.6272
11293TIP3   OH233823   3.897   2.846   6.030 -0.1273 -0.3446  0.1642
11293TIP3    H133824   3.925   2.824   6.119  2.4133  1.5081 -0.0804
11293TIP3    H233825   3.801   2.846   6.035 -0.3089 -4.8993  1.6441
11294TIP3   OH233826   6.762   2.625   0.633 -0.4970  0.1625  0.0700
11294TIP3    H133827   6.810   2.680   0.694 -0.2361 -0.6185  0.5774
11294TIP3    H233828   6.680   2.603   0.679 -1.0348  0.8952 -0.5064
11295TIP3   OH233829   7.621   3.468   0.703  0.3468 -0.0267  0.4900
11295TIP3    H133830   7.535   3.497   0.733 -0.2372 -0.4749 -0.6709
11295TIP3    H233831   7.615   3.373   0.702  0.8887 -0.0635  0.4787
11296TIP3   OH233832   4.412   4.201   0.329 -0.2523 -0.0127 -0.7381
11296TIP3    H133833   4.486   4.261   0.312 -0.9763  0.7634 -1.2458
11296TIP3    H233834   4.361   4.245   0.397  0.3472 -1.1021  0.4625
11297TIP3   OH233835   4.781   7.775   1.572 -0.5146 -0.2334  0.1866
11297TIP3    H133836   4.790   7.714   1.498 -1.1212  0.4367 -0.4610
11297TIP3    H233837   4.809   7.859   1.536  0.7310 -0.1822  1.1963
11298TIP3   OH233838   0.611   6.660   5.390  0.0533 -0.0963 -0.0280
11298TIP3    H133839   0.562   6.578   5.400  0.3283 -0.4944 -1.6474
11298TIP3    H233840   0.702   6.635   5.408 -0.0265  0.1411  0.7245
11299TIP3   OH233841   8.199   6.569   3.908  0.0360 -0.2419 -0.4211
11299TIP3    H133842   8.115   6.596   3.871 -0.7992 -0.4677  1.2088
11299TIP3    H233843   8.182   6.483   3.947  1.7482 -1.6024 -2.4068
11300TIP3   OH233844   7.236   1.203   0.216 -0.1071  0.3323  0.3401
11300TIP3    H133845   7.189   1.286   0.213  0.3876  0.5850 -0.4518
11300TIP3    H233846   7.221   1.171   0.306 -1.4302  0.6078  0.2405
11301TIP3   OH233847   1.834   2.585   0.753  0.0264 -0.1323 -0.2743
11301TIP3    H133848   1.903   2.538   0.800  0.4386 -0.1774 -0.9118
11301TIP3    H233849   1.856   2.572   0.660 -0.3832  0.5327 -0.4650
11302TIP3   OH233850   3.907   6.845   4.542  0.1536  0.8007 -0.4144
11302TIP3    H133851   3.976   6.779   4.554  0.5845  0.7485 -2.6464
11302TIP3    H233852   3.857   6.844   4.624  0.4212 -1.9765 -0.2083
11303TIP3   OH233853   3.176   0.680   2.679  0.7358 -0.1289 -0.1863
11303TIP3    H133854   3.208   0.608   2.625  0.1371 -0.4353 -0.1377
11303TIP3    H233855   3.128   0.736   2.618 -1.7736 -1.5596  0.3388
11304TIP3   OH233856   1.082   1.737   2.852  0.3141 -0.7571  0.3826
11304TIP3    H133857   1.101   1.701   2.766 -0.5835 -2.4253  0.8334
11304TIP3    H233858   0.986   1.744   2.855  0.4115  0.8909  0.6500
11305TIP3   OH233859   6.783   1.611   1.447  0.9878  0.7052 -0.0305
11305TIP3    H133860   6.698   1.582   1.480  1.3290 -0.5326 -0.1818
11305TIP3    H233861   6.799   1.695   1.491 -0.3553  1.0105 -0.0960
11306TIP3   OH233862   5.945   3.182   1.591 -0.6689  0.3887 -0.0461
11306TIP3    H133863   5.906   3.228   1.517 -0.4059  0.3561 -0.2067
11306TIP3    H233864   5.871   3.160   1.648 -1.0628 -0.8316 -0.9761
11307TIP3   OH233865   7.739   1.155   5.293 -0.0311  0.3857  0.0612
11307TIP3    H133866   7.676   1.119   5.355  0.8122 -2.2061 -0.4581
11307TIP3    H233867   7.794   1.213   5.346 -0.6098 -0.1465  1.2825
11308TIP3   OH233868   6.198   6.416   4.629 -0.0754  0.0988  0.3195
11308TIP3    H133869   6.147   6.422   4.549  0.7838 -1.7347 -0.4249
11308TIP3    H233870   6.244   6.332   4.622  0.9600  0.4536  2.1760
11309TIP3   OH233871   1.420   4.047   0.630 -0.1691  0.3756  0.1145
11309TIP3    H133872   1.478   4.017   0.560 -1.3569 -1.0410 -0.3184
11309TIP3    H233873   1.478   4.088   0.694  1.1294  0.2560 -0.9380
11310TIP3   OH233874   3.598   5.299   2.078 -0.1036 -0.1893  0.1190
11310TIP3    H133875   3.509   5.273   2.054 -0.0480 -1.0198  0.7535
11310TIP3    H233876   3.653   5.227   2.047  0.1826 -0.3284  0.9246
11311TIP3   OH233877   3.943   6.803   5.673 -0.3585  0.2582  0.9407
11311TIP3    H133878   3.875   6.814   5.738 -0.3110  0.3305  0.9780
11311TIP3    H233879   3.958   6.708   5.669 -2.3168 -0.0535 -0.9543
11312TIP3   OH233880   3.415   2.942   4.911  0.3341 -0.1196 -0.4601
11312TIP3    H133881   3.322   2.947   4.889  0.0896  0.8580  0.6797
11312TIP3    H233882   3.417   2.934   5.007  1.4360  2.5073 -0.1782
11313TIP3   OH233883   1.575   4.722   3.241  0.3274 -0.7981  0.1880
11313TIP3    H133884   1.594   4.633   3.213 -2.1461 -0.5124 -2.9386
11313TIP3    H233885   1.481   4.724   3.258  0.1887  1.3233 -0.4515
11314TIP3   OH233886   1.754   1.421   6.486  0.0949  0.1222 -0.0431
11314TIP3    H133887   1.689   1.447   6.551 -0.0537 -0.0581 -0.1184
11314TIP3    H233888   1.803   1.351   6.528 -2.0874 -2.2948 -1.2658
11315TIP3   OH233889   0.516   2.214   6.636  0.2595  0.7934  0.1819
11315TIP3    H133890   0.452   2.144   6.621  2.3837 -1.2059 -0.1129
11315TIP3    H233891   0.483   2.288   6.586 -0.4114 -1.0481 -2.2832
11316TIP3   OH233892   3.639   0.587   5.991  0.4533 -0.2123 -0.1021
11316TIP3    H133893   3.628   0.496   6.020 -0.8454 -0.6128 -1.7202
11316TIP3    H233894   3.631   0.639   6.071 -2.1005 -1.3130  0.4304
11317TIP3   OH233895   6.868   0.963   6.609  0.0485 -0.2603 -0.1834
11317TIP3    H133896   6.890   1.056   6.604 -0.0054 -0.1732  1.0974
11317TIP3    H233897   6.870   0.934   6.517 -0.6261  1.1479 -0.6773
11318TIP3   OH233898   8.022   2.428   2.480 -0.3245  0.5438 -0.1067
11318TIP3    H133899   8.083   2.454   2.412  0.9434  0.5770  0.9965
11318TIP3    H233900   7.973   2.507   2.501 -0.4579  0.6203 -0.7003
11319TIP3   OH233901   6.225   4.615   6.509 -0.7455  0.1688 -0.1977
11319TIP3    H133902   6.205   4.522   6.502 -1.5873  0.2988  0.3416
11319TIP3    H233903   6.246   4.628   6.601 -2.5830  0.8591  0.1683
11320TIP3   OH233904   5.671   5.212   1.485 -0.0565 -0.0887  0.3739
11320TIP3    H133905   5.652   5.245   1.397  0.8997 -2.0518 -0.6710
11320TIP3    H233906   5.593   5.231   1.536 -2.1654 -1.9544 -1.8746
11321TIP3   OH233907   5.226   0.433   2.473 -0.3757 -0.0080 -0.1058
11321TIP3    H133908   5.160   0.466   2.534  0.1531  0.6741  0.1149
11321TIP3    H233909   5.180   0.428   2.389 -0.6113  0.8945 -0.0490
11322TIP3   OH233910   0.470   5.727   0.869 -0.0904 -0.2066 -0.4170
11322TIP3    H133911   0.418   5.651   0.843 -0.4132  0.0243 -0.4508
11322TIP3    H233912   0.561   5.696   0.865 -0.1178 -0.1808 -1.8206
11323TIP3   OH233913   0.624   0.802   1.544  0.7597 -0.0225  0.1721
11323TIP3    H133914   0.716   0.789   1.566  1.3985 -0.3314 -2.3311
11323TIP3    H233915   0.601   0.887   1.580  2.8173  1.2361 -1.3270
11324TIP3   OH233916   5.572   1.972   5.333  0.1905  0.1976 -0.1548
11324TIP3    H133917   5.515   1.929   5.270 -1.0982  1.1520  0.3210
11324TIP3    H233918   5.564   2.065   5.314 -0.5327  0.5361  1.6392
11325TIP3   OH233919   0.695   3.877   0.804  0.1276  0.3863  0.6437
11325TIP3    H133920   0.748   3.799   0.793 -0.2129  0.3485 -0.8780
11325TIP3    H233921   0.752   3.938   0.852  1.7121  0.4808 -1.2388
11326TIP3   OH233922   1.208   6.658   6.487 -0.4835 -0.0386  0.7946
11326TIP3    H133923   1.155   6.718   6.434  0.3688  0.2392  0.2432
11326TIP3    H233924   1.253   6.714   6.549  1.9430  0.2183 -1.0620
11327TIP3   OH233925   7.332   7.122   4.567 -0.2442 -0.0677  0.1894
11327TIP3    H133926   7.368   7.039   4.535 -3.2001 -0.6648 -2.0639
11327TIP3    H233927   7.381   7.189   4.520  0.0558 -0.6822 -0.3963
11328TIP3   OH233928   4.405   4.901   0.913  0.6152 -0.4277  0.0863
11328TIP3    H133929   4.346   4.827   0.903 -1.0390  0.7245  0.9069
11328TIP3    H233930   4.450   4.885   0.996  1.6506 -1.3966 -0.6272
11329TIP3   OH233931   7.049  -0.007   1.894 -0.1331  0.3771  0.7630
11329TIP3    H133932   6.974  -0.017   1.952 -0.9209  2.3543  0.1553
11329TIP3    H233933   7.013   0.029   1.814  1.4593  1.3447  0.4363
11330TIP3   OH233934   1.550   3.818   2.772  0.5748 -0.1610 -0.1143
11330TIP3    H133935   1.641   3.845   2.757  0.4661  0.5075  0.3526
11330TIP3    H233936   1.556   3.745   2.833  0.8405 -0.6550 -0.7300
11331TIP3   OH233937   1.559   5.146   3.968  0.4928  0.1490  0.3016
11331TIP3    H133938   1.643   5.144   3.922  0.1536  0.5409 -0.3448
11331TIP3    H233939   1.497   5.107   3.907  0.6071 -2.4209  1.6725
11332TIP3   OH233940   0.413   6.301   3.184 -0.9222 -0.1315  0.2459
11332TIP3    H133941   0.326   6.322   3.218 -0.6184  0.2354  0.8071
11332TIP3    H233942   0.401   6.295   3.089 -1.1557  2.0033  0.0935
11333TIP3   OH233943   4.195   5.380   5.247 -0.1346  0.8684 -0.2615
11333TIP3    H133944   4.135   5.425   5.307 -0.3923 -0.8624  0.8584
11333TIP3    H233945   4.137   5.337   5.183  0.1439  2.8131 -1.9045
11334TIP3   OH233946   7.227   0.683   6.170 -0.4891  0.1514  0.5988
11334TIP3    H133947   7.150   0.736   6.148 -0.8764 -0.6971 -0.1761
11334TIP3    H233948   7.288   0.698   6.098 -0.7925 -0.7880  0.1209
11335TIP3   OH233949   0.026   1.280   4.864  0.0180 -0.0530 -0.4207
11335TIP3    H133950   0.043   1.186   4.857 -1.0960 -0.3443  0.5216
11335TIP3    H233951   0.113   1.319   4.869  0.5214 -0.9537 -1.5546
11336TIP3   OH233952   0.913   5.345   2.897  0.1294 -0.3321  0.1853
11336TIP3    H133953   0.907   5.250   2.908  0.5882 -0.4368 -0.4591
11336TIP3    H233954   1.005   5.362   2.880 -0.0984  0.1316 -0.6314
11337TIP3   OH233955   7.557   2.015   1.602  0.1494  0.1994 -0.0584
11337TIP3    H133956   7.629   1.978   1.654 -0.5561  1.2019  1.7181
11337TIP3    H233957   7.550   2.106   1.632 -0.6628  0.6732 -1.5498
11338TIP3   OH233958   7.037   4.289   1.033 -0.2471  0.1537  0.1216
11338TIP3    H133959   7.008   4.376   1.006 -0.2543  0.3270  0.6657
11338TIP3    H233960   6.978   4.229   0.989  1.2240  0.2696 -2.2098
11339TIP3   OH233961   5.970   1.108   5.052 -0.1096  0.0293  0.9920
11339TIP3    H133962   5.886   1.130   5.013  0.6385  0.7666 -0.2378
11339TIP3    H233963   6.006   1.192   5.081  0.7791 -0.0982  0.3084
11340TIP3   OH233964   4.586   6.178   4.122  0.5592  0.5060 -0.7388
11340TIP3    H133965   4.648   6.161   4.193 -0.5112 -1.7236 -0.2477
11340TIP3    H233966   4.502   6.189   4.166  0.2451  1.3581 -1.5352
11341TIP3   OH233967   3.023   3.964   4.283  0.5284  0.2010 -0.5559
11341TIP3    H133968   2.947   3.916   4.316 -0.2814  0.8683 -1.3743
11341TIP3    H233969   3.073   3.987   4.361  0.5126 -1.2543 -0.0987
11342TIP3   OH233970   4.906   7.063   3.342 -0.3307 -0.0514 -0.1188
11342TIP3    H133971   4.916   7.068   3.437  0.7497  0.8279 -0.2519
11342TIP3    H233972   4.987   7.100   3.308  0.3138 -2.4977 -1.4072
11343TIP3   OH233973   5.387   3.821   3.775  0.5167  0.7078  0.1548
11343TIP3    H133974   5.476   3.806   3.745  1.0980  2.5639  0.8546
11343TIP3    H233975   5.375   3.916   3.770 -1.4941  0.4897 -0.0926
11344TIP3   OH233976   1.494   4.163   1.091  0.0239 -0.3695  0.3097
11344TIP3    H133977   1.419   4.211   1.054 -1.1229 -1.1783  1.4805
11344TIP3    H233978   1.523   4.105   1.020  0.8772  1.3769 -0.8343
11345TIP3   OH233979   3.683   2.891   6.451  0.0871 -0.7725 -0.1452
11345TIP3    H133980   3.669   2.972   6.499 -0.2536 -0.0678 -1.4067
11345TIP3    H233981   3.613   2.888   6.386  1.3000 -1.0151 -1.4909
11346TIP3   OH233982   0.061   7.571   0.312 -0.0550 -0.2148  0.2359
11346TIP3    H133983   0.066   7.558   0.407  0.3415 -0.5226  0.1766
11346TIP3    H233984  -0.026   7.539   0.288  0.6455 -2.1943  0.1952
11347TIP3   OH233985   0.154   6.184   4.120 -0.4641 -0.2689  0.0638
11347TIP3    H133986   0.100   6.263   4.124  0.7071  0.5550  0.3018
11347TIP3    H233987   0.244   6.217   4.116 -0.0143 -1.5040 -2.7268
11348TIP3   OH233988   6.492   5.392   1.185  0.4799 -0.0614 -0.4635
11348TIP3    H133989   6.511   5.401   1.279  0.2968  1.7908 -0.5710
11348TIP3    H233990   6.517   5.302   1.164  0.3946 -0.5600  1.3861
11349TIP3   OH233991   7.241   4.177   6.620 -0.1420 -0.4242  0.0332
11349TIP3    H133992   7.279   4.198   6.705 -0.5785  1.3185 -0.1626
11349TIP3    H233993   7.165   4.235   6.612 -0.7272 -1.3016 -1.1031
11350TIP3   OH233994   6.650   0.831   3.525 -0.5858 -0.2956 -0.3556
11350TIP3    H133995   6.710   0.858   3.455 -1.0673  0.4681 -0.4876
11350TIP3    H233996   6.566   0.870   3.501 -1.3797 -2.0586 -0.6208
11351TIP3   OH233997   8.036   1.511   5.223  0.0953  0.3215  0.4376
11351TIP3    H133998   8.096   1.437   5.229  0.8416  0.8248 -0.5993
11351TIP3    H233999   7.978   1.489   5.150 -0.9961 -0.1476  1.4102
11352TIP3   OH234000   1.750   2.884   4.450  0.0550 -0.3820  0.2497
11352TIP3    H134001   1.801   2.884   4.368 -0.5543  1.3699 -0.1686
11352TIP3    H234002   1.789   2.954   4.502 -1.6140  0.6786  0.1094
11353TIP3   OH234003   0.925   1.102   3.497  0.9139 -0.4923  0.0933
11353TIP3    H134004   0.978   1.059   3.430  1.9753 -1.4293  1.4602
11353TIP3    H234005   0.843   1.052   3.499  1.3849 -1.2630  0.3580
11354TIP3   OH234006   1.679   1.978   2.165 -0.1042  0.3553  0.2446
11354TIP3    H134007   1.688   2.067   2.130  2.1641 -0.4994 -1.5808
11354TIP3    H234008   1.724   1.981   2.250 -0.2443  0.9830  0.3061
11355TIP3   OH234009   7.797   7.211   3.704  0.1198 -0.4893  0.7279
11355TIP3    H134010   7.834   7.155   3.636 -0.7798 -1.3725  0.9283
11355TIP3    H234011   7.711   7.236   3.671  0.9027  1.6966  0.1810
11356TIP3   OH234012   2.073   0.053   0.066 -0.0479  0.4093  0.1197
11356TIP3    H134013   1.986   0.092   0.057  0.0009  0.5967  0.4459
11356TIP3    H234014   2.134   0.122   0.037 -0.0391  0.0287 -0.8095
11357TIP3   OH234015   4.363   2.117   2.800  0.0762 -0.1237 -0.4806
11357TIP3    H134016   4.343   2.145   2.890  1.1254 -2.2814  0.5219
11357TIP3    H234017   4.329   2.028   2.795 -0.7241  0.2507 -2.5578
11358TIP3   OH234018   6.474   2.283   3.678  0.1501 -0.5283  0.5881
11358TIP3    H134019   6.567   2.304   3.677  0.8513 -3.1419  1.1911
11358TIP3    H234020   6.443   2.307   3.591  1.8136 -1.1599 -0.2306
11359TIP3   OH234021   0.944   0.193   3.245  0.0418 -0.0625 -0.0015
11359TIP3    H134022   0.938   0.105   3.209 -1.9567  0.5604 -1.3146
11359TIP3    H234023   0.995   0.242   3.181 -0.8704  0.2868 -0.4802
11360TIP3   OH234024   2.343   6.022   1.958  0.2094  0.3790 -0.0338
11360TIP3    H134025   2.378   6.050   2.043 -1.0194  2.2597 -0.0900
11360TIP3    H234026   2.298   5.940   1.976  1.3119 -0.0766  0.7890
11361TIP3   OH234027   1.380   5.033   1.672  0.8509  0.1152  0.9101
11361TIP3    H134028   1.338   4.963   1.623  1.1801  0.3084  0.3343
11361TIP3    H234029   1.348   5.023   1.762 -0.0057 -0.0544  0.5960
11362TIP3   OH234030   3.297   5.883   6.400 -0.2793 -0.0631  0.0457
11362TIP3    H134031   3.210   5.843   6.404 -1.1007  1.3871 -1.6881
11362TIP3    H234032   3.283   5.974   6.428  0.8000  0.0118  0.3680
11363TIP3   OH234033   0.235   6.400   0.677  0.2960  0.2831 -0.5275
11363TIP3    H134034   0.256   6.397   0.770 -0.3749 -0.4467 -0.3816
11363TIP3    H234035   0.143   6.426   0.674  0.8705  2.3736 -1.0969
11364TIP3   OH234036   6.359   6.319   6.251  0.0530  0.0690 -0.4331
11364TIP3    H134037   6.295   6.369   6.201 -0.3023  1.2434  1.1137
11364TIP3    H234038   6.392   6.254   6.190 -1.1178  0.7650 -1.8618
11365TIP3   OH234039   6.788   3.584   0.706  0.1062  0.0983 -0.3494
11365TIP3    H134040   6.796   3.675   0.735  1.9405 -0.4512  0.9952
11365TIP3    H234041   6.807   3.587   0.613 -0.6425  1.1710 -0.4956
11366TIP3   OH234042   0.409   0.290   1.702 -0.1930  0.3464 -0.0109
11366TIP3    H134043   0.338   0.347   1.733 -0.1091 -1.0041  3.0177
11366TIP3    H234044   0.364   0.223   1.650 -0.8460  0.6981  0.0841
11367TIP3   OH234045   1.073   6.051   5.438  0.3271  0.5523 -0.5463
11367TIP3    H134046   0.981   6.072   5.422 -0.5346 -0.8868  2.0483
11367TIP3    H234047   1.096   6.100   5.517  1.5671  0.2494 -0.6977
11368TIP3   OH234048   3.023   6.603   3.652 -0.0790 -0.1807 -0.9752
11368TIP3    H134049   3.095   6.653   3.613  0.1419  0.6655  0.4646
11368TIP3    H234050   3.059   6.514   3.661  0.4615  0.0143 -1.1372
11369TIP3   OH234051   4.516   3.616   4.168 -0.2042 -0.1116  0.6969
11369TIP3    H134052   4.498   3.605   4.074  0.7495  0.5698  0.4217
11369TIP3    H234053   4.580   3.687   4.172 -2.6296  2.1465  2.1089
11370TIP3   OH234054   0.688   4.000   1.733 -0.4104  0.2131  0.0626
11370TIP3    H134055   0.619   4.055   1.768 -0.3508  1.2373 -1.3420
11370TIP3    H234056   0.670   3.996   1.639 -0.0754 -1.7071  0.0331
11371TIP3   OH234057   1.696   0.062   5.240  0.3485 -0.3396 -0.1268
11371TIP3    H134058   1.649   0.107   5.311  1.0723  0.3736 -0.0827
11371TIP3    H234059   1.629   0.044   5.174  0.0417  0.8485 -0.1564
11372TIP3   OH234060   4.117   6.351   0.574 -0.2302 -0.0927  0.2693
11372TIP3    H134061   4.132   6.347   0.480  1.4178 -1.2801  0.5446
11372TIP3    H234062   4.146   6.266   0.607 -0.2310  0.5086  1.9219
11373TIP3   OH234063   7.537   2.166   0.988  0.1131  0.6260 -0.2615
11373TIP3    H134064   7.521   2.076   0.961  1.3868  0.0450  0.8356
11373TIP3    H234065   7.454   2.211   0.971 -0.6851 -0.8469 -0.4113
11374TIP3   OH234066   6.250   2.438   1.698  0.2694  0.3700 -0.2966
11374TIP3    H134067   6.207   2.523   1.712  0.0516  0.1596  0.3359
11374TIP3    H234068   6.216   2.382   1.768  1.0404 -0.0019 -0.2084
11375TIP3   OH234069   2.660   7.758   4.936 -0.2843 -0.0299 -0.3829
11375TIP3    H134070   2.573   7.784   4.905 -0.2143  1.1739  0.3560
11375TIP3    H234071   2.692   7.834   4.985  0.7570 -0.8403  0.2462
11376TIP3   OH234072   4.884   5.319   2.856  0.5058  0.2238  0.1414
11376TIP3    H134073   4.979   5.332   2.845  0.7567 -0.5731  1.2314
11376TIP3    H234074   4.847   5.406   2.842  1.4140  0.5910 -0.0755
11377TIP3   OH234075   0.011   0.076   0.482 -0.3475  0.0247 -0.2625
11377TIP3    H134076  -0.036   0.023   0.417  1.9920 -0.3416 -1.7734
11377TIP3    H234077   0.069   0.014   0.526 -1.4366  0.3919  1.8302
11378TIP3   OH234078   7.706   2.593   5.119 -0.3551  0.1119 -0.3993
11378TIP3    H134079   7.710   2.563   5.209  0.0898  0.4879 -0.2884
11378TIP3    H234080   7.768   2.536   5.072 -1.5554 -0.9502 -0.7315
11379TIP3   OH234081   4.480   3.762   4.482  0.7239 -0.3763  0.0963
11379TIP3    H134082   4.505   3.781   4.572 -0.1420  0.0365  0.2630
11379TIP3    H234083   4.554   3.713   4.446  1.1658 -0.3632  0.9629
11380TIP3   OH234084   6.422   7.724   2.435  0.1043 -0.5185  0.2443
11380TIP3    H134085   6.411   7.652   2.373 -0.5373  0.9238 -1.4231
11380TIP3    H234086   6.426   7.682   2.521 -0.5505 -2.4988 -0.6329
11381TIP3   OH234087   6.998   0.314   4.282  0.1176  0.0781  0.1622
11381TIP3    H134088   6.999   0.319   4.377 -0.6357  0.3137  0.1631
11381TIP3    H234089   6.970   0.225   4.262 -0.0665  0.1347  0.1648
11382TIP3   OH234090   4.762   1.501   0.320 -0.0694  0.1962 -0.3313
11382TIP3    H134091   4.693   1.546   0.271 -0.6563  1.4342  1.5226
11382TIP3    H234092   4.739   1.408   0.314 -0.6270  0.3811 -1.5743
11383TIP3   OH234093   7.224   6.543   1.659 -0.4067  0.5713 -0.1690
11383TIP3    H134094   7.140   6.588   1.644  0.0885  1.9569  0.9979
11383TIP3    H234095   7.288   6.597   1.613 -0.2057 -0.8977 -1.6918
11384TIP3   OH234096   3.284   7.059   3.087 -0.2897 -0.4577  0.4693
11384TIP3    H134097   3.215   6.997   3.064 -1.7108  0.6376  1.5876
11384TIP3    H234098   3.318   7.027   3.171  1.4261 -1.6393 -0.6079
11385TIP3   OH234099   1.063   6.242   6.611  0.2267 -0.4177  0.6298
11385TIP3    H134100   1.042   6.177   6.678 -0.8199 -0.6561  0.0839
11385TIP3    H234101   1.076   6.191   6.531  3.5930 -0.3731  0.9980
11386TIP3   OH234102   8.048   2.162   1.013 -0.9040 -0.4337 -0.2419
11386TIP3    H134103   8.051   2.122   1.100 -1.8648  0.9266  0.4487
11386TIP3    H234104   7.997   2.242   1.025  1.2951  1.2658 -1.4787
11387TIP3   OH234105   8.018   3.532   2.666  0.0257 -0.2854 -0.2328
11387TIP3    H134106   7.950   3.540   2.599 -2.4922  0.1502  2.2356
11387TIP3    H234107   7.979   3.478   2.734  1.9412  0.5069  1.5994
11388TIP3   OH234108   2.245   0.025   5.721 -0.4336  0.3588 -0.6411
11388TIP3    H134109   2.282   0.062   5.641 -1.1133  0.8113 -0.7535
11388TIP3    H234110   2.184   0.092   5.752 -0.3364  0.0927  0.1359
11389TIP3   OH234111   6.799   4.748   1.892  0.1619 -0.0896 -0.8200
11389TIP3    H134112   6.769   4.766   1.803 -0.6561  0.2189 -0.4869
11389TIP3    H234113   6.831   4.832   1.925 -0.9314  0.1501 -0.3071
11390TIP3   OH234114   7.490   4.699   1.562 -0.0508 -0.4463  0.2071
11390TIP3    H134115   7.536   4.714   1.645  0.8108 -1.3916 -0.0775
11390TIP3    H234116   7.402   4.735   1.576 -0.1307 -1.1623  1.7577
11391TIP3   OH234117   6.179   7.176   4.290 -0.3536  0.2605 -0.2975
11391TIP3    H134118   6.127   7.239   4.340  1.5806  3.1169 -1.6328
11391TIP3    H234119   6.265   7.179   4.330 -0.3470 -2.1565  0.0153
11392TIP3   OH234120   4.579   5.194   3.521  0.2802  0.0743  0.0783
11392TIP3    H134121   4.493   5.195   3.480 -0.3147  1.0964  1.3060
11392TIP3    H234122   4.618   5.111   3.493 -1.3338 -0.6755 -0.0321
11393TIP3   OH234123   1.266   2.043   3.223  0.2034  0.3139 -0.3187
11393TIP3    H134124   1.201   2.114   3.230  0.5165  0.7073 -1.2630
11393TIP3    H234125   1.350   2.088   3.225  0.4726 -0.2233  1.2163
11394TIP3   OH234126   3.983   4.176   4.841  0.0897 -0.1226  0.1145
11394TIP3    H134127   4.035   4.146   4.767 -1.8729 -0.6396 -1.1238
11394TIP3    H234128   3.918   4.235   4.803  0.4039  1.3834  1.7636
11395TIP3   OH234129   4.117   7.159   6.205  0.0510 -0.5096 -0.3634
11395TIP3    H134130   4.024   7.143   6.189  0.2133 -0.7335 -1.1026
11395TIP3    H234131   4.157   7.072   6.202  0.1563 -0.5160  0.8539
11396TIP3   OH234132   5.400   1.370   0.458  0.0831  0.0862  0.3399
11396TIP3    H134133   5.494   1.382   0.443  0.5004 -2.1135  0.8600
11396TIP3    H234134   5.384   1.405   0.545  0.3301  0.7964  0.1060
11397TIP3   OH234135   5.872   5.323   4.810 -0.0190  0.2249 -0.1432
11397TIP3    H134136   5.844   5.256   4.747 -0.3186 -1.0976  1.3129
11397TIP3    H234137   5.960   5.348   4.782 -0.1510 -0.3422 -1.0869
11398TIP3   OH234138   0.675   6.294   0.211  0.0161 -0.2212  0.7718
11398TIP3    H134139   0.691   6.218   0.267 -1.2295 -1.4761 -0.4778
11398TIP3    H234140   0.757   6.305   0.162  0.6518  0.0818  1.8628
11399TIP3   OH234141   5.032   6.769   0.397 -0.3842 -0.2734 -0.7017
11399TIP3    H134142   4.983   6.775   0.316 -1.5085  0.2265 -0.0128
11399TIP3    H234143   5.123   6.785   0.372 -0.4347 -1.9077 -2.1081
11400TIP3   OH234144   6.436   4.952   3.313 -0.7224  0.3538  0.4458
11400TIP3    H134145   6.369   4.893   3.277 -0.6407  0.8155 -0.5019
11400TIP3    H234146   6.494   4.970   3.239 -0.6853  1.5366  0.7430
11401TIP3   OH234147   7.486   7.777   1.843 -0.0750 -0.0517  0.5280
11401TIP3    H134148   7.570   7.820   1.827 -0.6085  0.6649 -0.5004
11401TIP3    H234149   7.508   7.685   1.852  0.8242  0.1222  0.2441
11402TIP3   OH234150   6.110   4.659   5.818  0.1722 -0.2796 -0.4167
11402TIP3    H134151   6.154   4.598   5.760  1.1314  0.0143 -0.0107
11402TIP3    H234152   6.165   4.738   5.816 -0.5872  0.2688 -0.2722
11403TIP3   OH234153   0.552   6.243   1.215  0.2279 -0.2894  0.7245
11403TIP3    H134154   0.612   6.246   1.290  0.4978  1.1895  0.4910
11403TIP3    H234155   0.609   6.228   1.139  0.0126 -1.2723  0.7472
11404TIP3   OH234156   0.373   3.199   1.551  0.6184 -0.3709 -0.2828
11404TIP3    H134157   0.406   3.273   1.602  2.4511 -1.4493  0.2053
11404TIP3    H234158   0.285   3.225   1.524  1.2564  2.0464 -0.2774
11405TIP3   OH234159   3.263   0.248   4.789  0.2018 -0.1363  0.1033
11405TIP3    H134160   3.297   0.336   4.808  1.3435 -0.1736 -1.6118
11405TIP3    H234161   3.187   0.239   4.847  0.3316  1.8060  0.6365
11406TIP3   OH234162   4.047   6.320   2.896  0.3051 -0.2146 -0.0689
11406TIP3    H134163   4.086   6.406   2.881  1.4068 -0.5491  0.7606
11406TIP3    H234164   4.112   6.273   2.948 -0.7771 -1.1548  0.4702
11407TIP3   OH234165   5.469   4.549   2.949  0.2156  0.3115  0.4075
11407TIP3    H134166   5.490   4.621   3.009  0.5662  0.8709 -0.3547
11407TIP3    H234167   5.466   4.471   3.004 -0.0657  0.8966  1.2384
11408TIP3   OH234168   2.800   5.993   4.974  0.8172 -0.0174  0.7156
11408TIP3    H134169   2.867   5.927   4.953  0.4110 -0.2256  0.0722
11408TIP3    H234170   2.753   6.007   4.892 -0.2950 -0.2776  1.2925
11409TIP3   OH234171   7.193   3.709   2.560 -0.2182  0.0407  0.2631
11409TIP3    H134172   7.137   3.786   2.564 -1.5857 -0.7723 -1.6951
11409TIP3    H234173   7.265   3.734   2.503 -0.9633 -0.2587 -0.8450
11410TIP3   OH234174   4.597   1.618   3.123 -0.3215  0.2350 -0.0611
11410TIP3    H134175   4.613   1.682   3.053  2.8835 -0.8710 -0.4625
11410TIP3    H234176   4.655   1.645   3.194  3.9451 -3.8815 -1.4804
11411TIP3   OH234177   0.594   6.168   1.675  0.5790 -0.1976 -0.4616
11411TIP3    H134178   0.628   6.190   1.588 -0.4204  0.7353 -0.6276
11411TIP3    H234179   0.521   6.228   1.688 -0.5753 -1.6847  0.1727
11412TIP3   OH234180   3.759   7.301   6.028  0.2427  0.0071  0.2755
11412TIP3    H134181   3.749   7.281   5.935 -0.2100  1.2051  0.0606
11412TIP3    H234182   3.795   7.220   6.066 -1.6781 -1.2908 -0.5233
11413TIP3   OH234183   5.623   7.769   5.698  0.5733  0.4401 -0.2245
11413TIP3    H134184   5.557   7.701   5.685  0.5597  0.2011  0.9625
11413TIP3    H234185   5.628   7.814   5.614  0.6164 -1.0538 -1.0455
11414TIP3   OH234186   5.920   3.630   4.740 -0.0220 -0.8756  0.0004
11414TIP3    H134187   5.867   3.601   4.666  0.0207 -1.5364  0.2232
11414TIP3    H234188   6.010   3.627   4.708  0.2125 -3.2832  0.7179
11415TIP3   OH234189   3.412   2.320   2.244 -0.6482 -0.1481  0.3522
11415TIP3    H134190   3.427   2.408   2.278  1.4949 -0.6196  0.7393
11415TIP3    H234191   3.476   2.310   2.174 -0.5100 -1.5862  0.6649
11416TIP3   OH234192   2.091   5.514   4.525 -0.3262 -0.4980 -0.0259
11416TIP3    H134193   2.169   5.486   4.477  0.8674  1.9611  0.3368
11416TIP3    H234194   2.022   5.519   4.458  0.9656  1.5540 -1.3158
11417TIP3   OH234195   2.146   5.985   0.528  0.3352 -0.4123  0.1446
11417TIP3    H134196   2.205   5.909   0.529 -0.1142 -0.7663  0.2564
11417TIP3    H234197   2.060   5.948   0.510  0.4622  0.3504 -2.3788
11418TIP3   OH234198   7.629   4.703   4.285  0.0528  0.2178  0.5230
11418TIP3    H134199   7.722   4.715   4.304 -0.1851  3.6186  0.1149
11418TIP3    H234200   7.593   4.791   4.281 -3.4919 -0.9608  1.8385
11419TIP3   OH234201   0.770   1.874   5.421  0.0315  0.4689  0.3594
11419TIP3    H134202   0.688   1.913   5.392 -0.0733  0.5445  0.7507
11419TIP3    H234203   0.776   1.792   5.372 -0.4735  0.2707  0.6220
11420TIP3   OH234204   6.777   2.370   0.233 -0.1505 -0.3484  0.0406
11420TIP3    H134205   6.718   2.368   0.308 -0.3588  1.1391 -0.0492
11420TIP3    H234206   6.728   2.327   0.162 -1.2396  1.0235 -0.0831
11421TIP3   OH234207   0.280   3.449   2.819  0.2338 -0.4894 -0.3681
11421TIP3    H134208   0.250   3.456   2.910 -0.2340 -1.5721 -0.4272
11421TIP3    H234209   0.250   3.530   2.778 -0.5635 -0.5013  0.1606
11422TIP3   OH234210   1.958   1.843   6.013 -0.0028  0.3944  0.2087
11422TIP3    H134211   1.963   1.870   5.921 -2.3256 -0.2952 -0.1998
11422TIP3    H234212   1.864   1.837   6.030  0.1743  3.7397  3.6194
11423TIP3   OH234213   5.052   7.028   5.782 -0.7691 -0.2066  0.7219
11423TIP3    H134214   5.052   7.001   5.690 -0.2845  2.1764 -0.0411
11423TIP3    H234215   5.144   7.040   5.803 -0.9184 -0.1230  1.3305
11424TIP3   OH234216   6.630   0.207   3.424 -0.2604 -0.3241  0.1615
11424TIP3    H134217   6.714   0.162   3.411 -0.5895 -0.8743 -0.1176
11424TIP3    H234218   6.640   0.291   3.380 -0.3804 -1.0138 -1.2201
11425TIP3   OH234219   2.287   4.945   0.062  0.3088  0.1188 -0.6627
11425TIP3    H134220   2.277   4.969   0.154  0.0484 -0.2567 -0.5930
11425TIP3    H234221   2.360   4.999   0.031  0.1618  0.5090 -0.3340
11426TIP3   OH234222   5.037   1.652   0.825 -0.4258  0.2060 -0.1333
11426TIP3    H134223   5.027   1.735   0.872 -0.0670 -0.3370  0.9271
11426TIP3    H234224   5.108   1.668   0.763  0.6109  0.2817  1.0408
11427TIP3   OH234225   5.711   6.071   1.166 -0.0427 -0.2915 -0.4013
11427TIP3    H134226   5.782   6.119   1.209 -0.9136  0.9318 -0.2828
11427TIP3    H234227   5.717   6.095   1.073 -0.3303 -0.1479 -0.3845
11428TIP3   OH234228   4.062   4.228   5.940  0.3795  0.2287 -0.4539
11428TIP3    H134229   3.973   4.263   5.946  0.4838  0.3685  0.5699
11428TIP3    H234230   4.053   4.147   5.891 -0.0759  1.0124 -1.7108
11429TIP3   OH234231   6.402   2.193   3.399  0.1307  0.2069  0.8755
11429TIP3    H134232   6.380   2.168   3.310  1.2450 -0.5049  0.7927
11429TIP3    H234233   6.469   2.260   3.390 -1.0668  1.5072  1.1608
11430TIP3   OH234234   1.129   4.025   5.311  0.2180  0.4693 -0.6958
11430TIP3    H134235   1.047   3.976   5.306  0.1354  0.2562  1.6572
11430TIP3    H234236   1.193   3.971   5.264 -0.0671 -1.5252  1.0755
11431TIP3   OH234237   6.070   1.630   4.873  0.3721 -0.1720  0.0289
11431TIP3    H134238   5.992   1.575   4.860  0.0138 -0.0818  1.6519
11431TIP3    H234239   6.037   1.720   4.870  0.6191 -0.0941 -0.4859
11432TIP3   OH234240   0.806  -0.023   0.121 -0.9731  0.0618 -0.2013
11432TIP3    H134241   0.745  -0.030   0.048 -0.5163 -0.8680 -0.5165
11432TIP3    H234242   0.851   0.060   0.107  0.3097 -0.8515 -1.9898
11433TIP3   OH234243   6.336   0.957   1.200 -0.0139  0.6355 -0.1278
11433TIP3    H134244   6.403   1.013   1.161 -1.0674  3.0580  1.3400
11433TIP3    H234245   6.365   0.868   1.180  2.0798  1.6467 -2.0161
11434TIP3   OH234246   1.657   7.089   3.647  0.1423 -0.0731 -0.2551
11434TIP3    H134247   1.716   7.039   3.703  1.2933  0.4119 -0.9963
11434TIP3    H234248   1.704   7.098   3.564  0.4108  2.9521  0.1178
11435TIP3   OH234249  -0.012   4.072   1.843  0.3258 -0.4810  0.1930
11435TIP3    H134250  -0.036   3.981   1.857  0.5272 -0.4087  1.0677
11435TIP3    H234251   0.079   4.078   1.871  0.1314  0.1138  0.7160
11436TIP3   OH234252   6.608   6.819   6.081 -0.1077 -0.1222 -0.0753
11436TIP3    H134253   6.634   6.873   6.007 -2.3037  2.3801  0.8335
11436TIP3    H234254   6.522   6.785   6.057 -1.3479  1.5875  1.6263
11437TIP3   OH234255   4.789   3.580   0.981  0.4139  0.4236  0.1143
11437TIP3    H134256   4.835   3.531   0.913 -0.0945 -0.2673  0.2678
11437TIP3    H234257   4.847   3.653   1.000  1.6172 -0.6168  0.5410
11438TIP3   OH234258   0.397   3.545   5.753  0.4472  0.0106 -0.3880
11438TIP3    H134259   0.478   3.584   5.720 -1.5693  3.3634 -1.8450
11438TIP3    H234260   0.353   3.616   5.799 -1.6448 -1.7499  0.4984
11439TIP3   OH234261   7.756   0.053   2.380  0.5148 -0.4077  0.0563
11439TIP3    H134262   7.719   0.012   2.302  3.7569 -0.7064 -1.5002
11439TIP3    H234263   7.745   0.147   2.366 -1.5103 -0.4831  0.7426
11440TIP3   OH234264   2.409   3.605   6.552  0.3056  0.2423  0.3932
11440TIP3    H134265   2.427   3.520   6.513 -1.8907 -1.0666  1.9550
11440TIP3    H234266   2.323   3.630   6.518 -0.5833  0.1832  2.4246
11441TIP3   OH234267   1.784  -0.008   3.365  0.1638  0.1669  0.0373
11441TIP3    H134268   1.847   0.031   3.304 -0.0493 -1.9194 -1.6576
11441TIP3    H234269   1.702   0.037   3.346  0.6359  1.2975  0.6202
11442TIP3   OH234270   2.746   6.679   6.660  0.2000 -0.6380  0.1006
11442TIP3    H134271   2.789   6.723   6.734  0.8299  0.7285 -1.0262
11442TIP3    H234272   2.679   6.742   6.632 -1.1697 -1.8593  0.5207
11443TIP3   OH234273   2.754   6.226   2.350  0.6443 -0.4291  0.2232
11443TIP3    H134274   2.761   6.143   2.302 -1.4553 -1.6133  1.7688
11443TIP3    H234275   2.707   6.285   2.291  0.7946 -0.8431 -0.3169
11444TIP3   OH234276   3.975   0.455   6.235 -0.2624  0.2917 -0.3702
11444TIP3    H134277   3.929   0.511   6.298  0.8577  0.9347 -0.1013
11444TIP3    H234278   3.944   0.367   6.255 -1.2599  0.6882 -0.1028
11445TIP3   OH234279   4.113   1.135   0.146  0.1803 -0.1754  0.2615
11445TIP3    H134280   4.139   1.141   0.054 -0.0602  1.5182  0.2655
11445TIP3    H234281   4.057   1.058   0.151 -0.5698  0.2554 -1.2122
11446TIP3   OH234282   4.192   4.759   5.209  0.8491  0.3950  0.4064
11446TIP3    H134283   4.276   4.805   5.205  0.4140  1.1006 -1.8087
11446TIP3    H234284   4.187   4.712   5.126 -1.4210  1.2518  0.0002
11447TIP3   OH234285   3.805   0.060   4.075  0.0192 -0.0822 -0.1624
11447TIP3    H134286   3.734   0.074   4.139 -0.1702  2.5648 -0.8191
11447TIP3    H234287   3.766   0.084   3.991  1.3361  0.1275 -0.7314
11448TIP3   OH234288   5.025   2.014   6.044  0.2893  0.3084  0.1602
11448TIP3    H134289   4.963   2.061   5.988  1.1729  0.7391 -0.4964
11448TIP3    H234290   4.972   1.954   6.095 -0.6931  0.8961 -0.1549
11449TIP3   OH234291   0.988   4.778   6.616  0.5931  0.1083 -0.9632
11449TIP3    H134292   1.005   4.685   6.599  4.6368  0.8742 -2.2478
11449TIP3    H234293   1.048   4.800   6.688 -0.8668  1.6052 -0.1473
11450TIP3   OH234294   4.550   7.420   3.612 -0.4944  0.2164 -0.1766
11450TIP3    H134295   4.633   7.406   3.658 -0.4173  0.2919 -0.2916
11450TIP3    H234296   4.544   7.514   3.601 -0.7450  0.2330  0.0983
11451TIP3   OH234297   1.160   0.159   1.617  0.1249 -0.1190 -0.0758
11451TIP3    H134298   1.139   0.080   1.668 -1.0074 -0.3777 -0.9080
11451TIP3    H234299   1.171   0.127   1.528  3.6274  0.0929  0.1484
11452TIP3   OH234300   3.149   3.210   5.197 -0.0145 -0.2021 -1.0361
11452TIP3    H134301   3.231   3.249   5.166  1.1135 -1.1453  0.6173
11452TIP3    H234302   3.133   3.252   5.282 -2.1830  1.1812 -2.0476
11453TIP3   OH234303   6.189   6.855   5.900  0.7382 -0.0952 -0.1458
11453TIP3    H134304   6.148   6.781   5.944  0.1473  0.2726 -0.0608
11453TIP3    H234305   6.252   6.890   5.963 -0.1964  0.5102  0.4739
11454TIP3   OH234306   0.966   5.177   6.029 -0.4619 -0.1622 -0.2577
11454TIP3    H134307   1.060   5.179   6.012 -0.6741  1.8222 -1.6415
11454TIP3    H234308   0.949   5.255   6.081 -1.4156 -0.1824 -0.5134
11455TIP3   OH234309   4.133   2.014   5.483  0.1828 -0.4604  0.5574
11455TIP3    H134310   4.224   2.036   5.501  0.0776  0.0999  0.4057
11455TIP3    H234311   4.102   1.972   5.563  0.6419 -0.8905  0.5189
11456TIP3   OH234312   6.303   7.828   5.656  0.6985  0.1325 -0.3194
11456TIP3    H134313   6.389   7.858   5.625  0.9199 -1.9171 -1.8680
11456TIP3    H234314   6.320   7.741   5.693 -0.3111  0.7793  1.8027
11457TIP3   OH234315   1.534   0.823   2.839  0.1527 -0.1101  0.0429
11457TIP3    H134316   1.584   0.864   2.768 -0.1679 -0.4361 -0.3792
11457TIP3    H234317   1.456   0.877   2.848  0.4446  0.2393  0.5143
11458TIP3   OH234318   0.826   0.161   2.587 -0.1275 -0.4709  0.1118
11458TIP3    H134319   0.849   0.076   2.624  2.6067  0.2032  0.1252
11458TIP3    H234320   0.731   0.157   2.576 -0.0699 -3.5996 -0.1016
11459TIP3   OH234321   3.050   1.807   3.444 -0.5113 -0.0110 -0.5108
11459TIP3    H134322   3.022   1.755   3.520  0.5744 -2.4273 -1.6692
11459TIP3    H234323   3.137   1.839   3.467 -0.4926 -0.1103 -0.4441
11460TIP3   OH234324   6.232   1.015   4.000  0.1155  0.2011  0.5932
11460TIP3    H134325   6.197   1.102   3.980  1.2608  0.1652 -1.9622
11460TIP3    H234326   6.169   0.954   3.962  0.4876  0.0048  0.2772
11461TIP3   OH234327   3.136   7.475   3.274 -0.3789  0.2469  0.0118
11461TIP3    H134328   3.138   7.413   3.201  0.1044 -0.6939  0.7912
11461TIP3    H234329   3.227   7.499   3.288 -0.5035  0.6698  0.1021
11462TIP3   OH234330   2.937   3.257   1.391 -0.5245  0.2440  0.4481
11462TIP3    H134331   2.907   3.171   1.361  0.8258 -0.3225  0.6186
11462TIP3    H234332   3.033   3.252   1.385 -0.4255  1.8178  0.2695
11463TIP3   OH234333   0.786   5.141   4.046  0.5375 -0.3748 -0.2630
11463TIP3    H134334   0.814   5.052   4.024 -0.3950 -0.1796 -2.6127
11463TIP3    H234335   0.858   5.197   4.017  0.9865 -0.3175  0.9191
11464TIP3   OH234336   2.049   2.448   0.387  0.0659 -0.2393 -0.2184
11464TIP3    H134337   1.996   2.437   0.308  1.0497 -0.7508 -0.8362
11464TIP3    H234338   2.124   2.390   0.374  0.4061 -0.0993  0.9635
11465TIP3   OH234339   4.774   4.573   0.462 -0.5654  0.9166 -0.1179
11465TIP3    H134340   4.767   4.493   0.514 -0.0902  0.6770 -0.4187
11465TIP3    H234341   4.833   4.550   0.390  0.4282  1.8342  0.3720
11466TIP3   OH234342   2.106   1.213   1.285  0.1344 -0.2912  0.0114
11466TIP3    H134343   2.045   1.187   1.354  1.2154  0.2374  1.2125
11466TIP3    H234344   2.191   1.216   1.329  0.8117  0.2939 -1.2979
11467TIP3   OH234345   5.905   2.957   3.915 -0.2089  0.2759 -0.2854
11467TIP3    H134346   5.926   2.920   4.000 -0.5455 -0.8708 -0.6848
11467TIP3    H234347   5.971   3.026   3.902  0.0853  0.2038  0.7096
11468TIP3   OH234348   7.584   6.633   2.737  0.4898  0.2957  0.6601
11468TIP3    H134349   7.621   6.552   2.704 -0.2534 -0.3200  1.3091
11468TIP3    H234350   7.622   6.643   2.824 -1.5105 -0.8548  1.7500
11469TIP3   OH234351   5.539   0.742   2.680  0.5783 -0.0304  0.3839
11469TIP3    H134352   5.623   0.711   2.646 -0.1431 -0.5247 -0.9843
11469TIP3    H234353   5.474   0.707   2.620 -0.5887  0.7218  1.1749
11470TIP3   OH234354   2.604   2.185   6.334 -0.3875 -0.0251  0.0977
11470TIP3    H134355   2.642   2.117   6.389  1.4293 -0.3320 -1.4346
11470TIP3    H234356   2.552   2.136   6.269  2.1540 -0.1816 -1.9580
11471TIP3   OH234357   6.588   0.360   3.849 -0.0534 -0.6414  0.2799
11471TIP3    H134358   6.502   0.371   3.890 -0.7466 -0.6567 -1.1098
11471TIP3    H234359   6.650   0.391   3.915 -1.1716  0.0771  1.0328
11472TIP3   OH234360   4.837   1.286   3.672  0.5711 -0.1533 -0.6900
11472TIP3    H134361   4.827   1.373   3.635  0.6127 -0.8869 -2.5434
11472TIP3    H234362   4.773   1.283   3.743  0.8204  1.4865 -0.3545
11473TIP3   OH234363   1.198   7.672   5.110 -0.0384  0.4647  0.0741
11473TIP3    H134364   1.181   7.745   5.051 -0.0741 -0.7918 -1.5269
11473TIP3    H234365   1.293   7.672   5.121  0.3099 -1.0041 -2.3548
11474TIP3   OH234366   0.763   0.998   5.423 -0.2522  0.4462 -0.1501
11474TIP3    H134367   0.779   0.979   5.331 -0.1068  1.5133 -0.3559
11474TIP3    H234368   0.850   1.010   5.461 -0.3541  1.3511 -0.1809
11475TIP3   OH234369   3.107   5.818   1.137  0.0770  0.1138 -0.2398
11475TIP3    H134370   3.016   5.793   1.121  0.4125 -1.5149  0.2483
11475TIP3    H234371   3.158   5.741   1.114  1.3734  1.0428 -0.6365
11476TIP3   OH234372   6.860   6.529   0.033  0.2442  0.7551  0.1511
11476TIP3    H134373   6.917   6.512   0.108  0.8883  0.1007 -0.4647
11476TIP3    H234374   6.792   6.587   0.067 -0.5506 -1.0017  1.7225
11477TIP3   OH234375   0.347   7.818   1.851 -0.1601 -0.4544  0.2844
11477TIP3    H134376   0.384   7.730   1.853  0.2141 -0.2941  0.5056
11477TIP3    H234377   0.268   7.813   1.906  0.0982 -0.5456  0.6483
11478TIP3   OH234378   7.570   2.944   2.383 -0.4221  0.0042  0.1107
11478TIP3    H134379   7.478   2.969   2.397 -0.4714  0.1547 -0.4778
11478TIP3    H234380   7.589   2.883   2.455 -2.1337 -3.1181 -1.8523
11479TIP3   OH234381   6.269   5.343   0.183  0.0856  0.5368 -0.2952
11479TIP3    H134382   6.245   5.357   0.275 -1.0273 -0.3746 -0.4075
11479TIP3    H234383   6.330   5.413   0.162  1.3313  0.0398  1.4956
11480TIP3   OH234384   4.829   3.123   6.582  0.0605 -0.3127 -0.2056
11480TIP3    H134385   4.893   3.100   6.514 -1.2109 -0.0983 -1.5108
11480TIP3    H234386   4.777   3.193   6.544 -1.7895 -1.3277  0.3265
11481TIP3   OH234387   0.758   2.962   5.461 -0.2252 -0.2527 -0.1891
11481TIP3    H134388   0.735   3.022   5.391 -0.4231 -0.2595 -0.1292
11481TIP3    H234389   0.682   2.905   5.471 -0.9563  0.9304  1.2931
11482TIP3   OH234390   4.033   5.392   4.487  0.2398  0.5264 -0.5910
11482TIP3    H134391   4.043   5.300   4.510 -1.5050  0.0325 -1.6583
11482TIP3    H234392   4.060   5.398   4.395  0.7491  1.1927 -0.4161
11483TIP3   OH234393   1.521   1.576   3.154  0.1486 -0.0420  0.5663
11483TIP3    H134394   1.575   1.646   3.118  1.3923 -0.7478  0.9801
11483TIP3    H234395   1.476   1.616   3.228  1.5851  0.1129  1.3968
11484TIP3   OH234396   1.498   3.389   1.404  0.2179  0.1308 -0.0392
11484TIP3    H134397   1.508   3.458   1.339  1.9681  1.4111  1.5006
11484TIP3    H234398   1.488   3.309   1.352  1.8294  1.0484 -1.9067
11485TIP3   OH234399   2.801   0.900   4.117  0.3038 -0.5596  0.1679
11485TIP3    H134400   2.766   0.849   4.190  0.3419  0.0665  0.6280
11485TIP3    H234401   2.846   0.836   4.062 -0.8176 -1.2544  0.0127
11486TIP3   OH234402   0.941   0.397   5.072 -0.0959 -0.0864  0.1355
11486TIP3    H134403   0.939   0.487   5.104 -0.3442  0.3867 -1.1848
11486TIP3    H234404   0.851   0.378   5.046 -0.8419 -1.8698  3.3527
11487TIP3   OH234405   2.584   2.651   0.693  0.4811 -0.6402 -0.1417
11487TIP3    H134406   2.632   2.675   0.773 -0.0634 -1.5093  0.4654
11487TIP3    H234407   2.649   2.654   0.624  0.8383  0.7423  0.2135
11488TIP3   OH234408   3.227   3.592   2.319  0.5010  0.5531 -0.1323
11488TIP3    H134409   3.271   3.615   2.237 -0.2469 -0.8414 -0.9681
11488TIP3    H234410   3.150   3.648   2.321  0.9139  1.1255  0.0080
11489TIP3   OH234411   3.336   7.024   0.210  0.3458 -0.4571  0.3774
11489TIP3    H134412   3.276   7.071   0.152 -0.4867 -1.2415  0.5889
11489TIP3    H234413   3.386   7.094   0.253 -1.4052  0.3267  1.2635
11490TIP3   OH234414   6.115   1.569   6.747 -0.2184  0.2114  0.3193
11490TIP3    H134415   6.185   1.519   6.706  0.3702  1.3775 -0.1249
11490TIP3    H234416   6.043   1.565   6.684 -0.0635  0.2027  0.1444
11491TIP3   OH234417   5.574   1.633   2.865 -0.0788 -0.0998  0.1594
11491TIP3    H134418   5.668   1.625   2.883 -0.3826 -0.6992  1.6501
11491TIP3    H234419   5.535   1.562   2.916 -1.5573  1.5980  1.4850
11492TIP3   OH234420   2.456   1.011   5.866 -0.3317  0.2433 -0.5511
11492TIP3    H134421   2.391   0.997   5.797  0.1193 -1.0470 -0.7427
11492TIP3    H234422   2.511   1.082   5.833 -1.2332  0.8989 -0.6782
11493TIP3   OH234423   5.579   4.371   1.182  0.6358 -0.5978  0.2140
11493TIP3    H134424   5.672   4.393   1.183  0.8709 -1.3676 -1.7732
11493TIP3    H234425   5.535   4.456   1.190  1.4822 -0.1860  0.7070
11494TIP3   OH234426   7.566   5.747   2.435 -0.6871  0.8882 -0.2720
11494TIP3    H134427   7.647   5.797   2.425  0.6776 -1.4600 -1.6630
11494TIP3    H234428   7.530   5.741   2.346 -1.5197  0.4733  0.0774
11495TIP3   OH234429   0.093   5.491   0.142 -0.4832  0.3677  0.1519
11495TIP3    H134430   0.034   5.461   0.212  1.0999  0.3413  1.5461
11495TIP3    H234431   0.180   5.489   0.182  0.6410 -0.5938 -2.1253
11496TIP3   OH234432   1.926   2.979   5.861 -0.1628 -0.4534 -0.1736
11496TIP3    H134433   2.020   2.970   5.870 -0.1737 -2.5820 -1.4511
11496TIP3    H234434   1.910   2.978   5.766 -1.4520  0.3486 -0.0035
11497TIP3   OH234435   8.275   7.083   5.791  0.1466  0.1517 -0.1006
11497TIP3    H134436   8.317   7.102   5.876  1.1321 -3.6922  0.4684
11497TIP3    H234437   8.192   7.043   5.814 -0.1336  0.1905 -1.0221
11498TIP3   OH234438   1.902   6.586   1.901 -0.8174 -0.1237  0.2249
11498TIP3    H134439   1.931   6.571   1.811 -2.1684 -0.7601 -0.1240
11498TIP3    H234440   1.907   6.681   1.912  1.0235 -0.1589  0.0907
11499TIP3   OH234441   2.980   5.701   2.429  0.5014  0.3313  0.0870
11499TIP3    H134442   2.910   5.704   2.364  1.9217  0.2158 -1.5212
11499TIP3    H234443   2.947   5.642   2.497 -0.1747 -1.3509 -1.6225
11500TIP3   OH234444   4.068   3.970   2.564 -0.0120 -0.0803  0.1527
11500TIP3    H134445   3.973   3.977   2.577  0.1562 -0.3819  1.7546
11500TIP3    H234446   4.093   4.052   2.523 -0.6075  1.2136  2.2181
11501TIP3   OH234447   5.486   6.362   2.308  0.8407  0.0028  0.1719
11501TIP3    H134448   5.474   6.447   2.267  1.6848  0.0726  0.0386
11501TIP3    H234449   5.400   6.320   2.303  0.4663  0.7633  0.0649
11502TIP3   OH234450   1.564   3.045   1.424  0.1011  0.2906  0.0693
11502TIP3    H134451   1.592   2.969   1.372 -1.2060 -1.4818  1.8073
11502TIP3    H234452   1.493   3.084   1.372 -0.1086 -0.4852 -0.2448
11503TIP3   OH234453   2.532   6.145   6.678 -0.8339 -0.7828 -0.1781
11503TIP3    H134454   2.556   6.191   6.758  3.3016 -0.4728 -1.3609
11503TIP3    H234455   2.550   6.053   6.699  0.6687 -0.6579 -0.7585
11504TIP3   OH234456   5.606   7.154   5.696 -1.0043 -0.2577  0.0165
11504TIP3    H134457   5.638   7.112   5.776  1.2084 -1.0983 -1.2318
11504TIP3    H234458   5.652   7.238   5.693 -0.1525 -0.7428 -0.9415
11505TIP3   OH234459   1.152   3.894   4.415  0.3154 -0.2703 -0.5095
11505TIP3    H134460   1.148   3.931   4.327  1.3330  1.0895 -0.0085
11505TIP3    H234461   1.073   3.841   4.422 -2.9315  4.1254 -0.2457
11506TIP3   OH234462   7.052   0.045   0.149 -0.0797 -0.1830  0.1268
11506TIP3    H134463   7.058   0.051   0.054 -1.1549  0.3819  0.0894
11506TIP3    H234464   7.086   0.129   0.180 -0.1092 -0.2118  0.2367
11507TIP3   OH234465   2.497   2.587   3.862  0.0695  0.4839 -0.4190
11507TIP3    H134466   2.448   2.507   3.847  0.7946  0.1999 -1.3875
11507TIP3    H234467   2.588   2.560   3.863  0.3240  1.2898 -0.7633
11508TIP3   OH234468   5.784   4.553   0.706 -0.3309 -0.3454 -0.0204
11508TIP3    H134469   5.718   4.488   0.733 -0.1482  0.1179  1.6894
11508TIP3    H234470   5.802   4.602   0.786  0.1876  1.2494 -1.0735
11509TIP3   OH234471   4.574   2.545   3.249 -0.1200  0.9556  0.5992
11509TIP3    H134472   4.566   2.628   3.201 -0.2573  0.2405 -0.6360
11509TIP3    H234473   4.648   2.501   3.208 -1.2331 -0.3775 -0.0392
11510TIP3   OH234474   4.873   0.882   1.065  0.5696 -0.3342 -0.0211
11510TIP3    H134475   4.828   0.850   1.143  1.2068  0.8221  0.8560
11510TIP3    H234476   4.898   0.803   1.017 -0.7266 -1.0331  0.4160
11511TIP3   OH234477   7.936   3.657   4.473 -0.0764 -0.1339  0.3005
11511TIP3    H134478   7.884   3.592   4.521 -1.6219  0.5009 -0.4604
11511TIP3    H234479   7.973   3.607   4.400 -0.9353 -0.2649 -0.0587
11512TIP3   OH234480   5.114   4.327   0.632 -0.1438  0.5453  0.2137
11512TIP3    H134481   5.063   4.401   0.662  0.7155  0.5690  1.7398
11512TIP3    H234482   5.198   4.365   0.604  0.4104  0.1540  1.2816
11513TIP3   OH234483   6.252   1.589   5.110 -0.2820  0.2120 -0.0866
11513TIP3    H134484   6.282   1.675   5.141  0.8003  0.8682 -2.6690
11513TIP3    H234485   6.209   1.608   5.027 -3.7500 -1.3402  1.1438
11514TIP3   OH234486   1.299   3.393   4.843  0.1777 -0.1005 -0.1395
11514TIP3    H134487   1.334   3.466   4.792 -0.9889 -0.2707 -1.2305
11514TIP3    H234488   1.207   3.388   4.817  0.1788 -1.8065  0.0882
11515TIP3   OH234489   7.596   5.305   1.185  0.3656  0.2261 -0.2890
11515TIP3    H134490   7.626   5.232   1.240 -0.0398 -0.5238 -1.0374
11515TIP3    H234491   7.672   5.328   1.132  0.3103 -0.0848 -0.5054
11516TIP3   OH234492   2.437   2.311   2.314  0.0598  0.3147 -0.3551
11516TIP3    H134493   2.357   2.323   2.365 -0.0675 -2.2727  0.2271
11516TIP3    H234494   2.485   2.392   2.325 -0.9221  0.6510  2.1968
11517TIP3   OH234495   6.353   4.585   0.478 -0.1744 -0.4001  0.0840
11517TIP3    H134496   6.330   4.492   0.482  1.2753 -1.0432 -3.3216
11517TIP3    H234497   6.306   4.618   0.402  2.2868  0.6312 -1.0949
11518TIP3   OH234498   4.617   2.923   4.979 -0.1347  0.6093  0.1466
11518TIP3    H134499   4.596   3.017   4.978 -1.4678  0.3514  1.1347
11518TIP3    H234500   4.573   2.889   5.057  2.9929 -0.2919  1.7070
11519TIP3   OH234501   2.322   3.040   1.469 -0.6686  0.6716 -0.2118
11519TIP3    H134502   2.272   3.043   1.388  0.0850  0.9429 -0.6871
11519TIP3    H234503   2.409   3.072   1.444 -0.3613  0.5459  0.6567
11520TIP3   OH234504   6.612   2.831   0.826 -0.2074 -0.2488 -0.8697
11520TIP3    H134505   6.575   2.818   0.739 -0.1206  1.1087 -1.1332
11520TIP3    H234506   6.537   2.844   0.883 -0.2311  0.0076 -0.9569
11521TIP3   OH234507   2.365   0.238   1.641 -0.2617  0.0407 -0.2807
11521TIP3    H134508   2.394   0.253   1.552  0.3767  0.0566 -0.0749
11521TIP3    H234509   2.285   0.290   1.650 -0.0682  0.4110 -0.6928
11522TIP3   OH234510   5.040   5.867   4.447  0.0470 -0.2098  0.4003
11522TIP3    H134511   5.058   5.810   4.373  1.1660  2.7880 -1.8170
11522TIP3    H234512   4.950   5.897   4.433  0.1202  0.0550  0.4923
11523TIP3   OH234513   5.725   5.469   6.672  0.1792 -0.1198 -0.2180
11523TIP3    H134514   5.802   5.474   6.615 -1.4381  0.2630 -2.4644
11523TIP3    H234515   5.683   5.554   6.664 -0.0381  0.0105  1.7374
11524TIP3   OH234516   5.758   1.907   1.424  0.2847 -0.7096 -0.1416
11524TIP3    H134517   5.784   1.862   1.505  3.4334  0.9787 -0.0344
11524TIP3    H234518   5.810   1.864   1.356 -0.5967 -0.6071 -0.8903
11525TIP3   OH234519   4.692   6.195   2.232  0.0497 -0.2987 -0.0294
11525TIP3    H134520   4.787   6.200   2.238  0.0413 -0.3818  0.2097
11525TIP3    H234521   4.675   6.139   2.157  0.1912 -0.4063  0.0191
11526TIP3   OH234522   2.740   2.907   6.662  0.0134  0.4874 -0.0630
11526TIP3    H134523   2.673   2.969   6.633  0.1962  0.4232 -0.6345
11526TIP3    H234524   2.772   2.867   6.581  0.6576  0.4371  0.2124
11527TIP3   OH234525   4.354   2.807   4.854 -0.6132  0.6417  0.0542
11527TIP3    H134526   4.281   2.861   4.824 -0.4903  0.9629  0.3297
11527TIP3    H234527   4.429   2.866   4.857 -0.4945  0.4787  0.4318
11528TIP3   OH234528   2.394   1.697   2.703  0.1204 -0.1511  0.0295
11528TIP3    H134529   2.400   1.789   2.729  0.1714  0.1419 -0.9805
11528TIP3    H234530   2.476   1.658   2.733  0.3236  0.2586  0.0094
11529TIP3   OH234531   8.125   0.248   4.625 -0.2310  0.2112  0.0688
11529TIP3    H134532   8.080   0.181   4.676 -0.8928  0.4254 -0.2268
11529TIP3    H234533   8.165   0.201   4.552 -0.8962  0.1651 -0.2728
11530TIP3   OH234534   1.325   3.443   0.981  0.2378  0.2195 -0.3622
11530TIP3    H134535   1.391   3.467   1.047  0.0291 -0.9751  0.3018
11530TIP3    H234536   1.377   3.413   0.906  0.4611  0.5929 -0.3631
11531TIP3   OH234537   1.241   2.872   0.229  0.6597  0.4402  0.6112
11531TIP3    H134538   1.335   2.873   0.212  0.9528 -0.4788  2.0614
11531TIP3    H234539   1.231   2.820   0.308 -1.3314 -1.8050 -0.9670
11532TIP3   OH234540   3.429   3.637   2.131 -0.0973 -0.5164 -0.2842
11532TIP3    H134541   3.470   3.644   2.044  1.1363 -1.3666  0.1945
11532TIP3    H234542   3.470   3.559   2.170 -1.0581 -0.4778  0.8385
11533TIP3   OH234543   2.233   0.527   4.856  0.4625 -0.1624  0.1706
11533TIP3    H134544   2.162   0.463   4.864 -0.2622  0.6422  0.2947
11533TIP3    H234545   2.287   0.512   4.933  0.6602 -1.0531 -0.1304
11534TIP3   OH234546   3.538   7.393   2.986  0.0216 -0.1605  0.2246
11534TIP3    H134547   3.514   7.455   2.917 -1.0189  1.3974  1.8860
11534TIP3    H234548   3.609   7.436   3.033  1.7044 -1.8409 -0.6774
11535TIP3   OH234549   4.251   5.723   0.811 -0.2429 -0.9298  0.2850
11535TIP3    H134550   4.306   5.648   0.836 -3.2240 -3.5017 -0.1803
11535TIP3    H234551   4.267   5.735   0.717  1.5890  0.3381  0.7042
11536TIP3   OH234552   6.468   4.983   0.442  0.0262 -0.1699  0.4218
11536TIP3    H134553   6.459   4.918   0.373 -2.3417 -1.0786  1.4670
11536TIP3    H234554   6.543   5.037   0.416  0.3563 -1.6268 -1.8502
11537TIP3   OH234555   3.220   5.564   4.789  0.2923  0.2629  0.0503
11537TIP3    H134556   3.256   5.573   4.701 -0.1595 -0.2616 -0.2039
11537TIP3    H234557   3.251   5.641   4.837 -0.3869  1.1528 -0.8965
11538TIP3   OH234558   1.807   1.579   3.512  0.3183  0.0799 -0.1650
11538TIP3    H134559   1.720   1.569   3.550  0.2684  0.4284 -0.1791
11538TIP3    H234560   1.838   1.664   3.545  1.1100 -0.5410  0.7364
11539TIP3   OH234561   1.265   3.493   4.434 -0.8319  0.2244 -0.1051
11539TIP3    H134562   1.241   3.404   4.460 -1.3289  0.3660 -0.0481
11539TIP3    H234563   1.303   3.531   4.513  1.3820 -0.5956 -0.7123
11540TIP3   OH234564   3.266   1.002   5.668  0.1456  0.1392 -0.4533
11540TIP3    H134565   3.178   0.985   5.702  0.6853 -0.3663  0.7598
11540TIP3    H234566   3.321   1.010   5.747  1.4318 -0.9433 -1.2069
11541TIP3   OH234567   7.763   5.185   2.851  0.0929 -0.5512 -0.1765
11541TIP3    H134568   7.782   5.092   2.838  0.2575 -0.4247 -0.8689
11541TIP3    H234569   7.796   5.228   2.772  0.0175  0.0973  0.1362
11542TIP3   OH234570   8.093   7.608   6.123 -0.8561  0.4295 -0.1907
11542TIP3    H134571   8.106   7.640   6.033  1.6438 -2.5633 -1.0803
11542TIP3    H234572   8.165   7.646   6.172 -0.5642 -0.1313 -0.1707
11543TIP3   OH234573   0.939   2.545   6.112  0.3773 -0.0622  0.2028
11543TIP3    H134574   0.923   2.622   6.167  2.6507  1.1030 -0.6501
11543TIP3    H234575   1.001   2.493   6.162  1.4091  0.3388 -0.6243
11544TIP3   OH234576   2.056   5.891   1.260  0.3634 -0.8029  0.3677
11544TIP3    H134577   2.085   5.821   1.202 -1.5713 -1.4693  0.1051
11544TIP3    H234578   2.062   5.971   1.207  0.7466 -1.0654  0.0124
11545TIP3   OH234579   2.473   4.244   4.382  0.2186  0.6839  0.4684
11545TIP3    H134580   2.387   4.236   4.425  0.6223 -0.9225  1.0324
11545TIP3    H234581   2.532   4.270   4.452  0.5133  0.0200  0.4718
11546TIP3   OH234582   2.317   4.808   5.653 -0.4255  0.0048  0.1240
11546TIP3    H134583   2.233   4.823   5.696 -0.6391  0.0574 -0.3041
11546TIP3    H234584   2.332   4.886   5.599 -1.0516 -0.8251 -1.3115
11547TIP3   OH234585   5.144   4.780   6.742 -0.0276  0.2568  0.3199
11547TIP3    H134586   5.184   4.701   6.705  0.2110 -0.0392  1.1967
11547TIP3    H234587   5.195   4.798   6.820 -0.4806  0.9250  0.4635
11548TIP3   OH234588   1.770   0.932   4.593  0.2511  0.2742 -0.4241
11548TIP3    H134589   1.761   0.963   4.683  1.8995  1.9957 -0.7925
11548TIP3    H234590   1.685   0.949   4.553  0.4561  2.5150 -0.0324
11549TIP3   OH234591   4.660   0.902   4.373  0.2511 -0.5851  0.3741
11549TIP3    H134592   4.701   0.912   4.287  1.5452  2.6422  1.2173
11549TIP3    H234593   4.573   0.939   4.362  1.7149  3.6070  1.1683
11550TIP3   OH234594   6.418   5.170   0.024  0.2176  0.0419  0.3090
11550TIP3    H134595   6.367   5.187  -0.056  1.8167 -0.2427 -0.8048
11550TIP3    H234596   6.361   5.200   0.095 -1.2635  0.2724 -0.9223
11551TIP3   OH234597   0.066   7.366   3.057  0.0803  0.4698  0.0496
11551TIP3    H134598   0.048   7.293   3.116  1.1500  1.8126  2.1871
11551TIP3    H234599   0.017   7.346   2.978 -0.7496 -1.8673  1.0721
11552TIP3   OH234600   0.632   3.330   4.826 -0.0250 -0.5788  0.3516
11552TIP3    H134601   0.586   3.347   4.908 -0.9713 -1.3721  0.0021
11552TIP3    H234602   0.650   3.418   4.791  0.9151 -0.2182  1.6621
11553TIP3   OH234603   8.080   6.545   3.636  0.7937  0.4855  0.3132
11553TIP3    H134604   8.020   6.540   3.562  0.0509 -0.4670  0.9532
11553TIP3    H234605   8.143   6.475   3.621 -0.9493 -1.5640  1.8826
11554TIP3   OH234606   0.291   4.132   0.633  0.1297 -0.5062 -0.0469
11554TIP3    H134607   0.262   4.184   0.708 -2.6601 -1.4427 -0.3455
11554TIP3    H234608   0.274   4.041   0.659 -4.0411 -0.7701 -2.7687
11555TIP3   OH234609   0.018   7.199   3.252  0.0429 -0.7636  0.1985
11555TIP3    H134610  -0.009   7.108   3.241  0.6767 -0.7988 -1.3647
11555TIP3    H234611   0.114   7.196   3.249  0.1017  0.2332 -3.1807
11556TIP3   OH234612   1.546   2.093   1.121 -0.3908  0.0358  0.6101
11556TIP3    H134613   1.582   2.084   1.210  0.5174  0.0363  0.2511
11556TIP3    H234614   1.612   2.144   1.074  0.6864 -2.5950 -0.9250
11557TIP3   OH234615   6.230   4.138   5.249 -0.5453  0.4644 -0.1431
11557TIP3    H134616   6.140   4.121   5.222 -0.6871  1.3361 -0.2392
11557TIP3    H234617   6.233   4.109   5.340 -1.3584  1.8317  0.3551
11558TIP3   OH234618   7.063   7.727   1.557  0.1421 -0.3653  0.3330
11558TIP3    H134619   7.139   7.693   1.509  0.9215  0.1611  1.1450
11558TIP3    H234620   7.051   7.816   1.525  1.7893  0.6539  2.2608
11559TIP3   OH234621   5.213   5.044   2.449  0.6727 -0.1173  0.1523
11559TIP3    H134622   5.288   4.992   2.478 -0.1877 -2.0350 -0.8959
11559TIP3    H234623   5.211   5.033   2.354 -0.7908  0.0698  0.1370
11560TIP3   OH234624   5.998   6.271   0.984  0.2650 -0.2416 -0.0084
11560TIP3    H134625   5.938   6.204   0.950  1.3178  0.0486 -2.6989
11560TIP3    H234626   6.085   6.239   0.961  0.7665  2.7490 -3.2080
11561TIP3   OH234627   4.655   4.083   5.651  1.2156  0.2605 -0.2673
11561TIP3    H134628   4.576   4.138   5.644 -0.9723 -2.5860  0.1950
11561TIP3    H234629   4.694   4.108   5.735  0.6772  1.5373 -0.3656
11562TIP3   OH234630   4.436   5.349   5.110  0.3534 -0.3438 -0.4505
11562TIP3    H134631   4.355   5.352   5.162  0.6975  0.0881  0.0701
11562TIP3    H234632   4.503   5.383   5.169  1.6588 -3.9630  0.4687
11563TIP3   OH234633   6.956   7.210   1.036 -0.8428 -0.1268  0.2641
11563TIP3    H134634   6.987   7.224   1.126 -2.2266 -0.6040  0.8467
11563TIP3    H234635   6.961   7.115   1.024  0.3995  0.0252 -0.5885
11564TIP3   OH234636   2.931   3.175   2.213  0.0083 -0.4622 -0.0481
11564TIP3    H134637   3.020   3.167   2.177  1.0469  1.0645  1.9239
11564TIP3    H234638   2.877   3.202   2.138  1.0971 -1.7923 -1.3756
11565TIP3   OH234639   5.890   5.701   5.452  0.1093 -0.0692 -0.8035
11565TIP3    H134640   5.917   5.785   5.415  0.5683 -0.2799 -0.9596
11565TIP3    H234641   5.969   5.668   5.495 -0.7813  0.8776  1.7669
11566TIP3   OH234642   4.030   5.398   6.682 -0.1345  0.5265 -0.2006
11566TIP3    H134643   4.125   5.412   6.682  0.0157 -0.3825 -0.1306
11566TIP3    H234644   4.019   5.316   6.732 -0.8750  0.1556 -0.9638
11567TIP3   OH234645   3.131   3.512   5.354  0.1678 -0.2210 -0.4163
11567TIP3    H134646   3.039   3.519   5.331 -0.3742 -2.0899  0.9441
11567TIP3    H234647   3.145   3.583   5.417  0.2753  1.4136 -2.1634
11568TIP3   OH234648   6.538   5.173   6.163 -0.2754  0.1925 -0.3134
11568TIP3    H134649   6.509   5.171   6.071  0.1551 -1.0212 -0.4389
11568TIP3    H234650   6.634   5.168   6.158 -0.2175  0.6736  0.1982
11569TIP3   OH234651   3.196   2.882   2.750  0.4961 -0.5751 -0.3181
11569TIP3    H134652   3.131   2.949   2.729 -1.5836 -2.7667 -1.4516
11569TIP3    H234653   3.160   2.837   2.827  0.5280 -1.9002 -1.0333
11570TIP3   OH234654   1.538   1.165   5.058 -0.3287  0.0409  0.3471
11570TIP3    H134655   1.492   1.248   5.068  1.5753  1.5480 -2.0491
11570TIP3    H234656   1.526   1.142   4.966  0.9276 -1.2396  0.4586
11571TIP3   OH234657   1.780   5.467   4.870 -0.5862  0.4293 -0.4654
11571TIP3    H134658   1.696   5.435   4.905  0.5290 -4.1333 -1.2913
11571TIP3    H234659   1.767   5.470   4.775  0.6166 -2.4750 -0.8244
11572TIP3   OH234660   2.165   4.906   1.880  0.2323 -0.5403 -0.7145
11572TIP3    H134661   2.095   4.953   1.925 -0.5549 -1.2795 -1.1505
11572TIP3    H234662   2.229   4.887   1.949  0.3093  0.6649 -0.4269
11573TIP3   OH234663   4.614   2.033   3.108 -0.3445  0.1018  0.6105
11573TIP3    H134664   4.577   1.978   3.038 -1.3835  1.0017  0.4183
11573TIP3    H234665   4.605   1.980   3.187  1.1819 -1.0772  0.0350
11574TIP3   OH234666   1.652   4.198   4.442 -0.3191  0.8338 -0.1713
11574TIP3    H134667   1.674   4.227   4.531 -0.8101 -3.7856  1.6993
11574TIP3    H234668   1.587   4.262   4.412 -0.3203  2.4377  2.8421
11575TIP3   OH234669   0.617   7.315   2.407  0.0757  0.0942 -0.0159
11575TIP3    H134670   0.651   7.228   2.390  2.3304  1.0102 -0.5807
11575TIP3    H234671   0.549   7.302   2.473  0.0976 -2.1008 -0.3552
11576TIP3   OH234672   8.080   6.523   4.478 -0.0145  0.1475  0.2935
11576TIP3    H134673   8.044   6.487   4.559  0.0964  0.8798  0.6743
11576TIP3    H234674   8.152   6.464   4.455 -1.1571 -1.0910 -0.2495
11577TIP3   OH234675   2.858   7.214   1.419 -0.2537 -0.0178 -0.0199
11577TIP3    H134676   2.816   7.150   1.477  0.5665 -0.3291  0.2382
11577TIP3    H234677   2.791   7.232   1.352 -0.9510 -0.1827  0.6141
11578TIP3   OH234678   1.076   1.136   0.257  0.1528  0.4256  0.0250
11578TIP3    H134679   1.051   1.208   0.199 -1.0177  0.4028  0.4665
11578TIP3    H234680   1.059   1.169   0.345  0.2031 -0.1639  0.2625
11579TIP3   OH234681   1.374   6.495   2.265  0.2612 -0.0870  0.1346
11579TIP3    H134682   1.330   6.521   2.346  2.8872  1.2353  1.2739
11579TIP3    H234683   1.347   6.561   2.201  0.8093  0.9097  0.9014
11580TIP3   OH234684   7.942   0.062   3.911 -0.0537 -0.6381 -0.3699
11580TIP3    H134685   7.862   0.046   3.862 -0.5835  0.4350  0.1168
11580TIP3    H234686   8.006   0.088   3.845 -0.0772 -1.5446 -0.7637
11581TIP3   OH234687   4.518   0.488   5.971 -0.5850  0.4812  0.8699
11581TIP3    H134688   4.444   0.548   5.973 -0.8209  0.1870  1.0815
11581TIP3    H234689   4.485   0.412   5.922 -0.8773 -0.2332  2.1254
11582TIP3   OH234690   0.711   6.023   5.045 -0.7250  0.6691 -0.2375
11582TIP3    H134691   0.711   5.972   5.126 -2.3089  1.3199  0.2112
11582TIP3    H234692   0.802   6.051   5.034 -0.4720  0.5453  1.3040
11583TIP3   OH234693   7.485   3.501   6.693  0.2447  0.4176 -0.3502
11583TIP3    H134694   7.573   3.488   6.731  0.4074 -0.4052 -0.9851
11583TIP3    H234695   7.500   3.509   6.599 -0.2688  1.3550 -0.3655
11584TIP3   OH234696   2.908   1.669   6.458  0.0354  0.0544  0.6337
11584TIP3    H134697   2.887   1.674   6.551 -0.8104  1.4996  0.3969
11584TIP3    H234698   2.823   1.664   6.414  0.4397 -1.3167 -0.0627
11585TIP3   OH234699   2.458   4.913   3.190  0.2305 -0.0580  0.5710
11585TIP3    H134700   2.382   4.943   3.240 -0.6187 -0.8127 -0.2390
11585TIP3    H234701   2.453   4.961   3.107  1.0303  0.3878  0.7658
11586TIP3   OH234702   2.140   3.309   4.063  0.3951  0.4124 -0.0318
11586TIP3    H134703   2.068   3.287   4.123  2.0804  1.3832  2.5357
11586TIP3    H234704   2.130   3.403   4.048  0.6255  0.3812 -0.3868
11587TIP3   OH234705   1.361   5.060   0.632  0.2311 -0.1197 -0.1963
11587TIP3    H134706   1.274   5.081   0.597  0.0771  0.9603  0.7801
11587TIP3    H234707   1.414   5.040   0.555 -0.4873  0.7020 -0.9240
11588TIP3   OH234708   1.336   3.614   3.101 -0.2088  0.1717  0.3813
11588TIP3    H134709   1.397   3.596   3.030 -0.0234 -0.3231  0.6578
11588TIP3    H234710   1.391   3.625   3.179 -0.3425  1.6668  0.2923
11589TIP3   OH234711   3.512   4.243   4.577 -0.2209  0.1604  0.2918
11589TIP3    H134712   3.473   4.226   4.491  1.9143  0.8334 -0.8790
11589TIP3    H234713   3.486   4.168   4.630 -2.1524  0.0527 -0.7136
11590TIP3   OH234714   5.465   7.635   4.727  0.4304 -0.1078 -0.4526
11590TIP3    H134715   5.399   7.568   4.745  1.5477 -1.1957 -0.2540
11590TIP3    H234716   5.445   7.665   4.639  0.3001 -1.2144 -0.8223
11591TIP3   OH234717   1.812   0.286   5.078  0.8244  0.6182 -0.1124
11591TIP3    H134718   1.824   0.362   5.134  0.2384  0.9321 -0.4038
11591TIP3    H234719   1.776   0.219   5.136  1.3426  0.5544  0.1446
11592TIP3   OH234720   7.012   4.884   2.246  0.0199 -0.1845  0.0209
11592TIP3    H134721   7.094   4.838   2.267 -0.7115 -1.2375  0.6810
11592TIP3    H234722   6.965   4.887   2.329 -0.8852 -0.1380 -0.4837
11593TIP3   OH234723   5.294   4.700   3.441 -0.0889 -0.1169  0.1256
11593TIP3    H134724   5.253   4.712   3.527  1.4229 -1.5428  1.1075
11593TIP3    H234725   5.375   4.751   3.446  1.1357 -1.9682  0.4590
11594TIP3   OH234726   6.334   6.287   1.119 -0.0765  0.1620  0.1002
11594TIP3    H134727   6.345   6.284   1.024  0.3021 -0.7448  0.1595
11594TIP3    H234728   6.361   6.375   1.144  2.5073 -0.4232 -0.3373
11595TIP3   OH234729   6.188   2.999   6.555  0.5372 -0.4929 -0.4036
11595TIP3    H134730   6.177   3.086   6.518 -2.4593 -0.2999  0.6640
11595TIP3    H234731   6.205   2.942   6.480 -0.7358  0.5578 -1.5398
11596TIP3   OH234732   7.114   2.028   6.110 -0.4580  0.5248  0.4303
11596TIP3    H134733   7.178   1.972   6.066 -0.5234  0.8045 -0.0184
11596TIP3    H234734   7.127   2.115   6.071 -3.1240  0.0278 -1.8463
11597TIP3   OH234735   2.307   0.119   4.762 -0.3056 -0.1116  0.0555
11597TIP3    H134736   2.309   0.162   4.848  0.7040 -0.4862  0.2379
11597TIP3    H234737   2.253   0.041   4.776 -1.3112  0.5572 -0.0203
11598TIP3   OH234738   7.283   1.405   1.930 -0.1375 -0.0740  0.0266
11598TIP3    H134739   7.283   1.376   2.022  1.5927  1.1487  0.4635
11598TIP3    H234740   7.198   1.446   1.918 -0.7418 -1.0562  0.8134
11599TIP3   OH234741   4.637   0.902   2.059 -0.0758  0.2008 -0.3684
11599TIP3    H134742   4.684   0.824   2.027  0.2294  0.5551 -0.7893
11599TIP3    H234743   4.657   0.970   1.995 -2.3114  0.0076 -1.3365
11600TIP3   OH234744   2.070   4.012   0.936 -0.3022  0.5595  0.0562
11600TIP3    H134745   2.143   4.064   0.971  1.5235 -1.3385 -0.7139
11600TIP3    H234746   2.041   3.958   1.010 -1.8276  2.1699  0.7022
11601TIP3   OH234747   3.114   3.621   4.321 -0.4397  0.4477  0.4436
11601TIP3    H134748   3.040   3.679   4.308  0.2849  0.9684 -1.6226
11601TIP3    H234749   3.101   3.550   4.259  0.7679  0.5317  0.0696
11602TIP3   OH234750   7.233   1.634   3.889 -0.4177  0.3737  0.1206
11602TIP3    H134751   7.155   1.655   3.941 -1.5206 -1.5577 -0.6751
11602TIP3    H234752   7.204   1.640   3.798  0.3651 -0.4065 -0.1896
11603TIP3   OH234753   5.737   7.524   5.048  0.0524  0.4188 -0.3373
11603TIP3    H134754   5.789   7.558   5.121  1.2054 -0.2219 -0.8275
11603TIP3    H234755   5.719   7.433   5.072  2.7428 -0.6614 -1.9613
11604TIP3   OH234756   3.789   1.622   6.553  0.5253  0.2149 -0.3201
11604TIP3    H134757   3.858   1.683   6.579  0.6644  0.6992 -1.7060
11604TIP3    H234758   3.731   1.675   6.498 -0.0666 -0.5910 -0.4776
11605TIP3   OH234759   7.427   1.801   3.970 -0.0425  0.3361 -0.7367
11605TIP3    H134760   7.466   1.838   3.891 -0.3729  1.7487 -0.2630
11605TIP3    H234761   7.347   1.758   3.940  0.2211  0.2035 -1.2612
11606TIP3   OH234762   4.624   4.322   1.922 -0.0765  0.0968  0.2916
11606TIP3    H134763   4.631   4.405   1.969  0.8600  0.5618 -0.6221
11606TIP3    H234764   4.715   4.299   1.902 -0.4095 -0.4906 -0.5783
11607TIP3   OH234765   6.456   4.282   6.293  0.2390 -0.1613 -0.2601
11607TIP3    H134766   6.526   4.274   6.229  1.5178  2.0547  0.7559
11607TIP3    H234767   6.377   4.298   6.240  0.4126 -2.6477 -1.4083
11608TIP3   OH234768   7.461   0.869   0.073  0.0043  0.2294  0.2651
11608TIP3    H134769   7.415   0.794   0.111  1.3433 -1.2986 -1.0307
11608TIP3    H234770   7.553   0.856   0.096  0.2347  1.6559  0.2661
11609TIP3   OH234771   6.982   0.692   5.759  0.2858  0.6686 -0.1355
11609TIP3    H134772   7.068   0.659   5.783  1.2874  3.2829  0.1910
11609TIP3    H234773   6.999   0.774   5.712 -1.9636  0.0851 -2.1861
11610TIP3   OH234774   5.367   2.554   1.649 -0.1230  0.1564  0.0300
11610TIP3    H134775   5.387   2.462   1.665 -0.4536  0.0899  0.0718
11610TIP3    H234776   5.382   2.565   1.555 -0.0014  0.0809  0.0403
11611TIP3   OH234777   2.189   5.545   1.786 -0.3657 -0.0016 -0.2859
11611TIP3    H134778   2.100   5.573   1.765 -0.0146  0.2896 -1.4843
11611TIP3    H234779   2.209   5.591   1.868 -1.3377 -0.1502  0.0560
11612TIP3   OH234780   0.664   3.457   2.551  0.2144  0.2663 -0.4187
11612TIP3    H134781   0.614   3.508   2.614 -0.5094 -0.4934 -0.3733
11612TIP3    H234782   0.639   3.493   2.466 -1.9044 -1.3343 -0.5458
11613TIP3   OH234783   4.716   1.321   0.993 -0.0766  0.3602  0.1905
11613TIP3    H134784   4.761   1.241   0.966  0.8383  0.6255  0.8886
11613TIP3    H234785   4.627   1.292   1.014  0.3983 -0.5832  0.9760
11614TIP3   OH234786   2.576   3.932   3.122 -0.4060  0.4294  0.4739
11614TIP3    H134787   2.649   3.984   3.153  0.3577 -0.7616  0.7284
11614TIP3    H234788   2.552   3.877   3.197 -3.0299  2.3031  1.1593
11615TIP3   OH234789   7.715   7.845   3.612 -0.2126  0.3281 -0.0757
11615TIP3    H134790   7.736   7.775   3.673 -0.9399 -0.0061 -0.2058
11615TIP3    H234791   7.620   7.855   3.617 -0.4712 -0.6078 -2.1013
11616TIP3   OH234792   5.923   0.239   0.045 -0.2323 -0.3624  0.5376
11616TIP3    H134793   6.011   0.275   0.051  0.1673 -0.6072 -2.3552
11616TIP3    H234794   5.934   0.154   0.002 -1.9487  0.3705 -1.5785
11617TIP3   OH234795   1.748   3.102   1.636  0.2029  0.1436  0.1663
11617TIP3    H134796   1.705   3.083   1.719  0.0098 -0.6328 -0.1023
11617TIP3    H234797   1.678   3.101   1.571  0.5881 -1.0284 -0.2593
11618TIP3   OH234798   1.975   2.444   2.853  0.1513  0.2041  0.2709
11618TIP3    H134799   2.045   2.500   2.883  0.9292 -0.6099  0.0211
11618TIP3    H234800   1.999   2.356   2.882 -1.2187  0.0229  0.9741
11619TIP3   OH234801   0.313   5.480   6.706 -0.9871  0.2487  0.3879
11619TIP3    H134802   0.241   5.438   6.659 -1.0130  0.8781 -0.1383
11619TIP3    H234803   0.376   5.408   6.721 -0.2418  0.3122 -2.0318
11620TIP3   OH234804   0.114   5.494   2.264 -0.0795 -0.4798  0.3598
11620TIP3    H134805   0.040   5.498   2.203  0.6180  1.5523 -0.4113
11620TIP3    H234806   0.107   5.407   2.304 -1.9837 -0.9160 -0.8066
11621TIP3   OH234807   0.762   0.535   6.089 -0.0348 -0.2066  0.2004
11621TIP3    H134808   0.715   0.461   6.127 -0.0431 -0.2781  0.0531
11621TIP3    H234809   0.723   0.612   6.130 -0.3644 -0.2584 -0.0078
11622TIP3   OH234810   7.286   2.348   1.810 -0.4947  0.4899 -0.2328
11622TIP3    H134811   7.236   2.427   1.831 -1.1169  0.0144  0.0811
11622TIP3    H234812   7.222   2.287   1.774 -0.1869 -0.1801  0.3189
11623TIP3   OH234813   5.355   3.362   2.279  0.5536 -0.5720 -0.2378
11623TIP3    H134814   5.359   3.317   2.195 -1.6568 -0.0536 -0.6720
11623TIP3    H234815   5.388   3.450   2.260  0.9959 -0.7555 -0.3290
11624TIP3   OH234816   2.103   2.875   6.413  0.3205  0.0184  0.4314
11624TIP3    H134817   2.049   2.818   6.359 -1.2497  1.0234  0.8573
11624TIP3    H234818   2.104   2.959   6.366  2.5713 -0.2712 -0.1786
11625TIP3   OH234819   5.478   0.674   4.190 -0.6909  0.1917 -0.1132
11625TIP3    H134820   5.488   0.587   4.149  1.1931 -0.0286  0.7157
11625TIP3    H234821   5.513   0.735   4.125 -0.3862  0.1433  0.0045
11626TIP3   OH234822   5.596   4.688   0.075 -0.4809 -0.0286  0.0177
11626TIP3    H134823   5.641   4.767   0.105  0.7083 -1.5853  2.7989
11626TIP3    H234824   5.651   4.655   0.004  0.2470  0.5260  0.3037
11627TIP3   OH234825   0.992   0.186   0.049  0.0515 -0.1697  0.0702
11627TIP3    H134826   0.969   0.253   0.114 -0.8057  0.6965 -1.0919
11627TIP3    H234827   0.977   0.228  -0.036 -0.6294 -1.8725 -0.6926
11628TIP3   OH234828   0.963   4.722   1.695  0.0126  0.5472 -0.1770
11628TIP3    H134829   0.873   4.707   1.668  0.1080 -0.6629  0.1063
11628TIP3    H234830   1.000   4.634   1.704  1.2574  1.0284 -0.4184
11629TIP3   OH234831   4.202   2.169   3.736 -0.3162 -0.0325  0.2669
11629TIP3    H134832   4.152   2.109   3.682  1.9950 -3.3341  1.4883
11629TIP3    H234833   4.250   2.223   3.674 -1.5470 -0.2328 -0.8918
11630TIP3   OH234834   4.086   4.810   5.454 -0.5827  0.0287  0.0490
11630TIP3    H134835   4.014   4.748   5.451 -1.4012  0.9965 -1.7738
11630TIP3    H234836   4.119   4.814   5.364  0.8895  0.6014  0.5681
11631TIP3   OH234837   7.896   7.751   6.486  0.1647  0.3553  0.2084
11631TIP3    H134838   7.829   7.690   6.454  0.4666  0.1477 -0.0318
11631TIP3    H234839   7.960   7.695   6.529  0.9149  0.4048 -0.8201
11632TIP3   OH234840   0.265   4.611   6.412  0.0301 -0.0552  0.0702
11632TIP3    H134841   0.175   4.634   6.436 -0.9255 -1.9525 -1.4355
11632TIP3    H234842   0.307   4.590   6.496 -0.5475  1.8815  0.9205
11633TIP3   OH234843   0.758   5.998   4.531  0.2707 -0.3862  0.2381
11633TIP3    H134844   0.734   5.907   4.511  1.3535 -0.5765 -0.2898
11633TIP3    H234845   0.677   6.039   4.560 -0.4485 -1.2628 -0.4834
11634TIP3   OH234846   1.055   6.456   1.442 -0.1269  0.1447 -0.7420
11634TIP3    H134847   1.124   6.436   1.505 -2.1949 -1.9070  1.0457
11634TIP3    H234848   1.069   6.547   1.418  1.7400  0.4954  1.3909
11635TIP3   OH234849   1.981   4.532   1.704  0.0247  0.3074 -0.0258
11635TIP3    H134850   1.998   4.437   1.704 -0.3298  0.2419  0.3492
11635TIP3    H234851   2.056   4.570   1.749 -0.2017  0.1316  0.5111
11636TIP3   OH234852   1.320   0.511   0.499 -0.3687 -0.2708  0.3157
11636TIP3    H134853   1.368   0.501   0.581  0.7559  1.2681 -0.1150
11636TIP3    H234854   1.362   0.585   0.455  0.3675 -2.2447 -2.5816
11637TIP3   OH234855   6.245   4.094   2.024 -0.3940  0.3608 -0.8354
11637TIP3    H134856   6.290   4.153   1.963  0.2125 -1.5968 -2.4117
11637TIP3    H234857   6.310   4.072   2.090 -0.0074  0.0229 -1.3188
11638TIP3   OH234858   0.598   5.829   3.104 -0.2685 -0.5360  0.1005
11638TIP3    H134859   0.529   5.894   3.091 -0.7485 -0.9861  0.3689
11638TIP3    H234860   0.554   5.745   3.092  0.4930 -0.8002 -0.9386
11639TIP3   OH234861   6.219   3.054   5.334  0.1955  0.0251 -0.1693
11639TIP3    H134862   6.136   3.097   5.316 -0.1512 -1.3183 -1.9871
11639TIP3    H234863   6.228   3.059   5.430 -1.6071  0.8160 -0.0075
11640TIP3   OH234864   8.289   5.892   0.549  0.3627  0.0185 -0.2353
11640TIP3    H134865   8.252   5.925   0.631 -0.7697 -0.3889 -0.5581
11640TIP3    H234866   8.356   5.956   0.525 -0.0779  0.7448  0.4199
11641TIP3   OH234867   1.201   6.840   5.496 -0.4325  0.0744 -0.3098
11641TIP3    H134868   1.279   6.839   5.552 -0.9662  1.7788  0.5307
11641TIP3    H234869   1.210   6.920   5.444 -1.2033 -0.1659 -0.8332
11642TIP3   OH234870   3.832   4.876   2.081 -0.6017 -0.7891 -0.5573
11642TIP3    H134871   3.760   4.939   2.073 -1.7798 -2.2215 -1.7415
11642TIP3    H234872   3.911   4.930   2.078 -1.5861  0.7612  0.0557
11643TIP3   OH234873   2.617   6.883   2.221  0.3362  0.4157  0.7249
11643TIP3    H134874   2.616   6.789   2.242  2.1311 -0.3838 -2.2500
11643TIP3    H234875   2.524   6.908   2.217 -0.2012 -1.4427  0.6904
11644TIP3   OH234876   3.701   0.437   4.346  0.5363  0.0543  0.6804
11644TIP3    H134877   3.631   0.400   4.292  0.3828  1.8515 -0.4184
11644TIP3    H234878   3.772   0.373   4.340  0.5895  0.2562 -1.8105
11645TIP3   OH234879   4.362   3.674   3.311  0.9888 -0.3526 -0.5235
11645TIP3    H134880   4.306   3.715   3.377  0.6858 -1.6612  0.0809
11645TIP3    H234881   4.307   3.605   3.272  0.2213  2.0072 -4.0850
11646TIP3   OH234882   0.887   5.123   0.379  0.3555  0.5661  0.0810
11646TIP3    H134883   0.910   5.099   0.469  0.4088  1.4748  0.3179
11646TIP3    H234884   0.858   5.041   0.339 -1.5041  0.4808  1.4892
11647TIP3   OH234885   8.251   7.460   3.970 -0.2619  0.0301  0.2168
11647TIP3    H134886   8.239   7.555   3.975  1.3747  0.2991 -0.3846
11647TIP3    H234887   8.339   7.445   4.004 -0.1616 -1.1634 -0.5012
11648TIP3   OH234888   8.050   3.365   3.263 -0.1739  0.0840 -0.3393
11648TIP3    H134889   7.979   3.427   3.279  1.7870  2.0181  1.5341
11648TIP3    H234890   8.121   3.419   3.227  1.5404 -1.0299  1.1914
11649TIP3   OH234891   5.537   0.757   2.978  0.7659 -0.1755 -0.3367
11649TIP3    H134892   5.560   0.739   2.887  0.6647 -0.8893 -0.2237
11649TIP3    H234893   5.444   0.735   2.984  0.9754 -0.9464  0.1472
11650TIP3   OH234894   1.274   4.996   2.549 -0.2097 -0.1396 -0.2510
11650TIP3    H134895   1.329   4.929   2.591 -0.7864  0.6561  1.9541
11650TIP3    H234896   1.306   5.078   2.586 -1.2529  0.5622 -0.8767
11651TIP3   OH234897   1.601   3.156   2.808  0.0489 -0.0414  0.1311
11651TIP3    H134898   1.558   3.076   2.836  0.4582  0.1349  1.3620
11651TIP3    H234899   1.682   3.127   2.767 -1.1767 -0.3704 -2.1805
11652TIP3   OH234900   4.066   3.312   6.418  0.7680 -0.1801 -0.0074
11652TIP3    H134901   4.048   3.395   6.463  0.1860  0.0214 -0.6022
11652TIP3    H234902   4.023   3.245   6.472  2.1852 -0.2501  1.0958
11653TIP3   OH234903   5.615   5.327   3.804  0.3165  0.5179  0.6083
11653TIP3    H134904   5.632   5.391   3.873 -0.0076  1.3975 -0.1139
11653TIP3    H234905   5.631   5.374   3.722 -0.9940  0.0096  0.0339
11654TIP3   OH234906   7.034   5.365   6.617  0.2921  0.2720  0.1721
11654TIP3    H134907   6.981   5.353   6.539 -0.2884  0.8190  0.4740
11654TIP3    H234908   7.010   5.452   6.650  0.5091  0.0447  0.9629
11655TIP3   OH234909   1.323   5.154   0.088 -0.2912  0.1088  0.6691
11655TIP3    H134910   1.251   5.094   0.070 -0.7811  0.8233  0.1876
11655TIP3    H234911   1.401   5.110   0.053 -0.6650 -0.1715  0.1808
11656TIP3   OH234912   0.559   6.347   4.335  0.0008  0.2401 -0.5492
11656TIP3    H134913   0.523   6.428   4.370 -1.5665 -0.7118  0.1598
11656TIP3    H234914   0.535   6.348   4.242 -1.6552 -0.2146 -0.1598
11657TIP3   OH234915   1.187   5.644   2.176  0.2746  0.5448  0.0510
11657TIP3    H134916   1.266   5.681   2.217  1.1234 -0.3130 -0.7595
11657TIP3    H234917   1.204   5.650   2.082 -1.0554  1.2246 -0.1671
11658TIP3   OH234918   2.189   7.559   2.499 -0.2928 -0.0310 -0.3453
11658TIP3    H134919   2.114   7.608   2.534 -1.0238  0.7132 -2.7549
11658TIP3    H234920   2.155   7.471   2.482 -0.7359  0.3783 -1.6782
11659TIP3   OH234921   6.353   2.000   6.346 -0.0258  0.0921  0.1280
11659TIP3    H134922   6.434   2.045   6.322 -1.8721  2.7387 -1.8076
11659TIP3    H234923   6.312   2.058   6.410 -1.0647 -0.4343 -0.0412
11660TIP3   OH234924   2.459   5.348   6.545 -0.4045  0.4325 -0.4634
11660TIP3    H134925   2.446   5.303   6.628 -1.5132  0.6767 -0.4950
11660TIP3    H234926   2.554   5.349   6.533 -0.3206 -1.5744 -0.3054
11661TIP3   OH234927   3.728   1.368   0.749  0.5678 -0.2761  0.0243
11661TIP3    H134928   3.701   1.456   0.722 -0.3908 -0.4910  0.2530
11661TIP3    H234929   3.758   1.379   0.840 -0.6055 -0.3569  0.4466
11662TIP3   OH234930   0.818   3.631   2.300 -0.3235  0.2537 -0.5527
11662TIP3    H134931   0.760   3.597   2.232 -2.0813  2.5030 -0.2574
11662TIP3    H234932   0.873   3.695   2.255  0.7150 -0.5001 -0.4250
11663TIP3   OH234933   1.353   5.076   3.789  0.1101  0.2400 -0.1726
11663TIP3    H134934   1.325   5.042   3.704 -0.6623  0.5539 -0.0578
11663TIP3    H234935   1.373   5.168   3.772 -1.9135  0.8283  0.3342
11664TIP3   OH234936   6.103   7.782   5.010 -0.4502  0.7422  0.3331
11664TIP3    H134937   6.179   7.817   5.056  0.0631  2.5192 -1.7210
11664TIP3    H234938   6.032   7.843   5.030 -0.5512  0.7921 -0.1538
11665TIP3   OH234939   4.391   3.469   3.053  0.2473 -0.2329 -0.3072
11665TIP3    H134940   4.414   3.395   2.996 -0.2940 -1.5171  1.0742
11665TIP3    H234941   4.338   3.526   2.997  1.2858 -0.4938 -1.6149
11666TIP3   OH234942   8.032   0.053   1.440 -0.4971  0.1754 -0.2255
11666TIP3    H134943   8.079  -0.017   1.394  0.2971 -0.1127  1.0021
11666TIP3    H234944   7.940   0.037   1.419 -0.3184 -1.1520 -0.1019
11667TIP3   OH234945   5.182   6.910   6.482  0.4304 -0.1072  0.3950
11667TIP3    H134946   5.249   6.844   6.463  1.0239  0.5027  0.3378
11667TIP3    H234947   5.217   6.960   6.556 -0.3622 -0.3310  0.9455
11668TIP3   OH234948   6.667   2.151   5.888  0.0507 -0.1534 -0.0822
11668TIP3    H134949   6.701   2.219   5.830 -0.3853 -1.0399 -1.4049
11668TIP3    H234950   6.574   2.146   5.869 -0.8288  1.7322  2.9937
11669TIP3   OH234951   3.142   6.106   3.688  0.1368  0.2854 -0.1386
11669TIP3    H134952   3.180   6.074   3.606 -0.3231 -0.5225 -0.0509
11669TIP3    H234953   3.187   6.055   3.756 -1.2089 -0.8362 -0.0423
11670TIP3   OH234954   7.406   2.363   0.091  0.7391  0.0675 -0.0560
11670TIP3    H134955   7.393   2.300   0.021  0.0613 -0.3524  0.4353
11670TIP3    H234956   7.321   2.369   0.135  1.6201 -1.2085  1.9924
11671TIP3   OH234957   6.771   6.619   4.789  0.0032  0.1210  0.1069
11671TIP3    H134958   6.849   6.592   4.837  0.0108 -3.1366 -1.4487
11671TIP3    H234959   6.701   6.615   4.854  0.9380  2.6100  1.4022
11672TIP3   OH234960   4.031   6.076   4.491  0.7515 -0.3841 -0.3798
11672TIP3    H134961   4.048   6.130   4.569  1.0446 -0.3225 -0.4843
11672TIP3    H234962   4.094   6.005   4.497 -0.4277 -1.4073  0.3866
11673TIP3   OH234963   2.551   1.756   4.246  0.4576 -0.4865  0.1096
11673TIP3    H134964   2.627   1.758   4.303  0.9555 -0.4194 -0.5374
11673TIP3    H234965   2.527   1.664   4.239  0.2735 -0.4726  0.5853
11674TIP3   OH234966   0.652   1.326   4.485  0.8490  0.0736  0.7784
11674TIP3    H134967   0.662   1.403   4.429  0.8616 -1.0893 -0.9030
11674TIP3    H234968   0.604   1.357   4.561 -1.5544  1.2070 -1.0745
11675TIP3   OH234969   5.270   1.762   3.894  0.0390 -0.4095  0.2085
11675TIP3    H134970   5.363   1.784   3.887 -0.2023  0.2947 -1.2924
11675TIP3    H234971   5.267   1.681   3.944  1.4861 -0.6176 -0.0184
11676TIP3   OH234972   0.328   3.263   3.463  0.5118 -0.3460  0.4054
11676TIP3    H134973   0.292   3.189   3.512  1.3941 -0.4627  0.8897
11676TIP3    H234974   0.380   3.223   3.393 -0.0487 -0.1771 -0.1207
11677TIP3   OH234975   7.534   2.172   2.212  0.1740 -0.3496  0.0482
11677TIP3    H134976   7.614   2.225   2.223 -0.0938 -0.1469  1.1045
11677TIP3    H234977   7.485   2.217   2.143 -0.3349  1.1783  1.3467
11678TIP3   OH234978   4.307   5.060   5.038  0.0081  0.2113 -0.1386
11678TIP3    H134979   4.379   4.999   5.024 -0.3566 -0.2366 -0.0668
11678TIP3    H234980   4.320   5.093   5.127  0.6326  0.8171 -0.4405
11679TIP3   OH234981   6.042   6.479   5.107 -0.0075  0.4110  0.7610
11679TIP3    H134982   6.126   6.478   5.153  0.1476 -0.3220  0.4828
11679TIP3    H234983   6.066   6.482   5.014 -0.3159  1.8341  0.6980
11680TIP3   OH234984   7.016   6.845   5.277  0.4699 -0.5500 -0.4772
11680TIP3    H134985   6.991   6.887   5.194 -0.7135 -1.4458 -0.6027
11680TIP3    H234986   6.971   6.761   5.275  0.8224 -0.7895  0.8764
11681TIP3   OH234987   4.108   4.016   6.266 -0.1754 -0.2050  0.1911
11681TIP3    H134988   4.021   3.978   6.254 -0.1597  0.1005 -1.0194
11681TIP3    H234989   4.167   3.941   6.270 -0.4888 -0.4140  1.0525
11682TIP3   OH234990   2.199   0.537   0.990 -0.5415  0.3584  0.1047
11682TIP3    H134991   2.266   0.559   1.054 -1.1876  2.0752  0.2414
11682TIP3    H234992   2.116   0.556   1.034 -1.0688 -0.3879 -0.5378
11683TIP3   OH234993   3.691   6.820   1.289  0.2820 -0.0753 -0.3145
11683TIP3    H134994   3.685   6.873   1.368 -0.8954 -0.4202 -0.1474
11683TIP3    H234995   3.756   6.864   1.234  1.0874  0.1884  0.8194
11684TIP3   OH234996   3.118   2.812   3.013  0.2139  0.3546 -0.2467
11684TIP3    H134997   3.044   2.865   2.986 -0.6986 -0.8076 -0.1077
11684TIP3    H234998   3.127   2.828   3.107 -0.9389 -0.7561  0.0750
11685TIP3   OH234999   7.328   2.705   1.528 -0.6112 -0.4841 -0.2141
11685TIP3    H135000   7.401   2.697   1.467 -0.8691 -2.1744 -0.3396
11685TIP3    H235001   7.278   2.780   1.496  2.6755  2.8695  1.6805
11686TIP3   OH235002   1.893   6.249   4.283  0.0329  0.5496  0.4876
11686TIP3    H135003   1.819   6.310   4.287 -0.6246 -0.2195  0.2630
11686TIP3    H235004   1.965   6.297   4.323 -0.6841  1.1663  1.0827
11687TIP3   OH235005   6.075   7.355   2.589 -0.1105 -0.0790 -0.7229
11687TIP3    H135006   5.989   7.364   2.548  0.7562  0.0409 -2.6272
11687TIP3    H235007   6.075   7.266   2.624 -1.4900  0.3818  0.5490
11688TIP3   OH235008   1.035   4.986   4.987  0.0848 -0.2305  0.3402
11688TIP3    H135009   1.049   5.069   5.033  0.2569 -0.3908  0.5755
11688TIP3    H235010   1.038   5.010   4.894  1.5393 -0.1781  0.3672
11689TIP3   OH235011   2.851   1.651   6.106 -0.2707  0.5269  0.0024
11689TIP3    H135012   2.830   1.740   6.134  0.0610  0.8841 -0.8189
11689TIP3    H235013   2.878   1.662   6.014  0.6153 -0.2994  0.1503
11690TIP3   OH235014   0.692   6.097   0.998  0.4723  0.4828 -0.5312
11690TIP3    H135015   0.709   6.051   0.915 -2.5711  0.7632 -1.4403
11690TIP3    H235016   0.718   6.035   1.066  0.9655 -0.6342 -1.6992
11691TIP3   OH235017   1.932   5.376   2.144  0.0637 -0.1392  0.5545
11691TIP3    H135018   1.862   5.423   2.098  2.0394  1.4226 -1.0148
11691TIP3    H235019   1.949   5.299   2.090  2.0844  1.4709 -1.2822
11692TIP3   OH235020   4.750   6.322   0.387  0.6778 -0.4915 -0.1445
11692TIP3    H135021   4.825   6.335   0.328  0.4813 -0.8465 -0.4736
11692TIP3    H235022   4.730   6.229   0.381  1.3341 -0.7522  1.3101
11693TIP3   OH235023   7.190   5.768   4.929  0.3086 -0.3556 -0.1243
11693TIP3    H135024   7.272   5.817   4.921 -0.0447  0.0132 -1.9887
11693TIP3    H235025   7.139   5.817   4.993  1.0222  0.1636  0.0571
11694TIP3   OH235026   7.834   5.918   4.028 -0.6401 -0.1688 -0.0115
11694TIP3    H135027   7.864   5.971   4.102 -0.0643  2.2010 -1.8204
11694TIP3    H235028   7.739   5.928   4.029 -0.6585 -0.3383  0.5209
11695TIP3   OH235029   5.171   1.078   3.989 -0.0962 -0.0413  0.0561
11695TIP3    H135030   5.237   1.016   4.019  1.2602  2.1908  2.0451
11695TIP3    H235031   5.116   1.028   3.928  0.4272 -3.3427  2.0823
11696TIP3   OH235032   3.341   1.581   0.061 -0.2985  0.6136  0.5932
11696TIP3    H135033   3.328   1.657   0.004  0.6159 -0.4484 -1.1192
11696TIP3    H235034   3.266   1.525   0.043  0.1297  0.1541  0.2270
11697TIP3   OH235035   2.795   5.139   3.382 -0.0699  0.0094  0.3807
11697TIP3    H135036   2.737   5.073   3.419 -1.8518  1.9702  1.2991
11697TIP3    H235037   2.802   5.206   3.451  0.7834  1.2975 -0.8979
11698TIP3   OH235038   4.908   4.045   2.594 -0.0857  0.6062  0.2635
11698TIP3    H135039   4.877   4.091   2.672  0.0721  1.4478 -0.1572
11698TIP3    H235040   4.998   4.076   2.583  0.1953 -0.2060  0.2706
11699TIP3   OH235041   0.159   1.673   6.549 -0.2325 -0.2744 -0.0884
11699TIP3    H135042   0.081   1.655   6.602 -0.8788 -1.3255 -1.3220
11699TIP3    H235043   0.156   1.607   6.480  0.8117  0.7699 -1.1820
11700TIP3   OH235044   6.133   1.051   1.358 -0.3871 -0.1866 -0.6064
11700TIP3    H135045   6.202   1.014   1.303  0.1361  0.3791 -0.3338
11700TIP3    H235046   6.170   1.132   1.393 -1.1608  0.0925 -0.4023
11701TIP3   OH235047   0.414   6.251   2.916  0.2452 -0.2369 -0.1852
11701TIP3    H135048   0.366   6.326   2.880  1.7642  0.0590 -1.7284
11701TIP3    H235049   0.467   6.219   2.843 -0.0922 -2.6297  0.5213
11702TIP3   OH235050   6.283   5.466   1.870 -0.2418  0.1279 -0.0313
11702TIP3    H135051   6.365   5.468   1.821 -1.2187  0.6179 -1.7641
11702TIP3    H235052   6.272   5.556   1.902  0.8311 -0.3950  1.9395
11703TIP3   OH235053   0.883   6.544   2.461 -0.1518  0.5158 -0.2918
11703TIP3    H135054   0.919   6.619   2.508 -1.0106  0.8509 -0.1530
11703TIP3    H235055   0.820   6.506   2.522 -1.1301  0.8342 -1.0802
11704TIP3   OH235056   4.398   4.674   0.629  0.3984  0.9225 -0.2838
11704TIP3    H135057   4.435   4.736   0.566 -1.5857  2.8559  0.3016
11704TIP3    H235058   4.386   4.725   0.709 -0.6325 -0.4203  0.4719
11705TIP3   OH235059   1.952   7.266   5.818 -0.2099 -0.0388  0.5566
11705TIP3    H135060   2.027   7.286   5.761  0.6780 -1.9616  0.9422
11705TIP3    H235061   1.980   7.292   5.905 -0.4811  0.3658  0.5244
11706TIP3   OH235062   0.723   5.620   0.818 -0.6554  0.3636  0.0923
11706TIP3    H135063   0.719   5.528   0.790 -0.0497  0.3056  0.1845
11706TIP3    H235064   0.751   5.668   0.740 -0.4403  0.3994  0.1914
11707TIP3   OH235065   7.527   2.656   1.723  0.0789 -0.0381  0.1073
11707TIP3    H135066   7.449   2.644   1.669 -0.1246 -1.9939  0.7446
11707TIP3    H235067   7.598   2.619   1.670  0.2606  0.0929  0.2620
11708TIP3   OH235068   5.625   0.799   1.256 -0.5830 -0.3640  0.4244
11708TIP3    H135069   5.631   0.753   1.173 -0.6893 -0.8294  0.6675
11708TIP3    H235070   5.589   0.885   1.234  0.7766  0.0678 -0.1927
11709TIP3   OH235071   2.390   6.166   3.315  0.6468  0.1682  0.4746
11709TIP3    H135072   2.387   6.139   3.407 -0.8097 -0.7031  0.2036
11709TIP3    H235073   2.349   6.094   3.267  0.1082  1.2094 -0.7021
11710TIP3   OH235074   2.329   3.358   1.870 -0.1243  0.0531 -0.2903
11710TIP3    H135075   2.245   3.388   1.906 -0.5973 -1.1808 -0.3186
11710TIP3    H235076   2.329   3.264   1.886  1.7475  0.1818  0.6721
11711TIP3   OH235077   0.234   2.530   0.178 -0.1892  0.0782  0.0963
11711TIP3    H135078   0.182   2.568   0.107 -2.2306 -0.1214  1.3932
11711TIP3    H235079   0.302   2.479   0.134  0.1916  1.9955 -1.6809
11712TIP3   OH235080   7.747   6.340   3.852  0.7199  0.6620 -0.1389
11712TIP3    H135081   7.719   6.301   3.935 -0.0695 -3.4481 -2.1235
11712TIP3    H235082   7.783   6.425   3.878 -1.1198  0.4191  4.1601
11713TIP3   OH235083   0.265   0.740   3.092 -0.2363 -0.0510 -0.1057
11713TIP3    H135084   0.284   0.651   3.062  0.8279  0.5584 -1.3821
11713TIP3    H235085   0.255   0.790   3.011 -0.8395  0.9896  0.5971
11714TIP3   OH235086   2.040   3.129   4.915  0.2660 -0.4535  0.4016
11714TIP3    H135087   2.092   3.174   4.848  0.0860 -1.9820 -0.8366
11714TIP3    H235088   2.095   3.056   4.943  0.1344 -0.1105  1.5957
11715TIP3   OH235089   4.442   2.540   0.692  0.2906  0.3183  0.3132
11715TIP3    H135090   4.405   2.565   0.608 -0.4733  3.5045  1.4558
11715TIP3    H235091   4.536   2.535   0.677  0.1729  0.9569 -0.6901
11716TIP3   OH235092   7.948   5.594   2.768 -0.5649 -0.0549 -0.0418
11716TIP3    H135093   7.946   5.567   2.676 -0.3062 -1.1864  0.2723
11716TIP3    H235094   7.921   5.686   2.766 -0.4331 -0.0210 -1.2594
11717TIP3   OH235095   3.852   6.572   1.158 -0.2564 -0.0505 -0.2953
11717TIP3    H135096   3.761   6.602   1.164 -0.5972 -1.2057  0.7726
11717TIP3    H235097   3.845   6.477   1.145  0.7810 -0.4493  1.7278
11718TIP3   OH235098   0.453   4.782   5.803  0.5153 -0.0647 -0.2973
11718TIP3    H135099   0.547   4.761   5.801  0.1669 -1.7172 -0.4604
11718TIP3    H235100   0.420   4.751   5.719 -0.4489 -0.9581  0.3877
11719TIP3   OH235101   1.675   4.799   2.875 -0.2461 -0.6688 -0.2091
11719TIP3    H135102   1.768   4.804   2.896 -0.8395  0.7833  2.5789
11719TIP3    H235103   1.653   4.885   2.840 -0.3064 -1.5096 -2.4237
11720TIP3   OH235104   6.012   6.214   4.107  0.0338  0.2345  0.5150
11720TIP3    H135105   6.076   6.151   4.073  0.3548  1.0074 -0.3531
11720TIP3    H235106   6.000   6.189   4.199  0.9197 -0.4617  0.4566
11721TIP3   OH235107   6.995   2.874   2.236  0.1795  0.4786  0.3400
11721TIP3    H135108   7.008   2.925   2.156  0.1736  0.1004  0.0976
11721TIP3    H235109   6.949   2.795   2.208  1.1297 -0.1670  0.5418
11722TIP3   OH235110   0.298   0.676   5.231 -0.4833  0.1864 -0.1842
11722TIP3    H135111   0.276   0.615   5.301 -1.9983 -3.1113 -3.1759
11722TIP3    H235112   0.219   0.678   5.176  1.4776  0.2415 -3.2621
11723TIP3   OH235113   2.282   2.531   6.682  0.2669  0.1157  0.2060
11723TIP3    H135114   2.263   2.574   6.599 -3.1543 -0.3465  0.6240
11723TIP3    H235115   2.198   2.529   6.729  1.8677 -0.3740  3.3540
11724TIP3   OH235116   6.649   5.321   0.931  0.8546  0.1980 -0.0203
11724TIP3    H135117   6.653   5.272   1.012 -0.7203 -0.4475 -0.2869
11724TIP3    H235118   6.733   5.367   0.926  1.1671 -0.1149  1.7132
11725TIP3   OH235119   6.618   1.296   1.933  0.1101 -0.1466  0.0688
11725TIP3    H135120   6.544   1.343   1.895 -0.3702 -1.9109 -1.3190
11725TIP3    H235121   6.608   1.307   2.028 -1.6490  0.0469 -0.1107
11726TIP3   OH235122   4.271   2.597   6.589  0.3637 -0.3714 -0.6213
11726TIP3    H135123   4.221   2.639   6.659  1.7592  0.5328 -0.1148
11726TIP3    H235124   4.213   2.529   6.554 -0.8620  0.0715  0.5019
11727TIP3   OH235125  -0.015   6.748   3.531 -0.4729  0.4508  0.4613
11727TIP3    H135126   0.074   6.768   3.560  0.2094 -1.1151 -0.4374
11727TIP3    H235127  -0.054   6.702   3.604  0.0254 -0.2847  0.2818
11728TIP3   OH235128   6.318   0.764   5.263 -0.2919  0.2163 -0.1921
11728TIP3    H135129   6.230   0.796   5.243 -0.5489 -0.0587  0.4731
11728TIP3    H235130   6.376   0.821   5.212 -0.6838  2.2432  1.4778
11729TIP3   OH235131   2.791   1.796   2.897 -0.1318  0.1797  0.3044
11729TIP3    H135132   2.831   1.881   2.882 -0.4712  0.2502 -0.2459
11729TIP3    H235133   2.698   1.815   2.910 -0.9805 -0.3511 -3.6525
11730TIP3   OH235134   4.622   2.183   2.546  0.1023 -0.1097  0.1816
11730TIP3    H135135   4.673   2.246   2.495  1.6993 -1.8891 -0.5323
11730TIP3    H235136   4.575   2.132   2.481 -0.9723  0.1490  0.7394
11731TIP3   OH235137   6.976   3.657   1.212  0.5863 -0.2816 -0.0085
11731TIP3    H135138   7.051   3.716   1.222  1.1746 -1.0212  0.0916
11731TIP3    H235139   6.912   3.707   1.162  1.5507  0.0328 -0.9863
11732TIP3   OH235140   0.848   6.394   5.976 -0.2123  0.2100  0.1776
11732TIP3    H135141   0.753   6.385   5.972 -0.1732 -0.0150 -0.2596
11732TIP3    H235142   0.881   6.343   5.902  0.1730  1.5682 -0.6255
11733TIP3   OH235143   5.073   7.581   6.681  0.7315 -0.6427 -0.7723
11733TIP3    H135144   5.019   7.599   6.605  0.4222 -0.8742 -0.6116
11733TIP3    H235145   5.023   7.617   6.755  1.6483  0.8015 -0.8162
11734TIP3   OH235146   7.859   1.102   1.945 -0.0012  0.1653 -0.0610
11734TIP3    H135147   7.824   1.073   1.861  0.8235  0.8178 -0.6434
11734TIP3    H235148   7.896   1.023   1.984 -1.9466 -0.5198  0.5181
11735TIP3   OH235149   3.280   3.998   0.668 -0.3725  0.0565 -0.0905
11735TIP3    H135150   3.197   3.973   0.628 -1.3377  3.7953 -0.7492
11735TIP3    H235151   3.338   4.016   0.594  1.2178 -2.5655  0.3571
11736TIP3   OH235152   4.603   5.751   6.274 -0.0395 -0.0925  0.2644
11736TIP3    H135153   4.598   5.670   6.223  0.7817 -0.9574  1.4836
11736TIP3    H235154   4.649   5.812   6.218 -2.6670  0.3592 -1.6238
11737TIP3   OH235155   8.018   3.247   3.925  0.3893 -0.3152  0.6601
11737TIP3    H135156   8.100   3.248   3.974  0.3823  0.9690  0.6692
11737TIP3    H235157   8.043   3.274   3.836 -0.0148  0.0604  0.6584
11738TIP3   OH235158   4.864   3.690   3.763 -0.7005 -0.7428 -0.2022
11738TIP3    H135159   4.885   3.723   3.850 -0.9901  0.8259 -0.6953
11738TIP3    H235160   4.785   3.737   3.738 -1.6038 -2.4006 -0.6588
11739TIP3   OH235161   8.003   6.489   6.344  0.2734 -0.3696 -0.4118
11739TIP3    H135162   8.039   6.411   6.302  1.9339  0.0351  0.1830
11739TIP3    H235163   7.908   6.478   6.339  0.4717 -2.5272 -0.1288
11740TIP3   OH235164   0.823   7.592   3.057 -0.3772 -0.1351 -0.8429
11740TIP3    H135165   0.900   7.589   3.114 -0.8335 -1.9930 -0.2567
11740TIP3    H235166   0.781   7.676   3.079 -0.3412 -0.6085  1.3379
11741TIP3   OH235167   7.888   2.965   5.326  0.5287 -0.2968  0.5609
11741TIP3    H135168   7.802   2.986   5.289  0.2747 -1.3138  0.5568
11741TIP3    H235169   7.950   2.999   5.261  0.0811 -2.9225 -1.3792
11742TIP3   OH235170   6.516   4.504   4.952  0.4148 -0.2675  0.8444
11742TIP3    H135171   6.531   4.554   5.031 -1.4268 -0.0651  1.1071
11742TIP3    H235172   6.468   4.563   4.894  2.0374 -0.2801 -0.6249
11743TIP3   OH235173   5.208   6.423   0.133 -0.3204 -0.5830 -0.1903
11743TIP3    H135174   5.154   6.421   0.054  1.3759 -0.1511 -1.4275
11743TIP3    H235175   5.216   6.516   0.155 -1.5239 -0.7392  1.0792
11744TIP3   OH235176   7.434   1.084   6.482  0.2623 -0.1081  0.1170
11744TIP3    H135177   7.520   1.090   6.440  0.5775 -2.1957  0.3990
11744TIP3    H235178   7.436   1.152   6.550  1.9991 -0.6595  0.6585
11745TIP3   OH235179   3.127   5.183   6.267 -0.0760  0.2927 -0.4140
11745TIP3    H135180   3.219   5.193   6.291 -0.2800  0.8296  0.2004
11745TIP3    H235181   3.081   5.182   6.351 -0.5420 -1.0457 -0.6784
11746TIP3   OH235182   0.270   4.008   1.040 -0.1202 -1.1511  0.2359
11746TIP3    H135183   0.180   4.012   1.073 -0.6952 -1.2640 -1.2536
11746TIP3    H235184   0.280   3.918   1.007 -0.6817 -0.2184 -2.7761
11747TIP3   OH235185   7.005   1.488   6.408  0.0869  0.4234 -0.0308
11747TIP3    H135186   6.987   1.582   6.412 -0.7202  0.2545  0.7973
11747TIP3    H235187   7.093   1.478   6.443  0.1191  0.8611  0.0174
11748TIP3   OH235188   4.304   1.384   1.785 -0.4365 -0.1630 -0.4217
11748TIP3    H135189   4.263   1.446   1.725  0.3111 -0.3603 -1.1514
11748TIP3    H235190   4.273   1.298   1.757 -1.4358 -0.1517  0.5616
11749TIP3   OH235191   8.104   0.204   5.048  0.4081  0.2516  0.1393
11749TIP3    H135192   8.052   0.174   5.123 -0.5559  0.9642 -0.2338
11749TIP3    H235193   8.057   0.173   4.971  1.0854  0.0262 -0.1956
11750TIP3   OH235194   6.070   1.216   5.998  0.0099 -0.5519  0.2954
11750TIP3    H135195   5.989   1.247   5.958  0.1407 -0.7438 -0.1362
11750TIP3    H235196   6.056   1.122   6.010  0.1011 -0.5552  0.3774
11751TIP3   OH235197   5.795   1.475   2.548  0.6596  0.6694  0.3108
11751TIP3    H135198   5.738   1.544   2.513 -0.6016 -0.3732  0.2505
11751TIP3    H235199   5.796   1.491   2.642 -1.6336 -0.6110  0.6254
11752TIP3   OH235200   2.725   2.302   2.007  0.1025  0.3793 -0.4652
11752TIP3    H135201   2.758   2.221   2.047  2.1986  1.8950  1.1169
11752TIP3    H235202   2.713   2.362   2.080 -0.3836  1.8392 -1.6911
11753TIP3   OH235203   2.353   0.431   6.762  0.0269  0.0478  0.4644
11753TIP3    H135204   2.420   0.395   6.703  0.2623 -0.0022  0.7595
11753TIP3    H235205   2.271   0.416   6.715  0.0479 -1.4962  0.8583
11754TIP3   OH235206   7.712   2.903   4.319 -0.1835  0.1628 -0.0714
11754TIP3    H135207   7.704   2.998   4.310  0.2060  0.1404 -0.6657
11754TIP3    H235208   7.755   2.874   4.239 -0.2382 -0.5116  0.1339
11755TIP3   OH235209   7.535   3.999   5.150 -0.0348  0.2567 -0.3131
11755TIP3    H135210   7.492   4.078   5.118 -0.5323  0.2227  0.2447
11755TIP3    H235211   7.531   4.007   5.245  0.8505  0.0574 -0.2485
11756TIP3   OH235212   1.249   3.566   5.085  0.4491 -0.5286  0.3662
11756TIP3    H135213   1.259   3.489   5.030 -0.4285 -1.0048  0.8512
11756TIP3    H235214   1.180   3.617   5.044  1.9945  0.7531 -0.7603
11757TIP3   OH235215   3.712   4.898   3.414 -0.0646 -0.0724  0.0564
11757TIP3    H135216   3.664   4.929   3.337 -0.4362 -1.5425 -0.3388
11757TIP3    H235217   3.707   4.971   3.476 -0.1570  0.9599 -1.1315
11758TIP3   OH235218   7.841   5.554   5.084  0.8022  1.0160 -0.0724
11758TIP3    H135219   7.807   5.466   5.072  2.6799  0.4112 -1.5409
11758TIP3    H235220   7.863   5.559   5.178  1.3547 -0.3499 -0.1102
11759TIP3   OH235221   4.064   3.160   5.708 -0.0210 -0.4287  0.1541
11759TIP3    H135222   3.982   3.186   5.751  0.1385 -1.4757  1.1368
11759TIP3    H235223   4.062   3.205   5.624 -1.0465  0.5073  0.6507
11760TIP3   OH235224   4.501   6.089   5.141  0.8051 -0.0143 -0.2036
11760TIP3    H135225   4.489   6.010   5.194 -0.3530  2.6260  3.9748
11760TIP3    H235226   4.412   6.112   5.114  1.1229  0.0292 -1.2719
11761TIP3   OH235227   0.992   7.323   1.053  0.1703 -0.1078 -0.3232
11761TIP3    H135228   1.086   7.305   1.055  0.6792  2.2147 -0.0492
11761TIP3    H235229   0.952   7.243   1.020  2.3219 -0.8706 -1.2096
11762TIP3   OH235230   1.126   2.422   1.416 -0.3274  0.0288 -0.0557
11762TIP3    H135231   1.147   2.444   1.326  2.0662  1.4708  0.7560
11762TIP3    H235232   1.203   2.375   1.448 -0.1832  1.3896  1.7853
11763TIP3   OH235233   5.958   1.867   3.698  0.1007 -0.7633  0.5034
11763TIP3    H135234   5.916   1.781   3.693 -1.9391  0.2386 -1.8451
11763TIP3    H235235   6.006   1.874   3.616  0.4682  0.2313  0.7975
11764TIP3   OH235236   4.012   3.573   6.509  0.6334 -0.2304  0.1159
11764TIP3    H135237   3.917   3.585   6.511  0.9318  3.5420 -0.8227
11764TIP3    H235238   4.042   3.597   6.596  0.7913 -0.0517  0.0155
11765TIP3   OH235239   3.270   7.759   1.749  0.3407 -0.0018 -0.8245
11765TIP3    H135240   3.181   7.790   1.763  0.2303 -0.9106  0.6568
11765TIP3    H235241   3.262   7.664   1.742  1.4266 -0.4267  2.1015
11766TIP3   OH235242   1.857   4.978   3.542 -0.0867 -0.0641  0.3440
11766TIP3    H135243   1.781   4.932   3.578  0.8622 -1.1562  1.0512
11766TIP3    H235244   1.924   4.910   3.533  1.2083  1.0825  0.9191
11767TIP3   OH235245   1.054   7.260   6.279 -0.2094 -0.5668  0.0416
11767TIP3    H135246   1.080   7.326   6.344 -0.5896 -0.1991 -0.1689
11767TIP3    H235247   1.032   7.311   6.201 -0.5011 -0.9435 -0.1268
11768TIP3   OH235248   5.424   3.779   6.271 -0.2423  0.5307 -0.1145
11768TIP3    H135249   5.367   3.704   6.252  0.2382  0.4037 -1.1134
11768TIP3    H235250   5.414   3.793   6.365 -0.4958 -0.6655  0.0590
11769TIP3   OH235251   4.627   0.175   3.649  0.0843  0.2794  0.0058
11769TIP3    H135252   4.661   0.107   3.707 -0.2271  0.8120  0.8382
11769TIP3    H235253   4.634   0.256   3.701 -1.4230  0.5698 -0.1991
11770TIP3   OH235254   0.510   0.338   6.551  0.1245 -0.2790  0.3955
11770TIP3    H135255   0.560   0.262   6.579  1.0854  1.1896  3.0690
11770TIP3    H235256   0.442   0.303   6.493  0.6786 -3.0936  1.3054
11771TIP3   OH235257   7.292   1.033   4.479  0.7223 -0.6330 -0.2943
11771TIP3    H135258   7.351   0.992   4.415  1.4432  1.3023 -0.9491
11771TIP3    H235259   7.337   1.024   4.563  1.0867 -0.8076 -0.5051
11772TIP3   OH235260   6.320   0.594   6.452  0.0886  0.2582  0.0522
11772TIP3    H135261   6.329   0.617   6.545  1.1980  0.6699 -0.1407
11772TIP3    H235262   6.410   0.582   6.422 -0.2451  0.4920 -1.0657
11773TIP3   OH235263   3.269   4.645   3.419  0.1789  0.4574  0.4567
11773TIP3    H135264   3.300   4.727   3.457 -0.1306  0.3866  0.8645
11773TIP3    H235265   3.177   4.641   3.443 -0.5422  1.3516 -1.9271
11774TIP3   OH235266   8.227   3.154   4.068 -0.1014 -0.3618  0.1400
11774TIP3    H135267   8.197   3.067   4.042 -0.6435  0.1542 -1.0228
11774TIP3    H235268   8.292   3.137   4.137  0.5616 -1.7380 -0.7794
11775TIP3   OH235269   6.912   1.891   4.280  0.0762  0.3568  0.0352
11775TIP3    H135270   6.961   1.947   4.342 -0.9904  1.0838  0.2474
11775TIP3    H235271   6.850   1.950   4.239 -0.2400 -0.4414 -0.6552
11776TIP3   OH235272   4.131   6.656   5.391  1.0027  1.1005 -0.4033
11776TIP3    H135273   4.057   6.714   5.372 -0.6790  0.0102  2.1822
11776TIP3    H235274   4.089   6.572   5.411  2.8440  0.6651  1.9907
11777TIP3   OH235275   5.483   7.803  -0.007  0.2598 -0.1060  0.0033
11777TIP3    H135276   5.392   7.795  -0.034  0.5006 -0.5276 -0.7035
11777TIP3    H235277   5.484   7.773   0.084 -0.8804  2.9479  1.1708
11778TIP3   OH235278   6.571   1.848   5.897  0.2853 -0.0094 -0.5136
11778TIP3    H135279   6.532   1.830   5.983  1.4773 -1.2404 -0.1911
11778TIP3    H235280   6.598   1.940   5.901  0.5987 -0.1322  0.5593
11779TIP3   OH235281   5.322   6.219   4.630  0.0079 -0.5255 -0.0064
11779TIP3    H135282   5.368   6.255   4.707  0.9699 -1.1653 -0.2604
11779TIP3    H235283   5.289   6.134   4.660 -0.2042 -0.4770 -0.1037
11780TIP3   OH235284   0.093   1.323   3.941  0.3662  0.0959 -0.4265
11780TIP3    H135285   0.155   1.280   4.000  0.0997 -1.5913 -1.2853
11780TIP3    H235286   0.008   1.283   3.963  0.0872  0.2566 -1.1840
11781TIP3   OH235287   3.408   6.945   3.299  0.4927  0.2025 -0.3030
11781TIP3    H135288   3.391   6.934   3.393 -2.0997 -0.8603 -0.8086
11781TIP3    H235289   3.446   6.861   3.272 -1.1901 -0.4804 -0.6372
11782TIP3   OH235290   1.559   6.763   3.597  0.7424  0.2683  0.0798
11782TIP3    H135291   1.620   6.823   3.640  0.8259  1.8839 -2.1790
11782TIP3    H235292   1.599   6.745   3.512 -0.7837 -0.5929 -0.4860
11783TIP3   OH235293   3.090   3.547   1.272  0.1719  0.1301  0.2299
11783TIP3    H135294   3.168   3.498   1.299  0.6554  0.1278 -1.0935
11783TIP3    H235295   3.095   3.548   1.176 -1.2317  0.5048  0.1483
11784TIP3   OH235296   1.064   2.482   5.848 -0.1599  0.3431 -0.0034
11784TIP3    H135297   1.029   2.398   5.877  1.1618 -0.0349  0.6076
11784TIP3    H235298   1.031   2.546   5.911 -1.1962  0.2944 -0.4895
11785TIP3   OH235299   1.270   5.911   2.779  0.1487 -0.2025 -0.5548
11785TIP3    H135300   1.329   5.871   2.842  0.9833 -0.2493 -1.3418
11785TIP3    H235301   1.280   6.006   2.794  1.2488 -0.1656 -1.3809
11786TIP3   OH235302   6.266   6.906   1.878  0.2343 -1.1201 -0.0871
11786TIP3    H135303   6.242   6.851   1.804  1.6218 -1.2663 -0.4523
11786TIP3    H235304   6.347   6.949   1.851 -0.2409  0.2797  0.6139
11787TIP3   OH235305   3.860   2.227   2.644  0.2551 -0.0332 -0.0717
11787TIP3    H135306   3.795   2.263   2.584  0.0373 -0.8326 -0.3278
11787TIP3    H235307   3.943   2.239   2.598  0.5042  2.3776  0.9072
11788TIP3   OH235308   6.565   7.521   3.031 -0.5262  0.3310 -0.4672
11788TIP3    H135309   6.645   7.551   2.988  0.0980  1.7253  1.5446
11788TIP3    H235310   6.578   7.427   3.044  1.3718  0.7339  0.9551
11789TIP3   OH235311   5.656   7.750   2.299  0.3379 -0.6232  0.4999
11789TIP3    H135312   5.584   7.714   2.247  0.0610  0.6601 -0.0371
11789TIP3    H235313   5.687   7.676   2.350 -1.5741 -1.1422  0.9879
11790TIP3   OH235314   4.920   7.266   5.108  0.0336  0.2011  0.0254
11790TIP3    H135315   4.835   7.291   5.073 -0.5358 -0.6718  0.7817
11790TIP3    H235316   4.913   7.173   5.126  0.4983  0.5020  1.9408
11791TIP3   OH235317   3.933   0.740   5.995  0.0248 -0.1588  0.3934
11791TIP3    H135318   3.948   0.739   5.900 -0.9188 -2.5750  0.1998
11791TIP3    H235319   3.963   0.654   6.024 -0.6987  0.1439  2.1138
11792TIP3   OH235320   3.880   1.078   2.472  0.1947  0.4308  0.3295
11792TIP3    H135321   3.855   1.049   2.384 -1.1085  1.2203  0.4171
11792TIP3    H235322   3.911   1.167   2.459  0.4633  0.3781  0.6138
11793TIP3   OH235323   2.940   4.259   5.227 -0.7049 -0.5234  0.0927
11793TIP3    H135324   2.866   4.320   5.223  0.7000  1.1860 -2.0603
11793TIP3    H235325   2.990   4.286   5.304 -1.3642 -0.5379  0.5288
11794TIP3   OH235326   4.334   5.267   6.711 -0.7552 -0.1507 -0.2765
11794TIP3    H135327   4.426   5.249   6.725 -0.5390  0.9499 -0.2391
11794TIP3    H235328   4.314   5.342   6.767 -1.6221 -0.2672 -0.4092
11795TIP3   OH235329   2.514   2.064   3.381 -0.0005  0.3370  0.0189
11795TIP3    H135330   2.457   1.989   3.360  1.7981 -0.9390 -0.5254
11795TIP3    H235331   2.549   2.092   3.297  1.4040  0.0573  0.4806
11796TIP3   OH235332   3.143   4.217   4.007 -0.4548 -0.2246 -0.0258
11796TIP3    H135333   3.144   4.202   3.913  0.3014  3.7835 -0.8738
11796TIP3    H235334   3.232   4.194   4.036 -0.5379 -1.0054 -0.3865
11797TIP3   OH235335   1.419   7.190   2.724 -0.0797 -0.6667  0.2435
11797TIP3    H135336   1.374   7.234   2.652  0.5480 -0.2939  0.0757
11797TIP3    H235337   1.384   7.233   2.803  1.7491  1.3914  0.0423
11798TIP3   OH235338   4.992   0.463   3.138  0.2705  0.0300  0.1140
11798TIP3    H135339   4.941   0.441   3.216 -0.3342 -0.6259 -0.4617
11798TIP3    H235340   5.031   0.380   3.110  0.0366  0.1557 -0.6015
11799TIP3   OH235341   7.585   2.042   5.750  0.7113 -0.5559 -0.3191
11799TIP3    H135342   7.633   2.009   5.674  1.3094  0.5226 -0.4379
11799TIP3    H235343   7.599   1.976   5.818  0.9574 -1.0761 -0.8624
11800TIP3   OH235344   1.177   6.728   2.961  0.0190 -0.4647  0.1037
11800TIP3    H135345   1.157   6.799   3.022  0.6642 -0.6869  0.5774
11800TIP3    H235346   1.121   6.655   2.990 -0.9686 -0.0277 -0.6499
11801TIP3   OH235347   7.785   5.994   6.323  0.2210  0.7154  0.4552
11801TIP3    H135348   7.701   5.977   6.366 -0.5297 -0.1970 -1.2756
11801TIP3    H235349   7.811   5.909   6.287 -1.0892  1.9586 -4.0614
11802TIP3   OH235350   8.223   2.865   5.303  0.2424 -0.3159  0.0330
11802TIP3    H135351   8.204   2.773   5.285 -0.3462 -0.3393  0.7373
11802TIP3    H235352   8.147   2.912   5.268  0.6429 -0.0756 -0.5213
11803TIP3   OH235353   6.903   6.294   1.932 -0.0229  0.1199 -0.0019
11803TIP3    H135354   6.901   6.201   1.956  2.5080  0.2545  1.0446
11803TIP3    H235355   6.971   6.299   1.864 -0.1849  1.1924 -0.0870
11804TIP3   OH235356   7.629   0.383   5.306  0.0998 -0.3215 -0.5615
11804TIP3    H135357   7.672   0.386   5.221 -0.0491  0.0974 -0.6291
11804TIP3    H235358   7.670   0.310   5.352 -0.3067 -0.9847 -1.2490
11805TIP3   OH235359   7.869   0.570   2.462 -0.0584  0.3436  0.0017
11805TIP3    H135360   7.882   0.577   2.556 -1.3256 -0.4713  0.2485
11805TIP3    H235361   7.937   0.510   2.433 -0.9550 -1.0604  0.7321
11806TIP3   OH235362   0.354   7.531   2.536  0.0011  0.0833  0.0007
11806TIP3    H135363   0.336   7.530   2.442  0.2540  1.1992 -0.0802
11806TIP3    H235364   0.365   7.624   2.556 -0.8842 -0.0796  1.2968
11807TIP3   OH235365   6.291   3.960   3.143 -0.4694  0.0490 -0.1290
11807TIP3    H135366   6.261   3.995   3.227  0.4218 -0.6903  0.5137
11807TIP3    H235367   6.237   3.881   3.130  0.9284 -1.1150  0.8833
11808TIP3   OH235368   5.800   2.588   0.863 -0.1507  0.6730 -0.1986
11808TIP3    H135369   5.842   2.506   0.837  0.6241  0.8882  0.3407
11808TIP3    H235370   5.712   2.563   0.890  0.5582 -0.2097  1.3795
11809TIP3   OH235371   2.720   3.387   1.720 -0.1918 -0.0009  0.4325
11809TIP3    H135372   2.643   3.334   1.740  0.4838 -1.1110  0.1722
11809TIP3    H235373   2.724   3.389   1.624  0.7910 -1.0208  0.4272
11810TIP3   OH235374   7.646   5.859   1.636 -0.4167 -0.0923  0.5499
11810TIP3    H135375   7.611   5.842   1.723 -0.9863 -0.9458  0.1691
11810TIP3    H235376   7.730   5.813   1.635  0.5436  1.5435  1.2920
11811TIP3   OH235377   1.537   4.140   4.756 -0.7049 -0.0709  0.0186
11811TIP3    H135378   1.530   4.234   4.773 -1.5677 -0.3077  1.0974
11811TIP3    H235379   1.598   4.108   4.823  1.4658  0.0363 -1.7703
11812TIP3   OH235380   3.757   6.516   1.930 -0.0742 -0.4385  0.2759
11812TIP3    H135381   3.850   6.502   1.911 -0.1917 -0.8933  0.0261
11812TIP3    H235382   3.714   6.514   1.845 -0.4839 -1.5848  0.4908
11813TIP3   OH235383   1.787   0.059   1.010  0.0307 -0.1586  0.2743
11813TIP3    H135384   1.797   0.151   0.984  1.8014  0.1010  1.7183
11813TIP3    H235385   1.693   0.042   0.999 -0.1459  1.4189 -1.2182
11814TIP3   OH235386   0.523   2.184   3.369 -0.1537  0.2295 -0.2191
11814TIP3    H135387   0.579   2.132   3.311  1.1558 -0.0100  1.1929
11814TIP3    H235388   0.581   2.251   3.406 -0.8215  0.0992  1.1441
11815TIP3   OH235389   2.714   0.356   6.207 -0.3517  0.2636 -0.9044
11815TIP3    H135390   2.742   0.339   6.117  0.1834  0.7876 -0.8395
11815TIP3    H235391   2.697   0.450   6.210 -1.4526  0.0650 -0.7511
11816TIP3   OH235392   3.885   5.910   2.317  0.2520  0.0532  0.6962
11816TIP3    H135393   3.868   5.923   2.224 -0.2782 -0.0347  0.7766
11816TIP3    H235394   3.973   5.944   2.331 -0.1918  1.3358  0.4389
11817TIP3   OH235395   2.960   5.356   6.105 -0.1873  0.1876  0.6963
11817TIP3    H135396   2.988   5.289   6.168  0.6700  0.7164  0.9067
11817TIP3    H235397   2.964   5.438   6.155  0.1839  0.5729  0.0463
11818TIP3   OH235398   2.029   0.499   3.043 -0.3508 -0.4230 -0.3886
11818TIP3    H135399   1.973   0.432   3.082 -0.1390  0.0862  0.8688
11818TIP3    H235400   1.969   0.567   3.013 -0.4690 -0.2313  0.2573
11819TIP3   OH235401   0.192   0.642   1.337  0.1534 -0.1940  0.1245
11819TIP3    H135402   0.188   0.549   1.316  1.8797 -0.3096  0.2019
11819TIP3    H235403   0.159   0.686   1.258  0.1066 -0.8323 -0.2127
11820TIP3   OH235404   0.887   3.406   0.899 -0.5493 -0.3080 -0.2214
11820TIP3    H135405   0.982   3.415   0.890 -0.2902  1.4950  2.7732
11820TIP3    H235406   0.875   3.322   0.942 -0.2790 -0.4105 -0.3434
11821TIP3   OH235407   4.273   5.664   5.615  0.7937  0.1108 -0.0769
11821TIP3    H135408   4.269   5.667   5.711  1.7921 -0.1197 -0.0185
11821TIP3    H235409   4.200   5.719   5.586  0.1022 -0.3159  0.8079
11822TIP3   OH235410   6.164   2.423   0.956 -0.1874 -0.6752  0.0356
11822TIP3    H135411   6.236   2.401   1.015 -1.6286 -1.0264  1.7631
11822TIP3    H235412   6.115   2.341   0.946 -1.1898 -0.1113  0.1272
11823TIP3   OH235413   2.129   4.342   4.787  0.2529  0.0543  0.5896
11823TIP3    H135414   2.103   4.435   4.789 -1.7024 -0.4461  0.9438
11823TIP3    H235415   2.143   4.323   4.695 -3.0970 -0.1724  0.0059
11824TIP3   OH235416   3.516   3.816   6.413 -0.4149  0.5400  0.3766
11824TIP3    H135417   3.598   3.858   6.439 -0.1550  0.2759 -0.0089
11824TIP3    H235418   3.543   3.731   6.377 -0.7911  0.7631 -0.4536
11825TIP3   OH235419   0.905   0.668   4.768 -0.5311  1.2786 -0.6058
11825TIP3    H135420   0.944   0.755   4.758  0.3045  0.8911 -0.7824
11825TIP3    H235421   0.888   0.639   4.678  1.1710  0.3941 -0.6799
11826TIP3   OH235422   1.354   5.904   1.061 -0.5845  0.4710  0.2697
11826TIP3    H135423   1.401   5.865   1.135  0.6492  1.8020  0.2340
11826TIP3    H235424   1.355   5.998   1.080  1.0292  1.0155 -2.1261
11827TIP3   OH235425   5.622   4.891   0.755  0.4945 -0.3397  0.1276
11827TIP3    H135426   5.677   4.826   0.800 -0.1146 -0.3531  0.8920
11827TIP3    H235427   5.626   4.969   0.811  0.2184 -0.1460 -0.1180
11828TIP3   OH235428   5.083   2.407   4.251 -0.0381 -0.0797  0.6477
11828TIP3    H135429   5.101   2.360   4.332  0.5156  1.0991  1.2269
11828TIP3    H235430   5.169   2.417   4.209  0.1249  1.7581  1.3097
11829TIP3   OH235431   4.869   1.143   4.698 -0.2545  0.2637 -0.1218
11829TIP3    H135432   4.964   1.149   4.704 -0.1865 -0.5022 -0.2861
11829TIP3    H235433   4.854   1.080   4.627 -0.8555 -0.9261  1.0095
11830TIP3   OH235434   3.861   7.068   4.391  0.3360 -0.3394  0.0448
11830TIP3    H135435   3.870   7.126   4.467 -0.8916  0.9653 -0.7691
11830TIP3    H235436   3.889   6.982   4.424 -1.0244 -0.0242  2.2457
11831TIP3   OH235437   0.594   5.206   3.070  0.5184  0.0981 -0.8777
11831TIP3    H135438   0.682   5.200   3.032  0.2112 -0.5232 -1.5061
11831TIP3    H235439   0.565   5.115   3.076  0.3746  0.2182  0.4238
11832TIP3   OH235440   1.294   3.673   4.235  0.4257 -0.5928  0.0859
11832TIP3    H135441   1.234   3.745   4.217  1.4436 -0.3855 -3.1504
11832TIP3    H235442   1.258   3.630   4.313 -1.5278  1.9603  0.7154
11833TIP3   OH235443   7.134   5.969   2.133  0.0914  0.6713  0.1748
11833TIP3    H135444   7.135   5.922   2.216  1.7059  0.4641  0.0750
11833TIP3    H235445   7.212   6.025   2.136 -0.6178  1.7635 -0.6015
11834TIP3   OH235446   6.685   5.551   2.955  0.3501 -0.7748  0.0971
11834TIP3    H135447   6.593   5.573   2.941  0.2807 -0.5626  0.8209
11834TIP3    H235448   6.684   5.485   3.024  0.7643 -0.3670  0.5059
11835TIP3   OH235449   5.879   4.559   0.270  0.2737  0.0098 -0.8730
11835TIP3    H135450   5.812   4.528   0.209  1.5749 -1.2983 -1.7128
11835TIP3    H235451   5.831   4.582   0.349 -1.0597 -2.1119 -0.9873
11836TIP3   OH235452   0.330   6.928   5.038  0.2933  0.0817  0.0745
11836TIP3    H135453   0.369   6.843   5.060  1.3702  0.6702  0.5355
11836TIP3    H235454   0.275   6.910   4.961  4.7349 -0.1672 -3.4914
11837TIP3   OH235455   8.199   3.155   6.452  0.2527 -0.0488  0.0477
11837TIP3    H135456   8.216   3.079   6.508 -0.9696 -1.4972 -1.4341
11837TIP3    H235457   8.104   3.157   6.442  0.3292  1.2197 -0.5808
11838TIP3   OH235458   2.935   4.485   0.600 -0.2911 -0.4032 -0.2362
11838TIP3    H135459   2.922   4.503   0.507 -0.1888 -0.1396 -0.2015
11838TIP3    H235460   3.030   4.476   0.609 -0.0568  1.9311  0.2422
11839TIP3   OH235461   0.693   3.661   3.106  0.1074 -0.0617  0.8510
11839TIP3    H135462   0.613   3.708   3.080  0.6545  0.0248 -0.7766
11839TIP3    H235463   0.665   3.603   3.177 -1.2717  0.4076  0.7145
11840TIP3   OH235464   5.678   1.749   6.661 -0.3241 -0.1665 -0.2587
11840TIP3    H135465   5.720   1.730   6.745  0.3913 -0.8393 -0.7590
11840TIP3    H235466   5.748   1.787   6.607 -0.6571 -0.1908 -0.7165
11841TIP3   OH235467   5.696   2.661   1.993  0.5446  0.4003 -0.1665
11841TIP3    H135468   5.772   2.641   2.047  1.2743  1.7773 -0.6382
11841TIP3    H235469   5.690   2.588   1.930  0.3667 -0.6268  1.0025
11842TIP3   OH235470   3.186   2.883   5.597  0.1821 -0.0143  0.0826
11842TIP3    H135471   3.229   2.827   5.532  1.1345 -1.4776  1.8707
11842TIP3    H235472   3.101   2.842   5.611 -0.1621  0.5005 -0.4744
11843TIP3   OH235473   5.029   2.586   4.897 -0.3940  0.2431 -0.1781
11843TIP3    H135474   5.117   2.583   4.935 -0.1849  0.4169 -0.6420
11843TIP3    H235475   5.041   2.555   4.807 -0.4527  2.0859 -0.8776
11844TIP3   OH235476   2.443   6.383   2.656  0.1895 -0.3654  0.3071
11844TIP3    H135477   2.435   6.411   2.565 -0.3204 -0.6198  0.2715
11844TIP3    H235478   2.503   6.447   2.696  1.6497 -1.1205 -0.5825
11845TIP3   OH235479   0.173   3.579   1.505  0.2823 -0.4675 -0.3518
11845TIP3    H135480   0.236   3.625   1.561 -1.1368 -0.2162  1.1129
11845TIP3    H235481   0.203   3.597   1.416  1.6937  0.4805  0.2744
11846TIP3   OH235482   5.303   3.846   4.516 -0.5326  0.0302 -0.1133
11846TIP3    H135483   5.262   3.888   4.440 -1.1548  0.3074  0.3719
11846TIP3    H235484   5.287   3.906   4.589  0.9888  0.2954  0.0442
11847TIP3   OH235485   1.100   2.475   2.907  0.3773  0.1802  0.1234
11847TIP3    H135486   1.185   2.487   2.865 -0.7742  0.6615 -2.2290
11847TIP3    H235487   1.061   2.563   2.909 -0.9920 -0.3584 -1.0200
11848TIP3   OH235488   4.320   6.119   6.622  0.1161 -0.5357  0.3061
11848TIP3    H135489   4.274   6.198   6.593  1.9044  0.6782  0.6063
11848TIP3    H235490   4.342   6.072   6.542 -0.8429 -0.6841  0.1193
11849TIP3   OH235491   7.741   1.668   0.636  0.0539  0.7196 -0.0225
11849TIP3    H135492   7.800   1.743   0.626 -1.2086  1.5692 -1.6383
11849TIP3    H235493   7.660   1.705   0.670 -0.1204 -0.1686  0.5659
11850TIP3   OH235494   2.394   4.685   4.780 -0.0897 -0.5986 -0.4573
11850TIP3    H135495   2.346   4.713   4.702  0.2952  0.9281 -0.1740
11850TIP3    H235496   2.454   4.618   4.748  0.2995  0.2388 -1.5661
11851TIP3   OH235497   7.544   1.113   4.190  0.0638 -0.2634  0.4722
11851TIP3    H135498   7.594   1.140   4.113  1.2578  2.1600  1.9866
11851TIP3    H235499   7.536   1.018   4.181  1.3814 -0.2307 -1.8947
11852TIP3   OH235500   3.223   4.993   5.123  0.3101 -0.5282  0.2701
11852TIP3    H135501   3.267   5.040   5.193  1.2227 -0.2467 -0.4752
11852TIP3    H235502   3.156   4.941   5.167 -0.8214  1.5456  1.1095
11853TIP3   OH235503   3.395   0.656   3.808 -0.2215 -0.4785 -0.2183
11853TIP3    H135504   3.480   0.642   3.849 -0.4993 -2.1275 -0.1582
11853TIP3    H235505   3.346   0.575   3.823 -0.7971 -0.6873 -2.6872
11854TIP3   OH235506   6.727   2.198   3.196  0.2353 -0.0133 -0.2811
11854TIP3    H135507   6.760   2.276   3.241  1.1301 -0.2619 -0.4881
11854TIP3    H235508   6.797   2.134   3.206 -1.0499 -1.2853  1.1277
11855TIP3   OH235509   7.690   7.554   5.211 -0.2686 -0.1964  0.5555
11855TIP3    H135510   7.764   7.605   5.244 -0.2594  0.3294 -0.2324
11855TIP3    H235511   7.711   7.464   5.234  0.9734 -0.1426 -0.2627
11856TIP3   OH235512   2.591   5.360   0.693 -0.2422  0.2599 -0.0410
11856TIP3    H135513   2.523   5.297   0.671  0.2712 -0.7464  1.1300
11856TIP3    H235514   2.673   5.315   0.672  0.1668  0.1180  1.7036
11857TIP3   OH235515   7.300   7.607   3.532  0.3941 -0.7005 -0.2072
11857TIP3    H135516   7.220   7.566   3.498  1.3326 -1.5893 -1.4234
11857TIP3    H235517   7.312   7.684   3.477 -0.3909  0.2847  0.9331
11858TIP3   OH235518   8.231   3.805   1.843  0.1294  0.3322  0.5808
11858TIP3    H135519   8.293   3.733   1.832 -0.8932 -0.5327  0.3247
11858TIP3    H235520   8.223   3.817   1.938  0.2091  0.0322  0.6237
11859TIP3   OH235521   4.081   5.614   1.276  0.2543 -0.1335 -0.3446
11859TIP3    H135522   4.030   5.547   1.231 -0.9950 -1.1580  2.4005
11859TIP3    H235523   4.170   5.580   1.277  0.4475  0.1629 -2.3627
11860TIP3   OH235524   4.903   7.061   3.632 -0.1148  0.3603 -0.2187
11860TIP3    H135525   4.894   7.018   3.717 -1.3957  2.5432  0.8536
11860TIP3    H235526   4.982   7.115   3.641  1.1591 -1.2297 -1.3442
11861TIP3   OH235527   6.959   5.765   6.201 -0.3744  0.3808 -0.3143
11861TIP3    H135528   7.031   5.778   6.264 -1.5959  2.3081  0.7931
11861TIP3    H235529   6.893   5.717   6.250 -0.7590  0.6540 -0.5648
11862TIP3   OH235530   2.677   3.718   3.319  0.1994  0.1981  0.1535
11862TIP3    H135531   2.604   3.660   3.302  0.1944 -0.4189  2.0705
11862TIP3    H235532   2.656   3.760   3.402  1.8159  0.3322  0.5267
11863TIP3   OH235533   7.057   4.403   0.253 -0.0054 -0.0679 -0.1248
11863TIP3    H135534   7.035   4.311   0.267 -0.1446 -0.0031  0.0890
11863TIP3    H235535   7.091   4.407   0.163 -1.8599 -0.0055 -0.8802
11864TIP3   OH235536   0.867   7.683   5.100 -0.4304 -0.0577  0.6867
11864TIP3    H135537   0.920   7.737   5.040  0.4146 -0.3673  1.1380
11864TIP3    H235538   0.889   7.716   5.187 -1.1301 -0.0759  0.8735
11865TIP3   OH235539   0.898   5.886   5.707  0.1146 -0.0816 -0.0766
11865TIP3    H135540   0.976   5.914   5.754  0.5135 -0.6372 -0.3951
11865TIP3    H235541   0.931   5.828   5.639 -0.6913 -1.3531  0.5905
11866TIP3   OH235542   6.358   1.386   5.242 -0.2932 -0.3906 -0.3928
11866TIP3    H135543   6.443   1.372   5.202 -0.1343  0.0814 -0.2240
11866TIP3    H235544   6.322   1.462   5.197  0.6168  1.2412  1.4683
11867TIP3   OH235545   5.484   7.400   2.945 -0.2745  0.1326  0.2363
11867TIP3    H135546   5.513   7.321   2.992  2.0736  0.3143 -0.7528
11867TIP3    H235547   5.476   7.467   3.013  1.5156 -0.0074  0.6469
11868TIP3   OH235548   2.681   7.609   3.600  0.2370  0.6214  0.0811
11868TIP3    H135549   2.589   7.584   3.592  0.1660  0.3073  1.5328
11868TIP3    H235550   2.679   7.692   3.647  0.6232  1.7565 -1.8300
11869TIP3   OH235551   2.727   3.415   1.410 -0.0771  0.6618 -0.0997
11869TIP3    H135552   2.813   3.372   1.414 -0.8051 -1.1174 -1.9452
11869TIP3    H235553   2.731   3.471   1.333 -1.0525 -0.7056 -1.1971
11870TIP3   OH235554   6.219   6.040   3.993 -0.8038  0.1002  0.0831
11870TIP3    H135555   6.266   6.091   3.928 -2.1950 -0.5421 -1.5049
11870TIP3    H235556   6.286   5.986   4.035  0.3042  1.4411  0.0901
11871TIP3   OH235557   0.505   3.435   5.034  0.1810  0.1009 -0.0356
11871TIP3    H135558   0.458   3.463   5.112  0.6155 -0.2106  0.3428
11871TIP3    H235559   0.502   3.510   4.975 -3.2157 -0.7715 -1.1926
11872TIP3   OH235560   5.069   1.591   4.948  0.3489 -0.5146 -0.3515
11872TIP3    H135561   5.128   1.665   4.965 -1.1259  0.2958  1.6231
11872TIP3    H235562   5.081   1.534   5.024 -0.8207 -0.7206 -0.3105
11873TIP3   OH235563   3.796   4.942   5.268  0.5189 -0.2903 -0.0524
11873TIP3    H135564   3.711   4.900   5.264  1.2545 -1.8588  0.2293
11873TIP3    H235565   3.813   4.955   5.361  0.0959  1.1027 -0.1483
11874TIP3   OH235566   7.815   3.756   2.571  0.4286 -0.2749 -0.0263
11874TIP3    H135567   7.820   3.777   2.478  2.1722 -1.1190 -0.1566
11874TIP3    H235568   7.893   3.797   2.609  1.3127 -2.3357  0.5190
11875TIP3   OH235569   6.902   4.966   2.976 -0.2507 -0.2337  0.6733
11875TIP3    H135570   6.809   4.944   2.977 -0.0492 -1.9760 -3.2600
11875TIP3    H235571   6.913   5.021   2.898  2.0493 -0.2175  0.9426
11876TIP3   OH235572   1.579   5.797   4.497  0.0637 -0.1174 -0.4176
11876TIP3    H135573   1.659   5.801   4.549 -0.0828  0.8723 -0.2521
11876TIP3    H235574   1.589   5.866   4.432 -1.0443  0.6599  0.1963
11877TIP3   OH235575   4.788   0.011   0.763  0.3653  0.4610 -0.7137
11877TIP3    H135576   4.817   0.038   0.850  1.9702 -3.0251  0.0069
11877TIP3    H235577   4.694   0.030   0.762  0.1750  0.1201  2.0194
11878TIP3   OH235578   1.776   1.205   5.201 -0.0669  0.1388 -0.2187
11878TIP3    H135579   1.698   1.201   5.146  0.1321  0.0097 -0.4924
11878TIP3    H235580   1.763   1.282   5.256 -0.2814  0.2472 -0.4223
11879TIP3   OH235581   1.478   4.446   0.516  0.7646  0.2257 -0.1196
11879TIP3    H135582   1.432   4.489   0.443  0.1327 -0.3837 -0.0907
11879TIP3    H235583   1.546   4.394   0.473 -1.2936 -2.3152 -0.5730
11880TIP3   OH235584   4.050   5.606   5.356 -0.7281 -0.5964  0.5756
11880TIP3    H135585   3.958   5.593   5.381 -0.1943 -1.7941  2.0883
11880TIP3    H235586   4.051   5.593   5.261 -1.8936 -2.2691  0.7408
11881TIP3   OH235587   6.801   0.476   0.955 -0.1948 -0.1902 -0.2083
11881TIP3    H135588   6.736   0.521   1.009  0.0522  0.3896 -0.3878
11881TIP3    H235589   6.751   0.407   0.911 -0.7398  0.4044 -0.5337
11882TIP3   OH235590   6.333   0.427   3.931  0.5445  0.2068  0.3669
11882TIP3    H135591   6.316   0.466   3.845  1.1649  1.0790  0.6194
11882TIP3    H235592   6.274   0.474   3.990 -1.5624 -1.9486  0.1223
11883TIP3   OH235593   1.263   1.349   1.633  0.7349  0.4245  0.0881
11883TIP3    H135594   1.183   1.384   1.672 -1.1760 -2.7304 -0.6433
11883TIP3    H235595   1.284   1.410   1.562  0.4384  2.5878  1.7417
11884TIP3   OH235596   4.251   6.177   3.020  0.4768  0.1567 -0.1469
11884TIP3    H135597   4.333   6.203   3.063  0.4979  0.5596 -0.4198
11884TIP3    H235598   4.214   6.110   3.077 -0.5311  2.0830  1.6480
11885TIP3   OH235599   4.312   3.002   2.202  0.0045  0.0916  0.3850
11885TIP3    H135600   4.366   2.958   2.268 -0.4370 -1.1316 -0.0430
11885TIP3    H235601   4.229   2.955   2.205 -0.4785  0.9082 -0.1068
11886TIP3   OH235602   7.634   0.186   5.936  0.5257  0.3238  0.1870
11886TIP3    H135603   7.629   0.222   6.025  0.1884 -0.0464  0.3195
11886TIP3    H235604   7.700   0.117   5.942  0.1103 -0.0691  0.2813
11887TIP3   OH235605   8.190   5.769   2.812  0.2803  0.4890  0.2475
11887TIP3    H135606   8.152   5.855   2.833 -1.5842 -0.5190  1.2357
11887TIP3    H235607   8.116   5.708   2.815  1.1328 -0.8629 -2.6766
11888TIP3   OH235608   1.511   0.983   5.986 -0.3456  0.1059  0.1337
11888TIP3    H135609   1.515   0.893   5.954 -0.2358  0.7879 -1.9135
11888TIP3    H235610   1.418   1.002   5.993 -0.3684 -0.2058  0.7174
11889TIP3   OH235611   4.101   5.016   1.856 -0.0852 -0.1860 -0.2426
11889TIP3    H135612   4.107   4.979   1.944  2.0883 -0.4171 -0.4364
11889TIP3    H235613   4.083   5.109   1.870 -0.1619 -0.2975  0.4271
11890TIP3   OH235614   2.211   4.710   1.636  1.2365 -0.7536  0.4384
11890TIP3    H135615   2.219   4.708   1.732  0.1256 -0.8107  0.5431
11890TIP3    H235616   2.174   4.797   1.617  2.4032 -0.3450 -0.0317
11891TIP3   OH235617   1.599   4.723   5.679 -0.7816 -0.0747  0.3833
11891TIP3    H135618   1.635   4.666   5.747 -0.1119  0.3575  0.4055
11891TIP3    H235619   1.626   4.811   5.705 -1.6183  0.2347  0.2316
11892TIP3   OH235620   2.234   2.569   2.600  0.0326  0.0628  0.0705
11892TIP3    H135621   2.292   2.619   2.544 -0.0473  1.8622  1.4862
11892TIP3    H235622   2.168   2.632   2.629 -1.2312 -1.3438  0.4100
11893TIP3   OH235623   7.550   3.852   3.426  0.1573 -0.5945  0.2630
11893TIP3    H135624   7.515   3.941   3.440  0.5677  0.0820 -2.3294
11893TIP3    H235625   7.641   3.858   3.452 -0.2128 -0.7261  1.6244
11894TIP3   OH235626   6.405   5.409   5.102 -0.1614 -0.2445  0.3889
11894TIP3    H135627   6.352   5.355   5.161 -0.5055 -0.0976  0.2196
11894TIP3    H235628   6.409   5.495   5.145 -0.5977 -0.0742  0.0958
11895TIP3   OH235629   0.238   7.287   0.859  0.8103  0.5082 -0.0614
11895TIP3    H135630   0.320   7.333   0.840  1.1973 -0.3379 -0.4789
11895TIP3    H235631   0.264   7.200   0.886  0.1531  0.9815  2.3209
11896TIP3   OH235632   1.099   5.713   2.930  0.0812 -0.1610  0.2418
11896TIP3    H135633   1.006   5.701   2.946  0.0876  0.8942  1.2111
11896TIP3    H235634   1.104   5.747   2.841 -0.5538  0.7843  0.5558
11897TIP3   OH235635   5.602   6.644   2.450 -0.2466  0.1398  0.1024
11897TIP3    H135636   5.570   6.679   2.367  1.3002  4.4048  1.0649
11897TIP3    H235637   5.523   6.628   2.502 -1.1138  2.2127 -0.5094
11898TIP3   OH235638   6.164   1.052   0.457  0.2152  0.4049 -0.5460
11898TIP3    H135639   6.148   0.969   0.501 -2.6804  0.9263 -0.3718
11898TIP3    H235640   6.086   1.066   0.404  0.0688  3.4872  0.2581
11899TIP3   OH235641   2.024   4.118   4.072 -0.4422 -0.3167  0.1062
11899TIP3    H135642   1.931   4.095   4.079 -1.1000  2.0990  0.2779
11899TIP3    H235643   2.052   4.132   4.162 -0.2837  0.2373 -0.0236
11900TIP3   OH235644   6.591   0.561   1.093  0.2746  0.1955 -0.5534
11900TIP3    H135645   6.604   0.482   1.146  2.6549  0.6248 -0.4150
11900TIP3    H235646   6.506   0.595   1.122  0.9818 -0.1798  2.2910
11901TIP3   OH235647   4.887   3.897   5.831 -0.5598 -0.0343  0.2860
11901TIP3    H135648   4.803   3.943   5.838 -0.4365  0.2689 -0.1853
11901TIP3    H235649   4.882   3.851   5.748  0.1137  0.7519 -0.1994
11902TIP3   OH235650   0.083   5.494   0.592  0.2098  0.6857 -0.1302
11902TIP3    H135651   0.088   5.554   0.518 -0.3596 -0.4428 -1.1154
11902TIP3    H235652  -0.003   5.452   0.584  0.3995  0.0743  0.8061
11903TIP3   OH235653   2.786   5.398   5.308  0.5775 -0.1793  0.2000
11903TIP3    H135654   2.724   5.328   5.289  0.1314 -0.1273  1.3653
11903TIP3    H235655   2.734   5.464   5.354  1.5242 -0.2279  1.3897
11904TIP3   OH235656   5.938   3.990   3.453  0.9224  0.2551  0.1775
11904TIP3    H135657   5.950   3.988   3.358  2.0920  0.0936  0.3155
11904TIP3    H235658   6.005   4.050   3.485  0.9778 -0.2107  0.9607
11905TIP3   OH235659   3.925   4.023   1.645 -0.3781  0.0875  0.1218
11905TIP3    H135660   3.994   4.077   1.683 -0.7347  1.2987 -0.9266
11905TIP3    H235661   3.851   4.033   1.705 -0.0584 -0.2517  0.5896
11906TIP3   OH235662   1.618   4.121   0.814  0.6110 -0.0810  0.0885
11906TIP3    H135663   1.631   4.214   0.832 -0.4201  0.0389  0.2702
11906TIP3    H235664   1.680   4.100   0.744  1.0508  0.6705  0.2502
11907TIP3   OH235665   5.264   2.288   6.379  0.2590  0.0358 -0.4988
11907TIP3    H135666   5.304   2.371   6.352  0.0378 -0.2364 -1.7231
11907TIP3    H235667   5.202   2.268   6.309 -0.7811 -0.4201  0.5301
11908TIP3   OH235668   3.902   0.624   4.462  0.2485 -0.0140  0.4890
11908TIP3    H135669   3.870   0.689   4.399  1.0482 -0.7594 -0.7072
11908TIP3    H235670   3.839   0.552   4.457  0.4542 -0.1862  0.3367
11909TIP3   OH235671   4.153   0.559   5.166 -0.7122 -0.2114 -0.2785
11909TIP3    H135672   4.231   0.607   5.140  0.9303 -2.0681  0.9445
11909TIP3    H235673   4.165   0.472   5.128 -3.2925  0.0117 -1.9126
11910TIP3   OH235674   0.778   5.194   4.907 -0.1228  0.0279  0.0872
11910TIP3    H135675   0.826   5.261   4.955  0.2674 -0.6752  0.7116
11910TIP3    H235676   0.748   5.133   4.975  0.2565 -0.8770 -0.5351
11911TIP3   OH235677   5.838   6.116   1.871  0.2598  0.7558  0.1363
11911TIP3    H135678   5.758   6.098   1.921  1.2647 -0.4487  1.4036
11911TIP3    H235679   5.830   6.060   1.793  0.2343 -0.0317  0.6873
11912TIP3   OH235680   8.123   4.816   2.025 -0.4698  0.3845  0.3202
11912TIP3    H135681   8.214   4.814   1.997 -0.2712  0.4142  0.9506
11912TIP3    H235682   8.085   4.736   1.989  0.3975 -0.8516  2.0320
11913TIP3   OH235683   5.304   1.087   6.616 -0.1057 -0.9555  0.7284
11913TIP3    H135684   5.291   1.171   6.660  1.5917  0.1336 -0.7355
11913TIP3    H235685   5.397   1.067   6.626 -0.4396 -2.6099  0.9121
11914TIP3   OH235686   7.815   6.995   3.235  0.1032 -0.3014  0.6602
11914TIP3    H135687   7.798   6.983   3.142  1.7596 -1.6759  0.4835
11914TIP3    H235688   7.737   7.040   3.268  0.1443  1.6885 -1.6566
11915TIP3   OH235689   7.357   1.779   5.694  0.1422  0.1493  0.4043
11915TIP3    H135690   7.311   1.823   5.766  0.3129  0.2592  0.4464
11915TIP3    H235691   7.296   1.712   5.664 -0.9076  1.6557 -0.9394
11916TIP3   OH235692   5.258   6.912   3.499 -0.7852  0.1641  0.3898
11916TIP3    H135693   5.294   6.971   3.432 -1.0041  1.3054  1.2487
11916TIP3    H235694   5.303   6.829   3.484 -1.0361  0.3056 -1.3512
11917TIP3   OH235695   7.078   7.412   0.336 -0.1066  0.1474 -0.0826
11917TIP3    H135696   6.991   7.420   0.377 -1.1261  1.1854 -2.2910
11917TIP3    H235697   7.063   7.360   0.258  1.8594 -2.0554  0.9094
11918TIP3   OH235698   7.666   2.064   4.746 -0.4372  0.2026 -0.3610
11918TIP3    H135699   7.649   1.992   4.807 -1.5411  0.3069 -0.5137
11918TIP3    H235700   7.645   2.027   4.660  2.9826 -0.5829 -1.0225
11919TIP3   OH235701   6.976   1.394   1.515  0.2411 -0.0351  0.3444
11919TIP3    H135702   6.936   1.368   1.598 -1.7024 -1.6196 -1.0138
11919TIP3    H235703   6.926   1.471   1.488 -0.6738 -0.8966 -0.4503
11920TIP3   OH235704   4.734   0.638   5.964  1.0299  0.3126 -0.4214
11920TIP3    H135705   4.652   0.589   5.972  0.4065  0.9627 -2.2551
11920TIP3    H235706   4.795   0.592   6.021  0.0429 -1.6313 -0.8488
11921TIP3   OH235707   6.077   2.998   0.895  0.7129 -0.3369  0.0438
11921TIP3    H135708   6.049   2.906   0.896 -0.5935  0.0215 -0.8952
11921TIP3    H235709   6.049   3.030   0.810  0.1507  1.2290  0.7830
11922TIP3   OH235710   3.365   4.230   4.354 -0.3508 -0.3569  0.1027
11922TIP3    H135711   3.413   4.234   4.271 -0.1270 -0.2015  0.2369
11922TIP3    H235712   3.277   4.260   4.333  0.0050  0.7589  0.1389
11923TIP3   OH235713   8.163   5.982   3.585  0.1162  0.4690  0.0607
11923TIP3    H135714   8.153   6.072   3.554 -0.0083  0.9124  1.3497
11923TIP3    H235715   8.187   5.990   3.677  1.1452 -0.8048 -0.0694
11924TIP3   OH235716   2.687   3.500   4.431  0.1007 -0.4060  0.6346
11924TIP3    H135717   2.600   3.463   4.413 -0.9439  2.0411  0.1699
11924TIP3    H235718   2.683   3.528   4.522  0.4123 -0.2731  0.6087
11925TIP3   OH235719   7.234   0.999   2.966  0.4211 -0.2606  0.5407
11925TIP3    H135720   7.293   0.939   3.011 -0.1097 -0.1365  1.4129
11925TIP3    H235721   7.187   0.943   2.903 -0.1024 -0.7815  1.3769
11926TIP3   OH235722   5.090   5.075   4.660  0.7221 -0.5482 -0.0523
11926TIP3    H135723   5.112   5.085   4.752 -0.9100  1.6370  0.1869
11926TIP3    H235724   5.018   5.012   4.659 -0.3963  0.6618  0.4243
11927TIP3   OH235725   6.408   4.165   6.625  0.5196  0.2234  0.3988
11927TIP3    H135726   6.496   4.128   6.614  0.8153  0.5982  1.3306
11927TIP3    H235727   6.419   4.259   6.608  0.8199  0.6731  2.7211
11928TIP3   OH235728   1.448   5.855   0.171 -0.5711 -0.3120  0.0219
11928TIP3    H135729   1.459   5.913   0.096 -0.6053  0.0061  0.2625
11928TIP3    H235730   1.518   5.790   0.162  0.9410  1.1141  1.0040
11929TIP3   OH235731   8.198   0.091   4.402 -0.0552  0.0410 -0.6408
11929TIP3    H135732   8.276   0.078   4.348  0.5783 -1.1650  0.5070
11929TIP3    H235733   8.155   0.006   4.401  0.3295 -0.2128  1.2606
11930TIP3   OH235734   5.299   7.532   0.125 -0.2755 -0.4626  0.1230
11930TIP3    H135735   5.214   7.546   0.166 -0.1506 -0.5008  0.4003
11930TIP3    H235736   5.346   7.475   0.186 -0.3105 -1.0370 -0.3722
11931TIP3   OH235737   4.644   6.074   2.721 -0.0631  0.1753  0.0122
11931TIP3    H135738   4.723   6.124   2.741  0.7851 -0.6548 -1.1330
11931TIP3    H235739   4.601   6.123   2.652  0.3322 -0.2361 -0.5296
11932TIP3   OH235740   1.359   5.916   3.800  0.3811  0.1099 -0.0655
11932TIP3    H135741   1.394   5.863   3.728  1.0395  0.5475 -0.0786
11932TIP3    H235742   1.410   5.997   3.797  0.3614  0.1636  0.8551
11933TIP3   OH235743   6.826   1.117   3.204 -0.5112  0.6687 -0.1295
11933TIP3    H135744   6.884   1.055   3.247  0.8456  1.6900 -0.4379
11933TIP3    H235745   6.797   1.072   3.124  2.8223  1.4257 -1.9240
11934TIP3   OH235746   4.026   2.172   6.379  0.1758  0.2412  0.0585
11934TIP3    H135747   3.972   2.248   6.357  0.5645  0.6719  0.5915
11934TIP3    H235748   3.969   2.118   6.434 -0.1381  0.0870 -0.4120
11935TIP3   OH235749   3.087   6.090   5.066  0.0009  0.1609  0.1949
11935TIP3    H135750   3.136   6.010   5.049  0.2388  0.0514  1.3368
11935TIP3    H235751   2.996   6.067   5.047  0.2457  0.0685 -0.9271
11936TIP3   OH235752   7.322   2.074   5.825 -0.6214 -0.1593 -0.3563
11936TIP3    H135753   7.262   2.083   5.751 -1.1157  2.2604  0.2480
11936TIP3    H235754   7.409   2.073   5.786 -0.8152  2.2205 -0.9746
11937TIP3   OH235755   1.093   3.319   3.499  0.0631 -1.1155 -0.0256
11937TIP3    H135756   1.131   3.365   3.574 -1.2299 -0.0349  0.0139
11937TIP3    H235757   1.125   3.229   3.507  1.2818 -0.6314  0.8751
11938TIP3   OH235758   8.203   4.858   5.913 -0.2895  0.1524 -0.8848
11938TIP3    H135759   8.207   4.784   5.974  0.6175 -1.1500 -2.4556
11938TIP3    H235760   8.202   4.935   5.970 -2.2705 -1.0328  0.8488
11939TIP3   OH235761   0.296   4.091   4.640 -0.2413 -0.4706 -0.1529
11939TIP3    H135762   0.338   4.176   4.654  1.0644 -1.1420  0.2532
11939TIP3    H235763   0.205   4.112   4.619  0.3456  1.0762 -1.3725
11940TIP3   OH235764   0.674   2.573   5.449  0.3912 -0.2333 -0.0752
11940TIP3    H135765   0.744   2.590   5.387  0.3816  0.4761  0.1024
11940TIP3    H235766   0.705   2.611   5.531  1.0745 -2.4536  0.7910
11941TIP3   OH235767   7.091   2.757   6.175 -0.3097 -0.1345  0.2683
11941TIP3    H135768   7.092   2.676   6.125 -0.5241 -0.3334  0.5801
11941TIP3    H235769   7.182   2.772   6.199 -0.2748 -0.3039  0.2419
11942TIP3   OH235770   1.227   6.608   2.046  0.1702  0.0711  0.6389
11942TIP3    H135771   1.164   6.565   1.988 -1.1096 -0.4890  2.3409
11942TIP3    H235772   1.278   6.665   1.989 -1.6114  0.2186 -0.9023
11943TIP3   OH235773   3.177   2.664   6.674  0.5576 -0.2691 -0.2877
11943TIP3    H135774   3.138   2.605   6.609 -1.8494 -0.0707  0.8623
11943TIP3    H235775   3.113   2.666   6.745  1.9754  1.4197  1.0107
11944TIP3   OH235776   2.599   5.169   0.934 -0.0376  0.3306 -0.2998
11944TIP3    H135777   2.511   5.200   0.956  0.0451  0.7989 -0.6070
11944TIP3    H235778   2.589   5.125   0.849 -0.0769 -0.1083 -0.0675
11945TIP3   OH235779   4.747   3.676   3.257 -0.4365  0.2999  0.5258
11945TIP3    H135780   4.816   3.742   3.253 -0.0827 -0.0918 -0.0072
11945TIP3    H235781   4.675   3.714   3.206 -0.7989  0.9081  1.4699
11946TIP3   OH235782   3.543   0.659   2.017 -0.2705  0.1077 -0.4503
11946TIP3    H135783   3.550   0.600   2.091 -2.5332 -0.0992 -0.3342
11946TIP3    H235784   3.573   0.743   2.050  3.0343 -0.8886 -0.6383
11947TIP3   OH235785   2.104   0.337   1.596  0.0346  0.3005 -0.1484
11947TIP3    H135786   2.086   0.425   1.629  0.3336  0.5754 -0.6970
11947TIP3    H235787   2.051   0.331   1.516  0.2503  0.0918 -0.2747
11948TIP3   OH235788   0.076   3.032   4.278  0.4492 -0.0652  0.8366
11948TIP3    H135789   0.013   3.007   4.346  0.7160 -0.1018  1.0738
11948TIP3    H235790   0.146   3.077   4.326 -0.7703  2.6301  0.2513
11949TIP3   OH235791   6.365   2.810   5.858  0.3752 -0.6307 -0.3646
11949TIP3    H135792   6.306   2.867   5.810  1.4267  0.6767 -0.1891
11949TIP3    H235793   6.327   2.802   5.945  0.3175 -0.0180 -0.3339
11950TIP3   OH235794   4.080   7.475   2.370 -0.1563 -0.4596 -0.4357
11950TIP3    H135795   4.106   7.441   2.455  0.0992 -0.6462 -0.5874
11950TIP3    H235796   3.988   7.449   2.360 -0.8374  1.3191  0.6738
11951TIP3   OH235797   3.145   3.074   1.516  0.6238  0.0486 -0.6115
11951TIP3    H135798   3.150   3.151   1.573  0.4470 -0.1790 -0.2837
11951TIP3    H235799   3.081   3.017   1.558 -0.0179  0.1698 -1.3878
11952TIP3   OH235800   6.766   4.930   5.833 -0.2469 -0.5329 -0.4071
11952TIP3    H135801   6.826   5.004   5.820 -1.8444  0.7677 -0.6724
11952TIP3    H235802   6.679   4.969   5.830 -1.1555 -2.4942 -0.9129
11953TIP3   OH235803   2.128   7.403   1.651  0.0344  0.1261 -0.2142
11953TIP3    H135804   2.093   7.479   1.605  1.8914  0.7080 -0.7690
11953TIP3    H235805   2.096   7.327   1.601 -1.1506  0.5695 -0.1445
11954TIP3   OH235806   1.664   2.800   5.493  0.1863 -0.8360  0.1438
11954TIP3    H135807   1.580   2.756   5.505  0.3954 -0.9644  1.2620
11954TIP3    H235808   1.659   2.839   5.406 -1.2265 -0.3923  0.4110
11955TIP3   OH235809   1.550   0.527   4.293  0.1014  0.6434  0.0003
11955TIP3    H135810   1.459   0.533   4.324 -0.5705 -0.4295 -1.6455
11955TIP3    H235811   1.574   0.436   4.307  0.7404  0.7949 -0.0942
11956TIP3   OH235812   4.547   0.649   5.644 -0.3924  0.3480  0.1921
11956TIP3    H135813   4.538   0.744   5.652  1.5888  0.5346  0.9423
11956TIP3    H235814   4.464   0.620   5.607 -0.4748  2.5450 -1.6042
11957TIP3   OH235815   7.845   6.435   4.877 -0.4817  0.1312  0.2786
11957TIP3    H135816   7.843   6.529   4.862  0.3490  0.7220  3.2390
11957TIP3    H235817   7.926   6.405   4.835 -0.3767  0.8602 -0.0384
11958TIP3   OH235818   6.917   4.490   4.234 -0.1354  0.5900  0.1211
11958TIP3    H135819   6.921   4.468   4.141  1.3251  0.2003  0.2477
11958TIP3    H235820   6.979   4.562   4.244  0.3509  0.0784  0.9268
11959TIP3   OH235821   6.600   6.624   3.346  0.7131  0.3652 -0.0190
11959TIP3    H135822   6.627   6.715   3.332  2.0224  0.0090  0.0729
11959TIP3    H235823   6.682   6.574   3.346  0.1780 -0.6052  1.5476
11960TIP3   OH235824   6.445   2.993   6.125  0.1730 -0.0778  0.2546
11960TIP3    H135825   6.508   2.974   6.055 -1.1109 -0.4436 -0.8411
11960TIP3    H235826   6.424   3.086   6.114 -0.4418 -0.2656 -0.2120
11961TIP3   OH235827   6.517   6.310   3.455  0.2390  0.0447 -0.4196
11961TIP3    H135828   6.612   6.303   3.457  0.2853  0.3712 -1.1212
11961TIP3    H235829   6.500   6.399   3.425 -0.2907  0.0589 -0.0904
11962TIP3   OH235830   6.055   4.607   6.084  0.1011 -0.5108  0.3141
11962TIP3    H135831   5.962   4.601   6.106  0.1862 -2.3417  0.3409
11962TIP3    H235832   6.057   4.616   5.989 -0.1136  0.3952  0.3912
11963TIP3   OH235833   7.618   6.291   0.970 -0.0068  0.4981  0.0323
11963TIP3    H135834   7.674   6.358   0.932 -0.0784 -0.3603 -1.6947
11963TIP3    H235835   7.670   6.252   1.039  1.4807 -0.0879 -1.3525
11964TIP3   OH235836   2.339   6.421   1.043  0.3898 -0.1673  0.3355
11964TIP3    H135837   2.365   6.479   1.114 -1.1867  2.8547 -1.3624
11964TIP3    H235838   2.243   6.415   1.051  0.4149 -1.7757 -0.1637
11965TIP3   OH235839   1.795   4.789   6.575  0.2513 -0.2519  0.3925
11965TIP3    H135840   1.850   4.756   6.646  0.7517  0.0399  0.1417
11965TIP3    H235841   1.841   4.866   6.542 -0.8219  0.6386  0.8806
11966TIP3   OH235842   5.540   2.513   0.935  0.2009  0.3698  0.0606
11966TIP3    H135843   5.467   2.543   0.880 -0.9958  1.2800  2.0233
11966TIP3    H235844   5.549   2.420   0.914 -1.9262  0.0823  0.1035
11967TIP3   OH235845   0.420   7.782   2.590  0.7996 -0.0625 -0.0304
11967TIP3    H135846   0.401   7.809   2.679  0.9963  1.0928 -0.3218
11967TIP3    H235847   0.504   7.823   2.570  0.4709  0.1916 -0.9503
11968TIP3   OH235848   8.119   7.534   4.338  0.4949  0.2856  0.2440
11968TIP3    H135849   8.079   7.583   4.266  1.2791 -0.0766 -0.4554
11968TIP3    H235850   8.098   7.442   4.319  1.6666  0.0820 -0.1749
11969TIP3   OH235851   7.567   3.985   3.820 -0.0557 -0.7535  0.1834
11969TIP3    H135852   7.499   4.001   3.755 -0.8877 -0.9872  0.9676
11969TIP3    H235853   7.523   3.996   3.904  1.0481 -0.2248  0.7192
11970TIP3   OH235854   1.762   3.993   1.402 -0.3713 -0.7316 -0.1710
11970TIP3    H135855   1.825   3.922   1.390 -0.4039 -0.5525 -1.5741
11970TIP3    H235856   1.787   4.058   1.336  0.0784  0.8892  1.5049
11971TIP3   OH235857   7.868   3.421   4.712  0.5132 -0.2229  0.1082
11971TIP3    H135858   7.866   3.371   4.793 -0.1808  0.8443  0.7821
11971TIP3    H235859   7.906   3.506   4.738  4.7276 -1.3169 -1.5845
11972TIP3   OH235860   1.031   2.836   1.215 -0.4257  0.4546  0.0028
11972TIP3    H135861   0.976   2.757   1.217  0.6424 -0.3159 -0.4467
11972TIP3    H235862   1.087   2.824   1.139  0.3135  1.2672  0.4067
11973TIP3   OH235863   4.080   1.521   2.033 -0.5175 -0.8185  0.6741
11973TIP3    H135864   4.134   1.582   1.983 -0.1456 -0.9245  0.9432
11973TIP3    H235865   4.132   1.501   2.111 -0.2340 -2.2150  0.1468
11974TIP3   OH235866   3.418   4.246   4.071 -0.1111  0.4099  0.3846
11974TIP3    H135867   3.509   4.236   4.043 -0.4506 -0.2797 -0.5241
11974TIP3    H235868   3.397   4.338   4.052 -0.4303 -0.1004 -2.0188
11975TIP3   OH235869   1.176   4.797   6.380  0.4216  1.0695 -0.0901
11975TIP3    H135870   1.089   4.819   6.413  1.2015  1.9360  1.4803
11975TIP3    H235871   1.178   4.834   6.291 -0.5746  1.6232  0.1059
11976TIP3   OH235872   4.851   3.455   4.381  0.2413  0.1062  0.1913
11976TIP3    H135873   4.914   3.383   4.383 -0.7110 -0.7389  1.6577
11976TIP3    H235874   4.904   3.534   4.369  1.3498 -0.7750 -0.8658
11977TIP3   OH235875   7.268   7.109   4.195  0.1152  0.4460 -0.3038
11977TIP3    H135876   7.332   7.041   4.216  0.5131  1.1954  1.0680
11977TIP3    H235877   7.304   7.155   4.119  0.6208  0.1092 -0.2696
11978TIP3   OH235878   0.779   6.767   3.152 -0.3748  0.0252 -0.0843
11978TIP3    H135879   0.731   6.721   3.084  1.8942 -1.6471 -0.6956
11978TIP3    H235880   0.842   6.702   3.185  0.2555  1.5220  1.8966
11979TIP3   OH235881   1.709   5.307   0.131 -0.8679  0.0052 -0.6996
11979TIP3    H135882   1.688   5.245   0.201  0.3884  0.6535  0.2985
11979TIP3    H235883   1.648   5.379   0.143 -1.8788 -0.7134 -1.4366
11980TIP3   OH235884   6.474   5.607   3.799 -0.9936  0.3839  0.2538
11980TIP3    H135885   6.468   5.698   3.771  0.2912  0.6616  0.8263
11980TIP3    H235886   6.388   5.589   3.839 -0.5257  2.0832  2.2255
11981TIP3   OH235887   3.301   4.808   1.612 -0.6280  0.0742  0.8298
11981TIP3    H135888   3.253   4.730   1.583  0.1198 -1.0393  2.4535
11981TIP3    H235889   3.232   4.870   1.636 -1.2426  0.2091 -1.1007
11982TIP3   OH235890   5.737   1.092   1.207  0.3144  0.1455  0.0673
11982TIP3    H135891   5.729   1.138   1.123 -1.7258 -2.6386 -1.4618
11982TIP3    H235892   5.663   1.123   1.259 -0.1386 -0.2074 -0.3522
11983TIP3   OH235893   4.223   4.410   2.887  0.4326 -0.3187 -0.2973
11983TIP3    H135894   4.268   4.363   2.816  1.4971 -0.9671  0.7660
11983TIP3    H235895   4.267   4.495   2.890  0.5925 -0.4045 -0.2109
11984TIP3   OH235896   1.979   3.347   1.095  0.4261  0.2834 -0.3929
11984TIP3    H135897   1.998   3.261   1.056 -0.7782  0.1310 -0.6797
11984TIP3    H235898   1.987   3.409   1.022 -0.1296  0.2174 -0.5171
11985TIP3   OH235899   1.844   6.477   0.435  0.2158 -0.0811  0.5576
11985TIP3    H135900   1.887   6.497   0.518  2.2123 -2.4394  0.2038
11985TIP3    H235901   1.793   6.398   0.454  0.5502 -0.5406 -0.4204
11986TIP3   OH235902   3.483   0.602   3.311  0.3798 -0.2001 -0.1199
11986TIP3    H135903   3.563   0.655   3.318 -0.8837  1.9076 -0.5534
11986TIP3    H235904   3.468   0.570   3.400  2.3348 -1.7093 -0.2721
11987TIP3   OH235905   4.995   2.284   4.007 -0.3063 -0.2086  0.0227
11987TIP3    H135906   4.938   2.229   4.061  1.4717 -1.2534  0.9455
11987TIP3    H235907   5.048   2.332   4.070  0.0318  0.5361 -0.8099
11988TIP3   OH235908   5.304   3.854   1.446  0.6337  0.5073  0.1259
11988TIP3    H135909   5.281   3.930   1.392 -1.9521  0.1022  0.5368
11988TIP3    H235910   5.242   3.857   1.519  2.4977 -0.3080  1.8383
11989TIP3   OH235911   0.576   6.363   6.253 -0.1188  0.6271 -0.0159
11989TIP3    H135912   0.637   6.423   6.296 -0.7861  0.8908  0.5903
11989TIP3    H235913   0.506   6.420   6.220 -1.8304  0.0537  2.3706
11990TIP3   OH235914   4.922   1.011   6.045  0.1761 -0.3488  0.6791
11990TIP3    H135915   5.006   0.994   6.004  0.9674  1.1460  1.5547
11990TIP3    H235916   4.930   0.974   6.133 -0.1418 -0.3519  0.7096
11991TIP3   OH235917   4.980   5.557   4.850  0.0133  0.0856  0.2992
11991TIP3    H135918   4.905   5.500   4.867 -0.6920  0.5773 -0.9785
11991TIP3    H235919   5.048   5.498   4.817 -0.7625 -0.0542 -1.1770
11992TIP3   OH235920   5.518   5.695   5.786  0.0893  0.1852 -0.6027
11992TIP3    H135921   5.450   5.652   5.836  0.1257 -0.6574 -1.2537
11992TIP3    H235922   5.523   5.783   5.823 -0.6043 -0.0833  0.1564
11993TIP3   OH235923   7.878   6.180   2.730  0.2439  0.5104  0.2765
11993TIP3    H135924   7.848   6.136   2.809 -1.4527  1.5394  0.2527
11993TIP3    H235925   7.960   6.223   2.755  0.0524  0.3041  1.2967
11994TIP3   OH235926   5.292   1.658   2.577 -0.1150 -0.1382  0.2593
11994TIP3    H135927   5.353   1.608   2.631 -0.0200  0.0239  0.3027
11994TIP3    H235928   5.332   1.659   2.490  0.3720  0.6891  0.4807
11995TIP3   OH235929   1.909   5.900   0.633 -0.1668  0.3414  0.0405
11995TIP3    H135930   1.915   5.819   0.683 -0.8143  0.2873  0.0334
11995TIP3    H235931   1.817   5.926   0.640  0.0601  1.1479  0.1587
11996TIP3   OH235932   0.477   3.969   1.198  0.0955  0.6179 -0.2718
11996TIP3    H135933   0.403   3.986   1.139  0.0822  0.7474 -0.2197
11996TIP3    H235934   0.554   3.984   1.144  0.1111  2.4654  0.1737
11997TIP3   OH235935   1.775   7.441   2.526 -0.6349  0.1762 -0.1350
11997TIP3    H135936   1.802   7.401   2.444 -1.1697 -1.3051  0.3751
11997TIP3    H235937   1.721   7.515   2.501  2.3382  2.1731 -1.1596
11998TIP3   OH235938   1.051   5.874   2.252 -0.2504  0.0097  0.1056
11998TIP3    H135939   1.081   5.786   2.226 -0.0475  0.1274 -0.0630
11998TIP3    H235940   1.131   5.926   2.256 -0.4571  0.3874 -0.5864
11999TIP3   OH235941   3.924   7.307   3.276 -0.2110 -0.0295 -0.0797
11999TIP3    H135942   4.008   7.264   3.262 -0.9808 -1.0558 -1.8075
11999TIP3    H235943   3.862   7.235   3.287 -1.3100  0.6021 -1.7166
12000TIP3   OH235944   4.747   6.456   5.626 -0.1422 -0.0563 -0.5151
12000TIP3    H135945   4.765   6.424   5.538 -0.0832  0.1307 -0.5716
12000TIP3    H235946   4.830   6.494   5.656 -0.0946 -0.3374 -0.2846
12001TIP3   OH235947   7.651   3.206   3.078  0.8525 -0.1455 -0.0834
12001TIP3    H135948   7.651   3.151   3.156 -3.1166 -2.7756 -1.6401
12001TIP3    H235949   7.625   3.293   3.110 -2.1746 -1.4856  1.5345
12002TIP3   OH235950   1.380   6.170   1.886 -0.1401  0.1090  1.1093
12002TIP3    H135951   1.388   6.229   1.961  0.1661 -0.4644  1.5330
12002TIP3    H235952   1.375   6.083   1.924  2.5423 -0.4491  0.4089
12003TIP3   OH235953   5.258   2.170   0.071  0.1147 -0.2520 -0.2761
12003TIP3    H135954   5.312   2.111   0.019 -0.8768  0.1661 -1.8576
12003TIP3    H235955   5.176   2.178   0.021 -0.3312  1.3152  0.6236
12004TIP3   OH235956   7.493   5.439   5.303 -0.2171  0.3692 -0.4157
12004TIP3    H135957   7.561   5.391   5.351 -0.0574  0.0423 -0.9568
12004TIP3    H235958   7.443   5.371   5.258 -1.8687  0.4591  1.1461
12005TIP3   OH235959   6.473   4.794   0.252  0.0522  0.3142 -0.1658
12005TIP3    H135960   6.545   4.781   0.190  1.0459 -1.5637  1.2975
12005TIP3    H235961   6.400   4.747   0.212  0.0611  0.8982 -0.9046
12006TIP3   OH235962   1.441   0.118   2.951  0.0071  0.4961 -0.7790
12006TIP3    H135963   1.372   0.160   2.899 -1.7882 -1.6110 -0.2929
12006TIP3    H235964   1.394   0.051   3.001  2.2662 -0.1347  0.6046
12007TIP3   OH235965   7.372   5.999   1.612 -0.3653 -0.3466 -0.1110
12007TIP3    H135966   7.394   6.041   1.695  0.9808 -0.4688 -0.3853
12007TIP3    H235967   7.345   5.911   1.636 -2.1228  0.2713  0.3659
12008TIP3   OH235968   1.750   3.270   6.698 -0.4129  0.2406  0.0256
12008TIP3    H135969   1.664   3.238   6.672 -0.8157  0.8024  0.6181
12008TIP3    H235970   1.784   3.204   6.758 -0.1935 -0.2432 -0.6205
12009TIP3   OH235971   2.536   3.104   5.527 -0.0322  0.1663  0.0432
12009TIP3    H135972   2.501   3.133   5.443 -0.6060 -0.8952 -0.0963
12009TIP3    H235973   2.572   3.017   5.510 -2.3627 -1.1711  1.3792
12010TIP3   OH235974   2.102   5.729   3.320  0.4408  0.1173 -0.2744
12010TIP3    H135975   2.188   5.715   3.280  1.0205  1.0813  0.5895
12010TIP3    H235976   2.063   5.642   3.323  1.6681 -0.4469 -0.0628
12011TIP3   OH235977   4.055   6.656   2.319  0.2196 -0.3374  0.1962
12011TIP3    H135978   4.142   6.640   2.281  0.9678  0.7211  1.3733
12011TIP3    H235979   4.035   6.575   2.366 -0.2755 -1.2799 -1.5686
12012TIP3   OH235980   1.816   6.448   2.555  0.2833 -0.0362 -0.3157
12012TIP3    H135981   1.745   6.468   2.495  0.4513  1.2544 -0.1196
12012TIP3    H235982   1.786   6.372   2.604 -1.3715  0.9888  0.3648
12013TIP3   OH235983   2.247   0.134   5.023 -0.3624  0.6455 -0.6124
12013TIP3    H135984   2.157   0.099   5.024 -1.0480  2.2766 -1.5001
12013TIP3    H235985   2.244   0.206   5.085  0.5835  0.2065 -0.0418
12014TIP3   OH235986   3.118   1.477   4.131 -0.2567 -0.1024 -0.4035
12014TIP3    H135987   3.191   1.432   4.090 -1.2048 -0.2103 -2.0664
12014TIP3    H235988   3.044   1.462   4.072 -1.3290  1.0455  0.5799
12015TIP3   OH235989   6.185   3.658   0.863 -0.4048  0.2752  0.0744
12015TIP3    H135990   6.243   3.610   0.922 -0.3082 -0.0067 -0.2472
12015TIP3    H235991   6.234   3.663   0.780 -0.5105  0.7259  0.0359
12016TIP3   OH235992   0.271   5.759   1.705  0.3178 -0.0205  0.0458
12016TIP3    H135993   0.344   5.820   1.689 -1.3729  3.1908  3.1535
12016TIP3    H235994   0.310   5.689   1.757  1.5877  0.5286 -0.1229
12017TIP3   OH235995   1.743   6.293   0.108 -0.1838  0.5983  0.1486
12017TIP3    H135996   1.765   6.302   0.016 -0.8760  1.4790  0.0557
12017TIP3    H235997   1.784   6.369   0.151 -1.0209  0.9573  0.3355
12018TIP3   OH235998   0.576   0.695   4.636 -0.4422  0.2108  0.3613
12018TIP3    H135999   0.634   0.764   4.603 -0.1831 -0.8734 -1.6033
12018TIP3    H236000   0.565   0.715   4.729  3.7764  0.0312  1.0875
12019TIP3   OH236001   6.961   6.532   2.691 -0.3068  0.5379 -0.0661
12019TIP3    H136002   6.941   6.451   2.643 -2.3570  0.5721  0.6490
12019TIP3    H236003   7.056   6.538   2.688 -0.1675 -1.3225 -1.0824
12020TIP3   OH236004   2.393   7.738   4.583  0.3645  0.6121 -0.4420
12020TIP3    H136005   2.317   7.777   4.540 -0.7602 -0.7201  0.2923
12020TIP3    H236006   2.369   7.735   4.676  0.0860 -2.4679 -0.5426
12021TIP3   OH236007   6.420   7.221   4.850  0.7737 -0.1764  0.1663
12021TIP3    H136008   6.331   7.194   4.872  1.3170 -0.0442  2.8738
12021TIP3    H236009   6.415   7.316   4.844  0.5788 -0.2265 -0.7150
12022TIP3   OH236010   4.013   4.782   0.610 -0.4248 -0.0303 -0.1386
12022TIP3    H136011   3.953   4.845   0.650 -0.5244 -0.3462  0.2228
12022TIP3    H236012   4.004   4.797   0.516 -0.4098  0.5235 -0.0532
12023TIP3   OH236013   2.795   3.977   1.128  0.4564 -0.2241 -0.1752
12023TIP3    H136014   2.729   3.915   1.098 -1.0714  1.0476  0.4157
12023TIP3    H236015   2.879   3.932   1.115 -0.5923 -2.5334  0.6183
12024TIP3   OH236016   2.636   1.568   3.816 -0.6941 -0.5866 -0.4693
12024TIP3    H136017   2.660   1.569   3.723 -0.3842 -0.5721 -0.3903
12024TIP3    H236018   2.572   1.498   3.823 -1.1254 -0.2265 -0.7933
12025TIP3   OH236019   0.900   2.191   2.975 -0.3728  0.2685 -0.3646
12025TIP3    H136020   0.961   2.150   2.913  0.6448  1.3249 -0.0970
12025TIP3    H236021   0.956   2.246   3.030 -1.2446 -0.5658  1.4522
12026TIP3   OH236022   1.513   0.995   4.491  0.0285  0.3491  0.0873
12026TIP3    H136023   1.499   0.997   4.396 -1.6100  0.7765  0.3045
12026TIP3    H236024   1.486   1.082   4.521  2.1199  0.8069  0.7769
12027TIP3   OH236025   3.357   5.528   1.807  0.2219  0.0502 -0.4798
12027TIP3    H136026   3.374   5.599   1.746 -0.2446  1.8421  1.3905
12027TIP3    H236027   3.288   5.561   1.864  1.2845 -1.1678  1.6295
12028TIP3   OH236028   1.355   1.863   2.721  0.3322 -0.2018  0.7954
12028TIP3    H136029   1.295   1.905   2.658  0.3569 -1.1780  0.0786
12028TIP3    H236030   1.324   1.772   2.724  1.1315 -0.4629  1.2248
12029TIP3   OH236031   4.328   0.645   3.071  0.3766  0.5177 -0.8922
12029TIP3    H136032   4.255   0.677   3.018 -0.1779  0.1709 -0.3633
12029TIP3    H236033   4.349   0.560   3.033 -1.0152 -0.4324  0.2950
12030TIP3   OH236034   6.702   2.251   2.660  0.2446 -0.3030 -0.4702
12030TIP3    H136035   6.669   2.340   2.673  0.3949 -0.3614  0.3676
12030TIP3    H236036   6.721   2.219   2.749  2.9335 -0.1343 -0.9288
12031TIP3   OH236037   6.270   4.012   0.502 -0.1299  0.0667 -0.2811
12031TIP3    H136038   6.219   4.007   0.421 -0.6518  1.8634 -0.1098
12031TIP3    H236039   6.359   3.988   0.477 -0.0194  1.7638 -1.6687
12032TIP3   OH236040   3.244   7.161   3.767  0.7503  0.6747  0.3369
12032TIP3    H136041   3.202   7.247   3.764  0.1845  0.3904 -0.0797
12032TIP3    H236042   3.192   7.112   3.830 -0.4524 -0.1375 -1.2381
12033TIP3   OH236043   4.985   2.907   4.968 -0.0260 -0.1261  0.5939
12033TIP3    H136044   4.918   2.955   4.920 -1.2290 -0.5835  1.7803
12033TIP3    H236045   5.008   2.964   5.042 -0.3978 -0.7303  1.1841
12034TIP3   OH236046   2.511   1.645   1.669  0.0594  0.1901 -0.6222
12034TIP3    H136047   2.543   1.721   1.717 -1.4496 -0.2527  1.1731
12034TIP3    H236048   2.467   1.681   1.593  0.7717  1.0045 -0.6684
12035TIP3   OH236049   3.114   6.427   0.468  0.5050  0.2969  0.1419
12035TIP3    H136050   3.115   6.360   0.400  2.5783 -0.4187  0.7817
12035TIP3    H236051   3.190   6.483   0.448  2.3834 -1.0436  2.7970
12036TIP3   OH236052   2.711   0.717   6.431  0.0907 -0.1752 -0.2247
12036TIP3    H136053   2.669   0.637   6.465 -0.8764 -0.7983 -2.6638
12036TIP3    H236054   2.640   0.781   6.430  0.5899  0.4004  0.6806
12037TIP3   OH236055   3.901   6.022   1.355 -0.2407 -0.8538 -0.7912
12037TIP3    H136056   3.925   5.980   1.272 -1.0434  1.4172 -2.2786
12037TIP3    H236057   3.808   6.042   1.346 -0.2710 -0.2860  0.5374
12038TIP3   OH236058   2.796   3.245   0.958 -0.3448 -0.0170 -0.2680
12038TIP3    H136059   2.829   3.170   1.007 -1.7156 -0.7587 -0.4250
12038TIP3    H236060   2.770   3.209   0.873 -1.6228  0.4866 -0.1147
12039TIP3   OH236061   4.640   3.703   5.216 -0.2335 -0.3735 -0.5543
12039TIP3    H136062   4.630   3.703   5.311 -2.2125 -0.7068 -0.7101
12039TIP3    H236063   4.617   3.792   5.190 -0.2290 -0.4283 -0.7460
12040TIP3   OH236064   7.205   4.087   4.617 -0.4378  0.0310 -0.1817
12040TIP3    H136065   7.236   4.147   4.549  0.4678 -0.3660 -0.1278
12040TIP3    H236066   7.149   4.141   4.673 -0.5159  0.5605 -0.7534
12041TIP3   OH236067   2.040   1.091   2.302 -0.2305 -0.1089 -0.1523
12041TIP3    H136068   1.995   1.132   2.376 -0.4263  0.6039 -0.6620
12041TIP3    H236069   2.048   0.999   2.328  0.3727  0.2711  1.0750
12042TIP3   OH236070   0.675   7.071   4.153 -0.5221 -0.6182  0.2949
12042TIP3    H136071   0.606   7.040   4.212 -0.1686 -1.7556  0.1171
12042TIP3    H236072   0.753   7.022   4.178  0.3716  0.9628  0.7937
12043TIP3   OH236073   5.925   7.129   1.933 -0.1278 -0.0302 -0.6398
12043TIP3    H136074   6.016   7.110   1.956 -0.3466  0.1213  0.4156
12043TIP3    H236075   5.874   7.094   2.006 -0.7532  1.7785 -0.1658
12044TIP3   OH236076   2.621   5.883   4.173  0.1123 -0.2261  0.2279
12044TIP3    H136077   2.611   5.971   4.137  1.0012 -0.5088 -0.7484
12044TIP3    H236078   2.627   5.826   4.097 -1.1299 -1.2386  0.8444
12045TIP3   OH236079   3.065   7.111   3.521 -0.0910  0.9688 -0.3123
12045TIP3    H136080   2.999   7.051   3.556  0.5217  0.2850 -0.3004
12045TIP3    H236081   3.069   7.183   3.584  1.0736 -0.2839  1.1526
12046TIP3   OH236082   2.018   1.361   5.070  0.1377 -0.3453  0.0159
12046TIP3    H136083   2.010   1.444   5.116 -0.8848 -0.5757  0.2725
12046TIP3    H236084   2.028   1.385   4.978 -1.0035  0.0533 -0.0155
12047TIP3   OH236085   1.894   1.164   2.525  0.2370 -0.1312  0.2151
12047TIP3    H136086   1.803   1.177   2.501  0.6242  1.0553 -0.7232
12047TIP3    H236087   1.910   1.229   2.594  0.6730  0.4976 -0.4629
12048TIP3   OH236088   0.439   3.097   1.840 -0.3374  0.2365 -0.5086
12048TIP3    H136089   0.500   3.167   1.863  0.8455 -0.6400 -0.8684
12048TIP3    H236090   0.417   3.114   1.748 -0.0480  0.1481 -0.5967
12049TIP3   OH236091   0.543   1.605   6.079 -0.4103  0.5594  0.0493
12049TIP3    H136092   0.605   1.634   6.012  0.3143 -0.8838  0.0734
12049TIP3    H236093   0.571   1.650   6.159 -0.8921  1.7886 -0.4509
12050TIP3   OH236094   4.535  -0.009   4.734  0.2592  0.1552  0.3230
12050TIP3    H136095   4.605   0.050   4.762 -1.7914  2.0137  1.8118
12050TIP3    H236096   4.467   0.048   4.700 -0.8789 -1.5366 -0.3786
12051TIP3   OH236097   6.533   3.186   0.801 -0.0015 -0.3009  0.1264
12051TIP3    H136098   6.615   3.195   0.851  0.2391  1.5728 -0.5378
12051TIP3    H236099   6.475   3.138   0.860  1.7335 -2.2512  0.3733
12052TIP3   OH236100   7.759   0.180   5.433  0.4039 -0.4193  0.0980
12052TIP3    H136101   7.790   0.213   5.517 -0.5004 -0.3802  0.4292
12052TIP3    H236102   7.732   0.090   5.451  0.1078 -0.3775 -0.1339
12053TIP3   OH236103   5.285   2.706   4.821  0.2400 -0.5498  0.4759
12053TIP3    H136104   5.300   2.629   4.765 -1.4797 -0.5665 -0.0147
12053TIP3    H236105   5.350   2.770   4.792 -0.0169 -0.8931 -0.9311
12054TIP3   OH236106   7.629   1.757   4.953 -0.0080  0.2205 -0.3766
12054TIP3    H136107   7.597   1.782   5.039 -0.2393 -1.6106  0.1055
12054TIP3    H236108   7.550   1.729   4.905  0.3153 -0.2663 -0.6334
12055TIP3   OH236109   3.918   6.973   1.945 -0.6194 -0.5029  0.8028
12055TIP3    H136110   3.878   7.054   1.978  1.4982  0.7178  0.5409
12055TIP3    H236111   3.932   6.919   2.022 -2.4427 -0.8592  0.9325
12056TIP3   OH236112   5.613   1.610   5.052  0.4672 -0.7111 -0.3146
12056TIP3    H136113   5.618   1.701   5.081  0.1032 -0.7314 -0.1781
12056TIP3    H236114   5.534   1.607   4.998  1.7004 -0.4289 -2.2217
12057TIP3   OH236115   5.492   3.909   4.123  0.2021  0.3403  0.3368
12057TIP3    H136116   5.442   3.966   4.065  1.3880  0.4742 -0.5854
12057TIP3    H236117   5.582   3.915   4.092  1.0514  1.0652  2.7066
12058TIP3   OH236118   8.047   5.509   6.127  0.3887  0.5111  0.2378
12058TIP3    H136119   8.088   5.500   6.040 -0.5960  0.8892 -0.2752
12058TIP3    H236120   8.056   5.423   6.166 -1.7685 -0.5777 -1.4301
12059TIP3   OH236121   2.743   6.121   1.488 -0.0808 -0.0468 -0.1522
12059TIP3    H136122   2.766   6.030   1.468 -0.4971  0.2806 -2.3509
12059TIP3    H236123   2.787   6.173   1.420 -1.2653  1.2322  0.0135
12060TIP3   OH236124   6.286   2.869   2.975  0.0024  0.2081  0.7392
12060TIP3    H136125   6.230   2.934   2.931 -1.6239 -0.0581  2.2855
12060TIP3    H236126   6.245   2.785   2.956  0.7148 -0.1480  0.7430
12061TIP3   OH236127   2.402   0.392   4.463  0.5039 -0.1696 -0.0718
12061TIP3    H136128   2.410   0.298   4.450 -0.2292 -0.1939 -0.3532
12061TIP3    H236129   2.427   0.430   4.378  0.7438 -0.1081  0.0241
12062TIP3   OH236130   2.443   0.779   1.328  0.0274 -0.0555 -0.2093
12062TIP3    H136131   2.438   0.872   1.352  0.3262  0.0530 -0.5734
12062TIP3    H236132   2.528   0.768   1.287  1.7537 -1.3117  3.2606
12063TIP3   OH236133   4.906   3.088   5.179  0.0705  0.3140  0.5182
12063TIP3    H136134   4.989   3.130   5.203  0.0877 -0.1631  1.3393
12063TIP3    H236135   4.840   3.156   5.192  0.3484  0.7923 -0.4347
12064TIP3   OH236136   5.745   2.164   5.894  0.4392  0.3886  0.1093
12064TIP3    H136137   5.782   2.211   5.969 -0.0829 -0.3619  0.8567
12064TIP3    H236138   5.696   2.091   5.933 -0.5914  0.5053 -0.9237
12065TIP3   OH236139   8.287   6.008   5.132 -0.2485  0.2123  0.4390
12065TIP3    H136140   8.301   6.093   5.089 -2.3534  0.9571  1.1117
12065TIP3    H236141   8.266   5.948   5.060  0.9844  0.2978 -0.0137
12066TIP3   OH236142   4.141   7.078   2.185  0.3795 -0.4443  0.1555
12066TIP3    H136143   4.049   7.105   2.183  0.0656 -1.2890  1.6725
12066TIP3    H236144   4.187   7.154   2.221  0.1125 -0.3781  0.3640
12067TIP3   OH236145   7.739   1.989   2.752 -0.6951 -0.0019 -0.4099
12067TIP3    H136146   7.807   2.056   2.749  0.9696 -1.5066  1.0367
12067TIP3    H236147   7.695   2.003   2.835 -0.8073 -0.2719 -0.4230
12068TIP3   OH236148   6.824   7.196   2.566  0.0261 -0.2525  0.1828
12068TIP3    H136149   6.892   7.129   2.560 -0.3593 -0.5509 -1.9731
12068TIP3    H236150   6.849   7.250   2.641  1.6904 -1.3490  0.4767
12069TIP3   OH236151   2.546   4.444   2.348 -0.2794 -0.1367  0.0721
12069TIP3    H136152   2.552   4.402   2.262 -0.7550 -1.2331  0.5548
12069TIP3    H236153   2.521   4.373   2.407  0.1883  0.5721  1.1454
12070TIP3   OH236154   6.601   2.418   3.436  0.4203  0.1684 -0.0567
12070TIP3    H136155   6.593   2.462   3.521 -1.6724 -0.3097  0.0441
12070TIP3    H236156   6.569   2.482   3.373  1.5503  0.3547 -0.4771
12071TIP3   OH236157   0.712   3.950   3.615  0.0216 -0.1423  0.9941
12071TIP3    H136158   0.800   3.973   3.645  1.0641 -0.1120 -1.7864
12071TIP3    H236159   0.661   4.030   3.626  1.7681  1.5879 -2.0922
12072TIP3   OH236160   4.958   5.907   4.147  0.2616 -0.0875 -0.5376
12072TIP3    H136161   5.015   5.893   4.072  0.4591 -0.8093 -0.2563
12072TIP3    H236162   4.891   5.968   4.116  1.9095  1.8479 -0.5141
12073TIP3   OH236163   3.865   5.610   5.769 -0.1021 -0.5465  0.1819
12073TIP3    H136164   3.805   5.562   5.827 -0.6325 -0.2124 -0.0805
12073TIP3    H236165   3.819   5.613   5.685 -1.1015  2.3049  0.7145
12074TIP3   OH236166   3.498   0.378   0.055  0.0444  0.2425  0.2754
12074TIP3    H136167   3.404   0.391   0.052 -0.1297  0.0811  2.9532
12074TIP3    H236168   3.523   0.364  -0.037 -2.0545  3.1273 -0.8954
12075TIP3   OH236169   3.886   3.079   2.460 -0.1322 -0.0703 -0.3733
12075TIP3    H136170   3.980   3.060   2.455 -0.2495 -1.0079  0.6736
12075TIP3    H236171   3.846   2.995   2.480 -1.1362  0.4376 -0.2154
12076TIP3   OH236172   2.547   5.520   2.858  0.0078 -0.1519 -0.4893
12076TIP3    H136173   2.568   5.527   2.951 -0.4693 -0.5256 -0.3476
12076TIP3    H236174   2.575   5.431   2.834 -0.2190 -0.1909 -0.6108
12077TIP3   OH236175   6.459   6.430   3.738 -0.1245  0.3202 -0.1219
12077TIP3    H136176   6.383   6.380   3.707 -0.2778  1.2497 -1.3332
12077TIP3    H236177   6.526   6.364   3.754 -1.5975 -0.6962  2.4589
12078TIP3   OH236178   6.700   5.094   1.783 -0.0484 -0.2678  0.1123
12078TIP3    H136179   6.753   5.063   1.856 -0.6587  0.0397  0.7013
12078TIP3    H236180   6.625   5.137   1.825  0.4190  1.4157 -0.6607
12079TIP3   OH236181   2.361   6.961   2.862  0.7461  0.3954  0.1549
12079TIP3    H136182   2.388   6.870   2.864  2.0617  0.6137 -2.3735
12079TIP3    H236183   2.266   6.959   2.856  0.6996 -0.7513  1.1356
12080TIP3   OH236184   5.396   1.445   2.987  0.0109  0.2056 -0.1463
12080TIP3    H136185   5.303   1.470   2.993 -0.0062  0.1750 -0.2687
12080TIP3    H236186   5.397   1.353   3.014  0.3999  0.9162  2.6067
12081TIP3   OH236187   1.584   0.215   3.261 -0.8685 -0.2484 -0.2732
12081TIP3    H136188   1.489   0.215   3.273 -0.8969  0.0857 -0.4971
12081TIP3    H236189   1.617   0.267   3.334 -0.9635  0.8450 -0.9870
12082TIP3   OH236190   7.233   6.529   5.956  0.1531 -0.4225 -0.1539
12082TIP3    H136191   7.240   6.604   5.897 -1.3361 -1.8155 -2.2470
12082TIP3    H236192   7.322   6.495   5.962  0.4621  0.2084 -0.9585
12083TIP3   OH236193   4.399   0.532   6.293  0.1332  0.4492  0.0479
12083TIP3    H136194   4.370   0.442   6.307 -1.3265  0.5584 -1.9126
12083TIP3    H236195   4.489   0.534   6.326 -0.3513 -1.2804  1.5959
12084TIP3   OH236196   2.663   4.932   2.697  0.5585 -0.4523  0.3243
12084TIP3    H136197   2.647   4.941   2.791 -1.0290  0.7984 -0.0190
12084TIP3    H236198   2.647   4.840   2.678 -0.7148 -0.3957  1.0194
12085TIP3   OH236199   5.232   1.238   2.642 -0.2704  0.0104 -0.3290
12085TIP3    H136200   5.289   1.170   2.677 -0.3240  0.1512  0.0358
12085TIP3    H236201   5.268   1.320   2.675 -0.7564  0.0927  0.0168
12086TIP3   OH236202   4.499   2.374   2.956  0.4119 -0.1833  0.3178
12086TIP3    H136203   4.492   2.331   2.871 -0.6748  0.0500  0.2740
12086TIP3    H236204   4.584   2.417   2.955 -0.9867  2.9610 -2.1715
12087TIP3   OH236205   0.376   4.136   5.359  0.2775  0.1964 -0.3576
12087TIP3    H136206   0.285   4.156   5.336  0.5225  0.4442 -1.1311
12087TIP3    H236207   0.410   4.088   5.284  0.6146 -0.4334  0.1827
12088TIP3   OH236208   6.009   2.573   2.411  0.6416 -0.1031 -0.5378
12088TIP3    H136209   6.021   2.661   2.447 -0.4913 -0.2530  0.2905
12088TIP3    H236210   6.089   2.526   2.435 -0.0661 -0.2074  1.9566
12089TIP3   OH236211   1.883   5.596   2.289 -0.1173 -0.1968 -0.0625
12089TIP3    H136212   1.828   5.560   2.359  1.0395 -0.0654  0.9662
12089TIP3    H236213   1.877   5.533   2.218 -1.8402 -0.0133 -0.1113
12090TIP3   OH236214   4.191   7.513   3.871  0.1963  0.4355 -0.5707
12090TIP3    H136215   4.114   7.560   3.839 -0.1853  0.0826 -0.1777
12090TIP3    H236216   4.172   7.494   3.962  0.3015 -0.5656 -0.7473
12091TIP3   OH236217  -0.009   3.100   0.855  0.0587  0.0157  0.1844
12091TIP3    H136218  -0.062   3.023   0.876 -2.1536  0.5003 -2.9682
12091TIP3    H236219   0.073   3.064   0.821 -0.2322 -0.8754  0.3887
12092TIP3   OH236220   5.077   4.144   1.655  0.2836  0.7325  0.2384
12092TIP3    H136221   5.087   4.056   1.619  1.1753  1.1850 -0.6332
12092TIP3    H236222   5.093   4.133   1.749 -0.4145 -0.1603  0.2707
12093TIP3   OH236223   7.630   1.085   5.805 -0.6786  0.2306  0.2665
12093TIP3    H136224   7.605   1.061   5.894  0.5818 -1.6601  0.1811
12093TIP3    H236225   7.603   1.010   5.752  1.5091 -0.1522 -0.4003
12094TIP3   OH236226   6.140   3.376   1.349 -0.5150  0.4481 -0.3495
12094TIP3    H136227   6.049   3.355   1.370 -0.1094  0.0182  1.1330
12094TIP3    H236228   6.159   3.326   1.270 -1.2343 -0.3724 -0.0185
12095TIP3   OH236229   4.981   7.629   5.410  0.5986 -0.1059  0.0175
12095TIP3    H136230   5.067   7.670   5.405  0.1887  0.7902  0.0248
12095TIP3    H236231   4.923   7.699   5.440 -0.2671 -0.4759 -0.7280
12096TIP3   OH236232   7.259   6.492   2.773 -0.4351 -0.1324  0.1222
12096TIP3    H136233   7.287   6.401   2.762  1.0166 -0.1112  2.8015
12096TIP3    H236234   7.282   6.533   2.689  1.9645 -1.5526 -0.0383
12097TIP3   OH236235   3.260   0.410   3.848  0.1470 -0.9779 -0.0757
12097TIP3    H136236   3.167   0.400   3.826  0.1434 -2.7506  0.5691
12097TIP3    H236237   3.301   0.329   3.817  1.4209 -0.3663 -0.0490
12098TIP3   OH236238   6.179   1.757   5.992  0.3028  0.0293  0.2430
12098TIP3    H136239   6.114   1.790   6.054  1.4067 -0.8657  1.9463
12098TIP3    H236240   6.147   1.670   5.968  0.2467  0.0845  0.1166
12099TIP3   OH236241   6.989   3.737   2.259 -0.3783 -0.7610 -0.0604
12099TIP3    H136242   7.000   3.709   2.168 -0.0589 -0.0504 -0.2475
12099TIP3    H236243   6.957   3.659   2.304  1.2767 -1.6943 -0.3885
12100TIP3   OH236244   7.123   0.042   6.761 -0.0621  0.2167 -0.1882
12100TIP3    H136245   7.087  -0.044   6.740 -0.6794  0.2437  0.7188
12100TIP3    H236246   7.054   0.104   6.733 -0.0872  0.3507  0.1640
12101TIP3   OH236247   1.262   4.637   3.202 -0.6386 -0.7175 -0.2570
12101TIP3    H136248   1.233   4.546   3.210 -1.7369 -0.2901  0.9032
12101TIP3    H236249   1.295   4.643   3.112 -1.5784 -1.9714 -0.7239
12102TIP3   OH236250   7.776   1.936   5.210  0.0503 -0.1355 -0.0252
12102TIP3    H136251   7.711   1.967   5.147 -0.4558  0.7302  0.8951
12102TIP3    H236252   7.859   1.972   5.178 -0.6285  3.3401  1.5889
12103TIP3   OH236253   3.080   5.188   2.638  0.3746  0.0611  0.6325
12103TIP3    H136254   3.003   5.211   2.690  0.9350  1.2335  0.9896
12103TIP3    H236255   3.145   5.160   2.703  0.5816  0.0843  0.4381
12104TIP3   OH236256   7.884   1.336   4.207 -0.3101 -0.6892  0.1491
12104TIP3    H136257   7.855   1.346   4.297 -0.2866  1.9331 -0.0535
12104TIP3    H236258   7.803   1.338   4.155 -0.2679 -1.3767  0.0488
12105TIP3   OH236259   7.837   2.785   4.087  0.4393 -0.1023 -0.1411
12105TIP3    H136260   7.858   2.875   4.064  0.8062 -0.1641 -0.0512
12105TIP3    H236261   7.899   2.763   4.156  0.1012 -0.2986  0.1073
12106TIP3   OH236262   0.229   0.105   4.759 -0.0227  0.1147 -0.5348
12106TIP3    H136263   0.151   0.068   4.799  0.4725  0.7215  1.0644
12106TIP3    H236264   0.242   0.054   4.679 -2.1419  0.1317 -0.9395
12107TIP3   OH236265   1.517   7.431   3.322 -0.0771  0.0577 -0.1259
12107TIP3    H136266   1.460   7.487   3.374  0.5065  0.1234  0.4537
12107TIP3    H236267   1.606   7.457   3.347  0.2194  0.0834 -1.1452
12108TIP3   OH236268   3.093   6.404   0.755  0.9119 -0.3882 -0.2807
12108TIP3    H136269   3.088   6.422   0.661 -0.7175  0.1126 -0.1317
12108TIP3    H236270   3.184   6.377   0.770  0.9386 -1.4767 -2.1569
12109TIP3   OH236271   6.410   6.239   2.643 -0.0024 -0.5690 -0.3258
12109TIP3    H136272   6.361   6.294   2.582 -0.4280 -1.1862 -0.5465
12109TIP3    H236273   6.480   6.296   2.676 -1.7641  0.8283  1.2005
12110TIP3   OH236274   6.855   1.619   4.349 -0.3264  0.2074 -0.2899
12110TIP3    H136275   6.839   1.660   4.434  0.7332 -0.2469  0.1476
12110TIP3    H236276   6.837   1.688   4.285  0.2970  1.0099  0.3767
12111TIP3   OH236277   2.233   2.216   4.403  0.3621  1.0327  0.3061
12111TIP3    H136278   2.240   2.304   4.440 -1.8421  1.3414  0.1587
12111TIP3    H236279   2.143   2.190   4.422  0.8524 -1.0555  0.0015
12112TIP3   OH236280   4.985   7.422   0.550 -0.6099 -0.3638  0.0513
12112TIP3    H136281   4.995   7.327   0.549  1.6196 -0.2192 -1.7185
12112TIP3    H236282   4.985   7.447   0.457  0.8789  1.4758  0.4693
12113TIP3   OH236283   0.494   2.977   4.277 -0.3513 -0.3331 -0.3539
12113TIP3    H136284   0.435   3.020   4.339  0.8352  0.1497  0.4764
12113TIP3    H236285   0.496   3.037   4.202  0.5233  0.6289  0.3961
12114TIP3   OH236286   4.268   2.188   5.879  0.1639  0.2075 -0.3142
12114TIP3    H136287   4.237   2.246   5.810  0.8368  0.5348 -0.3480
12114TIP3    H236288   4.279   2.245   5.955 -1.6150 -0.3294  0.4102
12115TIP3   OH236289   8.198   7.033   1.561  0.0103 -0.0073 -0.4770
12115TIP3    H136290   8.274   7.068   1.607  0.6140 -0.7636 -0.8776
12115TIP3    H236291   8.153   7.111   1.526  1.2527  0.3926 -1.2504
12116TIP3   OH236292   6.603   1.629   4.030 -0.0840 -0.1854 -0.1273
12116TIP3    H136293   6.529   1.580   4.065 -1.0730  1.3959  0.0873
12116TIP3    H236294   6.568   1.679   3.957  0.6329  0.9525  0.2654
12117TIP3   OH236295   6.181   7.417   2.131 -0.0376  0.1664  0.3270
12117TIP3    H136296   6.253   7.442   2.073 -0.9978  0.7353 -0.6468
12117TIP3    H236297   6.164   7.325   2.109  0.4939 -0.0266  0.6895
12118TIP3   OH236298   4.303   0.466   0.833  0.5587 -0.4654  0.2164
12118TIP3    H136299   4.233   0.408   0.864 -0.0040  0.5126  0.8248
12118TIP3    H236300   4.310   0.447   0.739  1.3790 -2.5393  0.6373
12119TIP3   OH236301   3.564   6.106   6.180 -0.4110 -0.2213  0.7257
12119TIP3    H136302   3.623   6.077   6.111 -0.7760  0.2242  0.2078
12119TIP3    H236303   3.477   6.082   6.148 -0.8491  2.3388 -0.2701
12120TIP3   OH236304   5.793   3.271   5.854 -0.5150  0.0011 -0.0424
12120TIP3    H136305   5.812   3.276   5.948 -2.2430  0.9469  0.2987
12120TIP3    H236306   5.843   3.342   5.815  1.0560 -1.0459 -0.0382
12121TIP3   OH236307   5.300   1.856   2.997  0.0702  0.5184 -0.0591
12121TIP3    H136308   5.282   1.775   2.948 -2.4263  0.3567  0.9775
12121TIP3    H236309   5.254   1.924   2.948  0.2524  0.9052  0.3052
12122TIP3   OH236310   1.579   1.711   1.421 -0.5140 -0.0240  0.0194
12122TIP3    H136311   1.662   1.669   1.400 -1.6316 -1.6801 -1.3671
12122TIP3    H236312   1.594   1.754   1.505  2.0584  0.7042 -0.7233
12123TIP3   OH236313   5.362   4.543   4.447 -0.4350  0.2285  0.3570
12123TIP3    H136314   5.427   4.524   4.380 -0.9906 -2.3960  0.4833
12123TIP3    H236315   5.283   4.566   4.398 -0.5465 -0.6606  0.1005
12124TIP3   OH236316   7.550   7.094   2.749 -0.3902  0.9160  0.0330
12124TIP3    H136317   7.542   7.185   2.780  0.9657  1.3529 -0.7879
12124TIP3    H236318   7.599   7.101   2.667 -2.8433 -0.3065 -1.6759
12125TIP3   OH236319   2.708   4.350   0.519  0.1674  0.2183  0.6688
12125TIP3    H136320   2.759   4.421   0.559 -0.8773  0.9599  0.7232
12125TIP3    H236321   2.729   4.355   0.426 -1.2199  1.7779  0.3857
12126TIP3   OH236322   5.326   1.518   0.236 -0.0819  0.3827  0.6560
12126TIP3    H136323   5.346   1.484   0.323  0.8791 -1.4191 -0.2181
12126TIP3    H236324   5.236   1.489   0.219 -0.4386  1.1366  1.2093
12127TIP3   OH236325   8.275   2.995   4.822  0.4102 -0.5977  0.3537
12127TIP3    H136326   8.285   3.069   4.882  1.9308 -1.3383  1.0816
12127TIP3    H236327   8.198   2.948   4.854  0.4729 -0.2951  0.9621
12128TIP3   OH236328   2.320   6.961   5.825  0.3834 -0.2503  0.0779
12128TIP3    H136329   2.350   6.966   5.734  0.5195 -0.4474  0.1119
12128TIP3    H236330   2.250   6.895   5.824 -0.0247  0.1733  0.0078
12129TIP3   OH236331   6.820   4.531   0.189  0.0081  0.0907  0.3690
12129TIP3    H136332   6.901   4.488   0.218  0.5923 -1.3753 -2.9177
12129TIP3    H236333   6.850   4.604   0.135 -0.8725  0.2872  0.1338
12130TIP3   OH236334   1.492   6.545   3.782  0.0191  0.7652  0.1620
12130TIP3    H136335   1.535   6.601   3.718 -1.1918  0.6218 -0.8211
12130TIP3    H236336   1.414   6.513   3.737  0.1889 -0.9771  1.0099
12131TIP3   OH236337   7.140   7.577   1.013  0.0951  0.0145 -0.0508
12131TIP3    H136338   7.191   7.554   1.091  0.2058 -0.3907 -0.2405
12131TIP3    H236339   7.064   7.625   1.047  1.0786  1.4875  0.1672
12132TIP3   OH236340   1.838   6.920   2.756 -0.0623 -0.1195  0.0268
12132TIP3    H136341   1.789   7.002   2.765 -0.0934 -0.1221 -0.1057
12132TIP3    H236342   1.771   6.852   2.755 -0.2279 -0.0064 -1.9429
12133TIP3   OH236343   1.760   6.940   0.832 -0.4780  0.3787 -0.1569
12133TIP3    H136344   1.731   6.867   0.777  1.8076 -0.5226 -0.2592
12133TIP3    H236345   1.829   6.983   0.782 -2.4862  3.3955 -0.5895
12134TIP3   OH236346   6.086   6.391   4.348 -0.1025  0.2260 -0.1025
12134TIP3    H136347   6.042   6.306   4.356  1.5192 -0.7809 -1.0659
12134TIP3    H236348   6.016   6.454   4.334 -1.3669 -0.9245  0.8482
12135TIP3   OH236349   6.104   7.641   0.182  0.2218  0.0001  0.3080
12135TIP3    H136350   6.177   7.701   0.194  0.0982 -0.1043  1.7990
12135TIP3    H236351   6.142   7.564   0.140  1.1190 -0.3026  1.6108
12136TIP3   OH236352   7.903   5.897   5.159 -0.0701 -0.3620 -0.3201
12136TIP3    H136353   7.927   5.947   5.081  0.0287 -1.0675 -0.7603
12136TIP3    H236354   7.987   5.866   5.194 -0.2219 -3.0850 -2.0300
12137TIP3   OH236355   3.441   3.098   5.661  0.2359 -0.2691 -0.1101
12137TIP3    H136356   3.435   3.188   5.693  0.2466 -0.2509 -0.1596
12137TIP3    H236357   3.426   3.105   5.567 -0.0248 -0.3483 -0.0754
12138TIP3   OH236358   1.768   6.939   5.491 -0.5525 -0.4648 -0.2533
12138TIP3    H136359   1.749   7.017   5.440 -1.8157 -0.7942 -0.3336
12138TIP3    H236360   1.803   6.876   5.428  4.1216  1.1302  0.3842
12139TIP3   OH236361   7.094   2.066   3.938  0.0876 -0.0214  0.2594
12139TIP3    H136362   7.086   2.125   4.013  0.4634  0.9775 -0.4723
12139TIP3    H236363   7.136   2.119   3.870 -2.2874 -0.1767 -1.4590
12140TIP3   OH236364   8.246   3.809   2.854  0.6463 -0.3334 -0.2892
12140TIP3    H136365   8.248   3.905   2.863  0.9842 -0.4307  0.8258
12140TIP3    H236366   8.205   3.794   2.769 -1.5539  0.7609  0.5029
12141TIP3   OH236367   2.102  -0.001   2.645 -0.1787 -0.0143 -0.3251
12141TIP3    H136368   2.115   0.082   2.600  0.8959  0.2068  0.3312
12141TIP3    H236369   2.018   0.008   2.690 -0.4687  0.3861 -0.9423
12142TIP3   OH236370   2.959   4.905   5.227 -0.1854 -0.5541  0.1079
12142TIP3    H136371   2.960   4.900   5.323  0.5112 -0.2080  0.1301
12142TIP3    H236372   2.957   4.814   5.198  0.7034 -0.6951  0.4572
12143TIP3   OH236373   5.794   2.766   1.351 -0.6578  0.2257  0.1263
12143TIP3    H136374   5.857   2.730   1.289 -1.0988 -0.0456 -0.1633
12143TIP3    H236375   5.811   2.719   1.433 -0.6478 -0.0169 -0.0156
12144TIP3   OH236376   2.546   6.204   5.835 -0.3746 -0.3756 -0.2707
12144TIP3    H136377   2.592   6.132   5.790 -1.2041 -0.7305 -0.5678
12144TIP3    H236378   2.464   6.213   5.787  0.1301  1.4556 -0.8759
12145TIP3   OH236379   1.773   7.429   1.162  1.0223  0.0242  0.3252
12145TIP3    H136380   1.769   7.335   1.179  0.3339  0.0884  0.5421
12145TIP3    H236381   1.817   7.435   1.077 -0.1728 -0.5865 -0.3758
12146TIP3   OH236382   5.333   2.535   0.745  0.0669 -0.0582 -0.4029
12146TIP3    H136383   5.264   2.544   0.812  1.3379 -1.9277  1.2849
12146TIP3    H236384   5.293   2.482   0.676 -1.0779  1.3816 -0.8892
12147TIP3   OH236385   0.452   3.843   2.243 -0.1765 -0.3717  0.2464
12147TIP3    H136386   0.367   3.855   2.200  0.5546  1.4169 -0.7898
12147TIP3    H236387   0.516   3.868   2.177  1.1733 -1.3085  1.1476
12148TIP3   OH236388   6.632   6.337   6.613  0.4156 -0.4882 -0.1502
12148TIP3    H136389   6.665   6.256   6.651  0.3435 -1.7985 -2.6830
12148TIP3    H236390   6.561   6.364   6.671  1.6133 -1.2076  1.7427
12149TIP3   OH236391   5.818   4.061   5.330  0.6934  0.4896 -0.4031
12149TIP3    H136392   5.848   4.144   5.368 -0.2206  0.4761  0.3990
12149TIP3    H236393   5.807   4.003   5.406 -1.1149  0.4438 -0.6549
12150TIP3   OH236394   8.107   2.934   1.574  0.3451 -0.0759  0.6077
12150TIP3    H136395   8.024   2.964   1.538  1.5610  0.5676 -1.8452
12150TIP3    H236396   8.082   2.870   1.641 -2.1044  0.5112  0.3589
12151TIP3   OH236397   3.507   6.533   5.780  0.0828  0.5061 -0.4916
12151TIP3    H136398   3.447   6.462   5.757  0.7419 -0.8342  1.6178
12151TIP3    H236399   3.453   6.596   5.827  0.4036 -1.3546  2.6566
12152TIP3   OH236400   4.559   0.063   1.186 -0.1675  0.3402 -0.4779
12152TIP3    H136401   4.588   0.069   1.277 -2.7926 -1.0463  0.5296
12152TIP3    H236402   4.610  -0.009   1.149  0.7032  0.7261 -0.0772
12153TIP3   OH236403   3.667   6.233   5.711  0.1788 -0.2148 -0.5970
12153TIP3    H136404   3.656   6.172   5.784  0.4081  3.4483  2.8605
12153TIP3    H236405   3.578   6.249   5.680 -0.1538 -0.3286  0.2695
12154TIP3   OH236406   1.848   2.085   5.006 -0.4687  0.0579 -0.2581
12154TIP3    H136407   1.792   2.039   4.943  1.7661 -0.1680 -2.2189
12154TIP3    H236408   1.914   2.020   5.030  0.5372  1.1056 -0.1422
12155TIP3   OH236409   4.955   6.551   5.757 -0.5355 -0.1386 -0.3921
12155TIP3    H136410   4.993   6.600   5.829 -2.3250  1.7450 -0.6510
12155TIP3    H236411   5.012   6.570   5.682 -0.0794 -0.1175 -0.0454
12156TIP3   OH236412   0.683   0.414  -0.002 -0.2643  0.6454 -0.5940
12156TIP3    H136413   0.726   0.443   0.078 -0.2496  0.0452 -0.3834
12156TIP3    H236414   0.621   0.347   0.026 -1.3102  1.4492 -0.8987
12157TIP3   OH236415   5.089   3.700   4.832 -0.2799 -0.4085 -0.1516
12157TIP3    H136416   5.131   3.634   4.777  1.8534 -0.7175  1.7138
12157TIP3    H236417   5.120   3.784   4.797  0.2368 -0.5607 -0.0667
12158TIP3   OH236418   2.018   7.644   5.702 -0.2023  0.2656  0.2923
12158TIP3    H136419   1.947   7.663   5.763 -0.6568 -0.3426 -0.0388
12158TIP3    H236420   2.025   7.723   5.648  0.3093  0.8773  1.2072
12159TIP3   OH236421   5.281   4.752   1.341  0.2999  0.1979  0.3984
12159TIP3    H136422   5.339   4.684   1.374 -0.5189 -0.9699 -0.4797
12159TIP3    H236423   5.247   4.795   1.420  1.5051  0.1968  0.9349
12160TIP3   OH236424   4.491   6.957   0.901  0.5631  0.3295 -0.0044
12160TIP3    H136425   4.408   6.989   0.865 -0.1711 -1.3480  0.0962
12160TIP3    H236426   4.506   6.874   0.854  0.6824 -0.8259  1.9773
12161TIP3   OH236427   6.324   4.786   1.623  0.2960 -0.9193 -0.1244
12161TIP3    H136428   6.309   4.877   1.598  2.1938 -0.1665  1.2518
12161TIP3    H236429   6.237   4.753   1.646 -0.1103  1.6321  2.6546
12162TIP3   OH236430   6.094   6.246   0.573 -0.4086  0.1914 -0.0218
12162TIP3    H136431   6.181   6.220   0.543  0.1293  0.3687  1.3376
12162TIP3    H236432   6.078   6.191   0.650 -1.1424  0.7514  0.2366
12163TIP3   OH236433   1.235   6.161   4.967 -0.5744 -0.0247  0.2823
12163TIP3    H136434   1.268   6.222   4.901  0.4290 -0.3349  0.4919
12163TIP3    H236435   1.141   6.178   4.969 -0.8508 -0.8292 -2.1002
12164TIP3   OH236436   1.973   6.607   3.078  0.5653  0.0222 -0.0486
12164TIP3    H136437   2.065   6.632   3.085  0.4094  0.5884  0.1012
12164TIP3    H236438   1.927   6.691   3.071  0.1917 -0.2946 -1.7851
12165TIP3   OH236439   7.463   6.546   2.453 -0.0753  0.4677  0.4622
12165TIP3    H136440   7.500   6.518   2.536  0.4260  0.3499  0.2053
12165TIP3    H236441   7.536   6.540   2.391 -0.5654  0.0698 -0.0917
12166TIP3   OH236442   2.740   5.489   1.611 -0.2219  0.7175  0.1760
12166TIP3    H136443   2.703   5.442   1.537 -0.2711 -0.6153  1.0002
12166TIP3    H236444   2.707   5.442   1.688  0.0835  1.8597  1.0348
12167TIP3   OH236445   0.366   6.843   6.726  0.7317  0.5998  0.0085
12167TIP3    H136446   0.444   6.790   6.741  0.1797 -0.0266  0.8108
12167TIP3    H236447   0.313   6.830   6.805 -1.3934 -1.1713 -1.5446
12168TIP3   OH236448   4.298   1.367   0.171  0.0591 -0.0536 -0.0536
12168TIP3    H136449   4.321   1.290   0.223 -1.8440 -0.4481  0.2663
12168TIP3    H236450   4.280   1.332   0.083  3.7268  0.6610 -1.2884
12169TIP3   OH236451   1.548   4.528   2.837  0.3625  0.3174  0.0541
12169TIP3    H136452   1.485   4.556   2.904  0.8095 -0.7724  0.9612
12169TIP3    H236453   1.613   4.598   2.835  0.1879  0.5060  0.5618
12170TIP3   OH236454   8.152   2.983   6.223 -0.0113  0.0721 -0.1540
12170TIP3    H136455   8.167   2.889   6.213 -0.3945  0.0252 -0.3250
12170TIP3    H236456   8.214   3.011   6.290  0.1590 -0.2881 -0.1608
12171TIP3   OH236457   8.019   1.702   5.823  0.2531  0.2423  0.3475
12171TIP3    H136458   8.014   1.672   5.732  0.8641  0.6204  0.1836
12171TIP3    H236459   8.090   1.650   5.861  0.1322  0.2267  0.5539
12172TIP3   OH236460   7.805   2.855   3.112 -0.1638  0.2139  0.1357
12172TIP3    H136461   7.877   2.912   3.140 -0.5061  0.2380  0.9802
12172TIP3    H236462   7.770   2.818   3.193 -0.7390 -0.2482 -0.3121
12173TIP3   OH236463   3.941   3.533   5.852  0.1005 -0.9444 -0.3856
12173TIP3    H136464   3.974   3.501   5.936  0.6835 -1.0410 -0.6441
12173TIP3    H236465   3.897   3.458   5.814  0.2522 -1.0409 -0.3738
12174TIP3   OH236466   4.291   2.678   5.698  0.0134 -0.1522  0.6896
12174TIP3    H136467   4.243   2.609   5.652  1.1062 -1.2738  1.1665
12174TIP3    H236468   4.381   2.670   5.665  0.2499  0.7454  1.0988
12175TIP3   OH236469   7.077   6.197   0.777 -0.3254 -0.0102 -0.7455
12175TIP3    H136470   7.146   6.135   0.802  0.1166  0.6845 -0.1816
12175TIP3    H236471   7.077   6.196   0.681 -0.3853 -0.9354 -0.7426
12176TIP3   OH236472   4.145   1.930   6.409 -0.1316 -0.3418 -0.1452
12176TIP3    H136473   4.093   1.852   6.393  0.9088 -0.6050 -2.7484
12176TIP3    H236474   4.102   1.999   6.358  0.5864  0.0565 -0.2336
12177TIP3   OH236475   4.716   5.928   1.192 -0.0129 -0.3517 -0.1728
12177TIP3    H136476   4.751   6.009   1.155 -0.5315 -0.1536 -0.2391
12177TIP3    H236477   4.721   5.941   1.287  2.7751 -1.4691 -0.0492
12178TIP3   OH236478   1.182   7.640   4.371 -0.6696 -0.8960  0.4465
12178TIP3    H136479   1.271   7.627   4.338 -0.6012  0.1315  0.1914
12178TIP3    H236480   1.190   7.711   4.434 -1.3474 -0.6037  0.2188
12179TIP3   OH236481   4.429   0.220   5.039 -0.3793  0.5128 -0.2280
12179TIP3    H136482   4.412   0.203   5.131  0.1776  0.5290 -0.1159
12179TIP3    H236483   4.456   0.311   5.035  0.8853  0.1635 -0.2084
12180TIP3   OH236484   6.861   7.058   0.226  0.2622 -0.6445 -0.0033
12180TIP3    H136485   6.947   7.069   0.267  0.2286 -0.4765  0.0219
12180TIP3    H236486   6.870   6.978   0.175  0.7965 -0.0375 -0.9039
12181TIP3   OH236487   0.604   2.866   0.397  0.1793  0.4308 -0.2825
12181TIP3    H136488   0.547   2.840   0.324 -0.8246 -0.3245  0.7256
12181TIP3    H236489   0.691   2.839   0.369 -0.2237 -0.0995 -1.0939
12182TIP3   OH236490   2.994   2.043   0.635  0.0837 -0.1733 -0.0855
12182TIP3    H136491   2.989   2.118   0.575 -2.3503  1.3126  1.7937
12182TIP3    H236492   3.042   2.077   0.711 -2.6937  0.2372  1.6049
12183TIP3   OH236493   6.347   0.268   1.191  0.0388  0.3074 -0.4779
12183TIP3    H136494   6.433   0.294   1.225 -0.1263  1.5911 -0.9923
12183TIP3    H236495   6.356   0.175   1.173  0.9867  0.1934  0.4667
12184TIP3   OH236496   3.647   0.349   2.759 -0.2983 -0.1410  0.1841
12184TIP3    H136497   3.599   0.276   2.798  0.9683 -0.6292  0.8946
12184TIP3    H236498   3.656   0.412   2.831 -0.1259  0.0572 -0.0099
12185TIP3   OH236499   1.490   0.530   0.720  0.6592  0.1647 -0.3156
12185TIP3    H136500   1.473   0.624   0.713 -0.6927 -0.0142  0.2162
12185TIP3    H236501   1.477   0.510   0.812 -1.3901 -0.9377 -0.7881
12186TIP3   OH236502   2.496   6.725   5.919  0.3700 -0.3576  0.0142
12186TIP3    H136503   2.550   6.738   5.841 -0.1846  1.5679 -0.1076
12186TIP3    H236504   2.406   6.732   5.887  0.1392  0.4748  0.8038
12187TIP3   OH236505   1.555   1.390   4.064 -0.4123 -0.0367  0.0155
12187TIP3    H136506   1.619   1.346   4.008 -1.3168 -0.4072 -0.7562
12187TIP3    H236507   1.491   1.427   4.002 -0.1658  1.5891  0.6884
12188TIP3   OH236508   6.712   1.223   0.713 -0.6656 -0.5743  0.1897
12188TIP3    H136509   6.765   1.147   0.689  0.3114 -0.1428  0.9145
12188TIP3    H236510   6.690   1.209   0.805  1.0227  0.8306  0.8620
12189TIP3   OH236511   5.289   0.142   4.700  0.3235  0.0259  0.2865
12189TIP3    H136512   5.383   0.159   4.696  0.0841  1.2909 -2.3128
12189TIP3    H236513   5.277   0.062   4.649 -0.0324 -0.0847  0.5365
12190TIP3   OH236514   6.271   3.418   1.851 -0.3926  0.2864  0.0256
12190TIP3    H136515   6.281   3.414   1.756  0.5858 -0.4083  0.1436
12190TIP3    H236516   6.192   3.470   1.864 -0.0641  1.1468 -1.1465
12191TIP3   OH236517   2.455   7.392   0.684 -0.1777  0.1655 -0.1296
12191TIP3    H136518   2.378   7.382   0.740  0.2136  1.2292  0.6443
12191TIP3    H236519   2.528   7.396   0.745  0.4709 -0.5201 -0.8420
12192TIP3   OH236520   4.264   2.034   4.766 -0.3533  0.2826  0.9048
12192TIP3    H136521   4.210   2.112   4.757 -0.4241  0.1451  0.0073
12192TIP3    H236522   4.209   1.971   4.813 -0.1731  0.8753  1.9232
12193TIP3   OH236523   1.162   6.476   4.673 -0.4095 -0.6051  0.1464
12193TIP3    H136524   1.099   6.417   4.716  0.0166  0.1866  1.9383
12193TIP3    H236525   1.236   6.419   4.650 -1.1387 -1.2608 -0.6425
12194TIP3   OH236526   7.464   6.232   2.516 -0.2299 -0.5463 -0.1116
12194TIP3    H136527   7.424   6.256   2.432 -0.3946 -0.3403  0.0251
12194TIP3    H236528   7.470   6.137   2.513  2.5212 -0.4133 -1.6263
12195TIP3   OH236529   4.734   1.572   4.859  0.0913  0.8095  0.3435
12195TIP3    H136530   4.651   1.619   4.855 -0.3028  0.3462  2.2238
12195TIP3    H236531   4.783   1.617   4.928  0.2426 -0.6575  1.2318
12196TIP3   OH236532   7.087   0.744   3.799 -0.3924  0.2525  0.4287
12196TIP3    H136533   7.121   0.685   3.867 -1.0423  0.1069  0.6313
12196TIP3    H236534   7.042   0.814   3.846 -0.5516  0.3346  0.1620
12197TIP3   OH236535   6.908   1.385   6.186 -0.0737  0.7308 -0.1563
12197TIP3    H136536   6.861   1.464   6.158  0.6678  2.2658  2.5114
12197TIP3    H236537   6.958   1.414   6.263  2.7402 -1.5857 -0.9503
12198TIP3   OH236538   1.470   4.415   6.519 -0.2724 -0.9503  0.0214
12198TIP3    H136539   1.423   4.459   6.447 -0.9635 -1.5342  0.0992
12198TIP3    H236540   1.517   4.486   6.563 -1.4066 -0.2584  0.1808
12199TIP3   OH236541   8.006   5.952   5.511  0.2757 -0.7943 -0.1685
12199TIP3    H136542   8.025   5.933   5.603  1.2576  0.4246 -0.1010
12199TIP3    H236543   7.917   5.921   5.498  0.4059 -1.7223  0.9737
12200TIP3   OH236544   1.484   1.521   2.692  0.2130  0.4806 -0.2084
12200TIP3    H136545   1.556   1.488   2.638 -0.4151  1.2969 -1.5958
12200TIP3    H236546   1.415   1.543   2.629 -1.0928  0.1357  1.0522
12201TIP3   OH236547   2.688   4.267   4.628 -0.0218 -0.1564 -0.9449
12201TIP3    H136548   2.666   4.249   4.720 -2.0355  2.0101 -0.8876
12201TIP3    H236549   2.725   4.186   4.596 -0.2532 -1.3398  1.5063
12202TIP3   OH236550   7.597   6.548   1.706  0.0371 -0.2134 -0.0818
12202TIP3    H136551   7.637   6.632   1.683 -1.0281  0.2999 -0.0751
12202TIP3    H236552   7.529   6.570   1.770 -0.2297 -1.0842 -0.0549
12203TIP3   OH236553   6.527   5.880   4.486  0.4381  0.1804 -0.5146
12203TIP3    H136554   6.593   5.815   4.511  1.1805  1.6873  1.7175
12203TIP3    H236555   6.578   5.953   4.451 -0.3472 -0.0685 -2.3097
12204TIP3   OH236556   3.104   0.095   0.389 -0.3433  0.1719 -0.2791
12204TIP3    H136557   3.133   0.109   0.298  0.4957  1.5698  0.1740
12204TIP3    H236558   3.178   0.126   0.442 -1.7811  1.7380  0.9080
12205TIP3   OH236559   0.876   6.764   4.524  0.3026  0.5720  0.6658
12205TIP3    H136560   0.825   6.799   4.598  0.7316 -0.7806  1.6404
12205TIP3    H236561   0.812   6.713   4.473 -0.0714  1.7919 -0.1222
12206TIP3   OH236562   1.406   1.956   4.695  0.0437 -0.2006 -0.2796
12206TIP3    H136563   1.408   2.031   4.756 -0.4594  1.1049 -1.8017
12206TIP3    H236564   1.358   1.888   4.743  1.0928  0.1826  1.4044
12207TIP3   OH236565   3.345   2.764   6.185  0.3723 -0.3018 -0.6300
12207TIP3    H136566   3.385   2.745   6.100  1.6921  0.7746 -0.2904
12207TIP3    H236567   3.398   2.714   6.248  0.8377  0.6673 -0.2351
12208TIP3   OH236568   0.038   5.159   1.861  0.4842 -0.7636 -0.0203
12208TIP3    H136569   0.132   5.165   1.881  0.5595 -1.6158 -0.1063
12208TIP3    H236570   0.028   5.208   1.779  0.6527  0.3156  0.5889
12209TIP3   OH236571   0.545   6.051   4.087 -0.1841 -0.2356 -0.2971
12209TIP3    H136572   0.612   5.989   4.058  0.2828 -0.1716  0.6119
12209TIP3    H236573   0.580   6.137   4.061 -1.2925 -0.3633 -2.4711
12210TIP3   OH236574   1.149   3.403   0.516 -0.3472 -0.3584  0.7571
12210TIP3    H136575   1.084   3.435   0.454 -0.0201  0.4496  0.8250
12210TIP3    H236576   1.194   3.481   0.548 -0.0466 -0.8164  1.5017
12211TIP3   OH236577   7.941   3.052   6.589  0.0625  0.0304 -0.0371
12211TIP3    H136578   7.941   3.123   6.652 -0.2013 -0.7850  0.9071
12211TIP3    H236579   7.895   2.980   6.633 -0.8508 -0.3066 -1.4457
12212TIP3   OH236580   1.790   5.122   1.419 -0.5064 -0.3355  0.3066
12212TIP3    H136581   1.856   5.135   1.351 -0.9732  1.5812  0.1816
12212TIP3    H236582   1.830   5.157   1.498 -0.8653 -0.4282  0.5311
12213TIP3   OH236583   3.852   2.762   2.020  0.4873 -0.6232 -0.4291
12213TIP3    H136584   3.795   2.747   1.944 -1.2703 -0.8848  0.8861
12213TIP3    H236585   3.854   2.858   2.029 -0.8946 -0.6325  0.2985
12214TIP3   OH236586   7.822   1.968   6.371 -0.0934 -0.0409 -0.2230
12214TIP3    H136587   7.881   1.977   6.446 -1.6404 -0.7672  1.1490
12214TIP3    H236588   7.781   1.883   6.384  0.6632 -0.8660 -2.7436
12215TIP3   OH236589   3.429   3.972   0.008  0.1605  0.0182 -0.4294
12215TIP3    H136590   3.453   4.063  -0.010  0.4896  0.0846  0.3039
12215TIP3    H236591   3.500   3.939   0.063  0.0454 -0.6878 -0.6925
12216TIP3   OH236592   2.454   2.334   6.596  0.0725 -0.4269  0.2480
12216TIP3    H136593   2.390   2.399   6.627 -0.4690 -1.3756  1.1945
12216TIP3    H236594   2.412   2.294   6.520  0.5996  0.6138 -0.6154
12217TIP3   OH236595   0.916   7.624   4.719 -0.2309 -0.5175 -0.2660
12217TIP3    H136596   0.931   7.633   4.625  0.4098  2.4628  0.0367
12217TIP3    H236597   0.828   7.656   4.732  0.8617  2.4843  0.4724
12218TIP3   OH236598   1.551   6.388   2.501 -0.4956  0.2844 -0.6144
12218TIP3    H136599   1.477   6.332   2.525 -1.0450  0.6341 -1.4693
12218TIP3    H236600   1.514   6.454   2.442  0.2076  1.3488  0.0954
12219TIP3   OH236601   1.926   0.587   1.823 -0.5085 -0.2015 -0.2285
12219TIP3    H136602   1.968   0.623   1.745 -0.8201 -0.6017 -0.5869
12219TIP3    H236603   1.996   0.542   1.869 -0.1365  0.7455  0.1674
12220TIP3   OH236604   4.680   1.386   2.400  0.0581 -0.0376  0.3425
12220TIP3    H136605   4.766   1.346   2.383 -0.1341 -0.7602  1.0143
12220TIP3    H236606   4.617   1.322   2.367 -0.2516 -0.2064  1.2469
12221TIP3   OH236607   5.016   4.283   5.233  0.2815 -0.9450  0.3227
12221TIP3    H136608   4.964   4.347   5.282 -1.8009 -1.7487 -0.6986
12221TIP3    H236609   5.024   4.321   5.145  3.2496  0.0859  0.9163
12222TIP3   OH236610   6.750   4.627   4.854  0.0246 -0.3417  0.2941
12222TIP3    H136611   6.722   4.692   4.919 -1.4210 -1.6530  1.0315
12222TIP3    H236612   6.782   4.680   4.781  0.0255  1.1896  1.3434
12223TIP3   OH236613   2.529   3.617   0.248 -0.0317  0.3958  0.1644
12223TIP3    H136614   2.526   3.554   0.176  0.4045  2.1534 -1.4801
12223TIP3    H236615   2.597   3.583   0.306  2.0066  0.5516 -1.9687
12224TIP3   OH236616   1.593   5.875   3.401  0.4048  0.0715 -0.0603
12224TIP3    H136617   1.567   5.868   3.493 -0.7412 -0.2629 -0.3919
12224TIP3    H236618   1.599   5.970   3.385 -0.7547  0.1736  0.0146
12225TIP3   OH236619   5.399   3.443   4.584 -0.1551 -0.3501 -0.4021
12225TIP3    H136620   5.458   3.369   4.573  1.9233  1.2407 -0.4495
12225TIP3    H236621   5.409   3.494   4.504 -1.1988  0.2506 -0.1674
12226TIP3   OH236622   1.190   6.204   5.647  0.3159 -0.0440  0.3773
12226TIP3    H136623   1.182   6.298   5.666  0.2741 -0.2776  1.6341
12226TIP3    H236624   1.263   6.198   5.586  0.0361  0.8457 -0.0630
12227TIP3   OH236625   6.293   1.110   5.169  0.9808  0.1197  0.2255
12227TIP3    H136626   6.303   1.171   5.242 -0.6280  0.2149  0.4127
12227TIP3    H236627   6.225   1.050   5.198 -0.1482  0.5376 -1.4195
12228TIP3   OH236628   2.344   4.260   5.830  0.0262  0.4361  0.1733
12228TIP3    H136629   2.283   4.328   5.855 -0.6875 -0.1413  0.0444
12228TIP3    H236630   2.429   4.291   5.859 -0.3820  1.0907  0.6716
12229TIP3   OH236631   2.008   4.253   6.601  0.0424  0.3004 -0.0657
12229TIP3    H136632   2.078   4.262   6.536  0.4339  3.3072  0.6496
12229TIP3    H236633   2.046   4.287   6.682 -1.5699 -0.0675  0.8763
12230TIP3   OH236634   8.247   0.935   3.036 -0.3045 -0.4567  0.3196
12230TIP3    H136635   8.195   1.004   3.077  0.1217 -0.0018  0.1102
12230TIP3    H236636   8.258   0.869   3.105  2.6233  1.4701  1.9342
12231TIP3   OH236637   5.405   6.488   2.050  0.1328  0.1967  0.1642
12231TIP3    H136638   5.418   6.570   2.098  0.1554  0.2637  0.0468
12231TIP3    H236639   5.325   6.502   2.000 -0.0967 -0.0172  0.4753
12232TIP3   OH236640   5.004   5.269   3.126  0.1318 -0.2910  0.6731
12232TIP3    H136641   4.950   5.290   3.050 -0.0855 -0.5271  0.7606
12232TIP3    H236642   5.077   5.330   3.121 -0.5158  0.5294  0.9626
12233TIP3   OH236643   4.569   0.486   0.933 -0.2215  0.1752  0.3047
12233TIP3    H136644   4.487   0.486   0.883 -0.9259 -0.8100  1.3977
12233TIP3    H236645   4.547   0.439   1.014  0.8299  1.8477  1.6142
12234TIP3   OH236646   1.737   6.683   2.255 -0.3680  0.0660 -0.1489
12234TIP3    H136647   1.830   6.698   2.275 -1.3159  3.2878  2.8671
12234TIP3    H236648   1.719   6.742   2.182 -0.9058  3.2936  2.3775
12235TIP3   OH236649   1.151   2.723   2.698  0.5981  0.5595 -0.0812
12235TIP3    H136650   1.170   2.723   2.791  0.0214 -0.6256  0.0585
12235TIP3    H236651   1.140   2.815   2.675  0.5393  0.8493  1.0645
12236TIP3   OH236652   6.968   7.614   1.839 -0.4016  0.0480  0.3825
12236TIP3    H136653   6.996   7.656   1.757 -1.2661 -1.1242 -0.5311
12236TIP3    H236654   6.888   7.567   1.817 -0.1445 -1.0710  1.6782
12237TIP3   OH236655   5.975   3.611   2.908  0.1579  0.7879 -0.2163
12237TIP3    H136656   5.944   3.523   2.886 -1.0033  1.0401  0.2860
12237TIP3    H236657   5.958   3.662   2.829 -1.2731  1.0401  0.2214
12238TIP3   OH236658   4.278   3.128   3.185 -0.4039 -0.4661  0.0673
12238TIP3    H136659   4.309   3.065   3.121 -0.7211  0.6566 -1.2407
12238TIP3    H236660   4.262   3.208   3.135 -0.1946  0.6071  1.6280
12239TIP3   OH236661   6.110   2.178   3.494 -0.8226 -0.1992  0.0401
12239TIP3    H136662   6.204   2.193   3.479 -1.3107  1.9774 -1.2549
12239TIP3    H236663   6.096   2.203   3.585 -0.2475 -0.0419  0.0891
12240TIP3   OH236664   5.501   3.645   2.471 -0.0604 -0.0713 -0.1420
12240TIP3    H136665   5.448   3.720   2.446  1.1892  0.4194 -1.5355
12240TIP3    H236666   5.518   3.600   2.388  1.2037 -0.5017  0.3207
12241TIP3   OH236667   3.825   1.761   3.531 -0.0197 -0.2240 -0.6649
12241TIP3    H136668   3.787   1.695   3.474 -0.3506 -0.1649 -0.5162
12241TIP3    H236669   3.863   1.712   3.603  0.7802 -0.3285 -1.1461
12242TIP3   OH236670   1.455   6.528   3.284 -0.1743  0.0168 -0.2655
12242TIP3    H136671   1.430   6.435   3.285  1.0932 -0.3439  0.6434
12242TIP3    H236672   1.435   6.557   3.195  0.9900 -1.6027 -1.1114
12243TIP3   OH236673   6.642   5.274   6.751 -0.4671 -0.5632  0.2833
12243TIP3    H136674   6.694   5.194   6.742  1.6180  0.7364  0.0596
12243TIP3    H236675   6.688   5.325   6.818 -0.3508  1.4431 -1.2338
12244TIP3   OH236676   7.630   5.521   6.660  0.4386  0.1496 -0.2512
12244TIP3    H136677   7.663   5.461   6.727  0.8681  0.1131 -0.4860
12244TIP3    H236678   7.593   5.463   6.593  0.7362  0.1423 -0.4166
12245TIP3   OH236679   7.317   1.140   5.193  0.4810  0.1555  0.3468
12245TIP3    H136680   7.391   1.088   5.162  0.7132 -0.3309  1.6608
12245TIP3    H236681   7.344   1.172   5.280 -0.1076  1.5451  0.0558
12246TIP3   OH236682   4.588   1.378   4.338  0.3100  0.2481 -0.5803
12246TIP3    H136683   4.668   1.348   4.295  0.9489  1.4128 -0.2639
12246TIP3    H236684   4.617   1.451   4.394 -0.7037 -0.3802  0.8222
12247TIP3   OH236685   7.661   0.436   0.054 -0.1657  0.5677  0.0691
12247TIP3    H136686   7.661   0.341   0.060  1.8087  0.6060  1.9091
12247TIP3    H236687   7.673   0.466   0.144  1.2930  2.4703 -0.6851
12248TIP3   OH236688   1.546   0.357   1.800 -0.1258  0.7229 -0.7202
12248TIP3    H136689   1.634   0.347   1.835 -0.0369  1.0569 -0.8453
12248TIP3    H236690   1.521   0.446   1.822 -0.6038  0.4929 -0.3079
12249TIP3   OH236691   0.695   2.975   5.014  0.6557 -0.7694 -0.0132
12249TIP3    H136692   0.651   2.891   5.031 -1.3671  0.0358 -0.9294
12249TIP3    H236693   0.669   3.030   5.088 -1.7477  0.3558 -1.5862
12250TIP3   OH236694   5.500   2.169   5.144  0.1708 -0.2277 -0.7044
12250TIP3    H136695   5.436   2.238   5.131 -1.1848 -1.3900 -0.4118
12250TIP3    H236696   5.448   2.092   5.165  1.7215 -0.9326  0.7530
12251TIP3   OH236697   8.075   0.992   4.746 -0.2766 -0.4601  0.1984
12251TIP3    H136698   8.137   0.920   4.759  1.2231  0.7765  0.1374
12251TIP3    H236699   7.989   0.950   4.752  0.5379 -2.2298  0.2948
12252TIP3   OH236700   5.654   7.512   4.064 -0.2720  0.0238  0.7403
12252TIP3    H136701   5.669   7.436   4.119 -1.9500  0.2648  1.5889
12252TIP3    H236702   5.625   7.475   3.980 -1.2112 -0.2825  1.1903
12253TIP3   OH236703   7.619   2.293   6.434  0.3009 -0.5740  0.0356
12253TIP3    H136704   7.533   2.285   6.394  1.0564 -0.7948 -1.6513
12253TIP3    H236705   7.603   2.335   6.518 -1.4217 -0.4824 -0.3058
12254TIP3   OH236706   4.228   6.912   5.670  0.2001 -0.2565  0.0616
12254TIP3    H136707   4.146   6.865   5.685 -0.4059  0.9898  0.7676
12254TIP3    H236708   4.238   6.913   5.575 -0.0843 -1.2664  0.0079
12255TIP3   OH236709   5.721   5.109   3.914 -0.2306  0.2833 -0.0913
12255TIP3    H136710   5.775   5.070   3.845  0.7557 -0.0922  0.8618
12255TIP3    H236711   5.703   5.198   3.883 -0.6098 -0.1835 -1.2648
12256TIP3   OH236712   4.477   6.895   4.448  0.3919 -0.1161 -0.2454
12256TIP3    H136713   4.461   6.861   4.361  1.6621  0.4195 -0.7018
12256TIP3    H236714   4.408   6.961   4.461 -0.8588 -1.3984 -0.1251
12257TIP3   OH236715   5.807   4.659   2.522  0.5433 -0.3479 -0.3019
12257TIP3    H136716   5.794   4.702   2.607 -2.8208  0.4540 -1.0695
12257TIP3    H236717   5.772   4.571   2.535 -0.3583 -0.0923 -0.9273
12258TIP3   OH236718   0.803   1.991   2.100  0.3148 -0.5683  0.2156
12258TIP3    H136719   0.843   2.035   2.025  0.5542 -1.0131  0.0777
12258TIP3    H236720   0.806   2.056   2.171  1.2339 -0.5665  0.1937
12259TIP3   OH236721   7.861   6.271   1.144 -0.3238  0.0836 -0.3035
12259TIP3    H136722   7.897   6.184   1.126  0.1431  0.0236  0.8427
12259TIP3    H236723   7.937   6.329   1.144 -0.2222  0.0208  1.7197
12260TIP3   OH236724   1.754   0.673   0.707 -0.6818  0.0499 -0.3306
12260TIP3    H136725   1.751   0.687   0.613  0.0637  0.0775 -0.3535
12260TIP3    H236726   1.682   0.612   0.724 -0.0746 -0.9022 -1.0877
12261TIP3   OH236727   6.145   6.504   2.915 -0.2163 -0.2478 -0.0119
12261TIP3    H136728   6.210   6.450   2.960 -0.7076  0.0503  1.0776
12261TIP3    H236729   6.068   6.501   2.972 -0.5311  0.9229 -0.3573
12262TIP3   OH236730   3.659   5.979   2.119  0.4866  0.5644  0.2137
12262TIP3    H136731   3.683   6.065   2.085  1.2031  0.6704  0.9355
12262TIP3    H236732   3.738   5.926   2.106  0.1753  0.1259  0.1092
12263TIP3   OH236733   0.221   1.010   4.239  0.1292 -0.0574  0.2449
12263TIP3    H136734   0.296   0.962   4.274  1.0306  1.1390 -0.0035
12263TIP3    H236735   0.145   0.957   4.265  1.0070 -0.9918  0.9909
12264TIP3   OH236736   0.445   1.954   2.590 -0.1252 -0.1594  0.3646
12264TIP3    H136737   0.489   1.990   2.667  1.5040  1.3039 -1.1592
12264TIP3    H236738   0.390   2.025   2.558  0.2133 -0.2910 -0.5448
12265TIP3   OH236739   4.241   5.159   5.879  0.0980 -0.4541  0.1345
12265TIP3    H136740   4.312   5.174   5.816  0.7171 -0.5315  0.8047
12265TIP3    H236741   4.216   5.068   5.866  0.4887 -0.5808  0.2694
12266TIP3   OH236742   5.509   1.444   6.712 -0.1886  0.1537  0.1531
12266TIP3    H136743   5.548   1.504   6.776  0.9129 -1.4609  1.0559
12266TIP3    H236744   5.432   1.409   6.757  0.0780 -0.3015  0.2601
12267TIP3   OH236745   0.266   3.735   5.896  0.5377 -0.0913 -0.5101
12267TIP3    H136746   0.191   3.764   5.948  0.6751 -0.3164 -0.1822
12267TIP3    H236747   0.328   3.702   5.960  1.6504  1.6867 -0.6250
12268TIP3   OH236748   7.595   2.011   2.512  0.6080  0.1288 -0.2089
12268TIP3    H136749   7.634   1.982   2.595 -0.0636 -0.7418 -0.1819
12268TIP3    H236750   7.666   2.058   2.468  0.7807  1.2061  1.1490
12269TIP3   OH236751   7.813   3.208   1.314 -0.5031  0.5677  0.3448
12269TIP3    H136752   7.815   3.212   1.218  0.5265 -1.7061  0.2167
12269TIP3    H236753   7.728   3.245   1.337 -0.4823  1.8656 -1.3668
12270TIP3   OH236754   3.997   5.942   5.072  0.2028 -0.4624 -0.1284
12270TIP3    H136755   3.929   5.962   5.008 -0.4459  0.2273  0.7290
12270TIP3    H236756   3.960   5.872   5.126  0.7709 -1.0891 -0.5397
12271TIP3   OH236757   7.559   4.568   0.234 -0.0112 -0.0315  0.0628
12271TIP3    H136758   7.641   4.554   0.186  0.9844 -1.6045  2.0990
12271TIP3    H236759   7.502   4.497   0.206  0.1309 -0.2374  0.2925
12272TIP3   OH236760   1.444   7.523   3.059 -0.5817 -0.1617 -0.1851
12272TIP3    H136761   1.394   7.454   3.016  0.4572  0.0734 -1.8433
12272TIP3    H236762   1.466   7.486   3.145 -0.8930 -1.4941 -0.6583
12273TIP3   OH236763   4.088   0.560   6.594  0.1144  0.1560 -0.5212
12273TIP3    H136764   4.151   0.498   6.557 -1.2694 -0.8265 -1.3071
12273TIP3    H236765   4.005   0.540   6.551 -0.9861  0.7409  1.2088
12274TIP3   OH236766   7.652   7.321   6.183 -0.6258  0.5671  0.3897
12274TIP3    H136767   7.703   7.394   6.149 -2.6244  1.2417 -1.3873
12274TIP3    H236768   7.573   7.319   6.128 -1.9233 -1.2032  2.1635
12275TIP3   OH236769   4.840   4.743   5.051  0.4028 -0.5839  0.0164
12275TIP3    H136770   4.915   4.729   5.108 -0.2602  1.5424  1.5215
12275TIP3    H236771   4.764   4.729   5.109 -0.3317 -0.8025 -0.9818
12276TIP3   OH236772   2.977   2.021   2.992  0.1664  0.0858 -0.4226
12276TIP3    H136773   3.054   2.017   3.049 -0.2008 -2.5305 -0.0017
12276TIP3    H236774   2.916   2.078   3.038  0.0805 -1.5537  1.6261
12277TIP3   OH236775   1.427   1.431   1.164 -0.5681 -0.2504 -0.1407
12277TIP3    H136776   1.509   1.472   1.138 -1.0262  1.4170  0.8708
12277TIP3    H236777   1.367   1.451   1.092 -0.0811 -1.6264 -0.9664
12278TIP3   OH236778   5.166   6.878   0.992 -0.1771 -0.6504 -0.3451
12278TIP3    H136779   5.218   6.940   1.043  0.4490 -0.7085 -0.8961
12278TIP3    H236780   5.170   6.796   1.043  1.8622 -1.1933 -1.2782
12279TIP3   OH236781   8.252   7.274   3.757  0.2889 -0.3685  0.1501
12279TIP3    H136782   8.200   7.198   3.781  0.8718 -0.6013  0.6868
12279TIP3    H236783   8.264   7.322   3.839  0.9280 -0.3246  0.0357
12280TIP3   OH236784   6.930   6.537   5.873  0.1713 -0.3618 -0.1277
12280TIP3    H136785   7.023   6.529   5.894 -0.0847 -0.7492  0.9028
12280TIP3    H236786   6.888   6.561   5.955 -0.4197  1.6891 -0.9684
12281TIP3   OH236787   4.210   1.793   5.328  0.3870 -0.1267 -0.0004
12281TIP3    H136788   4.275   1.822   5.391  1.7894 -0.9936 -0.9923
12281TIP3    H236789   4.143   1.861   5.330  0.0970 -0.3785  2.7501
12282TIP3   OH236790   4.152   2.924   5.099 -0.2084  0.0124 -0.2344
12282TIP3    H136791   4.221   2.974   5.057  0.3042 -0.9296 -0.5415
12282TIP3    H236792   4.195   2.882   5.174 -1.3038  2.4695  1.9730
12283TIP3   OH236793   0.850   2.904   5.956  0.1064  0.0014 -0.6702
12283TIP3    H136794   0.919   2.842   5.981 -0.1024  0.0639  0.0935
12283TIP3    H236795   0.857   2.911   5.861  0.8531 -0.3463 -0.6470
12284TIP3   OH236796   8.181   3.917   2.118 -0.3536  0.3474 -0.0998
12284TIP3    H136797   8.108   3.974   2.092 -1.2989 -0.7108  0.1694
12284TIP3    H236798   8.206   3.948   2.206 -0.8285  0.3855  0.0238
12285TIP3   OH236799   7.447   4.948   5.606 -0.3167 -0.0068  0.3341
12285TIP3    H136800   7.380   4.975   5.669  0.6313  1.2433  0.8268
12285TIP3    H236801   7.418   4.861   5.578 -0.7488 -0.6373  2.5109
12286TIP3   OH236802   2.125   3.082   1.292  0.1117  0.1261 -0.3949
12286TIP3    H136803   2.054   3.110   1.349 -0.1912  0.8690 -1.1179
12286TIP3    H236804   2.116   3.136   1.214  2.8555  1.9028  0.3865
12287TIP3   OH236805   7.821   2.461   3.629  0.1233 -0.5803 -0.0944
12287TIP3    H136806   7.818   2.531   3.564 -1.0913  0.2455  0.8158
12287TIP3    H236807   7.914   2.454   3.652  0.5423 -0.7113 -1.6769
12288TIP3   OH236808   2.834   3.027   1.283 -1.0365 -0.3069  0.6238
12288TIP3    H136809   2.902   2.965   1.311  1.2825  1.8797  0.2496
12288TIP3    H236810   2.852   3.041   1.190 -0.4823  1.9801  1.0067
12289TIP3   OH236811   5.691   0.548   4.683 -0.2897  0.6836 -0.5878
12289TIP3    H136812   5.613   0.552   4.628 -0.3985  0.4852 -0.4499
12289TIP3    H236813   5.764   0.536   4.622 -0.2667  1.7409 -0.7898
12290TIP3   OH236814   8.056   3.081   5.131 -0.0144  0.6436 -0.4592
12290TIP3    H136815   8.031   3.009   5.073 -1.0034  0.8223 -0.2697
12290TIP3    H236816   8.113   3.136   5.077 -0.1898  0.3272 -0.9750
12291TIP3   OH236817   4.272   2.099   2.504 -0.0267  0.2832 -0.2309
12291TIP3    H136818   4.301   2.013   2.474  1.1053  0.5323  0.0737
12291TIP3    H236819   4.281   2.096   2.599  0.9433  1.0335 -0.2848
12292TIP3   OH236820   2.805   3.905   6.527  0.0013 -0.3456  0.3160
12292TIP3    H136821   2.768   3.843   6.589 -1.7300 -0.7550 -1.0649
12292TIP3    H236822   2.779   3.991   6.561  0.1655 -0.4919  0.8210
12293TIP3   OH236823   3.336   0.618   2.237  0.0310 -0.1024 -0.3584
12293TIP3    H136824   3.303   0.581   2.319 -0.8336  0.0722 -0.6173
12293TIP3    H236825   3.407   0.676   2.264 -1.1516  1.0290  0.3975
12294TIP3   OH236826   7.751   1.333   4.457 -0.5932 -0.2078 -0.3773
12294TIP3    H136827   7.781   1.313   4.546  0.8164  1.9904 -0.2779
12294TIP3    H236828   7.658   1.311   4.458 -0.2813 -1.6942  1.1477
12295TIP3   OH236829   4.769   7.776   5.526 -0.0191  0.0530  0.3537
12295TIP3    H136830   4.740   7.856   5.569  1.7042 -0.0185  1.7427
12295TIP3    H236831   4.757   7.707   5.591  0.6919 -0.4206 -0.0069
12296TIP3   OH236832   5.352   3.961   1.906  0.7914 -0.6066  0.2391
12296TIP3    H136833   5.400   4.035   1.871  0.2908 -0.0642  0.6710
12296TIP3    H236834   5.398   3.939   1.987  1.2340 -1.0958 -0.1348
12297TIP3   OH236835   7.167   4.166   5.891  0.3579  0.0917 -0.1380
12297TIP3    H136836   7.209   4.135   5.971 -1.5762  0.7272  1.1977
12297TIP3    H236837   7.178   4.261   5.893 -1.6207  0.3632  0.6212
12298TIP3   OH236838   0.674   2.570   3.975  0.6439 -0.2954  0.0570
12298TIP3    H136839   0.619   2.611   3.909  1.0099 -0.2907 -0.2484
12298TIP3    H236840   0.623   2.575   4.056  0.5262  0.4163 -0.0558
12299TIP3   OH236841   4.278   3.997   4.894  0.3585  0.0818 -0.6813
12299TIP3    H136842   4.302   4.046   4.816 -1.2626  0.6934 -0.8380
12299TIP3    H236843   4.243   4.064   4.954  1.0722 -0.4517  0.3632
12300TIP3   OH236844   5.375   1.684   1.009 -0.3730  0.2754 -0.0467
12300TIP3    H136845   5.402   1.747   1.076  0.1790 -0.5886  0.5614
12300TIP3    H236846   5.289   1.653   1.038  1.0089 -2.1250  1.7958
12301TIP3   OH236847   8.171   1.938   5.914 -0.1667  0.5567  0.0077
12301TIP3    H136848   8.235   1.951   5.844  1.6422 -1.1269  1.2372
12301TIP3    H236849   8.089   1.920   5.868  0.6876  0.7328 -1.6674
12302TIP3   OH236850   2.083   4.428   4.235  0.1799 -0.3525  0.1655
12302TIP3    H136851   1.989   4.439   4.217 -0.0501 -0.4543  1.2298
12302TIP3    H236852   2.109   4.512   4.274  0.5635 -0.2765 -0.2542
12303TIP3   OH236853   4.533   2.684   5.537  0.5212  0.0554 -0.0375
12303TIP3    H136854   4.569   2.636   5.462 -0.3461  0.2943 -0.6252
12303TIP3    H236855   4.575   2.770   5.533  0.3425  0.1291 -0.3617
12304TIP3   OH236856   2.087   1.390   4.336  0.0963  0.4393  0.2766
12304TIP3    H136857   2.061   1.305   4.303 -1.4324  0.3266  1.6354
12304TIP3    H236858   2.139   1.429   4.266 -0.5575 -0.9451 -1.0175
12305TIP3   OH236859   7.162   7.403   1.642 -0.8078  0.4252 -0.5155
12305TIP3    H136860   7.104   7.434   1.712  1.1520  3.6231 -0.1338
12305TIP3    H236861   7.112   7.415   1.562 -1.4540  1.0151 -0.0328
12306TIP3   OH236862   5.745   0.161   0.266 -0.5562  0.5051 -0.2319
12306TIP3    H136863   5.662   0.138   0.223  0.0552  0.6593 -1.5571
12306TIP3    H236864   5.805   0.178   0.193  0.1076  2.3552  0.6868
12307TIP3   OH236865   6.013   4.103   0.278  0.2988 -0.6884  0.1133
12307TIP3    H136866   6.061   4.052   0.213  0.1366 -0.6554 -0.0329
12307TIP3    H236867   5.921   4.091   0.255  0.3045  1.1235 -1.0404
12308TIP3   OH236868   6.278   4.981   2.940  0.2287 -0.1174  0.2156
12308TIP3    H136869   6.336   4.956   2.868 -0.7906 -1.4894 -0.1760
12308TIP3    H236870   6.266   5.075   2.931  2.7302  0.3053  0.5816
12309TIP3   OH236871   8.144   7.172   6.472 -0.0213 -0.2917 -0.0283
12309TIP3    H136872   8.225   7.214   6.442  0.0368 -0.0729  0.4347
12309TIP3    H236873   8.156   7.079   6.452  0.8884 -0.4542  1.2346
12310TIP3   OH236874   0.341   3.594   0.585  0.2896 -0.0411  0.4819
12310TIP3    H136875   0.304   3.682   0.575 -0.2773 -0.2769  0.4512
12310TIP3    H236876   0.418   3.594   0.529  0.1643  0.3665  0.3058
12311TIP3   OH236877   3.309   2.172   4.184  0.0326  0.2573  0.5526
12311TIP3    H136878   3.261   2.155   4.103 -0.2892  3.2466  0.0013
12311TIP3    H236879   3.327   2.085   4.220 -3.1457 -1.1072 -0.7507
12312TIP3   OH236880   1.490   0.459   1.259  0.3131 -0.0497  0.6901
12312TIP3    H136881   1.430   0.389   1.285  1.7258 -1.9472 -0.7994
12312TIP3    H236882   1.573   0.436   1.302  1.1569 -0.0898 -0.8681
12313TIP3   OH236883   1.505   2.691   4.716 -0.1611 -0.6343  0.3993
12313TIP3    H136884   1.412   2.668   4.718  0.0800 -1.6300  0.4301
12313TIP3    H236885   1.512   2.755   4.644 -0.9259 -0.2437  0.6567
12314TIP3   OH236886   3.175   0.672   3.074 -0.0457 -0.6033 -0.1233
12314TIP3    H136887   3.155   0.737   3.142  1.4827 -0.0448 -0.1719
12314TIP3    H236888   3.205   0.723   2.999 -1.1803 -1.2507 -1.0529
12315TIP3   OH236889   6.254   6.794   4.910  0.0010  0.2590  0.3864
12315TIP3    H136890   6.195   6.720   4.926  0.8532 -0.8283 -1.2317
12315TIP3    H236891   6.330   6.755   4.867  1.4568  1.7824  1.4442
12316TIP3   OH236892   7.665   5.062   1.581 -0.0960  0.0522 -0.4757
12316TIP3    H136893   7.737   5.007   1.610 -0.5102 -0.7563 -0.9288
12316TIP3    H236894   7.629   5.099   1.661  1.2750  1.0640 -0.3010
12317TIP3   OH236895   7.125   2.747   2.949 -0.0571  0.7806  0.1517
12317TIP3    H136896   7.038   2.781   2.929  0.5530  1.5895 -1.3573
12317TIP3    H236897   7.159   2.805   3.016 -0.5855  0.6112  0.5675
12318TIP3   OH236898   4.585   0.418   2.444  0.6801  0.3588  0.1199
12318TIP3    H136899   4.568   0.329   2.414  1.0289 -0.4134  2.0154
12318TIP3    H236900   4.499   0.457   2.457  0.5173  0.1181 -0.2380
12319TIP3   OH236901   3.000   6.107   5.458 -0.8216  0.5264  0.1689
12319TIP3    H136902   3.054   6.165   5.404 -0.1758  0.8917  1.1851
12319TIP3    H236903   2.976   6.159   5.534 -2.0041  0.1242  0.0973
12320TIP3   OH236904   4.070   5.449   5.660  0.2574  0.7204  0.1599
12320TIP3    H136905   3.992   5.499   5.682  0.4461  1.8368 -1.4702
12320TIP3    H236906   4.113   5.501   5.592 -0.1465 -2.1404 -2.5761
12321TIP3   OH236907   1.735   6.998   2.490 -0.0289  0.1641  0.5853
12321TIP3    H136908   1.730   7.062   2.561  0.9580  0.5331  0.3421
12321TIP3    H236909   1.644   6.984   2.463 -0.4996 -0.5300  2.3841
12322TIP3   OH236910   4.223   1.677   1.307 -0.3298  0.3277 -0.3972
12322TIP3    H136911   4.187   1.670   1.396 -0.2889 -0.4668 -0.4365
12322TIP3    H236912   4.173   1.749   1.267  0.3919  1.4251  0.6082
12323TIP3   OH236913   5.933   0.847   5.453 -0.1069  0.2641  0.2979
12323TIP3    H136914   5.841   0.873   5.458 -0.1348  0.2186  0.0540
12323TIP3    H236915   5.937   0.762   5.497 -0.7830 -1.2444 -2.2979
12324TIP3   OH236916   0.286   1.633   2.873 -0.1619  0.2781  0.3500
12324TIP3    H136917   0.203   1.676   2.853 -0.3332  0.1356  0.7352
12324TIP3    H236918   0.261   1.556   2.924  0.2144  0.3020  0.5756
12325TIP3   OH236919   3.638   4.481   1.923 -0.0302 -0.6427  0.4710
12325TIP3    H136920   3.682   4.505   1.841  1.7045  0.5230  1.6677
12325TIP3    H236921   3.679   4.536   1.989 -0.1079 -2.8014  2.4436
12326TIP3   OH236922   1.708   7.113   5.772  0.2541 -0.4348  0.4366
12326TIP3    H136923   1.743   7.198   5.746 -0.7851 -0.1333 -0.0093
12326TIP3    H236924   1.676   7.073   5.691  0.2694 -1.0352  0.7153
12327TIP3   OH236925   6.433   6.248   3.951  0.1379  0.4291  0.5654
12327TIP3    H136926   6.497   6.218   4.015 -0.5391 -0.5443  0.8093
12327TIP3    H236927   6.378   6.309   4.000 -0.9794 -1.0487  1.2239
12328TIP3   OH236928   6.166   6.275   1.632  0.2673  0.1887  0.3326
12328TIP3    H136929   6.215   6.260   1.714 -0.4491 -3.0191  0.2873
12328TIP3    H236930   6.101   6.341   1.655  1.9448  1.5582  1.4794
12329TIP3   OH236931   2.814   3.248   4.692 -0.1028 -0.4989 -0.6590
12329TIP3    H136932   2.858   3.321   4.736 -1.8477  0.6201 -0.6468
12329TIP3    H236933   2.883   3.203   4.644  1.0224  1.2498 -0.7669
12330TIP3   OH236934   4.283   4.779   6.199 -0.3889 -0.4403 -0.1692
12330TIP3    H136935   4.314   4.757   6.287  1.7196 -1.1669 -1.0162
12330TIP3    H236936   4.214   4.714   6.182  0.4513 -1.4944  0.2796
12331TIP3   OH236937   4.202   7.470   4.759  0.4473  0.4654  0.4228
12331TIP3    H136938   4.176   7.475   4.667 -1.1416 -0.7900  0.7431
12331TIP3    H236939   4.283   7.419   4.759 -0.3074 -0.7833 -0.1959
12332TIP3   OH236940   3.161   3.250   1.021  0.2854 -0.6715  0.8537
12332TIP3    H136941   3.099   3.286   1.084 -1.0107 -1.2665 -0.0373
12332TIP3    H236942   3.247   3.277   1.054 -0.4796  1.0563  1.5614
12333TIP3   OH236943   1.182   5.916   0.809  0.5493  0.0096 -0.2488
12333TIP3    H136944   1.113   5.966   0.852  0.8556 -0.1985  0.5022
12333TIP3    H236945   1.257   5.924   0.867  0.4591 -1.7374  0.1515
12334TIP3   OH236946   6.019   2.845   5.517 -0.2897  0.3065  0.6738
12334TIP3    H136947   5.925   2.834   5.504  0.0316  0.4218 -2.5731
12334TIP3    H236948   6.052   2.757   5.530 -0.6110 -0.0430 -0.6847
12335TIP3   OH236949   3.660   1.767   6.356 -0.4105 -0.4060 -0.6127
12335TIP3    H136950   3.623   1.727   6.277 -0.7435  0.1077 -0.7240
12335TIP3    H236951   3.583   1.799   6.404 -0.3106 -1.6807  0.4700
12336TIP3   OH236952   8.259   7.390   4.818  0.0739 -0.2182 -0.0355
12336TIP3    H136953   8.336   7.352   4.775 -0.6641 -1.2167 -0.5250
12336TIP3    H236954   8.208   7.427   4.746 -0.3639 -0.4094  0.1767
12337TIP3   OH236955   5.290   5.814   5.480 -0.0658 -0.8179  0.2089
12337TIP3    H136956   5.370   5.820   5.427  0.8957  1.8968  1.7621
12337TIP3    H236957   5.220   5.835   5.418  1.1968  4.4230  0.0597
12338TIP3   OH236958   4.042   0.110   3.821  0.2949  0.7236  0.6068
12338TIP3    H136959   3.986   0.033   3.829 -0.4091  0.7914 -2.4649
12338TIP3    H236960   4.017   0.166   3.895 -1.6645 -0.4799  0.9143
12339TIP3   OH236961   1.874   0.340   0.658  0.4344  0.5158 -0.3920
12339TIP3    H136962   1.911   0.428   0.653 -1.5585  1.3345 -1.9307
12339TIP3    H236963   1.911   0.293   0.584 -0.3822  0.8557 -1.0277
12340TIP3   OH236964   3.051   7.156   3.215 -0.1263  0.4942 -0.0513
12340TIP3    H136965   3.144   7.136   3.199 -0.1895  0.6380 -0.6021
12340TIP3    H236966   3.037   7.131   3.306 -0.3100 -2.4844 -0.7949
12341TIP3   OH236967   5.180   0.817   1.955 -0.2735  0.1540  0.7161
12341TIP3    H136968   5.248   0.880   1.977 -0.4074  0.4280  0.3562
12341TIP3    H236969   5.125   0.862   1.890 -0.0463 -0.5244  0.0290
12342TIP3   OH236970   5.365   0.898   6.349  0.0162  0.4678 -0.7853
12342TIP3    H136971   5.295   0.834   6.361  0.6943 -0.2531 -0.6483
12342TIP3    H236972   5.445   0.852   6.372  0.5861  1.1749 -1.2943
12343TIP3   OH236973   2.258   1.629   4.738  0.4499 -0.4844 -0.1521
12343TIP3    H136974   2.354   1.622   4.738  1.1569  5.1023  0.0908
12343TIP3    H236975   2.238   1.690   4.667 -2.6522  0.4540  1.3512
12344TIP3   OH236976   1.133   0.166   3.480 -0.1825 -0.2426  0.0057
12344TIP3    H136977   1.162   0.079   3.511  1.0192 -0.2989 -1.1678
12344TIP3    H236978   1.039   0.157   3.468 -0.5192 -0.6007  2.3111
12345TIP3   OH236979   1.406   2.455   0.432 -0.0729 -0.3954 -0.2607
12345TIP3    H136980   1.479   2.481   0.377  0.6200  1.6578  1.4889
12345TIP3    H236981   1.444   2.396   0.496 -0.5258 -1.4106 -0.9032
12346TIP3   OH236982   1.835   3.984   6.763  0.2108  0.0358 -0.5974
12346TIP3    H136983   1.742   3.991   6.742  0.3389 -1.1554 -1.6500
12346TIP3    H236984   1.865   3.907   6.715  2.0704  1.2033 -1.3857
12347TIP3   OH236985   4.061   4.084   6.639  0.4694  0.1430 -0.3709
12347TIP3    H136986   4.114   4.124   6.708  1.3053 -0.7670 -0.4586
12347TIP3    H236987   3.997   4.031   6.685 -0.4898  1.3518 -0.2598
12348TIP3   OH236988   0.834   1.006   2.614  0.0623 -0.6709 -0.1905
12348TIP3    H136989   0.753   1.035   2.571 -0.7001 -0.6103  1.2257
12348TIP3    H236990   0.849   0.918   2.581 -1.2476 -1.1365  0.4156
12349TIP3   OH236991   7.377   7.688   6.181  0.1540 -0.2919 -0.7613
12349TIP3    H136992   7.461   7.703   6.138  0.6644  0.2151  0.3675
12349TIP3    H236993   7.359   7.595   6.168  1.5361 -0.7051  0.0870
12350TIP3   OH236994   7.961   1.657   4.198  0.0647 -0.1414 -0.2939
12350TIP3    H136995   7.994   1.628   4.113 -0.5886 -0.3862 -0.4788
12350TIP3    H236996   7.865   1.653   4.188 -0.0159 -0.1107  0.4298
12351TIP3   OH236997   5.516   5.552   1.506 -0.3298  0.0230  0.2406
12351TIP3    H136998   5.450   5.618   1.525 -0.5980 -0.3651  0.6776
12351TIP3    H236999   5.469   5.485   1.456  0.4670  1.2613 -2.3549
12352TIP3   OH237000   0.630   6.561   0.869  0.2163 -0.0748 -0.4153
12352TIP3    H137001   0.613   6.467   0.866 -0.2621  0.0209 -1.2500
12352TIP3    H237002   0.666   6.577   0.956 -2.2024 -0.6103  0.7484
12353TIP3   OH237003   0.034   7.517   3.454  0.0729 -0.4167 -0.1723
12353TIP3    H137004   0.115   7.474   3.482  0.6149  1.0946  0.6879
12353TIP3    H237005   0.055   7.554   3.367  0.0858 -0.6047 -0.2494
12354TIP3   OH237006   6.139   7.172   4.036  0.1805 -0.4341 -0.2381
12354TIP3    H137007   6.127   7.183   4.130 -0.7242 -2.3503 -0.1094
12354TIP3    H237008   6.228   7.205   4.021  0.2469  0.1622  1.2194
12355TIP3   OH237009   4.678   1.476   3.511  0.7295  0.3028 -0.0645
12355TIP3    H137010   4.705   1.554   3.463 -0.2859  0.0802 -1.0416
12355TIP3    H237011   4.631   1.423   3.446 -0.8479  0.0700  1.1951
12356TIP3   OH237012   7.986   4.348   1.392  0.1282 -0.0611  0.6172
12356TIP3    H137013   7.969   4.255   1.374 -1.0939  0.0340  1.1762
12356TIP3    H237014   8.081   4.357   1.381 -0.0157 -0.8575 -1.6650
12357TIP3   OH237015   6.766   2.326   6.622 -0.2376  0.0736 -0.3638
12357TIP3    H137016   6.756   2.325   6.527 -1.9838  0.5072 -0.2194
12357TIP3    H237017   6.679   2.304   6.656 -0.2720  2.1793  1.1251
12358TIP3   OH237018   7.217   6.524   5.136 -0.3121  0.4058 -0.4094
12358TIP3    H137019   7.141   6.494   5.186  1.3821 -0.0871  2.0109
12358TIP3    H237020   7.265   6.444   5.114  0.6331  0.8426  0.0050
12359TIP3   OH237021   7.959   5.194   5.588  0.6741 -0.5007  0.0149
12359TIP3    H137022   8.003   5.125   5.637 -1.1396 -0.4381  1.8912
12359TIP3    H237023   7.868   5.191   5.618  0.1674  1.6351 -1.0530
12360TIP3   OH237024   5.972   4.910   5.217 -0.1954  0.1118 -0.2639
12360TIP3    H137025   5.941   4.840   5.275 -0.5192  0.8310  0.4498
12360TIP3    H237026   5.920   4.986   5.241 -0.0132  0.5481 -1.1983
12361TIP3   OH237027   0.427   6.807   2.085  0.4548 -0.2931  0.5415
12361TIP3    H137028   0.517   6.804   2.119  0.4575 -0.4560  0.5209
12361TIP3    H237029   0.402   6.715   2.076  0.6504 -0.2620 -0.4133
12362TIP3   OH237030   3.558   6.290   2.684 -0.2437  0.3744  0.2022
12362TIP3    H137031   3.550   6.303   2.778 -0.4689 -1.3864  0.4644
12362TIP3    H237032   3.533   6.374   2.645  3.2665  2.3566  1.7498
12363TIP3   OH237033   7.097   0.136   1.236 -0.1073 -0.4198  0.8031
12363TIP3    H137034   7.077   0.217   1.189 -1.0500 -0.9862  0.1929
12363TIP3    H237035   7.063   0.150   1.324 -3.1651 -1.2728 -0.1428
12364TIP3   OH237036   5.759   2.317   0.721 -0.3317  0.2309  0.1333
12364TIP3    H137037   5.682   2.314   0.663 -0.2371  0.1973  0.0106
12364TIP3    H237038   5.757   2.234   0.768 -0.3799  0.2365  0.1412
12365TIP3   OH237039   2.803   4.487   4.152  0.2869 -0.0526  0.6231
12365TIP3    H137040   2.728   4.446   4.195  0.3686  0.0494  0.8679
12365TIP3    H237041   2.764   4.538   4.081 -0.0652  1.4408  1.8335
12366TIP3   OH237042   7.277   5.560   4.177 -0.5224 -0.6720  0.0671
12366TIP3    H137043   7.362   5.603   4.173 -0.7629 -0.2613 -0.9219
12366TIP3    H237044   7.249   5.555   4.086 -1.1539 -1.6220  0.3053
12367TIP3   OH237045   2.776   4.599   3.669 -0.1248 -0.3499  0.7670
12367TIP3    H137046   2.738   4.513   3.685 -0.9862 -0.0052  0.6139
12367TIP3    H237047   2.705   4.650   3.629  1.5872 -0.9908 -3.7914
12368TIP3   OH237048   7.749   2.456   5.381  0.0132  0.1416 -0.2059
12368TIP3    H137049   7.726   2.369   5.414 -0.4569  0.0962 -0.6376
12368TIP3    H237050   7.716   2.517   5.447 -1.0519  0.0570 -0.6320
12369TIP3   OH237051   8.114   1.519   6.334 -0.1849  0.0894  0.0882
12369TIP3    H137052   8.104   1.510   6.239 -1.0368  1.6320  0.0020
12369TIP3    H237053   8.202   1.556   6.345  0.6344 -1.7281  0.0516
12370TIP3   OH237054   2.459   5.813   1.208 -0.2326 -0.1758 -0.6485
12370TIP3    H137055   2.481   5.783   1.120  0.3085 -0.3302 -0.4648
12370TIP3    H237056   2.372   5.776   1.225 -0.8841  0.8387 -1.5715
12371TIP3   OH237057   1.334   1.582   2.436  0.4937  0.1761 -0.4916
12371TIP3    H137058   1.391   1.568   2.361  1.4367  1.1969  0.0109
12371TIP3    H237059   1.294   1.667   2.420 -0.8939 -0.5085 -0.8163
12372TIP3   OH237060   4.529   6.646   1.073 -0.1700  0.1166 -0.8269
12372TIP3    H137061   4.578   6.686   1.001  2.6591 -3.7316 -1.3292
12372TIP3    H237062   4.579   6.669   1.151 -0.0205 -0.3009 -0.8003
12373TIP3   OH237063   8.027   2.540   0.576 -0.2312 -0.0551  0.0070
12373TIP3    H137064   8.014   2.458   0.624  0.8342  0.4984  1.2704
12373TIP3    H237065   8.120   2.560   0.585 -0.6944  1.9698  0.8479
12374TIP3   OH237066   4.170   2.597   0.811  0.0976  0.2317 -0.1082
12374TIP3    H137067   4.252   2.571   0.771  1.1911  1.4937  1.1882
12374TIP3    H237068   4.157   2.688   0.784 -1.3692 -0.1979 -1.0102
12375TIP3   OH237069   0.313   6.483   2.528  0.7693 -0.2444  0.1686
12375TIP3    H137070   0.274   6.552   2.474 -0.0121 -0.9475 -0.1732
12375TIP3    H237071   0.292   6.401   2.483 -0.3651 -0.9032  1.7870
12376TIP3   OH237072   0.376   5.571   1.288 -0.3403  0.4397 -0.7024
12376TIP3    H137073   0.316   5.603   1.355  1.2417  2.0887  0.0289
12376TIP3    H237074   0.337   5.490   1.256 -2.6706  1.1831  0.0714
12377TIP3   OH237075   8.283   6.019   3.306  0.7297 -0.0382  0.0810
12377TIP3    H137076   8.287   6.103   3.352 -4.2194 -0.0703  1.0552
12377TIP3    H237077   8.315   5.955   3.370  0.0371  0.6264  1.1184
12378TIP3   OH237078   1.958   4.314   2.695 -0.0397 -0.4066 -0.0412
12378TIP3    H137079   1.870   4.280   2.706 -0.7015  0.8991 -1.1269
12378TIP3    H237080   1.963   4.340   2.603  0.9095  1.0608  0.3898
12379TIP3   OH237081   4.239   3.657   0.149  0.5422 -0.4427  0.1619
12379TIP3    H137082   4.144   3.648   0.156  0.4559 -0.0992 -0.4249
12379TIP3    H237083   4.271   3.569   0.132  0.0137 -0.2035 -2.5879
12380TIP3   OH237084   1.743   4.619   3.518  0.2559  0.3470 -0.4372
12380TIP3    H137085   1.815   4.579   3.468  2.2974  1.1659  1.6874
12380TIP3    H237086   1.728   4.558   3.590  0.9119  1.6169  0.8042
12381TIP3   OH237087   1.045   7.677   3.229  0.1707  0.1242 -0.0410
12381TIP3    H137088   1.061   7.719   3.145 -0.7805  1.6721  0.5228
12381TIP3    H237089   1.012   7.747   3.286  0.0849 -1.0405  1.4055
12382TIP3   OH237090   5.249   0.119   1.756 -0.6246 -0.0452 -0.9580
12382TIP3    H137091   5.252   0.078   1.843 -0.2863  1.3237 -0.2889
12382TIP3    H237092   5.341   0.134   1.735 -0.7621  3.1933  0.2589
12383TIP3   OH237093   4.365   1.458   1.003 -0.3415  0.4175  0.8877
12383TIP3    H137094   4.431   1.510   1.048  0.5499 -0.2872  0.4246
12383TIP3    H237095   4.383   1.368   1.029 -0.2642  0.0749 -0.2947
12384TIP3   OH237096   2.390   1.957   2.759 -0.2338  0.0899  0.5874
12384TIP3    H137097   2.296   1.962   2.742 -0.1779  1.0233  0.4696
12384TIP3    H237098   2.429   2.019   2.697  0.4445 -0.1500  0.7604
12385TIP3   OH237099   0.867   1.429   5.158  0.6937  0.4065 -0.1082
12385TIP3    H137100   0.822   1.366   5.215 -0.9835  1.5493 -0.1027
12385TIP3    H237101   0.897   1.376   5.084 -0.2771 -0.4987  0.1125
12386TIP3   OH237102   2.432   6.449   4.365  0.1770  0.0152  0.0658
12386TIP3    H137103   2.426   6.510   4.439  0.9970  1.2802 -0.8539
12386TIP3    H237104   2.499   6.386   4.392  1.9552  1.6198 -0.3045
12387TIP3   OH237105   3.291   4.478   6.123 -0.1175  0.0457 -0.1070
12387TIP3    H137106   3.340   4.540   6.069  1.5139  0.6636  1.9524
12387TIP3    H237107   3.292   4.396   6.074  1.3675  0.5449 -0.9671
12388TIP3   OH237108   7.056   5.778   0.932 -0.7225  0.0947  0.3287
12388TIP3    H137109   7.073   5.739   1.018 -1.5500  0.4488  0.6588
12388TIP3    H237110   6.984   5.727   0.896 -2.4359  1.8242  1.1438
12389TIP3   OH237111   5.665   5.337   1.970  0.0834 -0.4373  0.3190
12389TIP3    H137112   5.755   5.320   1.942 -0.1398 -0.3115 -0.4774
12389TIP3    H237113   5.668   5.324   2.065  0.6377 -1.8198  0.1395
12390TIP3   OH237114   5.384   1.593   1.649  0.0660  0.2480 -0.2111
12390TIP3    H137115   5.404   1.615   1.740  1.2705 -0.2489 -0.3328
12390TIP3    H237116   5.464   1.550   1.617 -0.2305  0.6792 -1.5880
12391TIP3   OH237117   6.877   3.508   2.340  0.0066  0.1543 -0.7416
12391TIP3    H137118   6.903   3.449   2.268 -2.4693 -1.4085 -0.4925
12391TIP3    H237119   6.834   3.450   2.403 -0.5800  1.9594  0.5783
12392TIP3   OH237120   8.103   6.119   2.011 -0.3785  0.5329  0.3153
12392TIP3    H137121   8.101   6.094   1.918  3.0012  1.3940 -0.1424
12392TIP3    H237122   8.157   6.052   2.052 -1.3565  0.4901  1.5545
12393TIP3   OH237123   6.613   2.914   6.519  0.5082  0.3606 -0.4845
12393TIP3    H137124   6.552   2.976   6.559  0.9977 -0.6910  2.0930
12393TIP3    H237125   6.700   2.950   6.538  0.7681 -0.5351  0.1192
12394TIP3   OH237126   6.956   4.143   1.710  0.0290 -0.0224  0.5604
12394TIP3    H137127   6.890   4.117   1.646 -0.4114 -2.1758  1.7696
12394TIP3    H237128   6.908   4.151   1.793  1.1974 -1.6015  1.4574
12395TIP3   OH237129   6.803   6.068   0.582 -0.3843  0.4268 -0.1741
12395TIP3    H137130   6.891   6.032   0.595 -1.0218 -0.9392  0.5154
12395TIP3    H237131   6.756   6.048   0.663 -1.3813  0.9933 -0.5961
12396TIP3   OH237132   1.314   7.144   3.201  0.1622  0.7518  0.3989
12396TIP3    H137133   1.339   7.159   3.292 -1.0121 -1.1958  1.1153
12396TIP3    H237134   1.394   7.114   3.158  0.3538 -0.0149  1.2558
12397TIP3   OH237135   5.536   7.800   3.574  0.3365  0.1533 -0.1706
12397TIP3    H137136   5.587   7.799   3.493  1.3051  1.7677  0.3677
12397TIP3    H237137   5.591   7.848   3.636 -1.3799  1.0075  0.7543
12398TIP3   OH237138   8.121   1.231   0.978 -0.5849  0.7050 -0.7673
12398TIP3    H137139   8.133   1.284   1.057 -0.4031  1.7474 -1.4766
12398TIP3    H237140   8.081   1.150   1.009  0.9527  0.4305  0.6059
12399TIP3   OH237141   2.596   4.652   2.792 -0.4727  0.1761 -0.0039
12399TIP3    H137142   2.532   4.593   2.751  1.2477 -2.8581  1.3143
12399TIP3    H237143   2.564   4.664   2.881 -0.1194  0.1094  0.1349
12400TIP3   OH237144   6.413   4.477   0.774 -0.6697  0.1231  0.0904
12400TIP3    H137145   6.396   4.396   0.726  0.4420  0.1186 -0.3243
12400TIP3    H237146   6.386   4.547   0.714 -0.9059  0.0801  0.1456
12401TIP3   OH237147   7.564   2.000   3.836 -0.4311  0.4938 -0.2712
12401TIP3    H137148   7.583   2.017   3.744  0.3813 -1.8412 -0.6018
12401TIP3    H237149   7.646   1.968   3.873 -1.5598 -1.9940  0.3202
12402TIP3   OH237150   3.840   2.737   6.597  0.1118 -0.3210 -0.6983
12402TIP3    H137151   3.778   2.784   6.543 -1.9743  0.5996  2.2472
12402TIP3    H237152   3.898   2.805   6.632 -0.2610 -0.4970  0.2865
12403TIP3   OH237153   4.879   4.128   3.214  0.1573 -0.1918 -0.1017
12403TIP3    H137154   4.802   4.103   3.164  0.6007  0.4418 -1.1256
12403TIP3    H237155   4.884   4.223   3.205 -0.2750  0.0866  1.9396
12404TIP3   OH237156   6.100   7.841   4.038 -0.4157  0.4572 -0.1136
12404TIP3    H137157   6.018   7.793   4.054 -0.4793  0.3396 -0.7325
12404TIP3    H237158   6.142   7.846   4.123 -0.5635 -0.4334  0.0267
12405TIP3   OH237159   6.201   7.556   0.739  0.0647 -0.1841  0.5088
12405TIP3    H137160   6.170   7.643   0.713  1.9732  0.1000 -0.9572
12405TIP3    H237161   6.278   7.540   0.686  0.9602 -1.9463  2.1979
12406TIP3   OH237162   6.856   6.441   3.638  0.1590  0.3690  0.7581
12406TIP3    H137163   6.883   6.500   3.709 -0.8248  0.6328  0.9237
12406TIP3    H237164   6.796   6.379   3.679  0.7126 -0.3840  0.4527
12407TIP3   OH237165   0.675   3.206   4.329 -0.2015  0.1725  0.6966
12407TIP3    H137166   0.606   3.270   4.314 -0.7731 -0.6245 -0.2499
12407TIP3    H237167   0.629   3.124   4.344  0.5121 -0.5960 -0.9897
12408TIP3   OH237168   1.460   2.944   2.893  0.2835 -0.3216 -0.0458
12408TIP3    H137169   1.379   2.984   2.926  0.2674  1.0162 -1.5660
12408TIP3    H237170   1.459   2.855   2.927  0.3944  0.9382  3.7181
12409TIP3   OH237171   2.119   6.631   1.490  0.4040  0.4343 -0.2113
12409TIP3    H137172   2.088   6.548   1.455 -1.3604  0.6088  0.8397
12409TIP3    H237173   2.180   6.606   1.559 -0.5665 -0.0051  0.4976
12410TIP3   OH237174   7.773   7.373   2.698 -0.3316 -0.1478  0.0565
12410TIP3    H137175   7.755   7.298   2.642 -0.5667 -0.1218  0.0932
12410TIP3    H237176   7.804   7.441   2.639 -1.0154  0.0261 -0.1080
12411TIP3   OH237177   4.837   0.048   3.376 -0.3070  0.0477 -0.1203
12411TIP3    H137178   4.916   0.023   3.329  0.8577  1.5340  0.9550
12411TIP3    H237179   4.827   0.142   3.360 -1.4521  0.0269  0.3484
12412TIP3   OH237180   6.237   7.061   5.008 -0.1427  0.0199  0.7305
12412TIP3    H137181   6.143   7.069   4.989  0.1930 -1.5562 -2.1587
12412TIP3    H237182   6.258   6.972   4.982  2.0093  0.0231  2.2717
12413TIP3   OH237183   2.347   5.860   4.502  0.0005  0.1292  0.0074
12413TIP3    H137184   2.418   5.804   4.470  1.4291  1.2406  1.1120
12413TIP3    H237185   2.357   5.942   4.454 -1.0829  0.0125 -0.4403
12414TIP3   OH237186   4.132   0.601   0.177  0.2050 -0.4210  0.3343
12414TIP3    H137187   4.154   0.651   0.098 -0.8607  0.0274  0.3138
12414TIP3    H237188   4.051   0.641   0.209  1.4090  0.4280  2.5246
12415TIP3   OH237189   3.429   1.964   4.862  0.3715 -0.3000  0.0201
12415TIP3    H137190   3.359   1.952   4.926 -0.3466  0.8857 -0.5250
12415TIP3    H237191   3.385   1.961   4.777  0.7955  1.5537 -0.2964
12416TIP3   OH237192   0.878   6.924   4.244 -0.1052 -0.5810 -0.1932
12416TIP3    H137193   0.935   6.850   4.223 -2.2746 -2.2221 -0.6412
12416TIP3    H237194   0.859   6.915   4.337  0.0452 -0.2827 -0.1332
12417TIP3   OH237195   0.095   1.615   0.802  0.9586  0.0469 -0.2207
12417TIP3    H137196   0.107   1.710   0.795  0.1785  0.1313 -0.5403
12417TIP3    H237197   0.109   1.596   0.895 -2.4102  1.0517  0.6487
12418TIP3   OH237198   5.482   1.707   5.907 -0.1057 -0.2526  0.1898
12418TIP3    H137199   5.498   1.705   5.812  1.1144  2.1984  0.2646
12418TIP3    H237200   5.390   1.731   5.915  0.1331  1.0198 -0.4457
12419TIP3   OH237201   5.744   4.433   2.632 -0.3463 -0.5958  0.1747
12419TIP3    H137202   5.691   4.363   2.671  1.3491 -1.3033  1.3358
12419TIP3    H237203   5.821   4.439   2.689 -0.6942  2.6424  0.4443
12420TIP3   OH237204   2.203   2.659   4.244 -0.2006  0.0278 -0.3842
12420TIP3    H137205   2.278   2.633   4.297 -1.2161  1.8202  2.1504
12420TIP3    H237206   2.159   2.577   4.222  0.8219 -0.8515  0.7290
12421TIP3   OH237207   7.533   5.926   0.957  0.0184  0.1826 -0.2714
12421TIP3    H137208   7.551   5.832   0.952 -0.1891  0.1812 -1.2722
12421TIP3    H237209   7.552   5.959   0.869 -1.7696  0.7214 -0.5001
12422TIP3   OH237210   0.045   5.266   3.642  0.5387  0.4275  0.1271
12422TIP3    H137211  -0.028   5.322   3.670 -0.6328 -1.5306  1.1958
12422TIP3    H237212   0.049   5.277   3.547 -1.1300  0.6131  0.0575
12423TIP3   OH237213   6.267   2.878   2.253  0.1201  0.3018 -0.2881
12423TIP3    H137214   6.236   2.788   2.240 -0.2135  0.4068 -0.2298
12423TIP3    H237215   6.318   2.897   2.174  3.0495 -1.1046  1.1169
12424TIP3   OH237216   2.869   6.997   4.131  0.0712 -0.1311  0.4139
12424TIP3    H137217   2.806   6.924   4.136 -0.8623  0.5715 -0.5572
12424TIP3    H237218   2.913   6.985   4.047  0.6520 -0.1406  0.7137
12425TIP3   OH237219   6.392   0.727   2.318  0.2593 -0.2033 -0.4305
12425TIP3    H137220   6.454   0.665   2.279  1.2178 -0.6589  1.6506
12425TIP3    H237221   6.410   0.810   2.273  0.4813 -0.9318 -1.7326
12426TIP3   OH237222   1.467   3.974   2.064  0.2438 -0.4118 -0.3477
12426TIP3    H137223   1.409   4.015   2.000  0.7127  2.0515  0.6963
12426TIP3    H237224   1.545   3.949   2.013  0.1633  0.4887 -0.9275
12427TIP3   OH237225   2.008   2.856   4.270 -0.1996 -0.3470  0.1452
12427TIP3    H137226   2.087   2.811   4.300  0.0971  0.2024  0.1917
12427TIP3    H237227   1.998   2.828   4.179  0.0072 -0.4718  0.1590
12428TIP3   OH237228   1.581   2.405   3.289  0.1071  0.2471 -0.0834
12428TIP3    H137229   1.588   2.319   3.329  1.3695  0.8312  1.0328
12428TIP3    H237230   1.672   2.433   3.276 -0.2711  0.7169 -2.0094
12429TIP3   OH237231   6.403   5.654   0.491 -0.3898  0.2595  0.7342
12429TIP3    H137232   6.405   5.718   0.419 -0.4389 -0.0597  0.4454
12429TIP3    H237233   6.486   5.606   0.481  0.2119  1.0627  1.6784
12430TIP3   OH237234   7.375   0.893   3.484 -0.1042  0.1806  0.4168
12430TIP3    H137235   7.444   0.949   3.449  0.5684 -0.6541  0.3815
12430TIP3    H237236   7.420   0.813   3.511 -1.0623 -0.3855  0.3823
12431TIP3   OH237237   2.985   5.112   0.218 -0.1252  0.7249 -0.2270
12431TIP3    H137238   2.902   5.140   0.258  1.0071  2.2316  1.1954
12431TIP3    H237239   2.961   5.090   0.128 -2.1584  0.6165  0.2740
12432TIP3   OH237240   5.667   7.783   2.913 -0.4243 -0.2764  0.2240
12432TIP3    H137241   5.693   7.736   2.834  2.1693 -1.5290  1.7060
12432TIP3    H237242   5.574   7.803   2.900 -0.0327 -0.1680 -3.2126
12433TIP3   OH237243   1.917   6.263   1.004 -0.2121  0.0535 -0.2420
12433TIP3    H137244   1.985   6.325   0.978  0.0013 -0.6023 -1.2986
12433TIP3    H237245   1.965   6.187   1.037 -0.4726  0.8837  2.2479
12434TIP3   OH237246   2.979   5.190   6.511 -0.2257  0.0805 -0.1105
12434TIP3    H137247   2.896   5.200   6.464 -0.0861  2.0431 -0.0290
12434TIP3    H237248   2.971   5.106   6.556 -2.2678  0.3030  0.0528
12435TIP3   OH237249   0.598   7.204   6.695 -0.1315  0.4518  0.0993
12435TIP3    H137250   0.531   7.223   6.630  0.3264 -0.6954 -0.7630
12435TIP3    H237251   0.681   7.220   6.649  0.2101 -0.8896  0.1886
12436TIP3   OH237252   3.159   2.458   6.271  0.0723 -0.3663 -0.1814
12436TIP3    H137253   3.250   2.452   6.297 -0.1755  0.0431  0.8355
12436TIP3    H237254   3.152   2.402   6.193  1.2282 -0.2018 -0.4232
12437TIP3   OH237255   5.882   0.328   2.475  0.6919  0.0757  0.4246
12437TIP3    H137256   5.861   0.384   2.400  1.3143 -0.4623 -0.1644
12437TIP3    H237257   5.952   0.271   2.443 -1.3950 -2.5826  0.2741
12438TIP3   OH237258   2.885   3.023   5.688  0.1158  0.1891  0.0810
12438TIP3    H137259   2.872   2.966   5.764 -0.4412  0.4126  0.1559
12438TIP3    H237260   2.966   3.071   5.709  0.8246 -0.8578 -0.1733
12439TIP3   OH237261   5.984   0.502   4.846  0.3107  0.2652  0.4462
12439TIP3    H137262   5.917   0.552   4.892  1.2268  1.3262  0.6777
12439TIP3    H237263   6.066   0.525   4.891  1.1618  0.8937 -1.3133
12440TIP3   OH237264   5.371   5.879   1.056 -0.2293  0.4435  0.4753
12440TIP3    H137265   5.333   5.894   1.142 -1.9789 -0.0709 -0.1618
12440TIP3    H237266   5.297   5.887   0.995  0.8653  0.3073 -0.9284
12441TIP3   OH237267   8.237   2.590   5.148 -0.1140  0.1771  0.1101
12441TIP3    H137268   8.278   2.504   5.137 -0.8721 -0.1746 -0.0236
12441TIP3    H237269   8.182   2.580   5.225 -0.0241  0.6204  0.2337
12442TIP3   OH237270   3.458   4.637   5.974 -0.2852 -0.2326 -0.2520
12442TIP3    H137271   3.529   4.615   5.914 -1.1041 -0.0587 -1.2975
12442TIP3    H237272   3.475   4.728   5.999 -0.0786 -0.2273 -0.4143
12443TIP3   OH237273   8.035   1.975   2.280 -0.8983  0.5949 -0.1402
12443TIP3    H137274   8.073   1.889   2.296 -1.6800  0.3175  0.3040
12443TIP3    H237275   8.053   2.025   2.360 -0.1648  0.9565 -0.5242
12444TIP3   OH237276   1.940   5.412   5.494 -0.0976  0.9186  0.0492
12444TIP3    H137277   2.014   5.406   5.554 -0.3991  3.9637  0.9051
12444TIP3    H237278   1.869   5.365   5.538  0.9307 -0.9602 -0.2129
12445TIP3   OH237279   5.167   7.054   2.106  0.2100  0.6130  0.6534
12445TIP3    H137280   5.136   7.135   2.065 -1.0080  0.5224  1.3502
12445TIP3    H237281   5.186   6.995   2.033  1.9201  1.7706  0.0955
12446TIP3   OH237282   1.517   3.197   4.212 -0.2449  0.5189  0.8647
12446TIP3    H137283   1.572   3.218   4.287 -0.1835  2.2607  0.3712
12446TIP3    H237284   1.512   3.278   4.162  0.2526 -0.7447 -1.3846
12447TIP3   OH237285   6.811   5.989   5.187 -0.0852 -0.2632  0.1349
12447TIP3    H137286   6.739   6.027   5.237 -0.3488 -0.9622  0.3031
12447TIP3    H237287   6.877   5.968   5.253  0.5076  0.8817 -0.0839
12448TIP3   OH237288   6.774   0.832   2.027  0.1429  0.1535  0.2025
12448TIP3    H137289   6.708   0.763   2.022  0.2436  0.0593  0.1661
12448TIP3    H237290   6.731   0.909   1.991  0.9872 -0.5805 -2.6468
12449TIP3   OH237291   6.487   4.814   6.386  0.1440 -0.2892 -0.2737
12449TIP3    H137292   6.538   4.773   6.316 -0.3613  1.2081 -1.5626
12449TIP3    H237293   6.418   4.750   6.405 -0.0325 -0.4990 -1.5300
12450TIP3   OH237294   1.802   2.515   1.040  0.3342 -0.1071 -0.0482
12450TIP3    H137295   1.778   2.534   0.949 -0.8075 -0.0082  0.2644
12450TIP3    H237296   1.838   2.598   1.073 -0.1163  0.1257 -0.1353
12451TIP3   OH237297   4.839   4.926   5.992  0.3956 -0.4462 -0.1360
12451TIP3    H137298   4.786   4.976   5.930 -1.8364  2.0493  3.4245
12451TIP3    H237299   4.920   4.976   6.000 -0.1576  0.3961  0.3887
12452TIP3   OH237300   5.709   4.066   2.108  0.0161  0.3344 -0.1233
12452TIP3    H137301   5.800   4.078   2.081  0.4513 -0.5564  0.8539
12452TIP3    H237302   5.658   4.109   2.040  1.1537  0.5009 -0.9090
12453TIP3   OH237303   4.792   1.741   0.091  0.7632  0.2604  0.3537
12453TIP3    H137304   4.836   1.715   0.010  0.8346 -0.5664  0.6522
12453TIP3    H237305   4.725   1.674   0.104  1.0237  0.1612  1.2021
12454TIP3   OH237306   7.533   1.726   1.496  0.0085  0.1492 -0.0042
12454TIP3    H137307   7.580   1.803   1.528 -0.6549  0.4083  0.3828
12454TIP3    H237308   7.519   1.672   1.574  0.3030 -0.2720 -0.2416
12455TIP3   OH237309   2.525   7.263   1.960 -1.1187  0.0638 -0.4282
12455TIP3    H137310   2.483   7.295   2.040 -1.1718  0.9529 -0.7931
12455TIP3    H237311   2.509   7.169   1.960 -3.3056  0.3896 -0.6510
12456TIP3   OH237312   2.264   2.312   4.906  0.2020 -0.2143  0.0926
12456TIP3    H137313   2.344   2.281   4.863 -1.4975 -1.0531 -2.7430
12456TIP3    H237314   2.273   2.408   4.906  1.1366 -0.2850 -0.3186
12457TIP3   OH237315   3.582   4.712   1.623  0.2527  0.0683  0.4840
12457TIP3    H137316   3.578   4.628   1.576  0.0176 -0.4744  1.4590
12457TIP3    H237317   3.499   4.754   1.603  0.9469  0.7524 -1.2052
12458TIP3   OH237318   4.614   4.895   2.678 -0.0228  0.0305  0.0161
12458TIP3    H137319   4.549   4.950   2.722 -0.5914 -0.4298 -0.2365
12458TIP3    H237320   4.691   4.951   2.670  0.1333  0.1061  1.6531
12459TIP3   OH237321   0.912   4.893   0.562 -0.2928 -0.0877  0.3319
12459TIP3    H137322   0.910   4.804   0.595  0.7126  0.1750  1.1773
12459TIP3    H237323   0.973   4.939   0.620  0.5656  0.7154 -1.1127
12460TIP3   OH237324   1.388   4.822   1.451  0.0183  0.0607 -0.0172
12460TIP3    H137325   1.335   4.843   1.374 -0.8734  1.3017  0.8947
12460TIP3    H237326   1.475   4.856   1.430  0.7515 -2.6279 -1.8247
12461TIP3   OH237327   6.907   0.179   5.327  0.0490  0.0871  0.5181
12461TIP3    H137328   6.916   0.115   5.397  2.0576 -1.7805 -1.3035
12461TIP3    H237329   6.883   0.128   5.250  1.0592  1.5874 -0.8628
12462TIP3   OH237330   3.651   3.292   6.354 -0.1819 -0.0440 -0.0176
12462TIP3    H137331   3.592   3.217   6.351 -0.5271  0.1592  1.1270
12462TIP3    H237332   3.703   3.285   6.274  0.8905 -2.4078  0.7742
12463TIP3   OH237333   0.805   6.644   1.519 -0.0241  0.1602  0.0464
12463TIP3    H137334   0.890   6.668   1.483  0.1395  1.2843  1.1253
12463TIP3    H237335   0.745   6.649   1.445  0.5590  0.9550 -0.3901
12464TIP3   OH237336   0.300   2.719   4.157  0.2807 -0.7649  0.1060
12464TIP3    H137337   0.231   2.777   4.125  1.1574 -0.2206 -0.8731
12464TIP3    H237338   0.376   2.777   4.168  0.2255 -1.0543  2.5649
12465TIP3   OH237339   7.283   1.973   0.545 -0.0331  0.2346 -0.2021
12465TIP3    H137340   7.219   1.911   0.580 -1.0961  1.0298 -0.6826
12465TIP3    H237341   7.364   1.953   0.591 -0.3716 -1.4373 -0.2704
12466TIP3   OH237342   4.502   4.214   1.536 -0.0807 -0.4167  0.0901
12466TIP3    H137343   4.593   4.231   1.562 -0.1106  0.0207 -0.0887
12466TIP3    H237344   4.451   4.275   1.590 -0.1493  0.4759 -0.9522
12467TIP3   OH237345   2.380   0.109   4.482  0.2536 -0.0014  0.9624
12467TIP3    H137346   2.328   0.037   4.444  1.2314 -0.8983  1.2933
12467TIP3    H237347   2.362   0.105   4.576  1.4576 -0.7715  1.1697
12468TIP3   OH237348   1.528   5.847   5.493 -0.2209  0.1234  0.2053
12468TIP3    H137349   1.522   5.876   5.402 -1.4126  1.0131  0.5407
12468TIP3    H237350   1.613   5.879   5.523  0.2725 -0.3506 -0.6385
12469TIP3   OH237351   3.511   5.332   2.922 -0.3981  0.2701 -0.3641
12469TIP3    H137352   3.536   5.247   2.887  0.2208 -0.2209  1.1980
12469TIP3    H237353   3.581   5.392   2.895  0.2025 -0.1554  0.2313
12470TIP3   OH237354   2.949   4.580   0.869 -0.3258 -0.1221  0.1714
12470TIP3    H137355   3.043   4.600   0.869 -0.6346  1.4340  1.1572
12470TIP3    H237356   2.929   4.563   0.777  0.4120  2.1677 -0.4812
12471TIP3   OH237357   2.679   3.598   6.635  0.4440  0.3447  0.2948
12471TIP3    H137358   2.671   3.659   6.709 -0.3108 -0.8337  1.2120
12471TIP3    H237359   2.592   3.599   6.594  0.4764 -0.0044  0.2198
12472TIP3   OH237360   0.804   1.145   2.254  0.8498 -0.3856  0.0070
12472TIP3    H137361   0.780   1.053   2.250 -1.3989  0.1008  0.7361
12472TIP3    H237362   0.778   1.173   2.342  1.2673  0.9839 -0.2804
12473TIP3   OH237363   1.654   4.508   5.486 -1.1132  0.1614 -0.3347
12473TIP3    H137364   1.627   4.566   5.557 -1.2802 -0.6301  0.2555
12473TIP3    H237365   1.734   4.466   5.518  0.2973  1.6846 -1.6380
12474TIP3   OH237366   0.989   3.272   6.194 -0.4086 -0.2425  0.1278
12474TIP3    H137367   0.940   3.193   6.217 -2.3432  0.6952 -0.6551
12474TIP3    H237368   1.018   3.257   6.104  2.3312 -1.4968  1.0763
12475TIP3   OH237369   0.212   5.971   5.965 -0.0050 -0.1968 -0.0523
12475TIP3    H137370   0.214   5.877   5.947 -1.1237  0.0527 -1.7291
12475TIP3    H237371   0.295   5.988   6.010  0.7872 -1.7728 -0.8127
12476TIP3   OH237372   8.108   2.145   5.250  0.3636 -0.6106  0.0432
12476TIP3    H137373   8.164   2.122   5.325  0.3987  1.1301  0.5930
12476TIP3    H237374   8.104   2.065   5.198  1.4434 -1.4684  1.2097
12477TIP3   OH237375   6.902   7.677   0.500  0.2289  0.8075 -0.4428
12477TIP3    H137376   6.876   7.753   0.553  0.2790  1.3438 -1.1744
12477TIP3    H237377   6.985   7.702   0.462 -0.1167  0.6860 -1.2950
12478TIP3   OH237378   0.489   6.370   3.954  0.3921  0.2724 -0.2346
12478TIP3    H137379   0.558   6.307   3.935  0.6473  0.4470  0.1020
12478TIP3    H237380   0.522   6.453   3.917  0.2975  0.3248 -0.2021
12479TIP3   OH237381   6.384   7.208   0.445  0.3300  0.3481 -0.5586
12479TIP3    H137382   6.348   7.168   0.365  0.4727 -0.8440 -0.0529
12479TIP3    H237383   6.478   7.209   0.431  0.2024  3.2296 -1.7715
12480TIP3   OH237384   7.886   6.525   5.737  0.0134 -0.1859 -0.1531
12480TIP3    H137385   7.819   6.506   5.671 -0.7872  2.6177 -0.2919
12480TIP3    H237386   7.928   6.606   5.705 -0.7481  1.5792  2.9417
12481TIP3   OH237387   3.001   7.131   5.334 -0.0990 -0.2639 -0.3610
12481TIP3    H137388   3.014   7.225   5.349  0.0075 -0.1983 -0.8620
12481TIP3    H237389   2.915   7.125   5.291 -1.2361 -0.5991  1.8175
12482TIP3   OH237390   7.633   3.219   2.409  0.2607 -0.2488  0.4169
12482TIP3    H137391   7.621   3.124   2.414 -0.8770 -0.2036 -0.8358
12482TIP3    H237392   7.584   3.245   2.331 -0.3944  1.5177  1.3613
12483TIP3   OH237393   3.313   7.626   2.073  0.0830 -0.0905  0.5790
12483TIP3    H137394   3.255   7.559   2.038  0.4703 -0.0281 -0.2150
12483TIP3    H237395   3.317   7.608   2.167  0.2194 -1.2181  0.3743
12484TIP3   OH237396   6.499   0.142   6.268  0.1031 -0.3244  0.0469
12484TIP3    H137397   6.418   0.175   6.230  0.2538 -0.6755 -0.6019
12484TIP3    H237398   6.511   0.055   6.228  1.2972  0.1214 -0.6347
12485TIP3   OH237399   0.504   2.503   2.312 -0.1462  0.0633 -0.0133
12485TIP3    H137400   0.519   2.493   2.406  0.9964 -0.3089 -0.2257
12485TIP3    H237401   0.432   2.566   2.306  0.4630  0.8971  1.0931
12486TIP3   OH237402   4.806   0.554   0.210 -0.0513  0.3568 -0.1284
12486TIP3    H137403   4.723   0.584   0.173  0.6305  2.5869 -0.0289
12486TIP3    H237404   4.873   0.604   0.162  1.0387  0.9313  1.8787
12487TIP3   OH237405   2.098   5.934   0.867  0.1728 -0.0971  0.1271
12487TIP3    H137406   2.069   5.981   0.789 -2.5121 -1.8623 -0.0615
12487TIP3    H237407   2.128   5.849   0.834 -3.4745 -1.9415  1.0332
12488TIP3   OH237408   6.383   2.588   1.199 -0.6747 -0.1540 -0.6346
12488TIP3    H137409   6.299   2.565   1.239 -1.3497  1.9785 -0.6992
12488TIP3    H237410   6.449   2.555   1.260 -1.6377  1.0500  1.1255
12489TIP3   OH237411   7.647   3.806   4.908  0.4228 -0.5068  0.4973
12489TIP3    H137412   7.638   3.871   4.978 -0.4133  0.0183 -0.0798
12489TIP3    H237413   7.711   3.844   4.848  0.3271 -0.4571  0.4263
12490TIP3   OH237414   1.380   5.281   2.852  0.6124  0.1202  0.2171
12490TIP3    H137415   1.334   5.198   2.845  1.1214 -0.1116 -0.4127
12490TIP3    H237416   1.472   5.260   2.834  0.3308  1.3100 -3.3122
12491TIP3   OH237417   2.350   4.135   3.290  0.1490 -0.6635  0.6745
12491TIP3    H137418   2.386   4.105   3.206 -0.1010  1.1375 -0.1294
12491TIP3    H237419   2.299   4.061   3.322  1.5850 -1.9794  0.0636
12492TIP3   OH237420   0.130   6.384   1.961 -0.0738  0.1510  0.1370
12492TIP3    H137421   0.045   6.425   1.946  0.2630  0.5606 -0.7071
12492TIP3    H237422   0.110   6.304   2.011 -1.0950 -0.4635 -1.2016
12493TIP3   OH237423   2.408   1.125   5.004  0.4410 -0.1711  0.3229
12493TIP3    H137424   2.353   1.097   4.931  0.9973  0.7117 -0.4538
12493TIP3    H237425   2.347   1.172   5.062 -0.0679 -1.1571  0.6085
12494TIP3   OH237426   2.736   7.018   6.557  0.0415  0.5534  0.2021
12494TIP3    H137427   2.666   6.952   6.559 -0.0223  0.5478  3.5388
12494TIP3    H237428   2.691   7.101   6.575  0.3880  1.3187 -2.1149
12495TIP3   OH237429   7.227   0.564   0.902  0.4532 -0.2152  0.5312
12495TIP3    H137430   7.283   0.507   0.849 -0.8363 -1.1383  0.1119
12495TIP3    H237431   7.181   0.505   0.961  1.3783  0.7423  2.2845
12496TIP3   OH237432   4.863   1.088   5.579 -0.0989  0.2000 -0.7185
12496TIP3    H137433   4.910   1.112   5.659  0.4972 -0.1607 -0.9571
12496TIP3    H237434   4.930   1.088   5.511 -0.3382 -0.8551 -0.9658
12497TIP3   OH237435   4.634   4.902   5.535 -0.0375  0.0764  0.5795
12497TIP3    H137436   4.606   4.939   5.452  0.2286 -1.3276 -0.1634
12497TIP3    H237437   4.726   4.878   5.522  0.3519  0.9175  1.6656
12498TIP3   OH237438   4.417   1.878   1.923 -0.5641  0.2333 -0.0039
12498TIP3    H137439   4.446   1.955   1.972 -0.6569  0.8568 -0.9145
12498TIP3    H237440   4.498   1.830   1.903 -0.3964  0.6795 -0.4030
12499TIP3   OH237441   6.079   4.196   4.067  0.1684 -0.1035  0.1243
12499TIP3    H137442   6.143   4.245   4.119  0.1384  0.4338 -0.3346
12499TIP3    H237443   6.100   4.104   4.083  0.5473  0.0621  0.6039
12500TIP3   OH237444   1.890   4.210   3.299 -0.1491 -0.2719 -0.2477
12500TIP3    H137445   1.861   4.236   3.211 -2.3463 -0.7358  0.2791
12500TIP3    H237446   1.885   4.115   3.299 -0.9501 -0.2447  0.6104
12501TIP3   OH237447   2.539   4.671   3.073 -0.0215 -0.2393 -0.0957
12501TIP3    H137448   2.522   4.592   3.124  1.2477  0.3936  1.4149
12501TIP3    H237449   2.551   4.739   3.139  1.8012  0.5996 -1.2086
12502TIP3   OH237450   2.026   3.566   4.053  0.3587 -0.0593 -0.1811
12502TIP3    H137451   1.979   3.614   4.120  0.3492  0.2768 -0.4263
12502TIP3    H237452   1.959   3.515   4.008  0.3718 -0.3174  0.0919
12503TIP3   OH237453   1.945   7.128   1.853 -0.1793 -0.4124  0.2577
12503TIP3    H137454   1.912   7.193   1.790  0.8438 -0.6733 -0.5684
12503TIP3    H237455   1.897   7.147   1.934 -1.7494 -0.2735 -0.6771
12504TIP3   OH237456   4.711   2.931   5.550  0.0085 -0.1874 -0.0163
12504TIP3    H137457   4.782   2.906   5.609  0.4561  3.6495  1.3623
12504TIP3    H237458   4.750   2.928   5.463  1.4620  0.5332  0.5855
12505TIP3   OH237459   0.638   6.876   2.507 -0.7774  0.1469  0.0840
12505TIP3    H137460   0.610   6.954   2.555 -0.9599 -1.1753  2.2292
12505TIP3    H237461   0.724   6.856   2.542 -0.5138 -0.3518 -0.8226
12506TIP3   OH237462   0.380   4.708   0.392 -0.2293 -0.3925 -0.0491
12506TIP3    H137463   0.364   4.736   0.302 -1.0322  2.8699  0.9797
12506TIP3    H237464   0.457   4.758   0.419  0.3654 -1.7762  0.9449
12507TIP3   OH237465   6.350   0.052   5.191 -0.4277  0.0084  0.3037
12507TIP3    H137466   6.426   0.010   5.231 -0.0685  0.9527  0.6424
12507TIP3    H237467   6.277   0.028   5.248 -0.5276 -1.4579 -0.3919
12508TIP3   OH237468   0.614   2.127   4.931 -0.1539 -0.2918 -0.4503
12508TIP3    H137469   0.521   2.127   4.955 -0.1733 -0.0267 -0.5280
12508TIP3    H237470   0.655   2.185   4.994  0.3751 -2.3111  1.1694
12509TIP3   OH237471   7.106   7.551   2.827 -0.5463  0.3768  0.4655
12509TIP3    H137472   7.099   7.600   2.745  3.6204  0.1394 -0.2758
12509TIP3    H237473   7.200   7.540   2.839 -1.0605 -0.9600  4.5441
12510TIP3   OH237474   7.435   0.641   4.617 -0.0680  0.5567  0.2387
12510TIP3    H137475   7.381   0.716   4.640 -0.3780  1.5355 -3.2503
12510TIP3    H237476   7.373   0.576   4.584  0.5157 -0.0198  0.2499
12511TIP3   OH237477   1.076   0.367   6.392 -0.3792  0.0129  0.0521
12511TIP3    H137478   1.103   0.337   6.305 -1.5788 -0.3560 -0.2176
12511TIP3    H237479   0.985   0.393   6.381 -0.7977 -0.7881  1.3668
12512TIP3   OH237480   7.553   4.645   1.295 -0.3680 -0.4213  0.1770
12512TIP3    H137481   7.642   4.641   1.331 -0.0977 -2.7913 -0.5773
12512TIP3    H237482   7.498   4.673   1.368  0.9584  1.0865  0.6622
12513TIP3   OH237483   4.793   5.285   2.008 -0.0589  0.2115  0.1081
12513TIP3    H137484   4.705   5.324   2.015  0.1272  0.7690 -0.4945
12513TIP3    H237485   4.842   5.323   2.081 -0.3777 -0.2698  0.5758
12514TIP3   OH237486   6.092   1.349   5.086 -0.3380 -0.3736  0.4592
12514TIP3    H137487   6.185   1.367   5.081 -0.3672 -0.2005 -4.3895
12514TIP3    H237488   6.050   1.435   5.079 -1.0537 -0.3631  3.3509
12515TIP3   OH237489   5.915   6.190   4.736  0.0610 -0.2648 -0.0828
12515TIP3    H137490   5.906   6.129   4.662  0.5044  0.4870 -0.7783
12515TIP3    H237491   5.993   6.160   4.782 -0.5210 -1.0593  0.4032
12516TIP3   OH237492   6.613   7.340   0.720  0.8157  0.1097 -0.0031
12516TIP3    H137493   6.670   7.371   0.791  0.0720  1.9338 -0.1592
12516TIP3    H237494   6.543   7.292   0.764 -0.5049  2.5554  0.7112
12517TIP3   OH237495   2.899   6.645   2.889  0.1400 -0.3224  0.4828
12517TIP3    H137496   2.963   6.648   2.818  0.5895 -1.2069  0.8255
12517TIP3    H237497   2.842   6.571   2.867  0.0273 -0.3402  0.8300
12518TIP3   OH237498   2.533   5.907   1.735 -0.2506 -0.1319 -0.0790
12518TIP3    H137499   2.537   5.834   1.797  0.8472 -0.8074 -0.9080
12518TIP3    H237500   2.493   5.870   1.656 -1.0341  0.5488 -0.0088
12519TIP3   OH237501   0.007   1.812   1.470  0.4405 -0.1464  0.0359
12519TIP3    H137502   0.098   1.784   1.462 -0.0034 -1.1802 -1.9038
12519TIP3    H237503   0.010   1.907   1.458  1.3317 -0.0558  0.8448
12520TIP3   OH237504   2.739   1.906   6.142  0.2584  0.0495  0.0234
12520TIP3    H137505   2.729   1.968   6.214 -0.4766 -1.5463  1.3435
12520TIP3    H237506   2.670   1.930   6.080 -1.1007 -0.4398  1.2877
12521TIP3   OH237507   5.165   5.116   0.077 -0.0750  0.2651 -0.3101
12521TIP3    H137508   5.256   5.100   0.104 -1.1946 -0.4169  3.5491
12521TIP3    H237509   5.144   5.041   0.022  1.7330  0.6211 -1.6086
12522TIP3   OH237510   7.226   4.687   5.093 -0.3298  0.1850  0.0652
12522TIP3    H137511   7.177   4.635   5.157 -0.7030  0.4571  0.0065
12522TIP3    H237512   7.176   4.769   5.086 -0.6656 -0.0966 -1.0463
12523TIP3   OH237513   8.163   4.558   5.843 -0.0432 -0.3357  0.7728
12523TIP3    H137514   8.144   4.646   5.810  1.5894  0.0810  0.8646
12523TIP3    H237515   8.089   4.505   5.814  0.1497  0.5241 -1.4773
12524TIP3   OH237516   1.366   0.668   3.445  0.3494  0.7607 -0.1451
12524TIP3    H137517   1.386   0.585   3.488 -1.3514  0.1084 -0.5599
12524TIP3    H237518   1.297   0.707   3.499 -0.2657  0.9616 -1.0515
12525TIP3   OH237519   4.893   4.430   6.751  0.6221 -0.3492 -0.3206
12525TIP3    H137520   4.838   4.403   6.677  1.0050 -1.7533 -0.1275
12525TIP3    H237521   4.886   4.525   6.753 -1.0402 -0.4291 -0.8823
12526TIP3   OH237522   0.662   3.372   1.648 -0.2152 -0.1741 -0.4355
12526TIP3    H137523   0.613   3.412   1.576 -0.1711  1.0626  0.2004
12526TIP3    H237524   0.745   3.418   1.649  0.2487 -0.9930 -0.3171
12527TIP3   OH237525   5.730   1.044   2.349  0.4863  0.2840  0.2721
12527TIP3    H137526   5.796   1.094   2.301 -0.5447  0.7772 -0.6905
12527TIP3    H237527   5.730   0.958   2.308 -1.8172  1.2893 -2.1678
12528TIP3   OH237528   7.830   2.534   6.523  0.6533 -0.2870 -0.0097
12528TIP3    H137529   7.768   2.475   6.565 -0.2726 -0.5791 -1.6611
12528TIP3    H237530   7.856   2.596   6.591 -2.2374  0.4560  0.5244
12529TIP3   OH237531   4.810   0.741   1.836 -0.5304  0.8984  0.1087
12529TIP3    H137532   4.888   0.747   1.782  0.8914  0.5908  1.9953
12529TIP3    H237533   4.749   0.687   1.786  1.6562 -1.5048 -0.1643
12530TIP3   OH237534   0.723   4.717   5.838  0.2463  0.1631 -0.3481
12530TIP3    H137535   0.780   4.652   5.878  0.3358 -0.3472 -1.2585
12530TIP3    H237536   0.755   4.801   5.870  0.1729 -0.2294  0.7949
12531TIP3   OH237537   0.157   4.803   0.511  0.5722  0.4235  0.6319
12531TIP3    H137538   0.241   4.772   0.479 -0.1094  0.6220 -1.5708
12531TIP3    H237539   0.158   4.898   0.495 -0.3468  0.3117 -0.2609
12532TIP3   OH237540   6.637   6.883   2.845 -0.0009  0.0754 -0.7553
12532TIP3    H137541   6.682   6.882   2.760  0.8284 -1.4226 -0.3457
12532TIP3    H237542   6.706   6.863   2.908 -0.5687  1.3543  0.3091
12533TIP3   OH237543   7.876   1.932   6.705 -0.4413 -0.0624 -0.0834
12533TIP3    H137544   7.960   1.887   6.693  0.0977  0.7951  0.3543
12533TIP3    H237545   7.817   1.865   6.739  0.5498 -0.2755  1.2897
12534TIP3   OH237546   5.109   6.510   1.589  0.3745 -0.1652  0.5680
12534TIP3    H137547   5.146   6.446   1.529 -2.9188 -0.5612 -1.2955
12534TIP3    H237548   5.121   6.594   1.546 -1.5834 -0.4009 -0.5456
12535TIP3   OH237549   1.955   1.049   4.420  0.6345  0.1503 -0.6008
12535TIP3    H137550   1.898   1.016   4.490  1.2789  0.2113 -0.0381
12535TIP3    H237551   1.904   1.036   4.340  0.6952 -1.8955 -0.3721
12536TIP3   OH237552   2.401   1.524   1.359 -0.1834  0.7360  0.2566
12536TIP3    H137553   2.394   1.431   1.336 -0.9980  0.5468  1.1818
12536TIP3    H237554   2.494   1.540   1.370  0.2058  0.6657 -2.3411
12537TIP3   OH237555   6.892   1.960   5.618 -0.6022  0.2928 -0.1838
12537TIP3    H137556   6.895   1.865   5.602 -0.2922  0.2780 -0.0400
12537TIP3    H237557   6.834   1.969   5.693 -1.4651  0.3027 -0.8360
12538TIP3   OH237558   5.934   2.501   3.456 -0.6739  0.3628 -0.6267
12538TIP3    H137559   6.030   2.493   3.460 -0.8090 -0.9315  0.7592
12538TIP3    H237560   5.914   2.497   3.363  0.3494 -3.8729 -0.8624
12539TIP3   OH237561   3.054   3.187   3.215 -0.4572 -0.0996 -0.0183
12539TIP3    H137562   3.057   3.236   3.297 -0.5760  0.0045 -0.0748
12539TIP3    H237563   3.140   3.200   3.176  0.4613 -2.0775  1.1948
12540TIP3   OH237564   7.697   0.163   4.983 -0.3437 -0.1567  0.3121
12540TIP3    H137565   7.606   0.165   5.014 -0.0052 -1.2444  1.4694
12540TIP3    H237566   7.747   0.134   5.059  0.8978 -0.2337 -0.5097
12541TIP3   OH237567   1.688   2.472   6.266 -0.5619 -0.2605 -0.3131
12541TIP3    H137568   1.765   2.530   6.261 -1.4153  1.1882  1.9108
12541TIP3    H237569   1.714   2.403   6.327 -0.3532 -0.9709 -1.1769
12542TIP3   OH237570   5.639   5.045   2.671 -0.2665  0.2067  0.0544
12542TIP3    H137571   5.648   5.104   2.596 -0.3169 -1.4199 -1.2745
12542TIP3    H237572   5.553   5.005   2.661 -0.5110  0.3687  1.3042
12543TIP3   OH237573   2.746   6.327   4.658 -0.1386 -0.6571 -0.8416
12543TIP3    H137574   2.749   6.251   4.716  0.3495  1.6232  2.4072
12543TIP3    H237575   2.835   6.336   4.624  0.2531 -0.5818  0.1785
12544TIP3   OH237576   2.223   0.403   0.747 -0.2579  0.2145 -0.5382
12544TIP3    H137577   2.160   0.453   0.695 -0.9815 -0.7285 -0.5768
12544TIP3    H237578   2.203   0.426   0.838  1.9122  2.9704 -0.6096
12545TIP3   OH237579   7.938   0.519   1.540 -0.3661 -0.5398 -0.3786
12545TIP3    H137580   7.861   0.474   1.575 -1.4702  1.0819 -0.6302
12545TIP3    H237581   8.010   0.457   1.555 -1.5500 -1.7453  0.6449
12546TIP3   OH237582   2.002   7.736   6.432 -0.0104  0.1502 -0.1122
12546TIP3    H137583   2.003   7.669   6.501  1.5588 -0.5625 -0.7658
12546TIP3    H237584   2.088   7.729   6.391  1.6035  4.7827  1.8591
12547TIP3   OH237585   5.820   1.374   0.675 -0.5049 -0.0233 -0.1138
12547TIP3    H137586   5.786   1.456   0.713  0.7165 -0.3970  1.9512
12547TIP3    H237587   5.764   1.358   0.600 -2.1113  1.6243  0.6408
12548TIP3   OH237588   1.528   4.233   2.492 -0.6153 -0.0943 -0.5422
12548TIP3    H137589   1.568   4.243   2.406  1.4071 -0.3850  0.3123
12548TIP3    H237590   1.434   4.223   2.474 -0.0048 -2.8020 -2.9032
12549TIP3   OH237591   7.191   4.385   3.536 -0.0973  0.2123 -0.2061
12549TIP3    H137592   7.205   4.326   3.611 -1.0980 -1.4229 -1.2261
12549TIP3    H237593   7.277   4.422   3.518  0.5559 -0.8449  0.5820
12550TIP3   OH237594   1.597   5.680   0.985 -0.1838  0.0259  0.4515
12550TIP3    H137595   1.588   5.608   1.048  0.3564  0.0438  0.5541
12550TIP3    H237596   1.509   5.691   0.948  0.0589 -1.8049 -0.8067
12551TIP3   OH237597   0.057   7.112   2.271 -0.6912 -0.0467  0.1834
12551TIP3    H137598   0.018   7.047   2.329 -2.5278  1.6962  0.9996
12551TIP3    H237599   0.111   7.061   2.210 -2.0839 -2.3083  0.7603
12552TIP3   OH237600   6.195   5.707   3.760 -0.9000 -0.0238 -0.2667
12552TIP3    H137601   6.140   5.634   3.732 -0.7206 -0.1265 -0.3526
12552TIP3    H237602   6.152   5.740   3.839 -0.9153 -0.2956 -0.1617
12553TIP3   OH237603   1.588   7.177   0.549  0.1738 -0.0784  0.4132
12553TIP3    H137604   1.659   7.148   0.491  0.3398  1.3609 -0.1347
12553TIP3    H237605   1.513   7.123   0.524  0.8023 -0.9565  0.3525
12554TIP3   OH237606   3.763   6.533   6.647 -0.5430  0.3692 -0.2894
12554TIP3    H137607   3.840   6.587   6.628  0.1805  0.0903  1.6535
12554TIP3    H237608   3.689   6.589   6.624  0.1842  2.1135  1.3415
12555TIP3   OH237609   0.486   0.558   5.067 -0.2680  0.2084  0.1866
12555TIP3    H137610   0.453   0.612   5.138 -1.2811 -0.7925  0.4988
12555TIP3    H237611   0.450   0.598   4.988  1.5693  1.8445  0.1066
12556TIP3   OH237612   0.161   7.577   1.520  0.1696  0.0079 -0.5059
12556TIP3    H137613   0.181   7.535   1.436 -1.4521 -3.6490  0.7422
12556TIP3    H237614   0.218   7.534   1.583 -1.1587  0.0209  0.7746
12557TIP3   OH237615   4.601   0.768   4.622  0.6543 -0.2117 -0.3863
12557TIP3    H137616   4.515   0.785   4.661 -0.0595 -1.0000 -1.5672
12557TIP3    H237617   4.624   0.849   4.578  1.6004  0.7958  1.8194
12558TIP3   OH237618   5.507   5.114   1.059  0.0758 -0.0310  0.2384
12558TIP3    H137619   5.481   5.167   0.984 -1.1629  1.9089  1.9725
12558TIP3    H237620   5.456   5.033   1.050 -0.7770  0.5703 -0.4886
12559TIP3   OH237621   5.489   6.608   6.670 -0.4312  0.0375  0.2744
12559TIP3    H137622   5.463   6.699   6.688 -1.8354  0.1284 -1.8957
12559TIP3    H237623   5.582   6.615   6.649 -0.6522  1.0750 -0.4464
12560TIP3   OH237624   7.549   1.991   0.046 -0.4455  0.0402 -0.1186
12560TIP3    H137625   7.512   2.025   0.127  1.1641 -0.3133  0.8253
12560TIP3    H237626   7.626   2.046   0.030  0.5288 -1.2575 -0.1525
12561TIP3   OH237627   4.569   2.360   4.591  0.1606 -0.1665  0.1013
12561TIP3    H137628   4.640   2.418   4.563  1.4532 -0.7826  1.9444
12561TIP3    H237629   4.494   2.418   4.603  0.8535  0.7899 -0.0822
12562TIP3   OH237630   6.080   2.704   0.202  0.0359  0.1512 -0.1400
12562TIP3    H137631   6.029   2.705   0.283  1.2288 -0.1826  0.6471
12562TIP3    H237632   6.072   2.793   0.167 -0.9939  0.1266  0.0142
12563TIP3   OH237633   6.479   7.457   4.320  0.1948 -0.1794 -0.6088
12563TIP3    H137634   6.466   7.371   4.279 -1.1663 -0.2562 -0.0840
12563TIP3    H237635   6.514   7.512   4.250 -1.6783 -0.4133 -1.8053
12564TIP3   OH237636   4.337   2.892   1.210 -0.2713 -0.2136  0.2473
12564TIP3    H137637   4.430   2.886   1.188 -0.2467  0.9858 -0.0020
12564TIP3    H237638   4.295   2.922   1.129 -0.8501 -0.5346  0.4244
12565TIP3   OH237639   8.303   0.451   4.688 -0.4274 -0.2164 -0.2481
12565TIP3    H137640   8.311   0.518   4.621 -0.6504  0.5301  0.4625
12565TIP3    H237641   8.226   0.399   4.661  0.8830 -1.4466 -1.8570
12566TIP3   OH237642   2.077   2.295   1.365 -0.0645  0.2060 -0.2075
12566TIP3    H137643   2.005   2.240   1.333 -0.4380 -0.5351  1.7284
12566TIP3    H237644   2.072   2.375   1.313 -1.1659 -0.5436 -1.3116
12567TIP3   OH237645   1.639   5.576   1.733  0.0671 -0.0291 -0.4209
12567TIP3    H137646   1.603   5.501   1.780  1.6704 -1.4948 -1.4130
12567TIP3    H237647   1.634   5.552   1.641  0.8694  0.9636 -0.7444
12568TIP3   OH237648  -0.017   7.191   5.324  0.1810 -0.0992 -0.5803
12568TIP3    H137649   0.027   7.250   5.264  1.2746  0.4150  0.6818
12568TIP3    H237650   0.045   7.118   5.336 -0.9381 -1.2966 -1.7274
12569TIP3   OH237651   1.935   7.263   4.554  0.3827 -0.2009 -0.2741
12569TIP3    H137652   1.937   7.232   4.463 -2.1664  0.9775 -0.8343
12569TIP3    H237653   2.011   7.320   4.562  1.8035 -1.9007 -0.9953
12570TIP3   OH237654   1.871   1.643   6.344 -0.7729  0.1793  0.0200
12570TIP3    H137655   1.914   1.614   6.264 -2.5117 -0.3812 -0.7634
12570TIP3    H237656   1.837   1.563   6.384 -1.3142  0.6150  0.4657
12571TIP3   OH237657   3.044   4.187   3.263  0.3491 -0.0408  0.1474
12571TIP3    H137658   3.046   4.153   3.174  0.8052  0.4308 -0.0252
12571TIP3    H237659   3.059   4.281   3.254 -1.3598  0.2957  0.5831
12572TIP3   OH237660   0.027   3.806   6.004 -0.3544 -0.0869  0.3979
12572TIP3    H137661   0.053   3.898   6.013  2.5908 -0.5382 -2.0157
12572TIP3    H237662   0.024   3.773   6.094 -1.2040  2.2647  1.3010
12573TIP3   OH237663   1.907   6.297   4.591 -0.2514  0.2267  0.5520
12573TIP3    H137664   1.865   6.211   4.588  0.3152 -0.0883  1.2036
12573TIP3    H237665   2.001   6.278   4.593 -0.0873  0.8981 -0.2700
12574TIP3   OH237666   4.452   3.531   6.488  0.0854 -0.1566  0.1104
12574TIP3    H137667   4.379   3.580   6.526 -1.6092  0.0616 -3.0278
12574TIP3    H237668   4.410   3.467   6.430  2.3868 -1.2055 -0.5085
12575TIP3   OH237669   1.961   2.102   4.456  0.4171 -0.5387  0.1375
12575TIP3    H137670   1.867   2.086   4.446  0.6148 -1.0853 -1.0615
12575TIP3    H237671   2.001   2.015   4.447  1.1830 -0.0462 -1.7381
12576TIP3   OH237672   2.752   2.353   4.193 -0.1284  0.5030 -0.5218
12576TIP3    H137673   2.732   2.446   4.196  2.2409  1.0427  0.6118
12576TIP3    H237674   2.809   2.344   4.117  1.2471  0.3562  0.5057
12577TIP3   OH237675   3.160   0.716   0.905  0.4745  0.3099  0.2792
12577TIP3    H137676   3.071   0.702   0.938  0.2614  1.5039  0.2634
12577TIP3    H237677   3.208   0.638   0.933 -0.1906  0.3553  1.6737
12578TIP3   OH237678   0.456   7.086   3.846  0.2681 -0.2591  0.4376
12578TIP3    H137679   0.396   7.131   3.787 -0.3296 -1.2101  0.3102
12578TIP3    H237680   0.403   7.061   3.921  0.8730  0.3280  1.0762
12579TIP3   OH237681   2.486   2.939   0.464 -0.2877  0.1502 -0.1977
12579TIP3    H137682   2.564   2.918   0.412 -1.5305  0.5479 -2.3357
12579TIP3    H237683   2.510   2.914   0.553  1.2880 -2.4562 -1.2081
12580TIP3   OH237684   8.282   6.088   6.090 -0.0875 -0.5485 -0.2695
12580TIP3    H137685   8.202   6.036   6.082 -0.7527  0.4015  0.0553
12580TIP3    H237686   8.341   6.053   6.023 -1.4854  0.0191 -1.8378
12581TIP3   OH237687   6.264   1.177   6.529 -0.4173 -0.3306  0.3276
12581TIP3    H137688   6.329   1.188   6.460 -0.7778 -1.9367 -0.2974
12581TIP3    H237689   6.268   1.259   6.578  0.8212  0.2974 -0.7553
12582TIP3   OH237690   0.752   6.649   3.493  0.1366 -0.2191  0.0994
12582TIP3    H137691   0.726   6.664   3.402  0.4492 -2.4973 -0.4158
12582TIP3    H237692   0.826   6.708   3.507 -0.5309  0.8577 -0.8035
12583TIP3   OH237693   7.600   5.639   2.697  0.0768 -0.0831  0.1930
12583TIP3    H137694   7.574   5.688   2.620  1.2135 -1.5739 -1.2067
12583TIP3    H237695   7.616   5.550   2.665  1.1191 -0.6157  2.0341
12584TIP3   OH237696   4.160   7.165  -0.004 -0.2340  0.3012  0.2028
12584TIP3    H137697   4.178   7.193   0.086  0.1388  0.2123  0.1588
12584TIP3    H237698   4.182   7.241  -0.057  1.8893 -0.4108 -0.0182
12585TIP3   OH237699   6.114   5.432   6.045 -0.4145  0.2070 -0.0043
12585TIP3    H137700   6.027   5.392   6.042 -0.2621 -0.1626  0.3936
12585TIP3    H237701   6.175   5.359   6.035 -0.1509  0.6197 -1.7013
12586TIP3   OH237702   8.106   0.131   0.958  0.8921 -0.0492  0.0468
12586TIP3    H137703   8.051   0.204   0.931  0.0438 -0.1687  1.3586
12586TIP3    H237704   8.191   0.149   0.918 -0.0227  0.2165 -1.9037
12587TIP3   OH237705   3.541   2.369   0.260  0.4839 -0.2964 -0.3684
12587TIP3    H137706   3.568   2.427   0.189  0.1394 -0.4130 -0.5982
12587TIP3    H237707   3.544   2.281   0.221  0.2425 -0.3546 -0.2539
12588TIP3   OH237708   1.239   0.659   6.021 -0.0214 -0.5110  0.0925
12588TIP3    H137709   1.240   0.640   6.115 -0.5717  0.7826  0.3806
12588TIP3    H237710   1.157   0.706   6.007  1.4499  2.0686 -0.4340
12589TIP3   OH237711   1.091   5.784   2.650  0.0331  0.4677 -0.2579
12589TIP3    H137712   1.159   5.841   2.686  0.7460  0.0927 -0.9567
12589TIP3    H237713   1.134   5.741   2.575 -0.5452 -0.8045  0.1153
12590TIP3   OH237714   4.419   4.879   5.303  0.5985 -0.2490 -0.4739
12590TIP3    H137715   4.375   4.946   5.356  0.2158 -2.0773  1.6953
12590TIP3    H237716   4.500   4.920   5.274 -0.3941  1.6800 -0.6615
12591TIP3   OH237717   6.869   3.221   2.978 -0.0733 -0.0627 -0.3168
12591TIP3    H137718   6.893   3.233   3.070  0.7671  3.0840 -0.8382
12591TIP3    H237719   6.951   3.198   2.935 -0.4327 -1.3584 -0.3434
12592TIP3   OH237720   8.269   2.078   6.413 -0.5535 -0.1006  0.1064
12592TIP3    H137721   8.263   1.986   6.388  1.5809 -0.3395  0.3350
12592TIP3    H237722   8.220   2.083   6.496 -0.6056 -1.0408  0.1389
12593TIP3   OH237723   2.208   2.286   2.463 -0.7151  0.7191 -0.0444
12593TIP3    H137724   2.213   2.361   2.522 -0.5450  0.2069  0.6093
12593TIP3    H237725   2.114   2.279   2.442 -0.5243  2.2295 -1.6223
12594TIP3   OH237726   2.067   4.807   3.499  0.3861 -0.0148 -0.2892
12594TIP3    H137727   2.161   4.814   3.482  0.1936  0.1166 -1.3636
12594TIP3    H237728   2.049   4.713   3.500  0.7218 -0.0788  1.1017
12595TIP3   OH237729   7.346   2.434   5.358 -0.4526 -0.1221  0.5287
12595TIP3    H137730   7.333   2.458   5.267  1.5472  1.9171  0.6821
12595TIP3    H237731   7.294   2.354   5.370 -1.5402  0.0991 -2.0898
12596TIP3   OH237732   3.942   4.155   3.318 -0.1982  0.4522  0.0446
12596TIP3    H137733   3.903   4.068   3.311 -0.2053  0.3951  0.7679
12596TIP3    H237734   3.981   4.171   3.232 -0.7692  0.0125 -0.3017
12597TIP3   OH237735   3.122   6.085   4.079 -0.6182 -0.2256 -0.1543
12597TIP3    H137736   3.034   6.084   4.039 -0.1784  1.2949 -1.2618
12597TIP3    H237737   3.179   6.049   4.011 -0.1036  0.7588 -0.2656
12598TIP3   OH237738   2.183   7.560   0.073 -0.0381 -0.2151  0.1732
12598TIP3    H137739   2.097   7.602   0.074 -0.4523 -1.0489  1.4121
12598TIP3    H237740   2.169   7.475   0.113  1.3803 -0.3577  0.4221
12599TIP3   OH237741   5.430   6.258   4.176 -0.0230 -0.2990 -0.2368
12599TIP3    H137742   5.421   6.165   4.195  1.6947 -0.0551  2.1253
12599TIP3    H237743   5.387   6.303   4.249  0.4749  0.7546 -0.5651
12600TIP3   OH237744   0.507   2.433   2.621  0.2518  0.5425 -0.0285
12600TIP3    H137745   0.477   2.369   2.685  1.6949 -0.1578 -0.0255
12600TIP3    H237746   0.493   2.518   2.663  1.0856  0.1025  1.1889
12601TIP3   OH237747   2.888   7.123   6.015 -0.2683 -0.2933 -0.0606
12601TIP3    H137748   2.868   7.142   5.924  2.3122  0.7295 -0.4955
12601TIP3    H237749   2.873   7.206   6.061  3.4709  0.8364 -0.5804
12602TIP3   OH237750   0.752   0.079   2.288  0.4568 -0.1394 -0.7634
12602TIP3    H137751   0.789   0.020   2.354  0.6835  0.7970 -0.0315
12602TIP3    H237752   0.827   0.105   2.235  0.7919  1.2771  0.3427
12603TIP3   OH237753   4.542   5.904   6.787  0.6923 -0.0626 -0.1477
12603TIP3    H137754   4.465   5.954   6.812  2.0197  2.0909 -0.0424
12603TIP3    H237755   4.583   5.957   6.718  1.6363 -1.5661 -0.7801
12604TIP3   OH237756   5.106   5.301   2.062 -0.4273 -0.1819  0.0048
12604TIP3    H137757   5.150   5.231   2.111 -0.5135  0.2242  0.6791
12604TIP3    H237758   5.055   5.348   2.128 -0.7146  0.2540 -0.5178
12605TIP3   OH237759   4.331   3.926   3.905 -0.8173 -0.5715  0.4926
12605TIP3    H137760   4.363   3.836   3.914 -0.2629 -0.5384 -0.9217
12605TIP3    H237761   4.344   3.964   3.992 -0.7005 -1.7329  1.0115
12606TIP3   OH237762   4.381   7.263   5.085 -0.7427  0.1269  0.1415
12606TIP3    H137763   4.327   7.322   5.137  1.6552  0.5319  2.3802
12606TIP3    H237764   4.342   7.176   5.100 -1.6687  0.5899  0.4718
12607TIP3   OH237765   5.354   0.366   5.365 -0.3452  0.5980 -0.0133
12607TIP3    H137766   5.409   0.394   5.438  0.5907 -0.4761 -0.2810
12607TIP3    H237767   5.414   0.324   5.304 -1.4560 -0.5628 -0.3556
12608TIP3   OH237768   3.453   4.639   3.750  0.1370  0.5029  0.3873
12608TIP3    H137769   3.504   4.594   3.682 -0.2641 -0.6518  0.8285
12608TIP3    H237770   3.519   4.684   3.803  0.9823 -2.4110  2.0333
12609TIP3   OH237771   4.424   4.652   1.388  0.3710 -0.4193  0.3451
12609TIP3    H137772   4.488   4.616   1.448 -0.0490 -1.3488  0.2522
12609TIP3    H237773   4.357   4.583   1.379  1.0781 -0.8902 -2.2092
12610TIP3   OH237774   6.031   4.952   3.046  0.0172 -0.0167  0.1565
12610TIP3    H137775   6.120   4.953   3.010 -0.4249 -1.2287 -1.0654
12610TIP3    H237776   6.034   4.889   3.118  0.0485 -0.4332 -0.2040
12611TIP3   OH237777   4.852   2.970   0.494 -0.1863 -0.3484  0.0537
12611TIP3    H137778   4.863   3.043   0.434  0.3340 -0.5620 -0.1158
12611TIP3    H237779   4.816   3.009   0.573 -2.4651 -0.2937 -0.9345
12612TIP3   OH237780   6.613   2.695   5.454  0.1647 -0.6514  0.5215
12612TIP3    H137781   6.620   2.777   5.502  0.5130 -1.1215  1.2879
12612TIP3    H237782   6.651   2.629   5.512  3.0480 -0.8833 -1.3560
12613TIP3   OH237783   4.105   1.417   1.115 -0.7974 -0.0258  0.1042
12613TIP3    H137784   4.118   1.383   1.204  0.1651  0.0722  0.0091
12613TIP3    H237785   4.193   1.424   1.079 -1.1807 -0.1437 -0.8941
12614TIP3   OH237786   1.600   0.069   4.785 -0.0409  0.5266 -0.2095
12614TIP3    H137787   1.657  -0.007   4.770 -0.9744  0.1659 -2.2671
12614TIP3    H237788   1.545   0.043   4.859 -1.6652 -1.6887 -2.0309
12615TIP3   OH237789   3.866   5.129   6.452  0.3855 -0.8869  0.1275
12615TIP3    H137790   3.834   5.047   6.414  1.3819 -0.3232 -2.0758
12615TIP3    H237791   3.786   5.180   6.470 -0.1474 -1.1790 -1.2756
12616TIP3   OH237792   7.126   3.993   2.585  0.6010  0.5304  0.2799
12616TIP3    H137793   7.129   4.027   2.495 -0.7259 -1.2701 -0.5128
12616TIP3    H237794   7.037   4.011   2.614  0.0319 -1.6436  0.0391
12617TIP3   OH237795   7.464   6.431   5.840  0.0801 -0.0114  0.2974
12617TIP3    H137796   7.494   6.344   5.864 -1.1226  0.4528  4.3636
12617TIP3    H237797   7.389   6.417   5.783  0.9077 -1.5401 -0.4499
12618TIP3   OH237798   0.601   4.925   0.949  0.4892  0.3620 -0.2095
12618TIP3    H137799   0.515   4.928   0.908  0.7510  3.8769 -0.7940
12618TIP3    H237800   0.585   4.886   1.035 -1.4880  0.0956 -0.6419
12619TIP3   OH237801   2.607   6.946   5.365 -0.4601 -0.5291 -0.5504
12619TIP3    H137802   2.664   7.008   5.319 -2.0110  0.7800 -0.8336
12619TIP3    H237803   2.585   6.880   5.299  0.9084 -1.1870 -0.3614
12620TIP3   OH237804   7.364   7.240   1.542  0.2900 -0.0800  0.3271
12620TIP3    H137805   7.293   7.299   1.567  0.9773  1.1683 -0.5033
12620TIP3    H237806   7.408   7.287   1.470  0.5364 -1.8661 -0.7378
12621TIP3   OH237807   0.002   0.349   2.994 -0.2450 -0.0131  0.5151
12621TIP3    H137808   0.072   0.314   3.049 -0.1691 -1.0192 -0.2019
12621TIP3    H237809   0.046   0.406   2.931 -0.1989  0.1956  0.7352
12622TIP3   OH237810   5.977   5.263   0.104  0.0407 -0.6804  0.7001
12622TIP3    H137811   5.997   5.175   0.071  1.3343 -0.8186  1.7619
12622TIP3    H237812   6.063   5.299   0.128 -0.5010  0.7968  0.4756
12623TIP3   OH237813   3.383   1.907   4.237  0.6340 -0.5045 -0.2521
12623TIP3    H137814   3.463   1.854   4.237  0.1877 -1.2045  0.5405
12623TIP3    H237815   3.316   1.848   4.203  0.3525 -0.0845 -0.4232
12624TIP3   OH237816   6.144   6.223   1.306  0.0501  0.0831 -0.5215
12624TIP3    H137817   6.175   6.272   1.382  1.1192  0.2146 -1.0217
12624TIP3    H237818   6.202   6.251   1.235  1.6155 -2.8880 -0.5532
12625TIP3   OH237819   5.078   6.937   6.233  0.7244 -0.3595  0.2911
12625TIP3    H137820   5.117   7.019   6.203 -0.1683  0.0710  0.2775
12625TIP3    H237821   5.117   6.922   6.319  1.8839 -0.6249 -0.2543
12626TIP3   OH237822   6.643   4.637   2.822  0.2337 -0.4319  0.1776
12626TIP3    H137823   6.590   4.717   2.828 -0.4139 -0.8917  0.7278
12626TIP3    H237824   6.578   4.566   2.815  0.8006 -0.9016 -0.4868
12627TIP3   OH237825   0.695   4.973   1.602 -0.6610 -0.1399  0.3992
12627TIP3    H137826   0.666   4.888   1.568  1.5439 -1.6890  2.0673
12627TIP3    H237827   0.669   4.972   1.694 -1.6236  1.5575  0.1907
12628TIP3   OH237828   7.473   2.008   4.139  0.1649 -0.1930  0.2619
12628TIP3    H137829   7.455   1.937   4.077 -1.3284  0.8087 -0.5003
12628TIP3    H237830   7.516   2.076   4.087  0.1009  0.1200  0.6096
12629TIP3   OH237831   0.218   0.093   1.564  0.7308 -0.4495 -0.4200
12629TIP3    H137832   0.128   0.123   1.548  1.1049  0.8459 -0.1863
12629TIP3    H237833   0.251   0.069   1.477  0.7900  0.9044 -0.7813
12630TIP3   OH237834   2.868   0.372   2.547 -0.4479  0.0360 -0.6754
12630TIP3    H137835   2.820   0.313   2.489  0.6891  0.3954 -2.0360
12630TIP3    H237836   2.800   0.423   2.591 -1.3490  1.1477 -3.1946
12631TIP3   OH237837   7.082   0.357   1.899  0.2891  0.0444 -0.2340
12631TIP3    H137838   7.062   0.443   1.936 -0.4492 -0.4048  0.4491
12631TIP3    H237839   7.133   0.376   1.820 -0.8286  1.1534 -0.7225
12632TIP3   OH237840   3.177   7.277   4.988 -0.1956  0.1607 -0.3859
12632TIP3    H137841   3.244   7.213   4.963 -0.4943 -0.2555 -0.1380
12632TIP3    H237842   3.098   7.224   5.003 -0.5691  0.6370 -0.6280
12633TIP3   OH237843   0.819   0.044   3.542 -0.3261 -0.7242  0.1099
12633TIP3    H137844   0.851  -0.026   3.486  1.8778 -0.9318  1.5239
12633TIP3    H237845   0.730   0.017   3.565 -0.1583 -2.1431 -0.7958
12634TIP3   OH237846   0.793   0.807   4.024 -0.7171 -0.4945  0.0299
12634TIP3    H137847   0.729   0.875   4.002  0.2611  1.0948  1.8340
12634TIP3    H237848   0.869   0.855   4.056  0.2996 -2.4380  0.6697
12635TIP3   OH237849   1.709   7.592   0.002 -0.1782  0.6944  0.5160
12635TIP3    H137850   1.766   7.531   0.049  0.3092  1.6679  1.2143
12635TIP3    H237851   1.635   7.538  -0.027  0.2682 -0.2349  1.0656
12636TIP3   OH237852   3.497   0.156   2.899 -0.5297 -0.0269  0.4656
12636TIP3    H137853   3.491   0.121   2.988  1.1557  1.7184  1.3468
12636TIP3    H237854   3.411   0.192   2.881 -0.0126  2.7193  2.8530
12637TIP3   OH237855   7.782   7.418   0.340 -0.2594 -0.7108  0.2032
12637TIP3    H137856   7.747   7.409   0.429  0.2526 -1.0051  0.3750
12637TIP3    H237857   7.704   7.425   0.285 -0.5837 -0.7324  0.6526
12638TIP3   OH237858   0.115   0.880   0.545 -0.1047  0.2448 -0.4575
12638TIP3    H137859   0.142   0.946   0.481 -0.8093  1.3627  0.3671
12638TIP3    H237860   0.023   0.898   0.561  0.5485  1.5476  2.6022
12639TIP3   OH237861   3.384   3.662   4.370 -0.2766  0.3283  0.1852
12639TIP3    H137862   3.291   3.640   4.364  0.3890 -2.4730 -2.4314
12639TIP3    H237863   3.387   3.758   4.371 -3.1590  0.4848  0.9086
12640TIP3   OH237864   1.415   3.909   4.936 -0.5028 -0.1151 -0.1029
12640TIP3    H137865   1.398   3.936   4.846  0.7812 -2.4861 -1.1536
12640TIP3    H237866   1.510   3.913   4.945 -0.5654 -0.5395  0.9375
12641TIP3   OH237867   4.349   7.682   2.253  0.2825 -0.3103 -0.2664
12641TIP3    H137868   4.286   7.650   2.188  1.9281 -1.3086 -1.4395
12641TIP3    H237869   4.413   7.731   2.202  1.2149 -0.4967  0.6956
12642TIP3   OH237870   2.948   2.938   3.267 -0.0588 -0.1912  0.0670
12642TIP3    H137871   2.853   2.938   3.284 -0.2217 -1.4749 -0.7199
12642TIP3    H237872   2.967   3.028   3.241 -1.1786 -0.0662 -0.3776
12643TIP3   OH237873   1.728   0.749   0.422  0.4863  0.0251  0.3648
12643TIP3    H137874   1.764   0.823   0.471  2.1339 -0.8641  0.5608
12643TIP3    H237875   1.685   0.789   0.347 -1.7472  1.4052  2.2255
12644TIP3   OH237876   7.246   6.742   5.773 -0.1888 -0.3170  0.3850
12644TIP3    H137877   7.204   6.771   5.692  0.7313  0.1371  0.0530
12644TIP3    H237878   7.181   6.758   5.841 -1.0555 -0.9051 -0.2883
12645TIP3   OH237879   5.575   1.324   3.390  0.2919 -0.6014 -0.2312
12645TIP3    H137880   5.515   1.367   3.329 -1.5890 -0.4608  1.6225
12645TIP3    H237881   5.649   1.385   3.397  0.2098 -0.2842 -1.7756
12646TIP3   OH237882   3.457   4.855   1.230 -0.0463  0.6277  0.6620
12646TIP3    H137883   3.373   4.820   1.257  0.2195  0.0664  0.7732
12646TIP3    H237884   3.456   4.946   1.261 -1.7336  1.5378 -1.7656
12647TIP3   OH237885   7.477   4.408   5.742 -0.0087  0.2473  0.2597
12647TIP3    H137886   7.558   4.378   5.783 -0.3647  0.5475  1.2126
12647TIP3    H237887   7.440   4.329   5.702  0.5224  0.0179  0.2146
12648TIP3   OH237888   7.453   7.289   6.634 -0.1155 -0.2190 -0.0423
12648TIP3    H137889   7.458   7.357   6.567 -2.4691 -0.3592 -0.4760
12648TIP3    H237890   7.453   7.336   6.717 -1.8078  0.4013 -0.3434
12649TIP3   OH237891   5.304   5.927   5.734 -0.6670  0.0990  0.0940
12649TIP3    H137892   5.310   5.884   5.648 -1.5836 -0.1862  0.1566
12649TIP3    H237893   5.221   5.975   5.731 -1.1576 -0.6417  1.1362
12650TIP3   OH237894   1.504   4.780   0.745  0.6021  0.1204 -0.7458
12650TIP3    H137895   1.504   4.858   0.689 -0.8223 -0.4794 -1.6460
12650TIP3    H237896   1.555   4.715   0.696 -1.7486 -0.8362 -2.0796
12651TIP3   OH237897   2.273   5.980   0.209  0.4396  0.5010 -0.2679
12651TIP3    H137898   2.187   5.939   0.212 -0.2211  1.7531 -1.1687
12651TIP3    H237899   2.303   5.967   0.119  1.5727 -0.6028  0.2311
12652TIP3   OH237900   6.678   6.357   1.171 -0.2826 -0.4527 -0.0267
12652TIP3    H137901   6.630   6.340   1.252  0.8288  0.4667  0.8618
12652TIP3    H237902   6.759   6.306   1.181  0.0662  0.0390 -0.3493
12653TIP3   OH237903   0.895   5.693   4.283 -0.5001  0.2150 -0.1744
12653TIP3    H137904   0.810   5.717   4.320 -1.5749 -1.3791 -1.4227
12653TIP3    H237905   0.958   5.715   4.350 -2.0403  0.2437  1.3328
12654TIP3   OH237906   5.874   5.026   3.435  0.5749  0.2948 -0.3737
12654TIP3    H137907   5.874   5.118   3.464 -0.8768  0.6259 -1.3053
12654TIP3    H237908   5.878   4.975   3.515  0.5361  1.1703  0.1961
12655TIP3   OH237909   2.392   3.227   4.113 -0.3166 -0.0111  0.3601
12655TIP3    H137910   2.388   3.180   4.197 -1.8404 -1.3628 -0.4174
12655TIP3    H237911   2.301   3.244   4.091  0.0965  0.8752 -0.7537
12656TIP3   OH237912   5.811   6.709   2.063 -1.0377  0.1522  0.2495
12656TIP3    H137913   5.808   6.791   2.113  0.4015  0.0942  0.4708
12656TIP3    H237914   5.904   6.687   2.058 -1.3747 -1.3303 -0.0526
12657TIP3   OH237915   3.369   2.935   1.974  0.3032 -0.0192  0.4092
12657TIP3    H137916   3.355   2.847   2.009  2.2348 -0.7576 -0.5378
12657TIP3    H237917   3.289   2.954   1.926 -1.0181 -0.3472  2.3511
12658TIP3   OH237918   4.329   5.642   3.034 -0.4486 -0.4341 -0.4481
12658TIP3    H137919   4.329   5.573   3.101 -1.2256 -0.5909 -0.6022
12658TIP3    H237920   4.382   5.713   3.073  0.3989 -1.1214 -0.3091
12659TIP3   OH237921   3.913   3.165   6.608  0.5886  0.1531 -0.5566
12659TIP3    H137922   3.915   3.085   6.661  1.4725  0.4752 -0.0857
12659TIP3    H237923   3.825   3.199   6.621 -0.0496 -1.1024 -1.3267
12660TIP3   OH237924   5.336   3.539   4.829  0.4434  0.2510  0.0097
12660TIP3    H137925   5.419   3.523   4.874  0.7180  0.3604 -0.4512
12660TIP3    H237926   5.350   3.505   4.741 -0.2174 -0.3071  0.1145
12661TIP3   OH237927   5.509   2.990   6.036 -0.0747  0.3381  0.7821
12661TIP3    H137928   5.540   2.993   5.946 -0.7590  0.8838  0.5583
12661TIP3    H237929   5.566   3.051   6.083 -0.5865  1.1083  0.4328
12662TIP3   OH237930   6.793   5.777   6.591 -0.4237 -0.4623 -0.1214
12662TIP3    H137931   6.754   5.848   6.643 -1.4770 -2.3354  1.8340
12662TIP3    H237932   6.881   5.766   6.628 -0.8671 -1.2284  0.7622
12663TIP3   OH237933   2.190   2.980   5.908  0.0209 -0.1186  0.0890
12663TIP3    H137934   2.243   3.012   5.981 -0.6761  0.6522  0.2745
12663TIP3    H237935   2.252   2.935   5.851  0.7733  0.2777  0.5810
12664TIP3   OH237936   7.970   5.719   4.901 -0.3800  0.0680 -0.0754
12664TIP3    H137937   8.006   5.649   4.846 -0.2638  0.1834 -0.1445
12664TIP3    H237938   7.953   5.676   4.985  1.6543  0.4333  0.5637
12665TIP3   OH237939   7.232   3.628   6.340  0.2191 -0.2808 -0.0146
12665TIP3    H137940   7.227   3.557   6.404 -2.2185 -0.7062 -0.5826
12665TIP3    H237941   7.315   3.613   6.294  2.5215  0.5401  3.4868
12666TIP3   OH237942   7.312   0.351   3.323  0.0092 -0.0268 -0.9665
12666TIP3    H137943   7.284   0.327   3.235 -0.7446  0.0588 -0.7590
12666TIP3    H237944   7.328   0.445   3.318  1.9657 -0.3626 -1.5204
12667TIP3   OH237945   0.868   6.660   2.893 -0.0768 -0.2764  0.3355
12667TIP3    H137946   0.929   6.651   2.819  0.3759  2.0360  0.3476
12667TIP3    H237947   0.795   6.603   2.871  0.1450  0.1915 -1.8054
12668TIP3   OH237948   5.424   5.850   4.658 -0.4625 -0.4334  0.3487
12668TIP3    H137949   5.413   5.894   4.573 -1.7358 -0.9774  0.2125
12668TIP3    H237950   5.516   5.824   4.659 -0.1072  0.6894 -0.3164
12669TIP3   OH237951   1.639   4.070   3.275  0.6773  0.4697  0.4412
12669TIP3    H137952   1.715   4.013   3.289  0.2093  0.3392  2.7545
12669TIP3    H237953   1.572   4.011   3.241  1.3949  0.4860 -1.1038
12670TIP3   OH237954   2.214   3.708   6.383  0.3505  0.2057 -0.2986
12670TIP3    H137955   2.147   3.716   6.316  0.3951  0.4072 -0.3210
12670TIP3    H237956   2.230   3.798   6.412 -0.1172  0.0653  0.4209
12671TIP3   OH237957   3.676   0.915   4.718  0.0450  0.5953  0.4681
12671TIP3    H137958   3.669   0.997   4.767 -1.8431  0.7959 -0.0429
12671TIP3    H237959   3.691   0.942   4.628  0.1015  0.3481  0.4025
12672TIP3   OH237960   3.083   5.361   1.616  0.2356 -0.6913 -0.0404
12672TIP3    H137961   3.042   5.352   1.530  1.1245 -0.2251 -0.5191
12672TIP3    H237962   3.014   5.401   1.670  0.0316  0.0361 -0.8204
12673TIP3   OH237963   4.485   3.251   2.907 -0.0664 -0.1288  0.0013
12673TIP3    H137964   4.466   3.157   2.899  0.2649 -0.1310 -0.8144
12673TIP3    H237965   4.577   3.258   2.883 -0.1622  0.4487 -0.1897
12674TIP3   OH237966   4.752   1.469   6.760 -0.0677 -0.1444  0.1501
12674TIP3    H137967   4.703   1.442   6.838 -1.1657  0.8419 -0.1827
12674TIP3    H237968   4.689   1.465   6.688  0.7232 -0.2514 -0.5534
12675TIP3   OH237969   6.832   1.832   6.164  0.5460 -0.1153 -0.0187
12675TIP3    H137970   6.869   1.893   6.228 -0.0592  0.1736  0.0698
12675TIP3    H237971   6.840   1.878   6.081  2.6319 -1.0664 -0.4073
12676TIP3   OH237972   1.423   6.467   5.843  0.3372  0.1930 -0.1890
12676TIP3    H137973   1.358   6.480   5.912  0.7603 -0.0050  0.2588
12676TIP3    H237974   1.478   6.396   5.876 -0.3433 -0.9306 -1.4106
12677TIP3   OH237975   5.925   5.472   6.463 -0.3996 -0.0426 -0.0168
12677TIP3    H137976   6.015   5.444   6.442  0.5017  1.9565  0.8948
12677TIP3    H237977   5.883   5.482   6.378  0.4213 -0.4262 -0.4901
12678TIP3   OH237978   8.129   6.625   5.363 -0.1675  0.4483  0.5106
12678TIP3    H137979   8.189   6.670   5.305  0.2207 -0.3562  0.2718
12678TIP3    H237980   8.050   6.612   5.311  0.3299 -0.6483  0.0034
12679TIP3   OH237981   0.186   0.228   1.056 -0.5157  0.3129  0.0243
12679TIP3    H137982   0.184   0.185   0.971 -0.5788 -0.7586  0.5571
12679TIP3    H237983   0.277   0.255   1.067 -0.2594 -0.5722  0.1149
12680TIP3   OH237984   2.173   2.849   2.059 -0.1308  0.4416  0.6141
12680TIP3    H137985   2.180   2.809   1.972 -0.5092  2.6355 -0.4945
12680TIP3    H237986   2.124   2.930   2.044  1.0158  1.5744  2.6318
12681TIP3   OH237987   2.252   4.827   4.580 -0.1197  0.4180  0.0885
12681TIP3    H137988   2.319   4.873   4.530 -0.0126 -1.2802 -1.4156
12681TIP3    H237989   2.213   4.765   4.518 -1.2497 -0.4953  1.6325
12682TIP3   OH237990   5.053   3.502   3.684 -0.2850 -0.1282 -0.0651
12682TIP3    H137991   5.140   3.543   3.682 -0.8053  1.0118 -0.1825
12682TIP3    H237992   4.992   3.576   3.695 -1.2127 -0.9499  0.4554
12683TIP3   OH237993   4.684   3.835   2.187 -0.9456 -0.1486 -0.2499
12683TIP3    H137994   4.714   3.918   2.224 -0.3476 -1.5167  2.6959
12683TIP3    H237995   4.612   3.808   2.245  0.5642 -2.8506  0.5480
12684TIP3   OH237996   8.227   0.500   1.261  0.4255 -0.1436  0.2646
12684TIP3    H137997   8.240   0.502   1.166 -1.4446 -1.3907 -0.0959
12684TIP3    H237998   8.242   0.408   1.284 -0.2490 -0.0846  0.9644
12685TIP3   OH237999  -0.002   2.041   5.444 -0.5955  0.3419 -0.8247
12685TIP3    H138000  -0.033   1.960   5.484 -0.3595  0.3200 -0.6828
12685TIP3    H238001   0.050   2.083   5.513 -0.9420  0.7443 -0.8092
12686TIP3   OH238002   0.399   4.835   4.539 -0.1929 -0.4962 -0.0694
12686TIP3    H138003   0.390   4.927   4.565 -1.7200 -0.0040 -2.0457
12686TIP3    H238004   0.324   4.792   4.580 -0.3137 -0.5432 -0.3358
12687TIP3   OH238005   7.277   6.850   1.962 -0.0745 -0.4834 -0.1377
12687TIP3    H138006   7.264   6.936   2.001  0.1775 -0.1321 -0.8088
12687TIP3    H238007   7.191   6.826   1.928 -1.1941 -2.2689  3.4186
12688TIP3   OH238008   2.492   7.393   5.734 -0.1458 -0.4263 -0.2615
12688TIP3    H138009   2.416   7.352   5.777  1.1524 -2.4112  0.2691
12688TIP3    H238010   2.508   7.340   5.657  0.5843  0.1092 -0.4890
12689TIP3   OH238011   7.004   4.236   4.743 -0.3188  0.2565 -0.0215
12689TIP3    H138012   6.947   4.266   4.673  1.9949  0.4873 -1.9271
12689TIP3    H238013   7.014   4.311   4.801 -1.1672  0.5018 -0.1876
12690TIP3   OH238014   3.937   0.935   0.341 -0.1068 -0.3468 -0.1146
12690TIP3    H138015   3.958   0.906   0.252  1.3153  0.6632 -0.1579
12690TIP3    H238016   4.001   0.891   0.396 -0.2760 -0.1238  0.2638
12691TIP3   OH238017   5.290   0.538   2.790  0.0972  0.0563  0.7566
12691TIP3    H138018   5.357   0.507   2.730  1.9791  1.2670  2.1442
12691TIP3    H238019   5.225   0.468   2.791 -0.2287  0.1093 -2.8889
12692TIP3   OH238020   8.157   1.732   2.297  0.2798  0.0439  0.0243
12692TIP3    H138021   8.081   1.721   2.240 -0.7352 -0.2082  1.3580
12692TIP3    H238022   8.150   1.659   2.359  1.4852  0.1599  0.3133
12693TIP3   OH238023   2.440   5.961   0.769  0.1604  0.0519 -0.1449
12693TIP3    H138024   2.387   5.985   0.845  2.1462 -1.4162  1.8428
12693TIP3    H238025   2.450   6.042   0.720  2.0362  2.1583  3.3009
12694TIP3   OH238026   7.082   6.191   2.758  0.4512  0.8267  0.4339
12694TIP3    H138027   7.059   6.109   2.802 -0.2595  1.8137  2.0190
12694TIP3    H238028   7.178   6.195   2.764  0.3518  2.0333  4.2831
12695TIP3   OH238029   5.165   6.861   1.891 -0.4500  0.2463  0.3550
12695TIP3    H138030   5.133   6.867   1.801 -0.5795 -0.0121  0.3844
12695TIP3    H238031   5.112   6.793   1.931 -2.1811  2.1031  1.3889
12696TIP3   OH238032   8.217   5.791   4.967 -0.1689 -0.0034 -0.0791
12696TIP3    H138033   8.126   5.802   4.939 -0.7523 -2.5277  0.5769
12696TIP3    H238034   8.213   5.725   5.037  2.2235 -0.8088 -0.6010
12697TIP3   OH238035   6.463   4.968   3.699  0.4432  0.3037 -0.2566
12697TIP3    H138036   6.553   4.948   3.725  0.6254  0.9171 -0.3768
12697TIP3    H238037   6.452   4.925   3.615  0.7753  0.5718 -0.4431
12698TIP3   OH238038   4.767   6.792   0.501  0.2097 -0.4314 -0.1241
12698TIP3    H138039   4.862   6.788   0.515  0.3299 -1.5759 -1.0821
12698TIP3    H238040   4.753   6.871   0.450  0.6341 -0.1879  0.1314
12699TIP3   OH238041   1.306   7.619   2.508  0.1171 -1.1400 -0.0741
12699TIP3    H138042   1.347   7.689   2.457 -1.1492  0.5413  1.0694
12699TIP3    H238043   1.309   7.542   2.451 -0.2444  0.3568 -2.2330
12700TIP3   OH238044   6.406   4.162   4.467  0.3873 -0.3644  0.0083
12700TIP3    H138045   6.413   4.068   4.481  0.2156 -0.3815 -0.0272
12700TIP3    H238046   6.316   4.177   4.440  0.6925 -0.3288 -1.0471
12701TIP3   OH238047   7.205   4.355   4.168  0.5421 -0.0624 -0.8028
12701TIP3    H138048   7.127   4.340   4.114  0.9849 -0.1480 -1.4301
12701TIP3    H238049   7.230   4.446   4.149  1.6289 -0.5716 -2.0017
12702TIP3   OH238050   5.971   1.408   1.049 -0.4892 -0.6227 -0.1156
12702TIP3    H138051   6.044   1.346   1.057  0.4454  0.4632 -0.0919
12702TIP3    H238052   5.959   1.442   1.137 -0.6031 -0.3165 -0.2502
12703TIP3   OH238053   7.875   1.452   3.810 -0.0359  0.5070 -0.3642
12703TIP3    H138054   7.831   1.480   3.890  2.0416  1.8184  0.4208
12703TIP3    H238055   7.965   1.434   3.837  0.9161  1.6895 -2.4936
12704TIP3   OH238056   1.220   0.571   5.001 -0.0636  0.2977  0.4299
12704TIP3    H138057   1.186   0.543   5.087  1.8615 -0.3608  1.0253
12704TIP3    H238058   1.253   0.490   4.962  1.3106  0.9864  0.1321
12705TIP3   OH238059   4.900   2.973   4.125  0.0777  0.1717  0.0266
12705TIP3    H138060   4.923   3.001   4.213 -0.8078  1.8612 -0.2281
12705TIP3    H238061   4.970   3.006   4.069 -2.2075  4.5728 -0.6360
12706TIP3   OH238062   1.370   5.934   2.050  0.2060 -0.3078 -0.4509
12706TIP3    H138063   1.450   5.882   2.052  1.1305  1.0715  1.5763
12706TIP3    H238064   1.354   5.957   2.142 -0.9702  1.7361 -1.1056
12707TIP3   OH238065   4.600   5.080   1.691  0.2934 -0.4134 -0.1286
12707TIP3    H138066   4.574   5.078   1.599  0.2315 -2.5590 -0.1180
12707TIP3    H238067   4.614   4.988   1.714  0.8786  0.1180  1.8559
12708TIP3   OH238068   6.819   7.371   3.968 -0.2164 -0.0732  0.0924
12708TIP3    H138069   6.897   7.419   3.940 -0.4819  0.9485  1.0105
12708TIP3    H238070   6.852   7.306   4.030  0.1821 -1.3196 -1.3791
12709TIP3   OH238071   4.167   3.818   3.109  0.2546  0.0545 -0.3442
12709TIP3    H138072   4.215   3.801   3.191 -0.7207 -0.6071  0.1111
12709TIP3    H238073   4.164   3.733   3.065 -1.6804 -0.2613  0.3050
12710TIP3   OH238074   8.119   0.163   3.384  0.1233 -0.2007 -0.0677
12710TIP3    H138075   8.095   0.143   3.294 -0.6047 -2.4920  0.5841
12710TIP3    H238076   8.063   0.108   3.438  0.7821  0.8479  1.8058
12711TIP3   OH238077   7.784   2.621   2.093  0.0707 -0.1422  0.1873
12711TIP3    H138078   7.800   2.527   2.094  0.6528 -0.0785 -1.2709
12711TIP3    H238079   7.849   2.657   2.153 -1.4315 -0.8029  2.3415
12712TIP3   OH238080   6.635   3.295   5.887  0.3112  0.3470  0.4002
12712TIP3    H138081   6.610   3.343   5.808 -0.0274 -2.3654 -1.2747
12712TIP3    H238082   6.726   3.321   5.902  0.4563  0.7969 -1.0298
12713TIP3   OH238083   8.044   3.024   1.126 -0.6029  0.6581 -0.4062
12713TIP3    H138084   8.114   2.990   1.071 -0.4427  0.6650 -0.2051
12713TIP3    H238085   8.033   3.115   1.098  0.6126  1.1786  0.7007
12714TIP3   OH238086   0.935   1.257   1.928  0.0183 -0.2870  0.1700
12714TIP3    H138087   0.954   1.189   1.864  0.7586  0.6426 -0.6282
12714TIP3    H238088   0.843   1.279   1.913  0.3529  0.3723 -1.0405
12715TIP3   OH238089   2.527   0.960   0.146 -0.2405 -0.0072 -0.2685
12715TIP3    H138090   2.497   0.966   0.237 -0.5006 -0.3209 -0.3324
12715TIP3    H238091   2.620   0.978   0.151  0.6105 -3.6483  0.6112
12716TIP3   OH238092   6.544   5.906   1.598 -0.0674 -0.4968  0.5822
12716TIP3    H138093   6.560   5.982   1.654 -0.1356 -0.0730  0.0397
12716TIP3    H238094   6.618   5.907   1.537  0.0094 -0.9556  0.6707
12717TIP3   OH238095   0.227   0.649   1.970 -0.0152 -0.0883  0.4691
12717TIP3    H138096   0.258   0.646   1.880 -0.8534 -1.7837  0.1973
12717TIP3    H238097   0.306   0.639   2.023  0.4551  0.6909 -0.0717
12718TIP3   OH238098   8.134   6.724   6.146 -0.7775 -0.2542 -0.1425
12718TIP3    H138099   8.118   6.681   6.062  0.5970  1.1028 -1.1615
12718TIP3    H238100   8.057   6.779   6.159 -1.0840 -0.6080 -0.4232
12719TIP3   OH238101   7.730   7.804   6.700 -0.3248 -0.0673  0.3133
12719TIP3    H138102   7.744   7.709   6.694  0.7417  0.1242 -0.6009
12719TIP3    H238103   7.784   7.840   6.630 -0.9730  1.2030  0.4447
12720TIP3   OH238104   0.370   6.301   1.728  0.2598  0.6754 -0.3118
12720TIP3    H138105   0.335   6.375   1.679 -0.0900  0.3357 -0.5783
12720TIP3    H238106   0.322   6.302   1.811 -0.3289  0.2689 -0.6377
12721TIP3   OH238107   0.646   4.929   6.116 -0.3769 -0.5128  0.2023
12721TIP3    H138108   0.718   4.940   6.055  0.8434 -1.1340  1.4686
12721TIP3    H238109   0.618   4.838   6.105  0.5450 -0.9427  1.2698
12722TIP3   OH238110   3.595   0.644   5.276  0.1344 -0.4601 -0.1566
12722TIP3    H138111   3.523   0.655   5.214  0.6098  0.1040 -0.6273
12722TIP3    H238112   3.552   0.634   5.361 -0.4883  1.8759 -0.1265
12723TIP3   OH238113   6.769   2.108   3.724  0.6120 -0.3824  0.6660
12723TIP3    H138114   6.824   2.186   3.734  1.3241 -1.0081  1.8722
12723TIP3    H238115   6.680   2.140   3.740  0.9378  0.1292  1.5382
12724TIP3   OH238116   3.217   6.321   4.983 -0.3130 -0.0577 -0.2828
12724TIP3    H138117   3.164   6.250   5.018 -1.7063  1.0504 -0.0458
12724TIP3    H238118   3.290   6.330   5.045 -0.7788 -0.4961  0.3369
12725TIP3   OH238119   4.239   3.053   3.839  0.6614 -0.6104 -0.3205
12725TIP3    H138120   4.239   3.104   3.920  0.7552 -0.6824 -0.2738
12725TIP3    H238121   4.202   3.112   3.774  0.7025 -0.5066 -0.2521
12726TIP3   OH238122   8.314   4.126   6.038  0.4290  0.2641 -0.4264
12726TIP3    H138123   8.284   4.094   6.123  0.2986 -0.7203 -0.8388
12726TIP3    H238124   8.296   4.220   6.041  0.5411  0.2675  0.6785
12727TIP3   OH238125   6.997   2.990   1.314 -0.5352 -0.2514  0.2770
12727TIP3    H138126   6.934   3.023   1.250 -0.4060  0.7750  0.6651
12727TIP3    H238127   7.077   2.975   1.264 -0.1719  1.3478  0.3026
12728TIP3   OH238128   3.149   7.708   2.546 -0.0591 -0.5064 -0.2214
12728TIP3    H138129   3.087   7.691   2.616 -1.1720 -0.1257 -1.0806
12728TIP3    H238130   3.190   7.623   2.528 -0.2144 -0.7257  0.4607
12729TIP3   OH238131   0.448   6.217   6.456 -0.1113 -0.0811  0.1489
12729TIP3    H138132   0.493   6.260   6.384  1.1802 -0.3876  0.7363
12729TIP3    H238133   0.403   6.288   6.502 -0.4480  0.1965 -0.6049
12730TIP3   OH238134   3.451   5.770   1.690  0.0622 -0.4949  0.3551
12730TIP3    H138135   3.427   5.838   1.627  0.6126 -0.8565 -0.2582
12730TIP3    H238136   3.547   5.764   1.683 -0.0437 -1.8995 -0.1974
12731TIP3   OH238137   6.575   6.757   6.544  0.4041  0.5247 -0.3043
12731TIP3    H138138   6.593   6.819   6.473 -0.4318 -0.5854 -1.5514
12731TIP3    H238139   6.617   6.675   6.516  3.5618  1.0114  2.4088
12732TIP3   OH238140   1.619   1.235   2.443 -0.3170 -0.1992 -0.1176
12732TIP3    H138141   1.572   1.168   2.492 -0.2766  0.0292  0.2373
12732TIP3    H238142   1.601   1.215   2.351 -1.0084 -0.1837  0.0126
12733TIP3   OH238143   5.230   1.841   4.895  0.0306 -1.0134 -0.3722
12733TIP3    H138144   5.290   1.843   4.821  1.9090 -1.1420  1.0661
12733TIP3    H238145   5.213   1.934   4.914  1.3065 -0.9028  0.3481
12734TIP3   OH238146   6.749   5.089   3.336  0.5258  0.2729  0.1142
12734TIP3    H138147   6.675   5.141   3.366  0.5288  0.3138  0.0523
12734TIP3    H238148   6.822   5.151   3.335  0.5438  0.2514  0.1028
12735TIP3   OH238149   6.444   0.900   0.485 -0.2179 -0.0503 -0.3601
12735TIP3    H138150   6.357   0.872   0.455  0.3334 -0.7238 -1.4117
12735TIP3    H238151   6.475   0.826   0.537 -0.4950  0.4307  0.5058
12736TIP3   OH238152   4.273   7.808   3.117 -0.6289  0.0008 -0.3847
12736TIP3    H138153   4.305   7.719   3.102 -0.2197 -0.0364  0.6117
12736TIP3    H238154   4.181   7.798   3.140 -1.5074  0.1182 -3.4107
12737TIP3   OH238155   3.874   1.896   4.903 -0.6404  0.6610 -0.3144
12737TIP3    H138156   3.803   1.892   4.839 -1.6428  2.8364  0.5312
12737TIP3    H238157   3.840   1.953   4.972  0.7511 -0.8219  1.7173
12738TIP3   OH238158   5.606   2.983   1.375 -0.8939 -0.2205  0.3071
12738TIP3    H138159   5.636   2.892   1.376 -0.7681 -0.1780  1.2348
12738TIP3    H238160   5.647   3.023   1.451 -0.3264  0.8354 -0.5190
12739TIP3   OH238161   6.951   6.877   0.042 -0.3612 -0.6107 -0.6468
12739TIP3    H138162   7.015   6.892  -0.028 -0.3109 -0.2413 -0.5215
12739TIP3    H238163   6.991   6.807   0.094 -0.2755 -0.7036 -0.8336
12740TIP3   OH238164   7.664   2.463   2.650 -0.2788  0.1883 -0.0029
12740TIP3    H138165   7.756   2.475   2.627 -0.8549 -0.7818 -3.4819
12740TIP3    H238166   7.616   2.502   2.577 -2.6305 -0.0615  1.2990
12741TIP3   OH238167   5.568   0.202   4.691 -0.1765  0.1118 -0.5748
12741TIP3    H138168   5.639   0.233   4.747 -0.2953 -1.5143  0.5465
12741TIP3    H238169   5.581   0.248   4.608  0.4337  2.0592  0.5185
12742TIP3   OH238170   2.983   2.952   2.538 -0.2002 -0.1681 -0.5803
12742TIP3    H138171   2.965   2.899   2.616 -0.4728 -0.1773 -0.6491
12742TIP3    H238172   2.932   3.032   2.552 -0.3174 -0.2074 -0.7930
12743TIP3   OH238173   6.127   7.393   3.626 -0.1116  0.0343  0.3701
12743TIP3    H138174   6.069   7.324   3.594 -0.8728  1.0347 -0.4695
12743TIP3    H238175   6.209   7.347   3.648 -0.1767 -0.9608 -1.3184
12744TIP3   OH238176   3.975   5.809   6.282 -0.3805  0.1796  0.7003
12744TIP3    H138177   4.018   5.848   6.358 -1.5168 -0.8374  1.9123
12744TIP3    H238178   4.014   5.722   6.275 -0.2198  0.3026  0.0512
12745TIP3   OH238179   7.632   3.087   0.436  0.0102 -0.2021  0.2188
12745TIP3    H138180   7.626   2.992   0.446 -2.5152 -0.0381  0.8013
12745TIP3    H238181   7.587   3.105   0.353  1.3267  0.4512 -0.3907
12746TIP3   OH238182   2.989   2.569   2.553 -0.4281  0.3721  0.1670
12746TIP3    H138183   3.049   2.503   2.520 -0.6768  1.4747 -2.8171
12746TIP3    H238184   3.043   2.647   2.564 -0.8823  0.7937 -0.4971
12747TIP3   OH238185   7.826   6.010   1.032 -0.4297 -0.0241 -0.1793
12747TIP3    H138186   7.918   6.002   1.055 -0.3277 -0.2757 -0.6770
12747TIP3    H238187   7.802   5.924   0.999 -1.1260 -0.2905  0.9501
12748TIP3   OH238188   6.168   6.189   2.823 -0.2087 -0.0517  0.2077
12748TIP3    H138189   6.258   6.159   2.805  0.1566  1.0714  0.0672
12748TIP3    H238190   6.151   6.161   2.913  1.1473  1.6817  1.0626
12749TIP3   OH238191   4.105   5.705   5.886  0.5105 -0.2847 -0.3216
12749TIP3    H138192   4.145   5.640   5.944 -0.7023 -1.0193 -0.2532
12749TIP3    H238193   4.026   5.661   5.852  1.0867  0.1648 -2.4177
12750TIP3   OH238194   1.341   5.451   1.135 -0.4317  0.1476 -0.1406
12750TIP3    H138195   1.309   5.510   1.203 -3.0013  0.9876 -1.9709
12750TIP3    H238196   1.281   5.376   1.138  0.3291 -0.4954 -0.5289
12751TIP3   OH238197   4.563   2.871   3.719  0.7137 -0.4371 -0.2023
12751TIP3    H138198   4.627   2.887   3.789  0.5073 -1.0665  0.1378
12751TIP3    H238199   4.546   2.957   3.682  0.2307  0.0291  1.0529
12752TIP3   OH238200   6.526   5.104   4.800  0.3680 -0.2291 -0.6827
12752TIP3    H138201   6.524   5.084   4.706 -1.5300  0.1933 -0.7614
12752TIP3    H238202   6.616   5.135   4.815  0.3210  1.0786 -2.6544
12753TIP3   OH238203   7.428   6.656   1.884 -0.0614 -0.3278  0.4877
12753TIP3    H138204   7.381   6.739   1.894  0.8154  0.0462  1.7425
12753TIP3    H238205   7.362   6.589   1.902 -0.7258  0.0952 -0.3229
12754TIP3   OH238206   2.325   7.412   2.847  0.0987 -0.3571 -0.3945
12754TIP3    H138207   2.369   7.469   2.784 -0.5722  1.0592  0.3692
12754TIP3    H238208   2.240   7.454   2.863  1.0633  0.5910  3.0911
12755TIP3   OH238209   3.851   3.900   6.254  0.7644 -0.3383  0.1395
12755TIP3    H138210   3.810   3.911   6.340 -0.2772 -1.7604 -0.1519
12755TIP3    H238211   3.779   3.902   6.192  1.3863 -0.5521 -0.6105
12756TIP3   OH238212   1.209   5.852   1.786  0.7760 -0.7622 -0.2864
12756TIP3    H138213   1.151   5.896   1.849  1.5882  0.2978 -0.2434
12756TIP3    H238214   1.163   5.859   1.702  0.8716  0.1744 -0.2730
12757TIP3   OH238215   4.641   0.895   6.018  0.3817 -0.3747  0.0557
12757TIP3    H138216   4.710   0.958   6.040  0.1585 -0.1497  0.1146
12757TIP3    H238217   4.688   0.814   6.001  0.5582 -0.5933  1.4525
12758TIP3   OH238218   0.682   1.473   2.487 -0.0967 -0.0921 -0.0523
12758TIP3    H138219   0.668   1.407   2.555 -0.0213  0.0989  0.1517
12758TIP3    H238220   0.625   1.546   2.513  1.5267  0.8660  1.0069
12759TIP3   OH238221   1.259   6.072   2.304 -0.0298  0.1056 -0.0848
12759TIP3    H138222   1.211   6.151   2.331  0.0488  0.2632 -0.3978
12759TIP3    H238223   1.347   6.104   2.282  0.0262 -0.0826 -0.1367
12760TIP3   OH238224   3.326   5.601   5.075  0.0595 -0.2422 -0.7395
12760TIP3    H138225   3.288   5.513   5.085 -0.4732 -0.1827 -2.0124
12760TIP3    H238226   3.392   5.591   5.006  0.0804  0.3280 -0.8044
12761TIP3   OH238227   7.311   6.604   5.505  0.2094 -0.7711  0.2142
12761TIP3    H138228   7.365   6.666   5.554  3.6725 -2.2235 -1.4926
12761TIP3    H238229   7.254   6.659   5.452  1.4707  0.9102  0.5244
12762TIP3   OH238230   2.845   3.466   3.549 -0.1702 -0.1064 -0.2784
12762TIP3    H138231   2.917   3.517   3.512 -1.3698  1.1807 -0.9112
12762TIP3    H238232   2.795   3.436   3.473 -0.6227 -0.5010  0.1691
12763TIP3   OH238233   1.224   5.428   5.255 -0.1501 -0.1432 -0.3101
12763TIP3    H138234   1.310   5.396   5.282  0.2917  1.2803  0.1133
12763TIP3    H238235   1.242   5.482   5.178 -0.9675 -1.4727 -1.4727
12764TIP3   OH238236   7.114   6.847   5.555 -0.0519 -0.3113 -0.3379
12764TIP3    H138237   7.070   6.860   5.471 -0.4821 -0.6187 -0.1619
12764TIP3    H238238   7.133   6.936   5.586  0.2869 -0.2006 -0.8485
12765TIP3   OH238239   7.396   1.662   3.100 -0.5832  0.1867 -0.1057
12765TIP3    H138240   7.353   1.602   3.161 -1.9398 -0.4676 -1.6221
12765TIP3    H238241   7.423   1.606   3.027  0.7386  0.9968 -0.2621
12766TIP3   OH238242   0.684   1.311   0.988 -0.2570  0.4813 -0.3057
12766TIP3    H138243   0.680   1.216   0.991 -1.5240  0.5329 -0.0500
12766TIP3    H238244   0.597   1.338   0.960 -0.0380  1.5875  0.0382
12767TIP3   OH238245   7.241   4.680   0.273 -0.3136 -0.2093 -0.3328
12767TIP3    H138246   7.168   4.674   0.211  0.6998 -3.1801 -1.4201
12767TIP3    H238247   7.274   4.590   0.279  1.2531  0.4349  2.6128
12768TIP3   OH238248   2.219   5.691   1.173 -0.0578  0.2570 -0.1183
12768TIP3    H138249   2.226   5.641   1.092 -1.5157  1.4852 -1.0372
12768TIP3    H238250   2.196   5.625   1.239 -3.9357 -0.1819 -1.6328
12769TIP3   OH238251   0.866   3.173   4.786 -0.0886 -0.4531 -0.1303
12769TIP3    H138252   0.773   3.198   4.784 -0.1043 -0.5274 -0.4920
12769TIP3    H238253   0.903   3.223   4.859 -0.2655  0.1061 -0.4168
12770TIP3   OH238254   8.215   4.555   6.380  0.1673 -0.0901 -0.4182
12770TIP3    H138255   8.258   4.595   6.456 -1.3349 -1.8410  1.5080
12770TIP3    H238256   8.256   4.468   6.373 -0.1955 -0.2051 -1.1865
12771TIP3   OH238257   5.693   1.712   2.003  0.4678 -0.2071 -0.3407
12771TIP3    H138258   5.723   1.641   2.061 -2.7260  1.4109  3.8303
12771TIP3    H238259   5.609   1.680   1.969  0.5441  0.3303 -1.0297
12772TIP3   OH238260   5.030   5.311   0.904  0.3679 -0.5854 -0.1152
12772TIP3    H138261   5.103   5.373   0.917 -0.1359 -0.2043  1.0346
12772TIP3    H238262   5.009   5.319   0.811  1.5900 -0.4778 -0.4064
12773TIP3   OH238263   3.518   7.501   5.959  0.0936  0.1287  0.6343
12773TIP3    H138264   3.589   7.500   5.895  1.7271 -2.1429  2.3099
12773TIP3    H238265   3.459   7.431   5.931 -0.5831  0.8195  0.2642
12774TIP3   OH238266   2.408   4.126   5.607 -0.3359  0.3246 -0.0499
12774TIP3    H138267   2.344   4.055   5.606 -0.5695  0.5170 -1.6684
12774TIP3    H238268   2.388   4.176   5.686 -0.9882 -0.6643  0.4314
12775TIP3   OH238269   1.057   4.567   3.738  0.0744  0.5960 -0.0784
12775TIP3    H138270   1.122   4.637   3.744 -0.8909  1.4458  0.6618
12775TIP3    H238271   0.982   4.607   3.695 -0.6644  0.1496  0.7610
12776TIP3   OH238272   8.085   1.857   1.618 -0.1056 -0.3270  0.4453
12776TIP3    H138273   8.163   1.821   1.577 -0.8753 -0.7992 -0.6602
12776TIP3    H238274   8.096   1.838   1.712 -0.1208 -2.7990  0.0175
12777TIP3   OH238275   7.932   3.699   1.693 -0.1021  0.1625  0.2324
12777TIP3    H138276   7.988   3.752   1.636  0.2337 -0.3823  0.0496
12777TIP3    H238277   7.908   3.758   1.764 -0.1684  0.7199 -0.2446
12778TIP3   OH238278   1.501   1.445   2.219  0.1004 -0.6275 -0.2438
12778TIP3    H138279   1.504   1.435   2.124 -2.1196  0.8069 -0.5563
12778TIP3    H238280   1.569   1.509   2.239 -1.0204  0.9678 -1.2625
12779TIP3   OH238281   6.147   2.339   3.030 -0.3026  0.4750 -0.3172
12779TIP3    H138282   6.102   2.299   2.955 -2.2715  2.6352 -0.3863
12779TIP3    H238283   6.083   2.336   3.101  0.1381  1.8821  0.1700
12780TIP3   OH238284   7.785   3.801   3.097 -0.4710  0.4909  0.1036
12780TIP3    H138285   7.811   3.832   3.010 -0.7015 -1.0807 -0.5692
12780TIP3    H238286   7.726   3.868   3.130 -0.3565  1.1296 -0.9466
12781TIP3   OH238287   7.507   4.935   2.654 -0.0537 -0.3260 -0.1412
12781TIP3    H138288   7.571   4.963   2.719 -0.1258 -0.2226 -0.1141
12781TIP3    H238289   7.559   4.897   2.583  0.0227 -0.4869  0.0002
12782TIP3   OH238290   0.721   2.040   6.669 -0.0948  0.4512 -0.8045
12782TIP3    H138291   0.671   1.959   6.662  0.4947  0.1349 -1.6473
12782TIP3    H238292   0.664   2.107   6.631 -0.3509  0.3108 -0.6626
12783TIP3   OH238293   7.328   5.000   2.329  0.3349  0.1016 -0.1788
12783TIP3    H138294   7.303   4.916   2.291 -0.1015 -0.4219  1.1791
12783TIP3    H238295   7.321   5.063   2.258  0.3073 -0.9534 -1.1258
12784TIP3   OH238296   3.265   6.530   3.398  0.1866  0.2498 -0.1656
12784TIP3    H138297   3.303   6.603   3.448 -0.0418  0.8539 -0.8448
12784TIP3    H238298   3.239   6.466   3.464 -1.8069  1.8031  0.6792
12785TIP3   OH238299   2.146   5.893   4.065 -0.5214 -0.5776 -0.5588
12785TIP3    H138300   2.199   5.830   4.114 -0.8189  0.7615  1.5980
12785TIP3    H238301   2.056   5.869   4.086 -0.6782 -0.3400 -0.9544
12786TIP3   OH238302   2.364   3.915   6.166 -0.2783  0.0787 -0.4724
12786TIP3    H138303   2.304   3.946   6.098  0.2105  0.4108 -0.7556
12786TIP3    H238304   2.344   3.971   6.242 -0.7452 -0.2179 -0.3705
12787TIP3   OH238305   8.148   3.424   6.166 -0.1475 -0.0097 -0.2655
12787TIP3    H138306   8.074   3.369   6.193  0.0400 -1.0344 -1.7277
12787TIP3    H238307   8.108   3.496   6.117 -0.2937  0.5091  0.5851
12788TIP3   OH238308   3.236   5.217   4.658 -0.3216  0.1448  0.2284
12788TIP3    H138309   3.298   5.181   4.596 -0.2465  0.6525  0.0008
12788TIP3    H238310   3.152   5.176   4.635  0.1799 -1.7198  1.5160
12789TIP3   OH238311   3.799   1.416   2.908 -0.2880  0.0558  0.8528
12789TIP3    H138312   3.750   1.398   2.828  1.2350 -1.5483  0.2146
12789TIP3    H238313   3.789   1.337   2.962  0.4416  0.2614  1.3095
12790TIP3   OH238314   5.563   4.275   2.780  0.5159 -0.5431 -0.5275
12790TIP3    H138315   5.598   4.240   2.862  1.6953  0.4364 -0.5801
12790TIP3    H238316   5.574   4.203   2.717  0.2392 -1.0586 -0.0045
12791TIP3   OH238317   2.133   3.017   5.233 -0.2563 -0.4463 -0.1883
12791TIP3    H138318   2.218   3.057   5.213  1.7022 -2.5322  3.0718
12791TIP3    H238319   2.104   2.980   5.149  1.9822  0.4254 -1.4421
12792TIP3   OH238320   3.810   7.638   5.059  0.2815  0.0933  0.7068
12792TIP3    H138321   3.724   7.613   5.093  0.1988 -0.5870  0.0232
12792TIP3    H238322   3.862   7.656   5.137 -0.0544 -0.9403  1.1866
12793TIP3   OH238323   2.516   5.467   4.256 -0.4642  0.2509  0.2351
12793TIP3    H138324   2.544   5.421   4.177  0.9451  3.2070 -1.1840
12793TIP3    H238325   2.579   5.441   4.323 -1.5946 -2.1861  0.4353
12794TIP3   OH238326   3.843   7.374   6.308  0.5643 -0.0186  0.1654
12794TIP3    H138327   3.877   7.287   6.328 -0.3018 -1.1392 -2.8314
12794TIP3    H238328   3.766   7.359   6.254 -0.0548  2.6171  0.1656
12795TIP3   OH238329   0.024   2.218   2.725 -0.5897  0.0015 -0.1206
12795TIP3    H138330   0.014   2.209   2.819 -1.2554 -0.1361 -0.2036
12795TIP3    H238331   0.116   2.244   2.713 -0.1301 -1.2947  0.4652
12796TIP3   OH238332   5.740   6.655   1.090 -0.1106 -0.6435 -0.1230
12796TIP3    H138333   5.701   6.697   1.167 -0.7269 -1.3821 -0.0195
12796TIP3    H238334   5.784   6.578   1.124  0.5198 -0.4048 -0.3873
12797TIP3   OH238335   1.167   7.026   5.848  0.2272  0.0075  0.0851
12797TIP3    H138336   1.093   7.043   5.790  0.0106  2.0719  0.8871
12797TIP3    H238337   1.185   7.110   5.889  2.7591 -0.5414  0.2460
12798TIP3   OH238338   4.307   6.678   3.221 -0.1635 -0.1964  0.1788
12798TIP3    H138339   4.308   6.745   3.153  0.4109  0.5571  0.9066
12798TIP3    H238340   4.375   6.616   3.195 -0.8550 -0.6430 -0.6214
12799TIP3   OH238341   6.669   3.155   6.309  0.6016 -0.3281 -0.2909
12799TIP3    H138342   6.624   3.092   6.253 -1.7946 -2.0790  3.2105
12799TIP3    H238343   6.690   3.106   6.388 -0.3216  2.8968  2.1633
12800TIP3   OH238344   4.735   3.187   3.562  0.0655 -0.4547  0.2956
12800TIP3    H138345   4.641   3.175   3.577  0.1385 -1.1410  0.2720
12800TIP3    H238346   4.752   3.278   3.584 -0.8933  0.1215 -1.1809
12801TIP3   OH238347   2.386   2.309   3.832  0.0488 -0.3792  0.1085
12801TIP3    H138348   2.447   2.258   3.886 -0.4232  1.3065  2.3912
12801TIP3    H238349   2.371   2.254   3.755  1.1481 -2.7247  1.4435
12802TIP3   OH238350   7.391   0.820   3.099  0.1265 -0.1696  0.0089
12802TIP3    H138351   7.371   0.757   3.169 -0.9313  0.0865 -0.0501
12802TIP3    H238352   7.467   0.783   3.055 -1.3111 -2.1832 -0.9335
12803TIP3   OH238353   5.432   4.516   1.686  0.0496  0.5379  0.0325
12803TIP3    H138354   5.374   4.446   1.658 -0.3719  0.4367  1.1217
12803TIP3    H238355   5.489   4.532   1.610 -0.8209  0.0514 -0.7438
12804TIP3   OH238356   2.696   1.642   3.567  0.0347 -0.2545  0.4036
12804TIP3    H138357   2.741   1.647   3.483  1.0547 -1.2380  0.8645
12804TIP3    H238358   2.603   1.651   3.545 -0.1015 -3.7948 -1.2893
12805TIP3   OH238359   7.012   6.592   4.917  0.2242  0.0380  0.3801
12805TIP3    H138360   7.030   6.686   4.907  0.7140 -0.0670  0.2317
12805TIP3    H238361   7.071   6.564   4.987 -1.2702  0.2184  1.7737
12806TIP3   OH238362   7.614   1.103   6.096  0.7791 -0.4226  0.5958
12806TIP3    H138363   7.676   1.029   6.096  0.6270 -0.5494  0.5944
12806TIP3    H238364   7.665   1.176   6.061  0.1602 -1.1547 -2.0206
12807TIP3   OH238365   6.515   1.702   2.118 -0.1319 -0.7573  0.0832
12807TIP3    H138366   6.552   1.757   2.049  0.1779 -1.6618 -0.4867
12807TIP3    H238367   6.468   1.763   2.175 -0.2495  0.0249 -0.8302
12808TIP3   OH238368   4.179   0.044   2.451 -0.0700 -0.6974  0.1756
12808TIP3    H138369   4.249   0.097   2.488 -0.0494 -1.2486  0.9644
12808TIP3    H238370   4.152   0.090   2.372  1.5347 -0.7350 -0.4301
12809TIP3   OH238371   3.314   0.297   5.133  0.1943 -0.0250 -0.0279
12809TIP3    H138372   3.389   0.263   5.083 -1.3515 -1.3385 -1.6118
12809TIP3    H238373   3.239   0.250   5.097 -1.2395  0.1664  2.5013
12810TIP3   OH238374   4.752   3.252   2.835 -0.7848  0.3603  0.3647
12810TIP3    H138375   4.771   3.334   2.879  1.5490 -0.5502  1.2225
12810TIP3    H238376   4.783   3.265   2.745 -0.9824  0.6043  0.3318
12811TIP3   OH238377   2.508   5.715   5.143 -0.3380 -0.1498 -0.2453
12811TIP3    H138378   2.450   5.651   5.184 -1.0460  1.1165  0.7980
12811TIP3    H238379   2.554   5.666   5.075 -0.1282 -2.0060  1.1692
12812TIP3   OH238380   2.173   2.335   1.008  0.8810  0.6153  0.0973
12812TIP3    H138381   2.140   2.423   0.991  0.8289  0.9474  1.7682
12812TIP3    H238382   2.179   2.329   1.103  3.6120 -0.1877 -0.0461
12813TIP3   OH238383   5.439   3.648   1.621  0.2840 -0.4945  0.7334
12813TIP3    H138384   5.451   3.565   1.575 -1.2729  0.6165 -1.8546
12813TIP3    H238385   5.476   3.714   1.563 -1.1981  0.9287  1.3178
12814TIP3   OH238386   7.914   3.389   5.366 -0.5963 -0.0247  0.1830
12814TIP3    H138387   7.978   3.430   5.308 -0.3407 -0.4796  0.1428
12814TIP3    H238388   7.906   3.450   5.440 -0.5751  0.3262 -0.1028
12815TIP3   OH238389   6.401   5.602   2.873  0.2804 -0.5522  0.2542
12815TIP3    H138390   6.346   5.660   2.819 -0.5375 -0.8691  0.7249
12815TIP3    H238391   6.342   5.532   2.899  0.6745 -0.4241  1.5285
12816TIP3   OH238392   4.722   4.642   2.608 -0.5798  0.4239 -0.5570
12816TIP3    H138393   4.662   4.577   2.644  0.7374 -0.3073  0.3733
12816TIP3    H238394   4.683   4.726   2.632 -0.7616 -0.0453  0.8857
12817TIP3   OH238395   7.970   2.528   1.634 -0.3469  0.1489 -0.1102
12817TIP3    H138396   7.959   2.460   1.701 -1.1223 -0.2878 -0.6561
12817TIP3    H238397   8.008   2.602   1.681  0.5184 -0.6562  0.4989
12818TIP3   OH238398   4.012   5.855   1.161 -0.0122  0.3900 -0.6404
12818TIP3    H138399   4.021   5.779   1.218  0.8329  0.0292 -1.2332
12818TIP3    H238400   4.102   5.878   1.138 -0.3189  0.8682 -1.3773
12819TIP3   OH238401   7.658   0.454   2.639 -0.6182  0.0513  0.4077
12819TIP3    H138402   7.615   0.530   2.678 -0.1151  1.7428 -2.0405
12819TIP3    H238403   7.744   0.451   2.681 -0.8011  0.5712  0.8337
12820TIP3   OH238404   6.166   3.455   4.912  0.3097 -0.0462  0.0750
12820TIP3    H138405   6.187   3.548   4.905  2.3410 -0.5124 -0.6093
12820TIP3    H238406   6.249   3.413   4.935 -0.7798 -1.5908  1.4720
12821TIP3   OH238407   6.178   1.936   3.857  0.0799 -0.1045 -0.0655
12821TIP3    H138408   6.153   1.885   3.934  1.4898 -1.3519 -0.3769
12821TIP3    H238409   6.100   1.934   3.802 -0.4703 -0.4475  0.7066
12822TIP3   OH238410   4.697   4.448   5.569 -0.0391 -0.4689 -0.3673
12822TIP3    H138411   4.657   4.526   5.607  1.6587  0.6519 -0.7756
12822TIP3    H238412   4.624   4.401   5.528 -1.3424  0.0656  1.2307
12823TIP3   OH238413   5.015   6.195   2.572  0.6155  0.4361  0.3272
12823TIP3    H138414   5.106   6.205   2.599  1.3872 -2.7675 -0.6260
12823TIP3    H238415   4.968   6.178   2.654  1.0185  1.2170  0.7297
12824TIP3   OH238416   2.944   6.963   3.837  0.1131  0.1481  0.1160
12824TIP3    H138417   2.945   6.939   3.744  0.4818  2.8173 -0.6817
12824TIP3    H238418   3.036   6.960   3.863 -0.1447 -2.2236  0.9419
12825TIP3   OH238419   6.568   5.417   6.508  0.0344 -0.1338 -0.0684
12825TIP3    H138420   6.522   5.358   6.448 -0.5378 -1.2396  1.3930
12825TIP3    H238421   6.600   5.360   6.577  0.0107  1.1946  1.0754
12826TIP3   OH238422   8.257   0.789   4.774  0.2461  0.1619 -0.0574
12826TIP3    H138423   8.276   0.737   4.695 -0.0199 -1.2631  0.7801
12826TIP3    H238424   8.343   0.817   4.805  0.3685  0.5753 -0.7416
12827TIP3   OH238425   2.388   0.537   3.539  0.2963 -0.3725  0.4693
12827TIP3    H138426   2.369   0.631   3.542 -1.1330 -0.4965 -1.8037
12827TIP3    H238427   2.305   0.497   3.512  1.0661 -2.2198  0.7034
12828TIP3   OH238428   7.145   1.865   5.397  0.0516 -0.4268 -0.2993
12828TIP3    H138429   7.050   1.855   5.394 -0.1755  1.1847  0.3980
12828TIP3    H238430   7.172   1.864   5.306 -0.8815  1.0269 -0.6243
12829TIP3   OH238431   6.919   6.437   0.754  0.0005 -0.3039 -0.5286
12829TIP3    H138432   7.000   6.393   0.776 -1.3484 -2.0699  1.2522
12829TIP3    H238433   6.941   6.530   0.753  1.4518 -0.4958  2.9608
12830TIP3   OH238434   1.172   3.121   0.524  0.4299  0.1494 -0.0368
12830TIP3    H138435   1.080   3.093   0.520 -0.1305  1.7253  0.9215
12830TIP3    H238436   1.167   3.217   0.529  2.0878  0.2039  1.1496
12831TIP3   OH238437   1.565   3.426   5.426  0.5160  0.1828  0.3800
12831TIP3    H138438   1.647   3.428   5.475  1.9491 -0.8732 -1.8060
12831TIP3    H238439   1.567   3.343   5.379 -1.7856  0.1795  0.1727
12832TIP3   OH238440   0.842   5.898   4.814 -0.0654 -0.3554 -0.2691
12832TIP3    H138441   0.897   5.954   4.759  1.7107 -0.2389  1.4893
12832TIP3    H238442   0.753   5.926   4.796  0.6829  2.3191 -0.2766
12833TIP3   OH238443   3.752   1.083   6.012 -0.2216  0.1680  0.0510
12833TIP3    H138444   3.798   1.119   5.937  0.7637 -0.0320  0.5369
12833TIP3    H238445   3.775   0.990   6.012 -0.2547  0.1574  0.5618
12834TIP3   OH238446   6.883   1.714   4.607  0.1644  0.0365  0.6040
12834TIP3    H138447   6.955   1.767   4.641 -0.3154 -0.0007  1.7015
12834TIP3    H238448   6.835   1.685   4.684  0.3003 -1.8719  0.0354
12835TIP3   OH238449   5.357   1.127   0.324 -0.1166 -0.0071  0.3100
12835TIP3    H138450   5.271   1.148   0.288 -0.2863 -2.2758 -0.7839
12835TIP3    H238451   5.362   1.177   0.405 -2.0355  0.9689 -0.1212
12836TIP3   OH238452   1.813   0.340   3.134  0.4570 -0.3937  0.1822
12836TIP3    H138453   1.731   0.316   3.178  0.1540  0.0799 -0.1072
12836TIP3    H238454   1.876   0.274   3.162  0.0116 -0.6783  0.5279
12837TIP3   OH238455   0.099   4.647   0.265  0.2408  0.0513 -0.6009
12837TIP3    H138456   0.133   4.684   0.347  0.3427 -0.1176 -0.5662
12837TIP3    H238457   0.025   4.703   0.242  1.5464  1.4503 -1.5525
12838TIP3   OH238458   2.439   6.158   2.969 -0.0680 -0.2714 -0.3770
12838TIP3    H138459   2.519   6.105   2.978  0.5297  0.5737 -0.5419
12838TIP3    H238460   2.462   6.242   3.009 -1.0919 -0.2238  0.1187
12839TIP3   OH238461   7.031   0.218   0.851  0.0198  0.9040 -0.2931
12839TIP3    H138462   7.015   0.130   0.884  1.0501  0.0742 -1.8804
12839TIP3    H238463   6.973   0.274   0.903  0.0266 -0.5678  1.3813
12840TIP3   OH238464   0.109   1.954   2.309  0.4601 -0.5783 -0.2674
12840TIP3    H138465   0.049   1.998   2.369  0.9805 -1.1887  0.7500
12840TIP3    H238466   0.188   2.008   2.311  0.0258  0.1253 -1.4610
12841TIP3   OH238467   5.005   6.286   5.826 -0.3291  0.1755  0.6339
12841TIP3    H138468   5.053   6.234   5.762 -1.2079  0.5827 -0.4129
12841TIP3    H238469   4.985   6.368   5.780 -1.6836  0.1620  1.1293
12842TIP3   OH238470   7.615   3.119   4.918 -0.0425  0.0803  0.1270
12842TIP3    H138471   7.591   3.163   4.999 -1.6458 -1.0631  0.3322
12842TIP3    H238472   7.599   3.026   4.936  3.7666 -0.7938 -0.0668
12843TIP3   OH238473   6.551   4.103   0.751  0.4696 -0.1436 -0.4041
12843TIP3    H138474   6.550   4.007   0.754 -0.3145 -0.2113  4.1565
12843TIP3    H238475   6.642   4.125   0.734  0.6705 -1.6619 -1.5167
12844TIP3   OH238476   0.900   7.306   0.135 -0.0653 -0.0139  0.7279
12844TIP3    H138477   0.818   7.279   0.095  0.3210  0.3829 -0.3830
12844TIP3    H238478   0.930   7.229   0.183  1.2317 -1.8833 -2.6882
12845TIP3   OH238479   5.671   0.822   6.372  0.0574 -0.3241 -0.3298
12845TIP3    H138480   5.756   0.851   6.406  0.8657 -1.7483 -1.0686
12845TIP3    H238481   5.687   0.803   6.280 -1.3785  0.5464 -0.7873
12846TIP3   OH238482   1.999   3.798   5.004 -0.3701 -0.0007  0.0548
12846TIP3    H138483   2.051   3.876   5.024  0.4059 -0.6095  0.4701
12846TIP3    H238484   2.027   3.733   5.068 -1.5410 -0.4055  0.1842
12847TIP3   OH238485   7.738   6.453   6.214  0.7175 -0.3384  0.2361
12847TIP3    H138486   7.734   6.361   6.189  0.5874 -0.8168  1.8776
12847TIP3    H238487   7.763   6.499   6.134 -2.1564 -1.4169 -1.4163
12848TIP3   OH238488   4.467   0.805   0.583  0.4512 -0.2575  0.7465
12848TIP3    H138489   4.536   0.762   0.533 -0.3644 -1.1137  0.3285
12848TIP3    H238490   4.507   0.887   0.614  1.4059 -0.3803 -0.1141
12849TIP3   OH238491   2.386   4.292   4.934  0.1068 -0.3449  0.6565
12849TIP3    H138492   2.406   4.355   5.003  0.8878  1.2730 -0.9499
12849TIP3    H238493   2.295   4.310   4.911 -0.6623 -1.9255  2.2155
12850TIP3   OH238494   1.499   6.224   6.428 -0.0457 -0.1021  0.4667
12850TIP3    H138495   1.593   6.240   6.420  0.4171 -2.4964  0.4998
12850TIP3    H238496   1.489   6.186   6.515 -1.3465  1.7077  1.1773
12851TIP3   OH238497   2.344   5.754   2.906  0.5560  0.2239 -0.3935
12851TIP3    H138498   2.335   5.735   3.000 -1.3376  1.2104 -0.3149
12851TIP3    H238499   2.429   5.797   2.898  0.8927 -0.1654  0.8074
12852TIP3   OH238500   0.367   1.122   4.559 -0.1098 -0.1316 -0.4750
12852TIP3    H138501   0.416   1.110   4.478  0.3289 -0.8971 -0.1088
12852TIP3    H238502   0.340   1.214   4.558  1.7965  0.4633 -0.4236
12853TIP3   OH238503   0.982   1.288   2.678 -0.0291 -0.0636 -0.4871
12853TIP3    H138504   0.966   1.358   2.615 -0.8742 -0.6638 -0.9489
12853TIP3    H238505   0.980   1.332   2.763  1.4002  0.8002 -0.8692
12854TIP3   OH238506   3.114   5.010   4.847  0.1061 -0.4550  0.5891
12854TIP3    H138507   3.190   4.990   4.792  0.3489 -0.5876  0.9702
12854TIP3    H238508   3.149   5.017   4.935 -0.4480 -1.4069  0.9085
12855TIP3   OH238509   4.082   2.343   4.143  0.1910 -0.8043 -0.3361
12855TIP3    H138510   4.084   2.421   4.087  2.4976 -0.6464 -0.1486
12855TIP3    H238511   4.172   2.310   4.140  0.0037 -1.7069  1.9910
12856TIP3   OH238512   1.679   2.503   0.347  0.2413  0.1382  0.7011
12856TIP3    H138513   1.716   2.418   0.326 -0.5161 -0.3814  1.4075
12856TIP3    H238514   1.750   2.550   0.392  1.2220  0.5514 -1.1994
12857TIP3   OH238515   2.663   5.053   1.819  0.1899 -0.1101 -0.3251
12857TIP3    H138516   2.709   5.063   1.736 -0.6255 -1.7656 -1.0244
12857TIP3    H238517   2.662   4.959   1.836 -0.5277  0.1090  1.0581
12858TIP3   OH238518   8.231   3.628   2.209  0.0082  0.1052 -0.2380
12858TIP3    H138519   8.213   3.712   2.165  0.3656  0.6864  0.6998
12858TIP3    H238520   8.146   3.599   2.241 -0.1965 -0.1443 -0.9962
12859TIP3   OH238521   3.190   3.921   0.118  0.5262  0.3983  0.4558
12859TIP3    H138522   3.219   3.837   0.152  0.6513  0.5242  0.6661
12859TIP3    H238523   3.271   3.965   0.091  0.4411  0.3642  0.1449
12860TIP3   OH238524   2.478   5.936   0.385  0.4252 -0.0509  0.3477
12860TIP3    H138525   2.430   5.874   0.440 -0.4571  0.2433 -0.0754
12860TIP3    H238526   2.416   5.959   0.316  1.4879 -0.3610 -0.7313
12861TIP3   OH238527   0.800   7.080   3.557  0.1590  0.3836  0.2053
12861TIP3    H138528   0.728   7.094   3.495  0.3369 -1.4404 -0.4742
12861TIP3    H238529   0.760   7.030   3.629  0.8117 -1.1703 -0.4564
12862TIP3   OH238530   6.962   3.839   0.276  0.1848  0.5635 -0.6897
12862TIP3    H138531   7.057   3.846   0.266  0.4612 -2.0056 -0.5315
12862TIP3    H238532   6.927   3.869   0.192  0.8943  3.8007  0.0230
12863TIP3   OH238533   6.947   4.089   2.825  0.2251  0.3743 -0.3451
12863TIP3    H138534   6.880   4.068   2.890 -0.4707  1.0974 -0.8029
12863TIP3    H238535   6.920   4.175   2.790 -0.5627 -0.8368 -3.0134
12864TIP3   OH238536   2.115   4.330   6.347 -0.1446 -0.4497  0.7951
12864TIP3    H138537   2.128   4.401   6.410 -0.5050  2.8609 -2.5802
12864TIP3    H238538   2.202   4.313   6.311 -0.4703  0.4892 -0.5118
12865TIP3   OH238539   1.530   5.007   2.838  0.1242 -0.3663  0.3167
12865TIP3    H138540   1.485   5.006   2.922 -0.1303  1.0913  0.2286
12865TIP3    H238541   1.469   4.963   2.778 -0.9735  1.0910  0.3161
12866TIP3   OH238542   3.065   1.270   2.256 -0.1278  0.5231  0.1114
12866TIP3    H138543   3.058   1.229   2.342 -0.8243  0.8535  0.2234
12866TIP3    H238544   2.995   1.229   2.204 -0.0366  0.6839 -0.1404
12867TIP3   OH238545   6.673   5.837   1.195  0.1611 -0.2159 -0.4471
12867TIP3    H138546   6.641   5.927   1.202 -2.3926 -1.0828  0.2616
12867TIP3    H238547   6.603   5.784   1.234  2.6298 -2.3418  1.4528
12868TIP3   OH238548   6.975   0.825   1.524  0.3227 -0.0966  0.0606
12868TIP3    H138549   6.890   0.869   1.520 -1.4735 -3.3156 -0.6307
12868TIP3    H238550   6.997   0.824   1.618 -1.2483 -0.6233  0.4573
12869TIP3   OH238551   7.209   7.119   5.694 -0.0457 -0.0643  0.1210
12869TIP3    H138552   7.273   7.054   5.725  0.1162 -0.4276 -0.9160
12869TIP3    H238553   7.192   7.174   5.770  0.4385 -0.8269  0.8040
12870TIP3   OH238554   8.138   0.495   5.419  0.0872 -0.1428 -0.1849
12870TIP3    H138555   8.097   0.534   5.341 -1.0182  0.6915  0.7616
12870TIP3    H238556   8.184   0.418   5.387 -1.2530 -0.4394 -1.5109
12871TIP3   OH238557   2.067   1.829   4.475 -0.6000 -0.0140  0.2601
12871TIP3    H138558   1.998   1.831   4.408  0.0303  3.9026 -0.4918
12871TIP3    H238559   2.141   1.787   4.432 -0.6923  1.1049 -1.0581
12872TIP3   OH238560   6.273   5.007   6.621  0.0991 -0.6912 -0.3161
12872TIP3    H138561   6.251   5.006   6.715  1.6034 -0.8818  0.0692
12872TIP3    H238562   6.324   5.087   6.609  0.0002 -0.7185 -0.9461
12873TIP3   OH238563   1.888   2.186   6.674 -0.0536  0.7344 -0.6943
12873TIP3    H138564   1.972   2.170   6.715  0.2073  0.3897 -1.3496
12873TIP3    H238565   1.866   2.103   6.631  0.1589  1.3782 -2.0889
12874TIP3   OH238566   1.565   7.366   5.184 -0.0934 -0.1979  0.0408
12874TIP3    H138567   1.502   7.433   5.210 -0.8799 -0.9942  0.2250
12874TIP3    H238568   1.564   7.367   5.088 -0.8164 -0.5838  0.0357
12875TIP3   OH238569   0.635   4.210   3.571  0.1990 -0.9338  0.0999
12875TIP3    H138570   0.600   4.297   3.588  0.0032 -0.8107 -0.8840
12875TIP3    H238571   0.709   4.202   3.631 -1.0450 -0.9142  1.6788
12876TIP3   OH238572   6.926   5.651   3.780  0.5185 -0.6297 -0.4743
12876TIP3    H138573   6.925   5.740   3.816  0.8434  0.0948 -2.1497
12876TIP3    H238574   6.948   5.663   3.688  1.4598 -2.5452 -0.5418
12877TIP3   OH238575   5.141   6.192   0.990  0.1549  0.0432 -0.1902
12877TIP3    H138576   5.137   6.260   0.923  1.9190  0.0368 -0.3657
12877TIP3    H238577   5.214   6.218   1.047 -0.6289 -0.5004  1.1213
12878TIP3   OH238578   6.332   6.149   0.484 -0.3776  0.5382  0.3171
12878TIP3    H138579   6.312   6.171   0.393  0.8534  0.3214 -0.0230
12878TIP3    H238580   6.384   6.223   0.515  1.0649 -0.3808  0.1550
12879TIP3   OH238581   3.827   0.116   3.174  0.0146 -0.0639  0.0403
12879TIP3    H138582   3.746   0.165   3.187 -0.0655 -0.2503  0.2431
12879TIP3    H238583   3.817   0.077   3.086 -0.2541 -0.3481  0.1940
12880TIP3   OH238584   2.811   3.571   2.475 -0.1433  0.2118 -0.3580
12880TIP3    H138585   2.883   3.509   2.486 -0.5483 -0.0625  0.9014
12880TIP3    H238586   2.732   3.517   2.477 -0.4029  0.3926 -2.6275
12881TIP3   OH238587   7.195   2.535   6.379  0.0351  0.2449 -0.3200
12881TIP3    H138588   7.151   2.602   6.433  0.3454  0.1241  0.0860
12881TIP3    H238589   7.268   2.581   6.339 -0.3383  0.3965 -0.8409
12882TIP3   OH238590   2.454   4.156   3.012 -0.3290  0.0294 -0.1065
12882TIP3    H138591   2.489   4.067   3.009 -1.7975 -0.5437 -0.9464
12882TIP3    H238592   2.525   4.210   2.977 -0.8500 -1.3284 -3.6808
12883TIP3   OH238593   4.243   6.286   1.631 -0.1643 -0.1027  0.2567
12883TIP3    H138594   4.168   6.344   1.644 -1.6862 -1.5534 -1.4047
12883TIP3    H238595   4.221   6.237   1.552  2.0263 -1.4252  0.3933
12884TIP3   OH238596   2.759   1.122   3.963 -0.3697  0.3100 -0.0597
12884TIP3    H138597   2.781   1.045   4.016 -0.8939  0.7305  0.7738
12884TIP3    H238598   2.665   1.134   3.976 -0.5729  0.2358 -1.3472
12885TIP3   OH238599   1.270  -0.025   5.893  0.3752  0.5882 -0.1479
12885TIP3    H138600   1.315   0.033   5.831  0.1848  1.3528  0.4238
12885TIP3    H238601   1.260   0.027   5.972  0.1902 -0.2295  0.3726
12886TIP3   OH238602   7.345   3.408   1.909  0.0672 -0.1555  0.2369
12886TIP3    H138603   7.346   3.486   1.965  0.9738 -1.2680  1.8181
12886TIP3    H238604   7.427   3.363   1.928  1.1808  0.1544 -3.1105
12887TIP3   OH238605   5.407   0.915   6.068  0.5867  0.1570 -0.0243
12887TIP3    H138606   5.461   0.994   6.066 -0.7007  1.0480 -1.0504
12887TIP3    H238607   5.375   0.910   6.158 -0.0074  1.2874 -0.1689
12888TIP3   OH238608   3.907   6.972   1.332  0.0168  0.4264  0.0753
12888TIP3    H138609   3.968   7.030   1.378  0.0978  1.4857 -1.2878
12888TIP3    H238610   3.857   7.031   1.275 -0.2200 -0.7828 -1.0120
12889TIP3   OH238611   3.979   4.744   1.060 -0.5797  0.5430 -0.0571
12889TIP3    H138612   4.021   4.800   1.125 -1.3375 -0.4622  1.3750
12889TIP3    H238613   4.010   4.776   0.976  3.3338 -0.3296  0.8532
12890TIP3   OH238614   4.281   1.536   2.611  0.2369 -0.2971 -0.0648
12890TIP3    H138615   4.203   1.577   2.574 -0.0973  0.5790  1.4995
12890TIP3    H238616   4.352   1.562   2.553  0.1078  2.9164  1.0096
12891TIP3   OH238617   2.486   6.884   3.673  0.3338  0.3019 -0.7580
12891TIP3    H138618   2.439   6.814   3.629  0.1267  0.0020 -0.0710
12891TIP3    H238619   2.499   6.951   3.605  2.1897 -1.1687 -1.9344
12892TIP3   OH238620   1.088   6.716   2.554  0.5389 -0.0224  0.1135
12892TIP3    H138621   1.095   6.653   2.625  2.0201 -1.2915 -1.0614
12892TIP3    H238622   1.176   6.717   2.514 -0.3057  0.3553 -1.8858
12893TIP3   OH238623   1.015   5.249   5.070 -0.2403 -0.5988 -0.1129
12893TIP3    H138624   0.985   5.320   5.014 -1.1777 -1.3647 -0.6011
12893TIP3    H238625   1.066   5.293   5.139  0.4813  0.3946 -1.2440
12894TIP3   OH238626   6.493   2.829   1.771  0.6056 -0.8457 -0.6713
12894TIP3    H138627   6.580   2.815   1.807  1.0428  1.9424 -0.4673
12894TIP3    H238628   6.500   2.796   1.681  0.7132 -3.9527  0.3293
12895TIP3   OH238629   4.866   6.122   3.486  0.6314 -0.5067  0.1712
12895TIP3    H138630   4.883   6.214   3.506 -1.8142 -0.2249  1.2195
12895TIP3    H238631   4.910   6.074   3.556  0.7379 -0.0635  0.4130
12896TIP3   OH238632   8.187   3.320   1.183 -0.0094 -0.2566  0.2302
12896TIP3    H138633   8.272   3.277   1.173  1.2579  1.6876  1.7885
12896TIP3    H238634   8.149   3.282   1.262 -0.2383 -0.5452 -0.0141
12897TIP3   OH238635   3.735   4.147   4.101  0.3450  0.7593 -0.1443
12897TIP3    H138636   3.707   4.156   4.010 -0.4886 -1.7751 -0.2192
12897TIP3    H238637   3.686   4.072   4.134  2.2992  0.2006  1.7293
12898TIP3   OH238638   7.607   3.834   5.791 -0.2495 -0.5577  0.0742
12898TIP3    H138639   7.589   3.773   5.863 -0.5761 -2.6978 -1.6973
12898TIP3    H238640   7.521   3.851   5.752 -0.0976  0.7185  0.2744
12899TIP3   OH238641   1.024   2.182   5.909  0.4895  0.2313  0.1614
12899TIP3    H138642   1.038   2.101   5.958  0.1905  1.1449  1.8261
12899TIP3    H238643   1.028   2.156   5.817  2.1466 -1.3703  0.6356
12900TIP3   OH238644   6.448   0.994   2.192 -0.1609  0.2485 -0.1043
12900TIP3    H138645   6.493   1.017   2.111 -0.1291  2.2450  0.4495
12900TIP3    H238646   6.357   1.020   2.177  0.2326  2.6663  1.1991
12901TIP3   OH238647   6.105   7.631   2.665  0.3590 -0.5851  0.2122
12901TIP3    H138648   6.032   7.643   2.605  1.8822  2.0715 -1.3307
12901TIP3    H238649   6.080   7.678   2.744 -0.1025 -0.7776  0.1799
12902TIP3   OH238650   2.019   4.677   6.263  0.0615 -0.5065  0.1094
12902TIP3    H138651   2.067   4.714   6.338  1.5547 -0.8294 -0.6470
12902TIP3    H238652   1.963   4.610   6.302  0.6803 -0.5420  0.9820
12903TIP3   OH238653   1.269   7.579   1.893  0.3852 -0.1206  0.0267
12903TIP3    H138654   1.357   7.615   1.887 -0.1895  1.3887  0.2221
12903TIP3    H238655   1.232   7.617   1.972 -0.4551 -0.7110 -0.0654
12904TIP3   OH238656   5.802   6.236   5.614 -0.0201  0.3921  0.0515
12904TIP3    H138657   5.733   6.301   5.614 -0.1541  0.2863  1.2802
12904TIP3    H238658   5.846   6.246   5.530 -1.6117  0.3559 -0.8104
12905TIP3   OH238659   5.348   3.272   5.030  0.3623  0.1911  0.4693
12905TIP3    H138660   5.379   3.352   5.074 -1.8647  0.6421  1.3714
12905TIP3    H238661   5.257   3.264   5.059 -0.3618 -1.0453 -1.9773
12906TIP3   OH238662   0.163   1.742   3.149 -0.5326 -0.0327 -0.1758
12906TIP3    H138663   0.094   1.809   3.159  0.2624  0.6227  1.2140
12906TIP3    H238664   0.123   1.662   3.183 -0.3165  0.5734  1.6218
12907TIP3   OH238665   6.057   0.091   3.483 -0.0984 -0.3345 -0.4645
12907TIP3    H138666   6.067   0.159   3.417  0.1062 -1.9319 -2.1737
12907TIP3    H238667   6.117   0.117   3.553  0.8074  0.6584 -1.5628
12908TIP3   OH238668   2.422   7.778   5.522  0.0896 -0.6344 -0.0257
12908TIP3    H138669   2.414   7.869   5.551  2.3770 -0.2238 -0.5116
12908TIP3    H238670   2.401   7.727   5.600 -1.0255  0.2880  0.3128
12909TIP3   OH238671   4.755   5.517   3.145 -0.4958 -0.0727  0.1314
12909TIP3    H138672   4.779   5.559   3.062 -1.0441  1.0041  0.4946
12909TIP3    H238673   4.838   5.487   3.181 -0.0728  0.7167 -0.1526
12910TIP3   OH238674   7.473   7.072   5.264 -0.0235  0.0336  0.0916
12910TIP3    H138675   7.424   7.014   5.322 -1.6857  0.2755 -1.0115
12910TIP3    H238676   7.449   7.044   5.176  1.7068  0.2875 -0.4937
12911TIP3   OH238677   1.168   1.901   0.335  0.2381 -0.2899  0.8215
12911TIP3    H138678   1.073   1.903   0.325  0.4092  1.5490 -1.3448
12911TIP3    H238679   1.186   1.817   0.378 -2.3683 -0.4045  1.8662
12912TIP3   OH238680   3.222   3.541   0.991  0.1788 -0.1862  0.0767
12912TIP3    H138681   3.214   3.519   0.898 -1.1069 -0.3990  0.2246
12912TIP3    H238682   3.316   3.552   1.005  0.2775  1.6640 -1.6585
12913TIP3   OH238683   3.552   0.587   5.537 -0.1825 -0.1841 -0.0639
12913TIP3    H138684   3.631   0.638   5.553 -0.5342  0.3187  0.0758
12913TIP3    H238685   3.487   0.624   5.596 -0.6446 -0.3159 -0.4838
12914TIP3   OH238686   3.523   6.829   2.677  0.1354 -0.3771 -0.4337
12914TIP3    H138687   3.512   6.849   2.770 -1.7541 -0.4029 -0.5976
12914TIP3    H238688   3.481   6.903   2.632 -0.0950 -0.9687 -1.2192
12915TIP3   OH238689   1.617   7.116   1.968 -0.1900  0.0548 -0.3550
12915TIP3    H138690   1.526   7.092   1.984  0.2351  0.0459  2.6261
12915TIP3    H238691   1.613   7.176   1.893 -2.7997  1.0085  0.4295
12916TIP3   OH238692   0.094   5.393   6.537  0.0629  0.4016  0.1951
12916TIP3    H138693   0.027   5.389   6.605 -0.2979  1.1743 -0.0967
12916TIP3    H238694   0.047   5.422   6.459  0.3595 -0.9934 -0.5420
12917TIP3   OH238695   0.698   5.113   3.590 -0.0912  0.1897  0.0217
12917TIP3    H138696   0.681   5.170   3.665  1.8437  0.4928  0.2845
12917TIP3    H238697   0.757   5.164   3.535  1.4307 -1.4031  0.1025
12918TIP3   OH238698   3.730   1.383   1.024  0.1404  0.0755 -0.0051
12918TIP3    H138699   3.677   1.306   1.047  3.4215 -2.3421  0.1759
12918TIP3    H238700   3.756   1.419   1.108  0.4673 -0.0217 -0.0643
12919TIP3   OH238701   0.975   3.037   4.158  0.3601  0.8123 -0.0406
12919TIP3    H138702   0.954   3.029   4.065  0.4240 -1.5509  0.0858
12919TIP3    H238703   1.071   3.037   4.161  0.5575 -3.4938  0.1266
12920TIP3   OH238704   3.033   2.780   1.027  0.0261  0.1198  0.6359
12920TIP3    H138705   3.001   2.696   1.061 -1.6771 -0.1589 -1.4546
12920TIP3    H238706   3.107   2.757   0.972 -1.6590 -0.3650 -1.5757
12921TIP3   OH238707   0.058   0.668   5.089 -0.0292  0.0164  0.1842
12921TIP3    H138708  -0.024   0.707   5.119 -0.3282 -0.2947 -0.2161
12921TIP3    H238709   0.031   0.588   5.044  0.5284 -0.2977  0.4075
12922TIP3   OH238710   6.955   0.889   5.327  0.2055 -0.0422 -0.6149
12922TIP3    H138711   6.956   0.882   5.232  0.4269  0.1360 -0.6271
12922TIP3    H238712   6.898   0.818   5.356  2.0599 -1.6691 -0.7527
12923TIP3   OH238713   6.118   2.689   4.946  0.3540 -0.1734 -0.3553
12923TIP3    H138714   6.192   2.725   4.897  1.8043 -1.0710  1.0598
12923TIP3    H238715   6.119   2.737   5.029  0.0404 -0.9396  0.1023
12924TIP3   OH238716   3.016   1.553   1.289 -0.1179 -0.0191  0.3805
12924TIP3    H138717   2.939   1.513   1.249 -0.3141  0.5966  0.1356
12924TIP3    H238718   3.090   1.518   1.239 -0.2714 -0.2372  0.3065
12925TIP3   OH238719   3.730   4.986   3.811  0.5228  0.1972  0.4539
12925TIP3    H138720   3.822   5.011   3.814  0.3707  0.7358  0.9962
12925TIP3    H238721   3.687   5.057   3.764  0.6662 -1.0380 -1.6420
12926TIP3   OH238722   7.059   0.580   2.925 -1.2543  0.0421 -0.5458
12926TIP3    H138723   7.069   0.667   2.886  0.2990  0.3554  0.4934
12926TIP3    H238724   7.134   0.530   2.892 -0.9228 -0.2308  0.5785
12927TIP3   OH238725   6.338   7.452   4.549 -0.1198  0.0438 -0.5836
12927TIP3    H138726   6.244   7.454   4.534 -0.0375  1.8768 -1.1135
12927TIP3    H238727   6.377   7.443   4.462  0.2027 -0.6748 -0.3718
12928TIP3   OH238728   3.503   0.164   4.699  0.7165 -0.1395  0.4878
12928TIP3    H138729   3.543   0.245   4.670  1.3839 -0.6688 -0.0868
12928TIP3    H238730   3.419   0.191   4.736  0.2360  0.6548 -1.0988
12929TIP3   OH238731   6.562   4.756   5.022  0.8591  0.3729 -0.6372
12929TIP3    H138732   6.548   4.715   5.107  2.0673 -2.5365 -1.7025
12929TIP3    H238733   6.477   4.794   4.999 -0.4458 -1.7481  0.4050
12930TIP3   OH238734   4.254   2.265   5.263 -0.4590 -0.5595 -0.0691
12930TIP3    H138735   4.243   2.266   5.168  1.1383 -0.8764 -0.2994
12930TIP3    H238736   4.337   2.219   5.277  0.1612  0.8740  1.3782
12931TIP3   OH238737   3.530   7.264   4.043 -0.4866  0.0387  0.4966
12931TIP3    H138738   3.473   7.341   4.047 -2.1994 -1.1185 -0.4862
12931TIP3    H238739   3.500   7.208   4.115 -1.9178 -1.4039 -1.1540
12932TIP3   OH238740   6.974   3.799   6.720  0.5878 -0.2140 -0.0151
12932TIP3    H138741   7.014   3.800   6.633  1.5949  0.6729  0.4348
12932TIP3    H238742   6.949   3.890   6.735  1.3926 -0.1541  1.0473
12933TIP3   OH238743   2.925   2.381   0.256 -0.5652  0.7367  0.1166
12933TIP3    H138744   2.830   2.394   0.252 -0.7111 -0.6472 -1.6724
12933TIP3    H238745   2.956   2.398   0.167  0.5988 -0.7492  0.2033
12934TIP3   OH238746   4.231   3.010   1.676  0.1171 -0.2771 -0.1424
12934TIP3    H138747   4.305   3.002   1.737  1.1035  2.3496 -0.8223
12934TIP3    H238748   4.272   3.038   1.594 -1.5502  0.2667 -0.8147
12935TIP3   OH238749   2.987   7.717   0.111 -0.4828 -0.7106 -0.2279
12935TIP3    H138750   2.927   7.784   0.079  3.3427  3.7117  0.8186
12935TIP3    H238751   2.960   7.702   0.202 -0.6043  0.4541 -0.0630
12936TIP3   OH238752   1.686   7.265   0.796 -0.1888  0.3076 -0.1243
12936TIP3    H138753   1.655   7.232   0.712  2.4225  0.5581 -1.3069
12936TIP3    H238754   1.733   7.192   0.835  0.8071  0.9229 -0.1244
12937TIP3   OH238755   3.403   1.218   1.406 -0.4593  0.3698 -0.3372
12937TIP3    H138756   3.352   1.284   1.453 -0.2902  1.0605 -1.1050
12937TIP3    H238757   3.492   1.227   1.440 -0.4928  0.3537 -0.2461
12938TIP3   OH238758   3.356   4.937   3.007 -0.4011 -0.1239 -0.6697
12938TIP3    H138759   3.418   4.866   2.994  0.8842  0.9514 -0.5976
12938TIP3    H238760   3.297   4.904   3.075 -0.9738 -1.8080 -1.9062
12939TIP3   OH238761   1.497   1.648   3.568 -0.2710 -0.7113  0.2580
12939TIP3    H138762   1.521   1.738   3.545  2.6202 -1.3540  0.5036
12939TIP3    H238763   1.426   1.626   3.507 -0.4860  1.4283 -0.3438
12940TIP3   OH238764   6.865   6.865   4.695 -0.1737 -0.2823  0.2025
12940TIP3    H138765   6.929   6.867   4.766  1.2841 -1.2372 -1.0393
12940TIP3    H238766   6.809   6.790   4.715 -1.1395  0.7048  1.4257
12941TIP3   OH238767   3.316   2.587   4.067  0.1649  0.2136 -0.4634
12941TIP3    H138768   3.356   2.537   4.139  0.4742 -1.6581 -1.8461
12941TIP3    H238769   3.330   2.678   4.091  2.0779 -0.3516  0.8632
12942TIP3   OH238770   6.836   7.389   0.465 -0.5026 -0.3792  0.1525
12942TIP3    H138771   6.745   7.365   0.483  0.2568 -2.5674  1.4127
12942TIP3    H238772   6.842   7.481   0.491 -2.6595  0.2712 -1.3378
12943TIP3   OH238773   3.786   4.060   5.062  0.8947  0.3135  0.0028
12943TIP3    H138774   3.864   4.060   5.008  0.9137  2.4220 -0.0177
12943TIP3    H238775   3.718   4.099   5.008  0.1793 -0.1570  0.5326
12944TIP3   OH238776   5.051   5.825   5.337 -0.3891  0.1550 -0.3972
12944TIP3    H138777   5.019   5.762   5.272  1.2181  0.5235 -1.6276
12944TIP3    H238778   4.987   5.895   5.337  0.2625  0.8380 -2.7206
12945TIP3   OH238779   3.953   3.296   2.131  0.9229  0.3397  0.0662
12945TIP3    H138780   3.900   3.240   2.187  0.0295  1.3942  0.3134
12945TIP3    H238781   3.964   3.246   2.050  0.7153 -0.4585  0.5233
12946TIP3   OH238782   4.361   3.359   5.281 -0.5132 -0.1351 -0.3188
12946TIP3    H138783   4.291   3.304   5.317  0.3454 -1.2492 -0.3052
12946TIP3    H238784   4.436   3.300   5.272  0.6510  1.1849  0.3231
12947TIP3   OH238785   4.660   5.595   5.333  0.1253 -0.5211 -0.7971
12947TIP3    H138786   4.701   5.585   5.419  0.9505  1.4066 -0.9312
12947TIP3    H238787   4.571   5.561   5.345  0.2981 -0.4796  0.7587
12948TIP3   OH238788   2.202   2.838   3.723 -0.0877 -0.0024 -0.4062
12948TIP3    H138789   2.113   2.864   3.700 -0.1357  0.3246  0.1253
12948TIP3    H238790   2.196   2.810   3.814  0.4462  0.4924 -0.2138
12949TIP3   OH238791   7.232   2.331   4.243 -0.2354 -0.3011 -0.6786
12949TIP3    H138792   7.140   2.308   4.231 -0.3253  0.1111 -0.7992
12949TIP3    H238793   7.274   2.250   4.273 -0.7278 -0.3700 -0.1715
12950TIP3   OH238794   3.134   2.433   5.185 -0.0835 -0.0660 -0.0199
12950TIP3    H138795   3.164   2.381   5.110 -0.1913  0.5677 -0.5017
12950TIP3    H238796   3.042   2.411   5.195  0.3439 -1.5694  1.0987
12951TIP3   OH238797   7.973   6.827   1.156  0.0943 -0.1153 -0.7745
12951TIP3    H138798   8.061   6.845   1.188 -0.2176  0.4665 -0.2095
12951TIP3    H238799   7.915   6.862   1.224 -0.5728 -0.8258 -0.9577
12952TIP3   OH238800   3.251   1.256   6.532  0.5581 -0.2660 -0.5181
12952TIP3    H138801   3.237   1.171   6.491  1.5192 -0.5897 -0.2023
12952TIP3    H238802   3.177   1.309   6.503 -0.6616 -1.5187  0.1686
12953TIP3   OH238803   1.043   0.980   5.468  0.8050  0.2830  0.3718
12953TIP3    H138804   1.085   1.064   5.450  2.0146 -0.1232  1.2034
12953TIP3    H238805   1.093   0.916   5.418  0.6085 -0.0910  0.6435
12954TIP3   OH238806   1.278   2.095   2.553  0.1249  0.0695 -0.6604
12954TIP3    H138807   1.343   2.128   2.491  0.6480  1.0329  0.3462
12954TIP3    H238808   1.209   2.059   2.499  1.3991 -0.8000 -1.7729
12955TIP3   OH238809   4.748   5.417   4.959 -0.3161  0.4110  0.0902
12955TIP3    H138810   4.672   5.366   4.930  0.4571  0.6566 -2.7091
12955TIP3    H238811   4.778   5.373   5.039 -0.9617 -2.2392 -1.0148
12956TIP3   OH238812   6.431   0.806   3.298 -0.6548  0.1384 -0.1297
12956TIP3    H138813   6.457   0.803   3.206 -0.5882  0.7393 -0.1393
12956TIP3    H238814   6.460   0.723   3.335 -0.0078  0.2064 -0.4765
12957TIP3   OH238815   0.859   6.137   3.286 -0.1792 -0.0607 -0.4386
12957TIP3    H138816   0.950   6.134   3.316  0.2675 -1.8723 -1.7914
12957TIP3    H238817   0.820   6.057   3.321 -0.0455 -1.4570 -3.2416
12958TIP3   OH238818   3.824   0.860   6.769 -0.2578  0.0832 -0.1356
12958TIP3    H138819   3.900   0.808   6.744  1.3182  0.3746  3.4975
12958TIP3    H238820   3.834   0.942   6.721  1.1487 -0.2948 -0.5203
12959TIP3   OH238821   0.308   1.666   4.546 -0.1301  0.4171 -0.4925
12959TIP3    H138822   0.220   1.635   4.570  0.5665 -2.6703 -1.4401
12959TIP3    H238823   0.292   1.741   4.489 -2.0801  0.8721  0.5653
12960TIP3   OH238824   5.593   1.493   2.202 -0.1085  0.1824 -0.6091
12960TIP3    H138825   5.579   1.402   2.228 -0.6171 -0.2976 -2.3775
12960TIP3    H238826   5.686   1.508   2.215 -0.2424 -0.1560  0.9178
12961TIP3   OH238827   5.733   3.113   3.257 -0.1484 -0.0903 -0.2057
12961TIP3    H138828   5.746   3.019   3.249  0.3798  0.0896 -2.2108
12961TIP3    H238829   5.806   3.144   3.311 -0.5148 -0.8489  0.7451
12962TIP3   OH238830   0.033   2.150   2.079  0.1506  0.1733 -0.3370
12962TIP3    H138831   0.112   2.122   2.032  0.5908  0.2174  0.3535
12962TIP3    H238832   0.002   2.071   2.123 -0.7973 -0.0847 -1.4360
12963TIP3   OH238833   0.787   5.076   4.319  0.0139  0.0077  0.3138
12963TIP3    H138834   0.801   5.098   4.227 -0.1314  1.3918  0.6094
12963TIP3    H238835   0.775   4.981   4.319 -0.7418  0.0731 -1.1856
12964TIP3   OH238836   0.513   5.698   6.244  0.1958 -0.2215  0.1219
12964TIP3    H138837   0.554   5.768   6.295 -2.1054  0.4694  1.1634
12964TIP3    H238838   0.498   5.627   6.307  0.8818 -0.9517 -0.5152
12965TIP3   OH238839   5.905   2.620   3.772 -0.4093  0.1874  0.8784
12965TIP3    H138840   5.913   2.715   3.764 -0.0412  0.2464  1.8184
12965TIP3    H238841   5.949   2.586   3.694 -0.9032  0.7869  0.3245
12966TIP3   OH238842   7.352   2.968   0.202 -0.3927  0.0849  0.2627
12966TIP3    H138843   7.406   2.890   0.213 -1.8634 -1.0431 -0.1376
12966TIP3    H238844   7.308   2.979   0.287  0.5280  1.0753  0.6325
12967TIP3   OH238845   4.320   4.221   2.670  0.0866 -1.3869  0.1591
12967TIP3    H138846   4.247   4.215   2.609  0.6397 -2.6568 -0.4378
12967TIP3    H238847   4.284   4.195   2.754 -0.4815 -0.5010  0.1972
12968TIP3   OH238848   5.886   0.332   0.908  0.4843  0.3571  0.1935
12968TIP3    H138849   5.883   0.412   0.961 -0.2326  0.1038  0.5433
12968TIP3    H238850   5.829   0.350   0.833 -1.0056 -0.4052  1.1095
12969TIP3   OH238851   6.799   5.671   5.847 -0.3512 -0.4956 -0.7749
12969TIP3    H138852   6.769   5.649   5.935  1.8143  0.5975  0.3163
12969TIP3    H238853   6.767   5.759   5.831 -0.3996 -0.5384 -0.9189
12970TIP3   OH238854   8.105   1.373   1.198 -0.0996 -0.4847 -0.3450
12970TIP3    H138855   8.014   1.395   1.181  0.4169  1.5984 -0.7470
12970TIP3    H238856   8.142   1.453   1.238  1.4306 -1.4259  0.2267
12971TIP3   OH238857   0.601   1.333   1.869  0.1062 -0.5057 -0.2264
12971TIP3    H138858   0.526   1.276   1.855 -0.8880 -0.1802  2.9470
12971TIP3    H238859   0.567   1.405   1.923  1.8333  1.8955 -2.1026
12972TIP3   OH238860   4.521   3.978   5.222 -0.5187  1.2107  0.2364
12972TIP3    H138861   4.514   3.967   5.317  1.4177 -0.6948  0.2401
12972TIP3    H238862   4.430   3.975   5.191 -1.1569  1.4831  1.9687
12973TIP3   OH238863   1.860   5.512   1.892  0.8720  0.4887 -0.1658
12973TIP3    H138864   1.783   5.552   1.853  1.4936  0.9104 -0.9941
12973TIP3    H238865   1.933   5.565   1.861  1.2935  1.9349  2.9407
12974TIP3   OH238866   1.694   1.947   6.671  0.2843 -0.6054 -0.3745
12974TIP3    H138867   1.727   1.909   6.590  2.6306  3.4239 -1.6319
12974TIP3    H238868   1.605   1.975   6.650  0.2693 -1.0990 -0.9832
12975TIP3   OH238869   5.135   0.309   2.780 -0.4787 -0.2471 -0.3632
12975TIP3    H138870   5.200   0.251   2.741 -1.2102 -0.1942 -1.7156
12975TIP3    H238871   5.072   0.250   2.821  1.1094 -0.2834  2.2434
12976TIP3   OH238872   3.911   2.151   5.739  0.0057  0.0850  0.0953
12976TIP3    H138873   3.856   2.091   5.690 -2.3152  2.8799 -1.0057
12976TIP3    H238874   3.976   2.095   5.781 -2.4294 -3.2324 -0.1567
12977TIP3   OH238875   2.178   2.680   5.807 -0.0560  0.2309  0.1508
12977TIP3    H138876   2.217   2.710   5.724 -0.1961  0.7193  0.2546
12977TIP3    H238877   2.252   2.650   5.859  0.1879  1.1184  0.3305
12978TIP3   OH238878   3.274   0.660   5.650  0.3761 -0.0762 -0.1737
12978TIP3    H138879   3.234   0.573   5.640 -2.2937  0.9918  0.3237
12978TIP3    H238880   3.267   0.700   5.564  0.7307  0.0072 -0.1660
12979TIP3   OH238881   0.980   1.743   0.762 -0.1605  0.3211 -0.4656
12979TIP3    H138882   1.038   1.741   0.839  1.1008  2.2477 -1.2669
12979TIP3    H238883   1.033   1.705   0.691  0.1912  2.0887 -1.2050
12980TIP3   OH238884   2.502   6.984   1.941  0.0034 -0.1185 -0.1179
12980TIP3    H138885   2.583   6.933   1.938 -0.1798 -0.3943 -0.5603
12980TIP3    H238886   2.449   6.942   2.008  0.7127  0.8163  1.0606
12981TIP3   OH238887   2.131   4.693   1.219  0.0987  0.2142 -0.0107
12981TIP3    H138888   2.047   4.711   1.176  0.0412 -3.4523 -1.8117
12981TIP3    H238889   2.123   4.602   1.250  3.3162 -0.1786 -0.0320
12982TIP3   OH238890   3.113   4.008   2.291 -0.5444  0.6502 -0.1647
12982TIP3    H138891   3.101   4.058   2.210 -0.9436 -0.3421 -0.7285
12982TIP3    H238892   3.095   3.918   2.266  1.4903  0.0047  0.5104
12983TIP3   OH238893   5.735   4.883   3.225  0.0087  0.3578 -0.3446
12983TIP3    H138894   5.792   4.848   3.157 -0.4176  1.1832 -1.1425
12983TIP3    H238895   5.795   4.926   3.287  0.3177  0.5631 -0.7818
12984TIP3   OH238896   1.993   3.996   2.201 -0.2714 -0.1737 -0.5479
12984TIP3    H138897   2.069   3.938   2.197 -0.4193 -0.3191 -1.4126
12984TIP3    H238898   1.947   3.971   2.281 -0.9072 -1.9878 -1.4358
12985TIP3   OH238899   4.147   1.740   0.186 -0.1954 -0.4545 -0.0801
12985TIP3    H138900   4.151   1.833   0.163  1.7705 -0.6155 -0.5578
12985TIP3    H238901   4.116   1.740   0.277 -2.2426  0.5105 -0.7052
12986TIP3   OH238902   0.139   5.482   5.236 -0.1076  0.2594  0.1161
12986TIP3    H138903   0.189   5.533   5.299  0.7932 -1.5941  0.9620
12986TIP3    H238904   0.049   5.512   5.248  0.0657  0.1119  2.1442
12987TIP3   OH238905   3.930   4.828   1.755  0.2336 -0.3138  0.3454
12987TIP3    H138906   3.939   4.733   1.750  2.2130 -0.1778 -4.6513
12987TIP3    H238907   4.015   4.858   1.787  1.3369 -0.2929 -2.3092
12988TIP3   OH238908   4.980   1.946   3.533  0.8773 -0.1858 -0.1530
12988TIP3    H138909   4.920   1.910   3.468  1.4018 -0.0080 -0.7519
12988TIP3    H238910   4.925   1.997   3.593  0.5465  0.7281 -1.2142
12989TIP3   OH238911   7.728   4.373   5.300 -0.7657 -0.4880  0.6890
12989TIP3    H138912   7.785   4.443   5.267 -0.1385 -0.4821  1.7253
12989TIP3    H238913   7.643   4.391   5.261 -0.2344 -0.0573 -0.2994
12990TIP3   OH238914   5.736   6.043   3.820  0.3288  0.5749  0.2116
12990TIP3    H138915   5.733   6.117   3.760  0.5178  1.1723  0.9191
12990TIP3    H238916   5.816   6.058   3.872  0.6494 -0.3931  0.0213
12991TIP3   OH238917   2.014   6.688   5.829 -0.3115 -0.4655  0.2539
12991TIP3    H138918   2.057   6.684   5.743  1.4332 -0.0916  1.0730
12991TIP3    H238919   1.982   6.778   5.836  0.2736 -0.2581  0.3204
12992TIP3   OH238920   8.269   1.666   6.078 -0.4376 -0.6177 -0.2106
12992TIP3    H138921   8.274   1.642   5.986 -0.4167 -2.1006  0.1506
12992TIP3    H238922   8.358   1.653   6.112 -0.0736  1.3459 -0.2729
12993TIP3   OH238923   2.862   6.227   6.230 -0.2989 -0.4118  0.5677
12993TIP3    H138924   2.937   6.285   6.215 -0.9611  1.2556  2.9652
12993TIP3    H238925   2.788   6.273   6.189 -0.6414 -0.0519  1.5543
12994TIP3   OH238926   0.427   2.866   6.084 -0.2331  0.0953 -0.1725
12994TIP3    H138927   0.416   2.895   5.994  0.0448 -1.2442 -0.6548
12994TIP3    H238928   0.496   2.800   6.080  0.2781  0.5238  1.1326
12995TIP3   OH238929   6.556   4.180   2.232  0.2178  0.5663 -0.1084
12995TIP3    H138930   6.609   4.235   2.174 -0.9163  2.0778  0.2301
12995TIP3    H238931   6.543   4.233   2.311  0.8787 -1.0498  1.1426
12996TIP3   OH238932   3.943   4.668   3.018 -0.0581 -0.1680 -0.2901
12996TIP3    H138933   3.976   4.750   3.055  1.2009 -0.5995 -0.4131
12996TIP3    H238934   3.992   4.600   3.062 -1.8831 -0.9651  0.6268
12997TIP3   OH238935   0.449   6.060   5.753  0.4305 -0.4837 -0.4841
12997TIP3    H138936   0.407   6.143   5.735 -1.4157 -0.8098  1.8505
12997TIP3    H238937   0.465   6.061   5.847  4.3278 -1.0751 -0.9603
12998TIP3   OH238938   6.576   5.981   5.876  0.2246  0.5538  0.0120
12998TIP3    H138939   6.491   5.945   5.901 -0.0144  1.3052  0.3270
12998TIP3    H238940   6.636   5.948   5.944  0.0953  0.4046  0.0554
12999TIP3   OH238941   7.891   3.317   1.067 -0.4758  0.1062 -0.8244
12999TIP3    H138942   7.873   3.355   0.981  1.0719 -1.5667 -1.9593
12999TIP3    H238943   7.956   3.376   1.106 -0.7216  0.5291 -1.0470
13000TIP3   OH238944   3.415   5.413   5.801  0.8953 -0.2867 -0.3600
13000TIP3    H138945   3.444   5.504   5.794 -2.0489  0.8508  0.7969
13000TIP3    H238946   3.458   5.380   5.880  2.2077 -0.0488 -0.9449
13001TIP3   OH238947   2.672   1.108   3.105 -0.1352 -0.0806  0.0257
13001TIP3    H138948   2.707   1.194   3.130  1.5383 -1.1074  1.3814
13001TIP3    H238949   2.731   1.077   3.037 -0.7345 -0.1839 -0.4583
13002TIP3   OH238950   7.037   5.687   2.671  0.1810  0.7188  0.2440
13002TIP3    H138951   7.120   5.641   2.683  0.6317  1.0814 -1.3714
13002TIP3    H238952   7.052   5.747   2.598 -1.8162 -0.0360 -0.8744
13003TIP3   OH238953   7.371   5.179   5.751 -0.2246 -0.1962  0.3600
13003TIP3    H138954   7.424   5.187   5.671 -1.6129 -2.5969 -0.9072
13003TIP3    H238955   7.352   5.270   5.776  0.5570  0.6425 -1.8028
13004TIP3   OH238956   1.276   6.152   2.908  0.1217  0.1927  0.2512
13004TIP3    H138957   1.265   6.244   2.932  0.6729  0.0227  1.2012
13004TIP3    H238958   1.304   6.109   2.989  0.5995 -0.6737 -0.3585
13005TIP3   OH238959   6.925   1.701   2.097 -0.4881 -0.2804  0.2537
13005TIP3    H138960   6.856   1.726   2.035 -1.2548 -0.3922  1.0275
13005TIP3    H238961   6.995   1.763   2.082 -0.0666 -1.1538 -1.6819
13006TIP3   OH238962   2.933   1.010   2.207  0.0461 -0.2765 -0.1962
13006TIP3    H138963   2.853   1.052   2.176 -0.2816 -1.6913 -1.3535
13006TIP3    H238964   2.918   0.916   2.196  1.6915 -0.6011 -0.0290
13007TIP3   OH238965   5.534   3.241   5.562  0.0571  0.2080  0.4999
13007TIP3    H138966   5.463   3.237   5.499  1.2112 -0.2834 -0.8171
13007TIP3    H238967   5.565   3.332   5.557  1.8815 -0.4570 -1.6959
13008TIP3   OH238968   3.014   1.545   0.596  0.0757 -0.0442 -0.4429
13008TIP3    H138969   3.039   1.628   0.637  1.2050 -1.5006  1.9828
13008TIP3    H238970   3.059   1.478   0.647 -0.6812 -2.1743 -2.4280
13009TIP3   OH238971   0.945   0.301   0.784  0.0346  0.1656  0.0477
13009TIP3    H138972   0.919   0.213   0.758 -0.8480  0.6541 -0.8011
13009TIP3    H238973   0.981   0.340   0.705  2.2358 -0.0355  0.8664
13010TIP3   OH238974   7.491   7.268   5.978  0.3383 -0.2752  0.6407
13010TIP3    H138975   7.509   7.235   5.890 -2.6568 -1.4535  0.3579
13010TIP3    H238976   7.430   7.340   5.964  0.5665  0.1522  1.7325
13011TIP3   OH238977   4.757   0.193   6.183  0.7281  0.7872  0.2240
13011TIP3    H138978   4.704   0.192   6.263  0.9367  1.0626  0.3632
13011TIP3    H238979   4.723   0.267   6.133 -0.3445 -0.2001 -0.5776
13012TIP3   OH238980   4.356   1.272   0.596 -0.2722  0.6582 -0.0538
13012TIP3    H138981   4.416   1.206   0.632  0.0953  1.0807  0.1114
13012TIP3    H238982   4.270   1.229   0.597 -0.6023  1.1611  2.8498
13013TIP3   OH238983   5.526   1.253   2.349 -0.0847 -0.0477  0.4897
13013TIP3    H138984   5.438   1.225   2.376 -0.0045  0.3965  1.2232
13013TIP3    H238985   5.581   1.176   2.364 -0.3910 -0.4245 -0.2515
13014TIP3   OH238986   0.192   7.335   6.117  0.3358  0.2449  0.3830
13014TIP3    H138987   0.152   7.251   6.096  0.0720  0.3805  0.3341
13014TIP3    H238988   0.121   7.387   6.156 -0.3081  1.4353 -2.1405
13015TIP3   OH238989   4.734   0.338   2.663  0.4771  0.2509  0.4975
13015TIP3    H138990   4.737   0.401   2.735  0.1376 -0.4821  1.1697
13015TIP3    H238991   4.709   0.390   2.586  0.3561  0.9595  1.0071
13016TIP3   OH238992   4.318   0.259   6.259  0.2009 -0.0264 -0.0784
13016TIP3    H138993   4.285   0.296   6.177  0.5356  1.6157  0.4802
13016TIP3    H238994   4.247   0.205   6.292 -0.7391  0.9727 -0.4255
13017TIP3   OH238995   4.946   5.030   4.204  0.0790  0.3494 -0.3553
13017TIP3    H138996   4.932   5.096   4.136 -1.3351  0.9518  0.4680
13017TIP3    H238997   4.915   5.072   4.284 -0.3728 -1.1351  0.2837
13018TIP3   OH238998   5.467   7.125   3.020 -0.7328  0.0419 -0.2071
13018TIP3    H138999   5.537   7.062   3.006  1.1729  1.9040  0.4215
13018TIP3    H239000   5.433   7.144   2.932 -0.7249 -1.1565 -0.4791
13019TIP3   OH239001   0.678   0.916   0.431 -0.0247 -0.2047  0.2087
13019TIP3    H139002   0.618   0.982   0.464 -0.4622 -1.0880  1.2598
13019TIP3    H239003   0.688   0.936   0.338 -1.3234  0.4226  0.1861
13020TIP3   OH239004   3.374   6.939   6.499  0.1053  0.0255  0.3086
13020TIP3    H139005   3.312   6.965   6.431  2.1867  0.0833 -1.6973
13020TIP3    H239006   3.362   7.002   6.569 -0.8996  1.0726 -0.7687
13021TIP3   OH239007   6.796   2.107   2.882  0.0780  0.2518  0.1686
13021TIP3    H139008   6.881   2.111   2.925  0.8794 -0.6750 -1.2478
13021TIP3    H239009   6.740   2.058   2.942  0.7205  0.3177  0.8278
13022TIP3   OH239010   2.511   3.892   4.691 -0.2553 -0.4610 -0.8291
13022TIP3    H139011   2.500   3.799   4.673  1.4409 -0.7868 -0.3950
13022TIP3    H239012   2.593   3.897   4.741 -0.2550  1.2717 -0.9402
13023TIP3   OH239013   4.654   3.879   0.701  0.2227 -0.2766 -0.3445
13023TIP3    H139014   4.662   3.789   0.670 -1.0753 -0.0014 -1.5894
13023TIP3    H239015   4.638   3.930   0.622 -0.1080  0.8996  0.4599
13024TIP3   OH239016   1.691   6.919   2.130  0.0336 -0.2181  0.0681
13024TIP3    H139017   1.685   6.978   2.055  1.5899 -0.6476 -0.4250
13024TIP3    H239018   1.609   6.931   2.177 -2.5049 -2.3113 -3.4014
13025TIP3   OH239019   5.604   2.655   1.149 -0.1313 -0.2947  0.0401
13025TIP3    H139020   5.612   2.589   1.079 -0.9128  0.8596 -1.1779
13025TIP3    H239021   5.694   2.680   1.169  0.1088 -0.7887 -0.4095
13026TIP3   OH239022   1.631   6.759   4.601  0.1727 -0.0321  0.3062
13026TIP3    H139023   1.693   6.705   4.551  0.8426  0.7993  0.2071
13026TIP3    H239024   1.560   6.699   4.624  0.6714 -0.8393 -0.1928
13027TIP3   OH239025   0.849   6.884   1.252  0.2955  0.3681  0.0774
13027TIP3    H139026   0.818   6.829   1.180  1.0552 -1.8432  1.3578
13027TIP3    H239027   0.769   6.918   1.292 -0.1555  0.9606 -1.2516
13028TIP3   OH239028   6.938   1.234   5.620  0.0642 -0.4496 -0.0742
13028TIP3    H139029   6.890   1.310   5.654  1.6686  0.3165  0.5755
13028TIP3    H239030   6.919   1.235   5.526 -1.5052 -0.4319  0.2186
13029TIP3   OH239031   0.171   5.033   4.253  0.5733 -0.1845 -0.2063
13029TIP3    H139032   0.124   5.049   4.171 -1.4692 -1.2367  0.6752
13029TIP3    H239033   0.234   4.965   4.230 -0.4206 -0.9525 -0.8075
13030TIP3   OH239034   1.511   0.510   5.208 -0.0169 -0.2501  0.0851
13030TIP3    H139035   1.572   0.571   5.249  0.9036 -1.0508 -0.0835
13030TIP3    H239036   1.425   0.542   5.236  0.4920  0.4967  0.8708
13031TIP3   OH239037   2.511   4.669   4.293 -0.3821  0.3259  0.3805
13031TIP3    H139038   2.513   4.697   4.202  0.2057  2.4666  0.9826
13031TIP3    H239039   2.602   4.672   4.321 -0.1879 -2.7074  0.4587
13032TIP3   OH239040   0.505   6.064   0.070  0.0793 -0.2152 -0.2156
13032TIP3    H139041   0.551   6.140   0.032  1.5796 -1.3325 -0.7508
13032TIP3    H239042   0.522   5.993   0.008 -1.7581 -0.8757  0.0027
13033TIP3   OH239043   6.710   1.018   5.083 -0.0653  0.2072  0.4947
13033TIP3    H139044   6.732   1.017   4.990 -0.1188 -1.7611  0.4675
13033TIP3    H239045   6.687   1.109   5.101  1.3066  0.9167 -1.0798
13034TIP3   OH239046   6.554   4.063   3.543  0.6157  0.6112 -0.1010
13034TIP3    H139047   6.468   4.100   3.524  0.6930  0.0663 -1.6327
13034TIP3    H239048   6.578   4.100   3.628 -0.3277  2.2282 -0.5011
13035TIP3   OH239049   3.515   5.536   4.074 -0.1070 -0.5938 -0.1001
13035TIP3    H139050   3.558   5.617   4.101  0.7124 -1.3684  0.9988
13035TIP3    H239051   3.575   5.495   4.012 -0.3520 -0.5464 -0.3734
13036TIP3   OH239052   7.692   6.695   2.987  0.2667  0.2578  0.1171
13036TIP3    H139053   7.735   6.767   3.033 -0.8236  0.5857  0.6702
13036TIP3    H239054   7.736   6.616   3.019  0.1060  0.5454  1.0706
13037TIP3   OH239055   6.035   1.206   2.594 -0.2704 -0.1478 -0.1458
13037TIP3    H139056   6.118   1.161   2.607  0.2494  1.2089  1.6974
13037TIP3    H239057   6.059   1.299   2.591 -1.3789  0.1262 -3.0536
13038TIP3   OH239058   1.252   5.410   1.823  0.3178 -0.5772  0.1793
13038TIP3    H139059   1.193   5.366   1.883 -1.9042  1.7233 -0.1618
13038TIP3    H239060   1.250   5.358   1.743  0.4241 -1.6475  0.8612
13039TIP3   OH239061   0.312   4.071   2.132  0.3436 -0.2725  0.4608
13039TIP3    H139062   0.246   4.102   2.193 -2.0774  0.2010 -2.2069
13039TIP3    H239063   0.395   4.099   2.170 -1.1800  1.9771  2.3659
13040TIP3   OH239064   6.833   3.657   6.359 -0.3303 -0.0698 -0.3439
13040TIP3    H139065   6.825   3.565   6.333  0.0464 -0.5801  1.2737
13040TIP3    H239066   6.812   3.658   6.452 -0.0414  1.4508 -0.2653
13041TIP3   OH239067   0.860   7.167   4.878 -0.2652 -0.7207  0.4665
13041TIP3    H139068   0.910   7.247   4.863 -0.2944 -0.1650  2.9468
13041TIP3    H239069   0.777   7.197   4.916 -1.1860 -1.8269 -0.5790
13042TIP3   OH239070   0.890   2.506   1.860 -0.2074 -0.2952  0.2549
13042TIP3    H139071   0.868   2.427   1.910  1.1338 -1.2918 -0.6282
13042TIP3    H239072   0.894   2.475   1.769 -0.9938  1.1083 -0.2832
13043TIP3   OH239073   1.752   3.342   5.646  0.2051  0.2153  0.1011
13043TIP3    H139074   1.680   3.294   5.687 -0.0892  1.8925  1.6856
13043TIP3    H239075   1.807   3.274   5.608 -2.6112 -1.1218 -1.9862
13044TIP3   OH239076   3.890   0.191   5.610  0.2779 -0.5873 -0.1679
13044TIP3    H139077   3.839   0.238   5.676  2.1893 -0.4951  1.3325
13044TIP3    H239078   3.833   0.187   5.533 -0.3716  3.3477 -0.1013
13045TIP3   OH239079   3.488   3.167   5.393  0.9730 -0.7559 -0.1996
13045TIP3    H139080   3.497   3.116   5.312  1.6780  1.4831 -1.6263
13045TIP3    H239081   3.578   3.190   5.417  0.9525 -3.0059  2.4096
13046TIP3   OH239082   2.115   5.219   4.236  0.2667  0.0443  0.4738
13046TIP3    H139083   2.090   5.267   4.158  1.0522  0.1228  0.2584
13046TIP3    H239084   2.197   5.261   4.265  0.7889 -0.9496  0.4659
13047TIP3   OH239085   1.970   6.407   2.886 -0.2041  0.2363  0.3234
13047TIP3    H139086   1.956   6.429   2.978  0.9319 -0.3485  0.6632
13047TIP3    H239087   2.065   6.398   2.878 -0.4608 -3.1436 -0.0828
13048TIP3   OH239088   5.964   4.205   5.107 -0.0577  0.6102 -0.1286
13048TIP3    H139089   5.902   4.152   5.156  1.0087 -0.3652  0.2191
13048TIP3    H239090   5.917   4.287   5.089 -1.5612 -0.2485 -0.2531
13049TIP3   OH239091   1.108   4.569   4.758 -0.0067 -0.2627 -0.3645
13049TIP3    H139092   1.117   4.575   4.663 -3.5404 -0.2082 -0.8270
13049TIP3    H239093   1.121   4.476   4.777  2.3542 -0.0393 -0.5813
13050TIP3   OH239094   3.721   3.005   2.918  0.1934 -0.3118 -0.5076
13050TIP3    H139095   3.667   3.063   2.973  1.2345  0.6149 -0.4286
13050TIP3    H239096   3.658   2.945   2.878 -0.5489 -1.6330  2.3815
13051TIP3   OH239097   5.079   1.150   4.235  0.0223 -0.3197  0.2194
13051TIP3    H139098   5.152   1.119   4.289 -0.2114  0.6883  1.1448
13051TIP3    H239099   5.111   1.141   4.145  0.6523 -1.4497  0.5225
13052TIP3   OH239100   7.144   2.509   2.065 -0.8533 -0.3241 -0.0186
13052TIP3    H139101   7.101   2.428   2.039 -1.9768 -0.4652  2.0750
13052TIP3    H239102   7.103   2.576   2.010 -1.2847 -0.9089 -0.4323
13053TIP3   OH239103   6.088   0.951   5.250 -0.3385  0.5294  0.3206
13053TIP3    H139104   6.019   0.980   5.190 -1.0683 -0.2690  0.7498
13053TIP3    H239105   6.041   0.918   5.326  0.5562  0.8116  1.0133
13054TIP3   OH239106   6.027   6.104   5.148  0.1702 -0.0219 -0.3479
13054TIP3    H139107   5.980   6.037   5.198  0.6093  0.4979  0.7978
13054TIP3    H239108   5.958   6.157   5.108 -0.2499  0.3588  0.8115
13055TIP3   OH239109   7.995   0.785   4.032  0.1087 -0.3545  0.4085
13055TIP3    H139110   8.045   0.754   3.956  0.9990  0.2327  0.7365
13055TIP3    H239111   8.039   0.866   4.058 -1.4634  0.5749  0.2849
13056TIP3   OH239112   4.160   6.186   1.335  0.1754 -0.1646  0.1578
13056TIP3    H139113   4.122   6.265   1.296  0.7755 -0.2517 -0.6460
13056TIP3    H239114   4.086   6.141   1.376 -0.3649  0.2691 -0.3237
13057TIP3   OH239115   6.517   6.697   1.093 -0.2255 -0.4118  0.0417
13057TIP3    H139116   6.460   6.660   1.161 -1.2297  0.9725 -0.0221
13057TIP3    H239117   6.465   6.692   1.013 -0.2438  0.7883 -0.0315
13058TIP3   OH239118   5.344   0.676   4.588  0.1896 -0.0188  0.3478
13058TIP3    H139119   5.270   0.715   4.635  1.2743 -0.0122  2.1595
13058TIP3    H239120   5.318   0.585   4.575 -1.5168  0.7222 -2.1152
13059TIP3   OH239121   6.290   3.733   0.160  0.2544  0.5071 -0.5161
13059TIP3    H139122   6.220   3.709   0.221  1.8756 -1.1706  0.8321
13059TIP3    H239123   6.269   3.686   0.079  0.5364 -1.1996  0.3544
13060TIP3   OH239124   2.334   0.926   1.078  0.3072  0.2221  0.0933
13060TIP3    H139125   2.379   0.964   1.003 -0.6492  0.7887 -0.2038
13060TIP3    H239126   2.377   0.965   1.154  1.0656 -0.1120 -0.1493
13061TIP3   OH239127   2.583   5.708   0.596 -0.0075  0.1176  0.5268
13061TIP3    H139128   2.499   5.740   0.630 -0.7839 -1.0279 -0.2094
13061TIP3    H239129   2.558   5.645   0.528  1.4661 -0.1852  0.2323
13062TIP3   OH239130   5.481   4.380   0.176 -0.1668 -0.0521  0.1234
13062TIP3    H139131   5.566   4.387   0.131  0.5044 -0.0159  1.3679
13062TIP3    H239132   5.463   4.469   0.207 -1.5456  0.3466 -1.6262
13063TIP3   OH239133   6.743   3.819   4.151 -0.1786 -0.0100  0.2914
13063TIP3    H139134   6.732   3.725   4.136  1.3872 -0.2643  0.5693
13063TIP3    H239135   6.758   3.856   4.064  0.8467 -0.2729  0.3498
13064TIP3   OH239136   4.715   5.150   3.014 -0.7664  0.0143  0.0461
13064TIP3    H139137   4.645   5.116   2.958 -0.1579 -0.5861 -0.3546
13064TIP3    H239138   4.788   5.166   2.955  0.0482 -1.0781  0.7128
13065TIP3   OH239139   5.614   3.787   1.068 -0.1077  0.3175 -0.0533
13065TIP3    H139140   5.679   3.806   1.136 -1.2820  0.7489  0.9684
13065TIP3    H239141   5.536   3.758   1.116 -1.1149  1.0814 -1.1816
13066TIP3   OH239142   0.097   2.867   4.073  0.3413  0.4079  0.0587
13066TIP3    H139143   0.011   2.869   4.033  0.2683  2.6133  0.2191
13066TIP3    H239144   0.089   2.920   4.152  1.8738  0.8220 -0.0189
13067TIP3   OH239145   3.054   5.712   3.212 -0.2492 -0.4761 -0.2267
13067TIP3    H139146   2.986   5.646   3.197 -1.2074  0.7184 -1.4154
13067TIP3    H239147   3.070   5.750   3.126  1.6276 -0.4075  0.1239
13068TIP3   OH239148   2.009   0.874   1.381  0.1471 -0.5678  0.4831
13068TIP3    H139149   1.964   0.800   1.421 -0.3520 -0.4070  0.2357
13068TIP3    H239150   1.975   0.877   1.291  1.2795 -0.9563  0.0128
13069TIP3   OH239151   3.642   0.945   1.421  0.1625 -0.2509 -0.0359
13069TIP3    H139152   3.622   1.013   1.486 -0.7739 -0.5129 -0.0423
13069TIP3    H239153   3.587   0.871   1.445 -0.7124 -0.1296 -1.4970
13070TIP3   OH239154   6.577   6.480   4.208  0.9228 -0.1842  0.6022
13070TIP3    H139155   6.599   6.538   4.135 -0.8473 -0.2457 -0.0344
13070TIP3    H239156   6.507   6.526   4.255  0.4194 -1.1935  0.8728
13071TIP3   OH239157   3.476   4.490   2.218 -0.5151  1.1006 -0.0973
13071TIP3    H139158   3.410   4.424   2.198 -0.8360  0.3847  2.8342
13071TIP3    H239159   3.505   4.523   2.132 -1.6773 -1.4911 -1.5940
13072TIP3   OH239160   4.191   3.230   4.032  0.6822 -0.1395  0.1657
13072TIP3    H139161   4.138   3.274   3.965 -0.7084  0.4452  1.5608
13072TIP3    H239162   4.128   3.177   4.081  1.1576  1.1861  2.3966
13073TIP3   OH239163   6.025   4.540   3.257 -0.0562  0.5446  0.0336
13073TIP3    H139164   6.058   4.498   3.336  0.1850 -0.3744 -0.5422
13073TIP3    H239165   6.000   4.467   3.200 -2.7015  1.1640  0.2499
13074TIP3   OH239166   3.754   3.921   6.517  0.4605 -0.0833  0.0685
13074TIP3    H139167   3.734   4.012   6.536  1.7463  0.2213  0.0372
13074TIP3    H239168   3.814   3.894   6.586 -0.0080 -0.9579  0.1583
13075TIP3   OH239169   0.542   5.108   1.897  0.3342  0.0811 -0.5543
13075TIP3    H139170   0.621   5.054   1.901  1.6675  1.8008 -1.8831
13075TIP3    H239171   0.536   5.149   1.982  0.1324 -0.9888 -0.0297
13076TIP3   OH239172   2.307   7.106   3.245  0.1004  0.2808 -0.1715
13076TIP3    H139173   2.360   7.030   3.221 -0.1856 -0.0374  0.1847
13076TIP3    H239174   2.264   7.131   3.164  2.1535  1.6729 -0.9167
13077TIP3   OH239175   5.286   7.692   6.061 -0.0845 -0.2464  0.0938
13077TIP3    H139176   5.251   7.760   6.118 -0.9755 -0.7197  0.1250
13077TIP3    H239177   5.350   7.737   6.006 -1.5716  0.8735 -0.7732
13078TIP3   OH239178   1.996   4.080   4.754 -0.0572 -0.0310  0.1333
13078TIP3    H139179   2.075   4.131   4.764  0.4966 -1.0464  1.1088
13078TIP3    H239180   1.934   4.140   4.712  1.1716  0.8106 -0.5437
13079TIP3   OH239181   1.902   7.440   0.914  0.5929  0.0554  0.3005
13079TIP3    H139182   1.811   7.431   0.885 -0.5222  3.1321  2.3415
13079TIP3    H239183   1.954   7.432   0.834 -1.7272  1.1908 -1.4350
13080TIP3   OH239184   4.853   7.057   4.255 -0.0345 -0.3194  0.0813
13080TIP3    H139185   4.949   7.057   4.256  0.0289 -1.8505  2.4108
13080TIP3    H239186   4.829   7.135   4.306 -0.0559 -0.1116 -0.2376
13081TIP3   OH239187   1.698   6.990   6.019 -0.1948 -0.1716  0.1362
13081TIP3    H139188   1.700   7.049   5.943  1.9918  0.8125  0.8693
13081TIP3    H239189   1.706   6.903   5.981  0.4519  0.2810 -0.8156
13082TIP3   OH239190   5.186   5.427   1.846  0.4310 -0.9925  0.1576
13082TIP3    H139191   5.157   5.369   1.916 -0.8102 -0.7716 -0.1406
13082TIP3    H239192   5.271   5.459   1.875 -0.8837  0.6470  2.5461
13083TIP3   OH239193   7.619   1.695   5.741  0.2857 -0.0810 -0.0984
13083TIP3    H139194   7.526   1.695   5.720  0.1465  1.1776  0.3949
13083TIP3    H239195   7.658   1.631   5.681 -1.2709 -2.8680  1.6399
13084TIP3   OH239196   4.730   7.642   4.994  0.2499 -0.1817  0.3534
13084TIP3    H139197   4.825   7.651   5.003  0.1850  0.2268  0.6696
13084TIP3    H239198   4.697   7.732   4.995 -0.2057 -0.3439  1.0802
13085TIP3   OH239199   4.874   6.752   2.613 -0.8712 -0.1337 -0.4681
13085TIP3    H139200   4.824   6.671   2.606 -3.6957  1.3829  0.5885
13085TIP3    H239201   4.965   6.725   2.598 -1.6461 -3.4778 -0.0101
13086TIP3   OH239202   4.648   1.704   1.904 -0.2349 -0.6354 -0.1606
13086TIP3    H139203   4.618   1.629   1.852 -0.5379 -0.4135 -0.3125
13086TIP3    H239204   4.668   1.668   1.990 -0.1331 -0.9352 -0.3112
13087TIP3   OH239205   3.714   7.233   1.862  0.5593 -0.6758  0.0954
13087TIP3    H139206   3.786   7.267   1.914 -0.6240  0.6901  0.9138
13087TIP3    H239207   3.749   7.230   1.772  1.8747 -0.8436  0.5909
13088TIP3   OH239208   7.269   4.295   3.788 -0.2143 -0.5088 -0.0855
13088TIP3    H139209   7.323   4.300   3.867 -2.5603 -0.7751  1.6286
13088TIP3    H239210   7.281   4.205   3.757  1.2371 -0.2090 -0.4713
13089TIP3   OH239211   3.381   0.138   3.779 -1.0977  0.0609  0.4211
13089TIP3    H139212   3.374   0.105   3.689  0.7295  0.6247  0.0435
13089TIP3    H239213   3.343   0.068   3.832 -0.8582 -0.9337 -0.6747
13090TIP3   OH239214   5.981   2.833   2.784 -0.6402  0.1769 -0.4985
13090TIP3    H139215   5.954   2.837   2.692 -0.5999 -0.4650 -0.5449
13090TIP3    H239216   6.034   2.912   2.797 -0.1810 -0.0085 -1.1793
13091TIP3   OH239217   2.820   6.215   0.125  0.0425 -0.0129  0.1633
13091TIP3    H139218   2.781   6.130   0.147  0.7151 -0.2425  0.4961
13091TIP3    H239219   2.914   6.202   0.136  0.1287  0.8763  0.5445
13092TIP3   OH239220   2.593   7.415   2.659  0.5074  0.0775 -0.5708
13092TIP3    H139221   2.672   7.399   2.711  0.5943  1.6354 -0.1737
13092TIP3    H239222   2.544   7.334   2.664  2.3557 -1.1548 -1.3125
13093TIP3   OH239223   5.335   5.337   4.820  0.4604  0.1389 -0.2869
13093TIP3    H139224   5.328   5.287   4.738 -0.6982  0.3538 -0.3365
13093TIP3    H239225   5.352   5.427   4.792 -0.7429  0.3673 -0.3514
13094TIP3   OH239226   1.071   0.830   5.843 -0.0707 -0.0689 -0.0524
13094TIP3    H139227   0.992   0.840   5.895 -1.9797 -1.1126 -2.5726
13094TIP3    H239228   1.074   0.736   5.821  0.1541  0.4283 -2.4349
13095TIP3   OH239229   7.133   1.217   6.262  0.2319  0.5395 -0.1815
13095TIP3    H139230   7.070   1.256   6.201 -0.9928 -1.0802 -0.0063
13095TIP3    H239231   7.167   1.141   6.216  1.2519  0.7538  0.1827
13096TIP3   OH239232   0.918   3.966   6.693 -0.6965 -0.1646  0.2854
13096TIP3    H139233   0.851   4.029   6.719 -0.0540  0.8829 -0.5177
13096TIP3    H239234   1.001   4.010   6.710 -0.2121 -1.0751  0.3694
13097TIP3   OH239235   6.785   0.627   2.827  0.3313 -0.5003 -0.6805
13097TIP3    H139236   6.881   0.627   2.828  0.4710  0.8949  3.0362
13097TIP3    H239237   6.761   0.689   2.759  2.1269  0.0957 -0.8047
13098TIP3   OH239238   6.537   2.388   6.079 -0.0878 -0.2839 -0.1344
13098TIP3    H139239   6.567   2.327   6.011  2.2346  0.5967 -0.0005
13098TIP3    H239240   6.582   2.359   6.158  2.9196  2.7558 -0.5061
13099TIP3   OH239241   2.182   6.750   3.777 -0.9541  0.2749  0.1386
13099TIP3    H139242   2.273   6.719   3.784 -0.3474  1.9804  0.3536
13099TIP3    H239243   2.157   6.728   3.687 -0.4632 -0.5380  0.1857
13100TIP3   OH239244   0.291   7.131   2.445  0.0184 -0.4454  0.0336
13100TIP3    H139245   0.326   7.192   2.380  0.1113 -2.9274 -2.4950
13100TIP3    H239246   0.202   7.114   2.415  0.2591 -2.0820  0.1326
13101TIP3   OH239247   7.452   4.380   2.710 -0.0619 -0.2899 -0.0038
13101TIP3    H139248   7.473   4.472   2.696  1.5908 -0.4720  1.0092
13101TIP3    H239249   7.392   4.381   2.785 -1.4509  0.0539 -1.0936
13102TIP3   OH239250   2.999   1.103   0.699 -0.1263 -0.4420 -0.3563
13102TIP3    H139251   3.046   1.032   0.656  1.0943 -0.2325  0.5844
13102TIP3    H239252   2.956   1.150   0.627  0.3962 -1.1454 -1.1488
13103TIP3   OH239253   2.826   6.059   1.000  1.0745 -0.1205  0.0880
13103TIP3    H139254   2.761   6.031   1.065 -0.2923  2.5353  0.0245
13103TIP3    H239255   2.815   6.155   0.996  3.0246  0.0821 -2.0608
13104TIP3   OH239256   7.800   1.170   5.029  0.2648  0.4398  0.3398
13104TIP3    H139257   7.894   1.185   5.034  0.0587  1.5912  1.1694
13104TIP3    H239258   7.765   1.212   5.107 -1.0066  0.5580 -0.2750
13105TIP3   OH239259   1.601   4.101   6.421  0.0802  0.1246 -0.0902
13105TIP3    H139260   1.541   4.147   6.363 -0.6471  2.7706  2.4755
13105TIP3    H239261   1.685   4.144   6.408 -0.3494  1.5697  1.5146
13106TIP3   OH239262   5.986   4.141   3.204 -0.5523 -0.4340  0.4167
13106TIP3    H139263   6.015   4.194   3.129 -0.3616 -1.5099 -0.2828
13106TIP3    H239264   6.061   4.142   3.264 -0.4373 -0.1649  0.2703
13107TIP3   OH239265   5.841   0.449   4.486 -0.0385  0.3273 -0.1153
13107TIP3    H139266   5.901   0.376   4.475  0.2792  0.3212  1.4451
13107TIP3    H239267   5.755   0.409   4.490  0.2646 -0.2535  2.7135
13108TIP3   OH239268   6.891   7.156   1.937  0.1282 -0.1601  0.6417
13108TIP3    H139269   6.875   7.205   1.857 -0.6241 -1.0794  0.2154
13108TIP3    H239270   6.986   7.156   1.947  0.5590 -2.7333 -2.0356
13109TIP3   OH239271   1.650   4.345   5.284  0.0862 -0.2111 -0.0823
13109TIP3    H139272   1.647   4.414   5.351 -1.1262 -0.2039 -0.1254
13109TIP3    H239273   1.742   4.342   5.257  0.2211  1.1510  0.1675
13110TIP3   OH239274   4.323   3.340   6.338  0.8319  0.4252  0.1912
13110TIP3    H139275   4.234   3.315   6.363 -0.2421  1.8769 -1.8648
13110TIP3    H239276   4.341   3.287   6.260  1.5815  0.4757  0.3258
13111TIP3   OH239277   5.025   6.598   2.887 -0.1986  0.0758 -0.5397
13111TIP3    H139278   4.933   6.577   2.871  0.1257 -1.2003 -0.8243
13111TIP3    H239279   5.070   6.514   2.882  1.2304  0.8788 -2.0514
13112TIP3   OH239280   7.367   5.679   3.053 -0.1563  0.0075  0.0596
13112TIP3    H139281   7.434   5.650   3.115  2.5510  0.4868 -2.3892
13112TIP3    H239282   7.362   5.608   2.989 -0.6813  0.7502 -0.7462
13113TIP3   OH239283   4.483   4.988   4.627 -0.1825 -0.2688 -0.2049
13113TIP3    H139284   4.405   4.935   4.646  1.2442 -2.4822 -0.1072
13113TIP3    H239285   4.556   4.929   4.643  1.6981  2.4139  2.1209
13114TIP3   OH239286   5.232   0.841   1.404  0.2757 -0.1664 -0.1237
13114TIP3    H139287   5.308   0.806   1.450 -0.8061 -0.4071  1.5310
13114TIP3    H239288   5.182   0.764   1.377  0.6727 -0.0171 -1.3927
13115TIP3   OH239289   5.867   7.293   5.352 -0.5696  0.2818 -0.1130
13115TIP3    H139290   5.888   7.201   5.337 -3.3463 -0.2879 -1.0628
13115TIP3    H239291   5.921   7.317   5.427 -0.4277 -2.4095  0.7770
13116TIP3   OH239292   6.034   3.521   5.280 -0.5508 -0.2032 -0.1393
13116TIP3    H139293   5.976   3.480   5.344 -0.5958  0.0586 -0.0132
13116TIP3    H239294   6.015   3.475   5.198 -2.0591  0.8943 -0.4552
13117TIP3   OH239295   6.360   4.650   4.221  0.0516  0.2763  0.7665
13117TIP3    H139296   6.449   4.617   4.227  0.3135  0.5391 -1.1572
13117TIP3    H239297   6.365   4.725   4.162 -1.6889 -0.7279 -0.7577
13118TIP3   OH239298   7.625   2.459   0.214  0.0138  0.0252  0.0158
13118TIP3    H139299   7.554   2.399   0.194  0.1683 -0.3140  0.4602
13118TIP3    H239300   7.694   2.403   0.251  0.5725  0.3261 -0.5664
13119TIP3   OH239301   8.180   5.114   5.308 -0.3149  0.6509  0.2958
13119TIP3    H139302   8.151   5.203   5.329 -0.9310  0.3174  0.9355
13119TIP3    H239303   8.245   5.093   5.375 -1.1119  0.1629  0.9331
13120TIP3   OH239304   5.744   7.148   1.000 -0.2705  0.5102  0.0023
13120TIP3    H139305   5.834   7.178   0.989 -0.2774  0.0195 -1.6530
13120TIP3    H239306   5.751   7.053   1.008 -0.5293  0.6002  1.6514
13121TIP3   OH239307   4.067   6.562   0.959 -0.5676  0.0187  0.4176
13121TIP3    H139308   3.995   6.591   1.016 -0.2729 -0.4208  1.0331
13121TIP3    H239309   4.138   6.541   1.020  0.6625  2.0040 -0.2769
13122TIP3   OH239310   7.129   6.219   3.804 -0.0425 -0.0188  0.3279
13122TIP3    H139311   7.194   6.254   3.865  1.5829 -1.9666 -0.1746
13122TIP3    H239312   7.045   6.232   3.848  0.8505  0.9149  1.8306
13123TIP3   OH239313   1.206   6.813   3.785  0.1939 -0.2726 -0.8105
13123TIP3    H139314   1.219   6.728   3.743  1.5150 -0.4030 -0.1666
13123TIP3    H239315   1.252   6.875   3.729 -3.0364  0.5541 -2.8526
13124TIP3   OH239316   1.664   6.458   6.649  0.7128  0.2438 -0.4648
13124TIP3    H139317   1.601   6.483   6.581 -0.6736  2.0259  1.3721
13124TIP3    H239318   1.620   6.391   6.700  1.4250 -0.4847 -0.7820
13125TIP3   OH239319   6.230   0.127   2.629 -0.3662 -0.0741  0.2070
13125TIP3    H139320   6.175   0.172   2.566 -0.5240  1.2556  1.2477
13125TIP3    H239321   6.193   0.151   2.715  0.7990 -0.5285  0.8590
13126TIP3   OH239322   5.433   4.898   2.551  0.1296  0.1513  0.1398
13126TIP3    H139323   5.380   4.848   2.614  0.1220 -0.1722 -0.1197
13126TIP3    H239324   5.488   4.832   2.510 -0.7564  0.1586 -1.1042
13127TIP3   OH239325   7.075   1.407   0.324 -0.3782 -0.3624  0.3677
13127TIP3    H139326   7.052   1.491   0.362 -0.4888 -0.7592  1.1978
13127TIP3    H239327   7.075   1.346   0.398 -1.0384 -1.2419 -0.3257
13128TIP3   OH239328   6.281   2.137   0.069 -0.0115  0.3573 -0.0659
13128TIP3    H139329   6.281   2.042   0.058  3.3660  0.2352 -0.0180
13128TIP3    H239330   6.267   2.172  -0.019  1.4203 -0.2847 -0.5810
13129TIP3   OH239331   5.347   4.580   6.685 -0.6663 -0.4427  0.1789
13129TIP3    H139332   5.343   4.549   6.594 -0.2847 -0.5239  0.1895
13129TIP3    H239333   5.302   4.513   6.735 -0.3632 -0.6889  0.1243
13130TIP3   OH239334   1.555   1.760   5.049 -0.5494  0.6305 -0.3840
13130TIP3    H139335   1.588   1.822   4.983 -0.3604  1.5701  0.5492
13130TIP3    H239336   1.622   1.692   5.053 -0.0117  1.1386 -0.4025
13131TIP3   OH239337   4.247   4.320   3.399  0.9623  0.0370 -0.6385
13131TIP3    H139338   4.196   4.255   3.350 -1.4016 -0.6518  2.4400
13131TIP3    H239339   4.314   4.268   3.444 -0.6799 -0.3602  1.5075
13132TIP3   OH239340   4.205   0.819   2.865  1.2488 -0.0493  0.0093
13132TIP3    H139341   4.146   0.883   2.906  0.6854  0.5138 -1.6087
13132TIP3    H239342   4.244   0.866   2.792  0.0125 -1.8069 -1.9033
13133TIP3   OH239343   6.691   1.363   4.340 -0.2648  0.1165 -0.2519
13133TIP3    H139344   6.761   1.300   4.355  0.1562  0.9273  1.4802
13133TIP3    H239345   6.736   1.446   4.326 -0.7651  1.1009  3.0351
13134TIP3   OH239346   5.802   4.332   4.359  0.2274  0.2268 -0.3315
13134TIP3    H139347   5.878   4.378   4.323  0.5642 -1.9937 -2.7066
13134TIP3    H239348   5.839   4.259   4.407 -0.3688 -0.5297 -1.0020
13135TIP3   OH239349   0.545   0.014   5.454 -0.2559 -0.4026  0.7743
13135TIP3    H139350   0.626   0.028   5.504 -0.2752 -1.9715  1.3202
13135TIP3    H239351   0.511   0.102   5.437  0.0992  0.2272  2.9670
13136TIP3   OH239352   2.078   4.255   1.104  0.1971 -0.0477  0.0921
13136TIP3    H139353   2.116   4.292   1.024 -1.0148  0.0251 -0.4643
13136TIP3    H239354   2.076   4.329   1.165 -2.5911  1.0478 -1.1474
13137TIP3   OH239355   7.737   3.976   2.156  0.2736  0.5522 -0.1666
13137TIP3    H139356   7.730   3.888   2.192 -1.1523  1.6223  2.3937
13137TIP3    H239357   7.825   4.006   2.181 -0.1042  0.6834  1.0453
13138TIP3   OH239358   4.572   4.186   3.268  0.7658  0.4443 -0.2370
13138TIP3    H139359   4.595   4.111   3.214 -0.8181 -0.9815  0.9642
13138TIP3    H239360   4.536   4.250   3.207  1.9424  0.1597 -1.2508
13139TIP3   OH239361   2.529   1.577   4.705  0.2687  0.3017  0.1408
13139TIP3    H139362   2.565   1.501   4.660  2.4141  1.8641 -0.9567
13139TIP3    H239363   2.561   1.571   4.795 -0.0984 -0.4052  0.2245
13140TIP3   OH239364   6.057   5.998   5.715 -0.2937  0.0380  0.5818
13140TIP3    H139365   6.141   5.954   5.699 -1.4520 -1.8922 -0.5049
13140TIP3    H239366   6.082   6.082   5.755  2.1426 -0.4591  0.2887
13141TIP3   OH239367   2.043   7.117   2.690 -0.0849  0.1781  0.6872
13141TIP3    H139368   1.997   7.036   2.711 -0.2530  0.0538 -0.1022
13141TIP3    H239369   1.984   7.186   2.721 -0.0381  0.0056  1.1716
13142TIP3   OH239370   5.459   0.673   0.464  0.0374  0.4665 -0.2488
13142TIP3    H139371   5.440   0.683   0.557  0.0083  1.4300 -0.3487
13142TIP3    H239372   5.375   0.684   0.420 -0.0502 -0.5753 -0.3600
13143TIP3   OH239373   2.722   1.699   1.957  0.0912  0.3984  0.5308
13143TIP3    H139374   2.657   1.766   1.932  1.4344  1.7859  0.6015
13143TIP3    H239375   2.754   1.728   2.042 -3.6941 -3.7146  3.8292
13144TIP3   OH239376   2.076   7.374   4.039  0.0258 -0.1442  0.7042
13144TIP3    H139377   2.055   7.357   4.131 -0.8194 -0.4780  0.4635
13144TIP3    H239378   2.022   7.312   3.990  0.7489 -0.2332 -0.0106
13145TIP3   OH239379   6.876   7.716   4.348  0.5400 -0.8844 -0.3623
13145TIP3    H139380   6.956   7.767   4.332 -0.2902  1.1851  1.5780
13145TIP3    H239381   6.907   7.625   4.354  3.0806  0.0016  2.0513
13146TIP3   OH239382   3.465   0.727   2.748 -0.2094  0.4737 -0.5153
13146TIP3    H139383   3.511   0.696   2.826 -0.7416  2.6466  0.7494
13146TIP3    H239384   3.374   0.705   2.764  0.0323 -1.9400 -2.0577
13147TIP3   OH239385   7.012   2.225   5.901 -0.1560  0.6268  0.6781
13147TIP3    H139386   6.967   2.304   5.928 -2.9414 -0.1537 -1.1595
13147TIP3    H239387   7.068   2.252   5.828  0.5566  1.2176  1.4334
13148TIP3   OH239388   5.999   4.270   2.641  0.1642 -0.1679  0.3306
13148TIP3    H139389   6.046   4.205   2.694  0.4494  0.1417  0.4612
13148TIP3    H239390   5.988   4.345   2.700  0.7625  0.3011 -0.1365
13149TIP3   OH239391   2.893   5.378   4.129 -0.2293 -0.1458  0.0236
13149TIP3    H139392   2.866   5.468   4.147  0.0968  0.6880 -3.1161
13149TIP3    H239393   2.978   5.370   4.172 -0.7591  0.6392  1.2792
13150TIP3   OH239394   8.181   7.314   1.063 -0.0010  0.2444 -0.0992
13150TIP3    H139395   8.195   7.222   1.039  1.1335  0.3016  0.2784
13150TIP3    H239396   8.269   7.352   1.064 -0.4453  1.3033 -0.0954
13151TIP3   OH239397   3.803   7.432   1.071 -0.6108 -0.2261 -0.4551
13151TIP3    H139398   3.797   7.358   1.011 -0.2038 -1.9506  1.5066
13151TIP3    H239399   3.744   7.410   1.143  2.0261 -0.3866  1.8473
13152TIP3   OH239400   7.326   3.404   5.283 -0.0683  0.2846  0.2708
13152TIP3    H139401   7.392   3.346   5.322 -0.4818  0.3613  1.1125
13152TIP3    H239402   7.244   3.379   5.326 -0.3700  1.0268  0.1407
13153TIP3   OH239403   7.845   2.717   4.825 -0.5615  0.1010  0.1137
13153TIP3    H139404   7.798   2.686   4.747  0.4847  0.6419 -0.7589
13153TIP3    H239405   7.913   2.650   4.840  0.9161  1.2783 -1.0408
13154TIP3   OH239406   6.747   4.057   5.507 -0.6373 -0.4488  0.4388
13154TIP3    H139407   6.836   4.023   5.500 -0.2366  0.8229 -1.7117
13154TIP3    H239408   6.693   3.993   5.460 -0.8117 -0.9640  1.3139
13155TIP3   OH239409   6.985   7.255   6.154  0.3796  0.1054  0.6610
13155TIP3    H139410   6.957   7.230   6.242  0.7030 -0.5069  0.5935
13155TIP3    H239411   6.912   7.228   6.098  0.0727  0.7034  0.7583
13156TIP3   OH239412   4.890   2.954   3.549  0.0531  0.0263  0.2544
13156TIP3    H139413   4.862   2.928   3.461  0.6473  3.8545 -1.2426
13156TIP3    H239414   4.840   3.033   3.567  0.1341 -0.5168  3.3549
13157TIP3   OH239415   1.790   7.029   0.403  0.0824  0.2470  0.6046
13157TIP3    H139416   1.792   6.933   0.394  2.0508  0.1917  1.1834
13157TIP3    H239417   1.787   7.061   0.312  0.4160 -0.3738  0.3642
13158TIP3   OH239418   4.617   6.109   3.360  0.0412  0.3205 -0.0065
13158TIP3    H139419   4.708   6.082   3.375 -0.2028  0.3846  1.8577
13158TIP3    H239420   4.623   6.177   3.294  1.4230  0.7112  0.4774
13159TIP3   OH239421   1.426   1.986   0.402 -0.4430  0.6057 -0.1954
13159TIP3    H139422   1.423   2.081   0.390 -1.6946  0.3280 -2.5379
13159TIP3    H239423   1.343   1.954   0.367 -0.4290 -1.3135  1.3536
13160TIP3   OH239424   5.852   1.013   2.581  0.1685 -0.1019  0.0353
13160TIP3    H139425   5.922   1.069   2.550  0.6109 -0.3033  0.6474
13160TIP3    H239426   5.778   1.031   2.523  0.0733  1.6350  0.6431
13161TIP3   OH239427   5.385   7.094   1.617 -0.1183  0.0400 -0.2883
13161TIP3    H139428   5.432   7.171   1.585  0.0309 -0.1902 -0.6240
13161TIP3    H239429   5.416   7.082   1.707 -0.0793  0.3202 -0.2650
13162TIP3   OH239430   4.339   4.689   5.828 -0.6667 -0.3288 -0.4355
13162TIP3    H139431   4.283   4.612   5.830  2.1783 -2.5891 -0.7696
13162TIP3    H239432   4.384   4.688   5.913 -0.0948  0.5612 -0.7139
13163TIP3   OH239433   7.970   0.169   2.119  0.0671  0.1354  0.0546
13163TIP3    H139434   7.899   0.105   2.121  0.4363 -0.2685  0.6311
13163TIP3    H239435   7.971   0.202   2.029 -0.0392 -0.7717 -0.2844
13164TIP3   OH239436   4.491   0.057   6.636  0.1196  0.1803 -0.1408
13164TIP3    H139437   4.578   0.025   6.660  1.4882  1.8766 -2.3890
13164TIP3    H239438   4.440  -0.022   6.619  1.1618 -0.8564  1.3368
13165TIP3   OH239439   1.244   4.376   5.275  0.7650  0.0231 -0.3142
13165TIP3    H139440   1.287   4.381   5.190 -1.6430  3.5934 -1.5496
13165TIP3    H239441   1.156   4.343   5.255  0.1160  1.0603  0.6913
13166TIP3   OH239442   6.803   3.997   3.057 -0.5519 -0.2604  0.9784
13166TIP3    H139443   6.726   3.997   3.115 -0.6756 -0.3890  0.8130
13166TIP3    H239444   6.856   3.925   3.089 -0.4879 -0.1594  1.1057
13167TIP3   OH239445   6.292   5.806   6.563  0.3442  0.1210  0.0915
13167TIP3    H139446   6.311   5.760   6.481 -0.3193  0.0757 -0.0472
13167TIP3    H239447   6.354   5.878   6.566  0.3391  0.1507 -0.4761
13168TIP3   OH239448   6.415   2.707   5.035  0.4566 -0.1964 -0.1114
13168TIP3    H139449   6.342   2.729   5.092 -1.0903 -0.7297 -1.7958
13168TIP3    H239450   6.417   2.611   5.035 -0.2093 -0.2382 -1.6683
13169TIP3   OH239451   2.758   2.676   3.463 -0.0019 -0.3481 -0.0483
13169TIP3    H139452   2.670   2.664   3.501  0.2932 -0.7591  0.5397
13169TIP3    H239453   2.746   2.739   3.393 -0.6191  0.2909  0.6072
13170TIP3   OH239454   1.461   2.856   2.653  0.7131 -0.4212  0.0700
13170TIP3    H139455   1.481   2.923   2.588 -1.6197  0.6025  0.3208
13170TIP3    H239456   1.455   2.904   2.736 -3.1659 -0.4163 -0.0560
13171TIP3   OH239457   4.822   7.257   1.179  0.7470 -0.5392  0.0489
13171TIP3    H139458   4.889   7.219   1.122  1.6235 -0.9960  1.3392
13171TIP3    H239459   4.783   7.181   1.224 -0.1276 -0.2093 -0.1283
13172TIP3   OH239460   5.193   0.807   2.742  0.0029  0.1950  0.1554
13172TIP3    H139461   5.226   0.721   2.768  0.2184  0.5631  1.1345
13172TIP3    H239462   5.099   0.802   2.756  0.0140  0.1203  0.2029
13173TIP3   OH239463   1.150   5.638   6.047 -0.6944 -0.2973  0.1105
13173TIP3    H139464   1.076   5.695   6.067 -1.2746 -0.9622 -0.0948
13173TIP3    H239465   1.197   5.629   6.131 -0.4448  0.6719  0.0832
13174TIP3   OH239466   3.226   1.127   0.326 -0.2137 -0.1036  0.1698
13174TIP3    H139467   3.304   1.123   0.381  0.1502  0.5780 -0.2865
13174TIP3    H239468   3.182   1.208   0.353  1.1235  1.4694 -2.0242
13175TIP3   OH239469   0.132   3.643   5.232 -0.2880  0.0067 -0.4785
13175TIP3    H139470   0.118   3.645   5.137 -1.2786 -2.2784 -0.4474
13175TIP3    H239471   0.219   3.604   5.242 -0.3725 -0.1707 -0.4392
13176TIP3   OH239472   4.639   4.740   0.279  0.3640 -0.5048  0.3229
13176TIP3    H139473   4.662   4.686   0.355  0.9820 -2.9221 -1.4536
13176TIP3    H239474   4.722   4.760   0.237 -0.0390 -0.2243 -0.3621
13177TIP3   OH239475   4.583   4.811   1.976  0.1775 -0.2376 -0.2851
13177TIP3    H139476   4.645   4.878   2.006 -2.0724  2.1882 -0.6599
13177TIP3    H239477   4.597   4.805   1.881 -0.0113  0.1794 -0.3421
13178TIP3   OH239478   7.838   3.066   2.654 -0.1372 -0.2853 -0.1956
13178TIP3    H139479   7.856   3.061   2.560 -1.2156 -0.2820 -0.4093
13178TIP3    H239480   7.909   3.121   2.689 -1.1675  1.9684 -1.4170
13179TIP3   OH239481   6.538   3.805   4.723 -0.0389 -0.1007 -0.5140
13179TIP3    H139482   6.507   3.789   4.812 -0.3180 -0.0620 -0.6032
13179TIP3    H239483   6.633   3.815   4.732  0.3479 -2.8365 -0.5837
13180TIP3   OH239484   0.066   2.377   2.237 -0.1828 -0.4788  0.4892
13180TIP3    H139485   0.031   2.301   2.190 -0.8123 -0.1718  0.4489
13180TIP3    H239486   0.134   2.412   2.179  0.0155 -0.9326  0.4480
13181TIP3   OH239487   2.489   3.215   3.859  0.0888 -0.2418  0.0212
13181TIP3    H139488   2.530   3.300   3.840 -0.7000  0.2178  0.3381
13181TIP3    H239489   2.447   3.227   3.943  1.0665 -1.3659  0.7086
13182TIP3   OH239490   4.383   5.326   1.064  0.3661  0.0817  0.0073
13182TIP3    H139491   4.303   5.378   1.070 -2.6345 -4.0573  0.4699
13182TIP3    H239492   4.411   5.314   1.155 -0.4976 -1.0514  0.1575
13183TIP3   OH239493   7.414   4.331   4.753 -0.3589 -0.0029  0.0819
13183TIP3    H139494   7.464   4.340   4.672  0.0194  2.4830  0.4902
13183TIP3    H239495   7.409   4.421   4.787 -2.8164 -0.5805  1.4399
13184TIP3   OH239496   4.735   1.977   0.937  0.0622  0.2105 -0.4757
13184TIP3    H139497   4.734   2.007   1.028 -1.5185 -0.0694 -0.3561
13184TIP3    H239498   4.675   1.902   0.937  2.2902 -1.6721 -1.1658
13185TIP3   OH239499   5.881   2.499   0.437  0.4588 -0.5063 -0.0717
13185TIP3    H139500   5.837   2.578   0.406  0.3417 -0.7687 -0.5813
13185TIP3    H239501   5.845   2.429   0.384  1.0542 -0.8108 -0.0797
13186TIP3   OH239502   5.159   5.494   6.492 -0.4952  0.2611  0.1991
13186TIP3    H139503   5.187   5.403   6.494  0.8973  0.6104 -0.9201
13186TIP3    H239504   5.069   5.492   6.459 -0.2299 -0.6699 -0.4925
13187TIP3   OH239505   8.232   0.052   6.228  0.0185  0.7664 -0.6192
13187TIP3    H139506   8.258   0.138   6.260  0.4925  0.0485  1.0601
13187TIP3    H239507   8.138   0.060   6.210 -0.2368  1.3117  0.7755
13188TIP3   OH239508   2.540   5.475   1.193  0.1615  0.7258 -0.1210
13188TIP3    H139509   2.555   5.467   1.099 -1.7906  1.4237 -0.5463
13188TIP3    H239510   2.551   5.569   1.210  1.1979  0.4950  0.4841
13189TIP3   OH239511   4.054   2.344   0.216 -0.3809  0.4378 -0.4309
13189TIP3    H139512   3.994   2.346   0.142 -0.6421  0.6931 -0.2172
13189TIP3    H239513   4.075   2.252   0.228 -0.8740  0.3282 -0.3932
13190TIP3   OH239514   0.926   5.623   6.327 -0.1544 -0.0984 -0.4796
13190TIP3    H139515   0.938   5.661   6.240 -0.7335 -0.3872 -0.6961
13190TIP3    H239516   0.916   5.529   6.310  0.1880 -0.2179 -0.0531
13191TIP3   OH239517   0.460   1.910   1.913 -0.1699 -0.1302 -0.3778
13191TIP3    H139518   0.529   1.864   1.960 -0.8036 -0.6027  0.1254
13191TIP3    H239519   0.505   1.973   1.858  0.6209  0.1703  0.5836
13192TIP3   OH239520   3.194   3.201   0.282 -0.3405 -0.2866  0.0822
13192TIP3    H139521   3.214   3.212   0.189 -1.5669 -1.8714 -0.4190
13192TIP3    H239522   3.265   3.146   0.315 -0.4284 -0.5575 -0.1688
13193TIP3   OH239523   4.093   4.581   6.111 -0.0232  0.0092  0.1779
13193TIP3    H139524   4.114   4.512   6.047 -2.3296  1.0734 -1.9192
13193TIP3    H239525   4.038   4.537   6.176 -1.0076 -0.3185 -0.8351
13194TIP3   OH239526   3.034   6.961   4.441  0.1280 -0.1793 -0.2440
13194TIP3    H139527   2.943   6.942   4.417  0.0334 -0.4821  0.3480
13194TIP3    H239528   3.042   7.055   4.430 -0.5280 -0.0120  0.5873
13195TIP3   OH239529   3.013   4.927   2.488 -0.1211  0.0774 -0.2995
13195TIP3    H139530   3.103   4.923   2.457  0.1524  2.2197  0.0453
13195TIP3    H239531   3.016   4.989   2.561 -1.6477 -0.8638  0.6054
13196TIP3   OH239532   3.505   3.306   4.058 -0.3013  0.1530  0.0099
13196TIP3    H139533   3.598   3.296   4.036 -0.4201  0.6623 -0.7488
13196TIP3    H239534   3.504   3.380   4.120 -0.0099 -1.0436  1.4989
13197TIP3   OH239535   6.454   0.487   5.698  0.1411 -0.3636 -0.0893
13197TIP3    H139536   6.478   0.490   5.606 -1.5565  1.7763 -0.5616
13197TIP3    H239537   6.513   0.551   5.740  0.0485 -0.3796  0.0663
13198TIP3   OH239538   6.957   0.996   3.942  0.3145  0.0607 -0.8838
13198TIP3    H139539   6.932   1.083   3.972 -0.1891 -0.0489 -0.9826
13198TIP3    H239540   6.922   0.990   3.853  0.2296 -0.2943 -0.8283
13199TIP3   OH239541   8.267   1.630   6.719 -0.4205 -0.1585 -0.3363
13199TIP3    H139542   8.290   1.538   6.727  0.2230  0.0256 -0.0249
13199TIP3    H239543   8.255   1.660   6.810 -0.8554  0.0039 -0.4468
13200TIP3   OH239544   6.241   5.623   0.751 -0.0088 -0.4165 -0.0377
13200TIP3    H139545   6.290   5.585   0.824  0.7640  0.5520 -0.0293
13200TIP3    H239546   6.308   5.660   0.694 -0.6391 -0.6924 -0.9813
13201TIP3   OH239547   1.807   1.003   4.885  0.2953  0.0224  0.1900
13201TIP3    H139548   1.870   1.038   4.948  0.8247 -1.8224  0.7407
13201TIP3    H239549   1.764   1.080   4.849  2.5932  1.3256  0.0611
13202TIP3   OH239550   3.509   3.501   1.579  0.1631  0.0736  0.4639
13202TIP3    H139551   3.554   3.554   1.513 -1.9116 -1.7545 -2.6747
13202TIP3    H239552   3.579   3.449   1.620  1.5920  1.7313  0.2682
13203TIP3   OH239553   4.159   3.455   2.160  0.6220  0.6841  0.3666
13203TIP3    H139554   4.085   3.397   2.142  1.9031 -1.7355  2.1409
13203TIP3    H239555   4.178   3.498   2.077 -2.8574  1.6286 -0.0922
13204TIP3   OH239556   3.014   6.177   6.586 -0.2274  0.0752 -0.2696
13204TIP3    H139557   3.077   6.151   6.519 -1.8214 -1.5390 -1.2447
13204TIP3    H239558   3.067   6.211   6.657  1.7467 -1.2408 -1.0255
13205TIP3   OH239559   8.121   1.297   5.897 -0.4974  0.2060 -0.0793
13205TIP3    H139560   8.051   1.257   5.846 -0.1852 -0.9536  0.3822
13205TIP3    H239561   8.174   1.224   5.927 -0.0171  0.9556  0.9554
13206TIP3   OH239562   7.719   0.070   3.146 -0.3956  0.1789  0.0879
13206TIP3    H139563   7.711   0.001   3.079 -0.0939 -0.1604  0.3980
13206TIP3    H239564   7.641   0.124   3.133 -1.7860 -1.4539  1.2387
13207TIP3   OH239565   5.599   3.830   1.491  0.5826 -0.2678 -0.5282
13207TIP3    H139566   5.647   3.862   1.415 -1.0989  0.3376 -1.3951
13207TIP3    H239567   5.542   3.903   1.516  1.5001 -0.2342  1.7072
13208TIP3   OH239568   7.809   0.874   5.175 -0.0249 -0.2573  0.3173
13208TIP3    H139569   7.822   0.839   5.263  0.3896 -0.6213  0.1104
13208TIP3    H239570   7.820   0.968   5.186  0.6132 -0.3505  0.5519
13209TIP3   OH239571   4.202   6.871   2.380  0.1767 -0.0157 -0.2315
13209TIP3    H139572   4.181   6.916   2.298 -0.6675 -0.7605 -0.4358
13209TIP3    H239573   4.150   6.791   2.378 -0.6713  0.4431  1.5086
13210TIP3   OH239574   5.957   3.109   2.224  0.2128 -0.0152  0.3631
13210TIP3    H139575   5.885   3.053   2.252  1.2026 -1.2856  0.4694
13210TIP3    H239576   6.020   3.106   2.296 -0.1820  2.1775  0.8653
13211TIP3   OH239577   0.500   5.373   3.420  0.4443 -0.6917 -0.0477
13211TIP3    H139578   0.438   5.378   3.493  1.3404 -0.5043  0.7085
13211TIP3    H239579   0.457   5.423   3.350 -0.1533 -0.3673  0.5382
13212TIP3   OH239580   2.135   2.589   0.652  0.1597 -0.3836  0.4670
13212TIP3    H139581   2.130   2.670   0.602 -1.0497 -1.2987 -0.9999
13212TIP3    H239582   2.194   2.533   0.600 -0.0156 -0.8648  0.7799
13213TIP3   OH239583   5.657   4.770   4.087  0.0969  0.0598 -0.0492
13213TIP3    H139584   5.744   4.734   4.071  0.1964  0.6574 -0.9474
13213TIP3    H239585   5.652   4.782   4.182 -0.2227 -2.9585  0.4252
13214TIP3   OH239586   7.692   7.537   2.036 -0.0132 -0.7344  0.7573
13214TIP3    H139587   7.618   7.511   1.980 -0.2351  1.7644 -0.2718
13214TIP3    H239588   7.667   7.509   2.124 -2.1417 -0.1696  0.3937
13215TIP3   OH239589   4.439   4.407   1.747  0.3815  0.2572 -0.2159
13215TIP3    H139590   4.508   4.378   1.806 -1.3932  0.0814  1.9156
13215TIP3    H239591   4.360   4.364   1.780 -1.0069  1.5765 -1.6486
13216TIP3   OH239592   1.628   1.272   3.234  0.1275  0.0289 -0.7128
13216TIP3    H139593   1.626   1.254   3.328 -2.5034 -1.2463 -0.9208
13216TIP3    H239594   1.689   1.207   3.199 -1.3694 -1.7524 -0.2025
13217TIP3   OH239595   7.312   5.081   0.430  0.2253 -0.0068 -0.7337
13217TIP3    H139596   7.264   5.055   0.352 -0.5107  0.1972 -0.3591
13217TIP3    H239597   7.245   5.118   0.488  0.7993  0.0713 -0.1103
13218TIP3   OH239598   0.944   1.371   0.953 -0.2810  0.1643 -0.7276
13218TIP3    H139599   0.976   1.406   1.036 -0.1236 -0.5684 -0.4747
13218TIP3    H239600   0.850   1.357   0.967 -0.5991  1.6232 -1.2319
13219TIP3   OH239601   6.149   5.000   1.197 -0.4643  0.5376 -0.3889
13219TIP3    H139602   6.139   4.991   1.102  0.6955  0.0500 -0.4777
13219TIP3    H239603   6.156   5.094   1.212 -1.9804  0.7211 -0.6223
13220TIP3   OH239604   6.143   3.074   4.987  0.3007 -0.2592  0.1307
13220TIP3    H139605   6.228   3.106   5.018 -0.4312 -0.3967  2.5120
13220TIP3    H239606   6.119   3.006   5.050 -1.5398 -0.2895 -0.5289
13221TIP3   OH239607   6.276   3.657   2.838  0.0940  0.3331  0.1065
13221TIP3    H139608   6.199   3.652   2.894 -0.1957 -0.8041 -0.3660
13221TIP3    H239609   6.291   3.567   2.809 -0.9126  1.0595 -3.1726
13222TIP3   OH239610   1.564   1.147   0.502 -0.5335 -0.4091 -0.2859
13222TIP3    H139611   1.572   1.220   0.564  1.0512 -0.9519  0.1903
13222TIP3    H239612   1.470   1.132   0.495 -0.9182  1.6800 -0.4016
13223TIP3   OH239613   1.923   0.330   0.961  0.1283  0.0233 -0.2532
13223TIP3    H139614   2.017   0.317   0.973  0.2733  0.7649 -0.5223
13223TIP3    H239615   1.912   0.342   0.866 -0.4999 -1.9934 -0.4740
13224TIP3   OH239616   7.394   1.636   4.838 -0.1647 -0.3523 -0.0109
13224TIP3    H139617   7.389   1.604   4.747  1.7530  0.9852 -0.6407
13224TIP3    H239618   7.336   1.578   4.886  0.5522 -2.6181 -1.6850
13225TIP3   OH239619   3.839   7.652   2.675  0.6484 -0.2044 -0.2654
13225TIP3    H139620   3.817   7.743   2.692 -0.2859 -0.3953 -0.3737
13225TIP3    H239621   3.933   7.652   2.659  0.7497  0.6562  0.2829
13226TIP3   OH239622   5.486   6.201   0.188  0.0833 -0.0238 -0.4961
13226TIP3    H139623   5.478   6.223   0.095  1.0899 -0.8870 -0.8090
13226TIP3    H239624   5.580   6.184   0.200 -0.0196  0.2120  0.7158
13227TIP3   OH239625   2.662   5.212   3.625 -0.2298  0.0914 -0.4745
13227TIP3    H139626   2.614   5.195   3.544 -1.6994 -0.9350  0.5724
13227TIP3    H239627   2.654   5.131   3.675 -0.1562  1.0406  1.1118
13228TIP3   OH239628   4.848   4.464   5.348  0.0076 -0.2676 -0.1341
13228TIP3    H139629   4.814   4.444   5.435  0.6294 -0.5275  0.0558
13228TIP3    H239630   4.809   4.548   5.326 -0.1768 -0.2126  0.3842
13229TIP3   OH239631   5.958   4.124   1.977 -0.0113 -0.2738  1.0637
13229TIP3    H139632   5.927   4.158   1.892  1.0081 -1.7615  0.0519
13229TIP3    H239633   6.053   4.129   1.971  0.1616 -2.6597  1.1039
13230TIP3   OH239634   0.612   4.063   1.476  0.4956  0.2668  0.1270
13230TIP3    H139635   0.642   4.008   1.403  0.9879 -0.7172  1.0559
13230TIP3    H239636   0.526   4.094   1.447 -0.2225 -1.7388 -0.0605
13231TIP3   OH239637   3.052   3.529   3.115  0.5334  0.9033  0.2245
13231TIP3    H139638   3.044   3.522   3.210  0.6704 -0.0469  0.1751
13231TIP3    H239639   3.118   3.597   3.101  1.7969 -0.1594  0.8551
13232TIP3   OH239640   2.421   6.134   0.996  0.0536 -0.3749  0.3005
13232TIP3    H139641   2.434   6.228   0.987  0.9690 -0.5361 -0.2312
13232TIP3    H239642   2.496   6.105   1.048  1.3311 -1.1682 -1.8171
13233TIP3   OH239643   3.225   3.999   6.322 -0.3677 -0.4970 -0.0331
13233TIP3    H139644   3.308   4.045   6.327 -0.4070 -0.3591 -0.5460
13233TIP3    H239645   3.167   4.047   6.380 -0.2317 -0.2823 -0.0736
13234TIP3   OH239646   2.003   1.817   1.285  0.0589 -0.2687  0.5659
13234TIP3    H139647   1.937   1.818   1.216 -0.8002 -0.0222  1.3719
13234TIP3    H239648   2.082   1.784   1.242 -0.2207  0.6795 -0.7375
13235TIP3   OH239649   7.240   2.033   4.275  0.2413  0.3786  0.1008
13235TIP3    H139650   7.217   1.940   4.269 -4.3770  1.3247 -0.6968
13235TIP3    H239651   7.320   2.041   4.224  1.0704 -3.1839  0.5769
13236TIP3   OH239652   1.137   0.882   1.842  0.4854  0.2964 -0.0976
13236TIP3    H139653   1.051   0.870   1.882 -0.0301  0.3006 -1.1670
13236TIP3    H239654   1.125   0.956   1.782  1.2190  0.2671 -0.2891
13237TIP3   OH239655   0.148   0.767   2.529 -0.0810  0.7636  0.5773
13237TIP3    H139656   0.187   0.760   2.442 -0.3898  0.1640  0.4869
13237TIP3    H239657   0.057   0.790   2.513 -0.2529  0.2007  0.7243
13238TIP3   OH239658   4.183   2.211   1.099 -0.0221 -0.4495 -0.1789
13238TIP3    H139659   4.157   2.303   1.098  0.5240 -0.2925 -0.5555
13238TIP3    H239660   4.269   2.211   1.140  0.5717 -0.6218 -1.3831
13239TIP3   OH239661   0.936   5.439   2.634  0.1306  0.4229  0.3846
13239TIP3    H139662   0.899   5.375   2.694  0.4122 -0.3319 -0.2139
13239TIP3    H239663   1.016   5.469   2.677  0.2486  0.0026  0.4691
13240TIP3   OH239664   3.987   6.293   0.855  0.0477 -0.0648  0.1386
13240TIP3    H139665   4.048   6.350   0.809  0.2582  0.6404  1.2789
13240TIP3    H239666   4.038   6.215   0.877 -0.2340 -0.7370 -1.3895
13241TIP3   OH239667   3.732   2.918   4.317 -0.0657  0.3107 -0.4212
13241TIP3    H139668   3.643   2.885   4.307  0.0425  0.1913 -1.0334
13241TIP3    H239669   3.754   2.954   4.231  0.2894  0.8129 -0.1271
13242TIP3   OH239670   7.767   1.049   1.694  0.5421  0.1963 -0.3684
13242TIP3    H139671   7.834   0.987   1.666 -1.6009 -2.0065 -0.9527
13242TIP3    H239672   7.685   1.014   1.659 -1.2571  1.5416  2.1379
13243TIP3   OH239673   4.860   3.260   5.515 -0.3991 -0.3273 -0.0227
13243TIP3    H139674   4.832   3.278   5.604  2.3306 -0.7835  1.0117
13243TIP3    H239675   4.934   3.201   5.524  0.0607 -0.2658 -2.5892
13244TIP3   OH239676   5.670   1.837   1.116  0.2821  0.6481  0.3419
13244TIP3    H139677   5.606   1.907   1.105  0.3409  0.7520  0.6550
13244TIP3    H239678   5.638   1.787   1.191 -0.5798 -0.5604 -0.7945
13245TIP3   OH239679   0.262   6.144   2.650 -0.3257 -0.2343  0.1668
13245TIP3    H139680   0.354   6.170   2.656 -0.4942  0.0699  2.2505
13245TIP3    H239681   0.265   6.054   2.618  0.7165 -0.2717  0.3317
13246TIP3   OH239682   7.689   1.016   2.264  0.6121 -0.0434 -0.4883
13246TIP3    H139683   7.642   1.070   2.200  2.7195  0.9158 -1.3173
13246TIP3    H239684   7.641   0.933   2.265 -2.1273  1.4370  0.0851
13247TIP3   OH239685   4.936   6.979   6.576  0.4054  0.1782 -0.3690
13247TIP3    H139686   5.020   6.969   6.532 -0.3014  0.2090 -1.7799
13247TIP3    H239687   4.874   6.930   6.523 -0.5487  0.4601  0.4353
13248TIP3   OH239688   3.080   6.057   4.580  0.1920  0.4884  0.3435
13248TIP3    H139689   3.018   5.997   4.622  0.0412  0.6277  0.3189
13248TIP3    H239690   3.091   6.021   4.492 -1.3780  1.5636 -0.3316
13249TIP3   OH239691   2.794   4.252   3.973 -0.4704  0.4713  0.5225
13249TIP3    H139692   2.811   4.158   3.968  1.0172  0.7423 -0.8202
13249TIP3    H239693   2.734   4.263   4.046 -1.6950 -1.6460 -0.0801
13250TIP3   OH239694   0.463   7.347   6.081  0.0877 -0.3927  0.2060
13250TIP3    H139695   0.377   7.330   6.120  1.0096 -1.4740  1.8832
13250TIP3    H239696   0.492   7.262   6.049  0.4013  0.0275 -0.6369
13251TIP3   OH239697   2.856   6.584   4.647  0.1118 -0.1374 -0.4646
13251TIP3    H139698   2.910   6.529   4.589  1.9793  1.4934 -0.3849
13251TIP3    H239699   2.861   6.541   4.732  0.2117 -0.7099 -0.7542
13252TIP3   OH239700   0.353   5.283   4.268  0.6722  0.7007 -0.8901
13252TIP3    H139701   0.285   5.219   4.289 -0.5851  1.8496 -1.3448
13252TIP3    H239702   0.419   5.271   4.335  0.6925 -1.3779 -1.2125
13253TIP3   OH239703   5.550   2.493   3.114 -0.0095 -0.1258  0.1888
13253TIP3    H139704   5.538   2.573   3.062 -1.0289 -0.5537 -0.2601
13253TIP3    H239705   5.469   2.487   3.166  0.4302 -0.4120  0.8449
13254TIP3   OH239706   8.269   0.869   5.646  0.3443  0.5657 -0.4764
13254TIP3    H139707   8.353   0.915   5.641 -0.0813  1.9189  2.6735
13254TIP3    H239708   8.206   0.931   5.611  0.3696  0.2944 -1.0285
13255TIP3   OH239709   6.503   7.760   3.166 -0.2449  0.0044 -1.0048
13255TIP3    H139710   6.506   7.688   3.104  0.2414  0.9431 -2.1118
13255TIP3    H239711   6.516   7.719   3.251 -2.5942 -1.5372 -1.2998
13256TIP3   OH239712   0.846   1.763   3.903 -0.2661  0.6939 -0.2438
13256TIP3    H139713   0.883   1.765   3.814 -0.6685  1.1947 -0.4061
13256TIP3    H239714   0.763   1.809   3.895 -0.2471  0.8516  0.4199
13257TIP3   OH239715   3.032   6.723   2.636  0.3175  0.0557  0.4490
13257TIP3    H139716   2.967   6.782   2.599 -1.2320 -1.0371  1.3272
13257TIP3    H239717   3.090   6.702   2.562  0.5119  2.0668 -0.0384
13258TIP3   OH239718   0.377   5.645   3.004  0.1830 -0.0624 -0.1055
13258TIP3    H139719   0.383   5.562   2.956  0.1554 -0.3171  0.3306
13258TIP3    H239720   0.295   5.684   2.973 -0.6048 -0.9222  0.8292
13259TIP3   OH239721   0.674   5.226   2.330  0.2749 -1.0319  0.5605
13259TIP3    H139722   0.739   5.295   2.330  0.3533 -1.1048  0.6740
13259TIP3    H239723   0.622   5.242   2.409  0.2986 -1.1058  0.5916
13260TIP3   OH239724   5.344   5.548   5.948 -0.4128 -0.1608 -0.2596
13260TIP3    H139725   5.329   5.454   5.950 -0.3325 -0.1741 -0.2976
13260TIP3    H239726   5.258   5.585   5.925 -0.2628 -0.2724 -1.0383
13261TIP3   OH239727   5.437   1.572   5.383 -0.5227  0.3556  0.2179
13261TIP3    H139728   5.396   1.570   5.470 -0.0798  0.6826  0.4363
13261TIP3    H239729   5.526   1.605   5.399 -0.0630 -0.6529 -0.2091
13262TIP3   OH239730   6.578   0.449   3.597  0.2761 -0.0367 -0.2369
13262TIP3    H139731   6.634   0.385   3.551 -1.0633 -1.2401 -0.2576
13262TIP3    H239732   6.583   0.423   3.689 -0.0257  0.0285 -0.2030
13263TIP3   OH239733   4.513   5.356   2.669 -0.0378 -0.5712  0.0091
13263TIP3    H139734   4.567   5.347   2.591  0.4534  1.6902  0.0138
13263TIP3    H239735   4.534   5.444   2.702 -2.7523 -0.1259  0.7540
13264TIP3   OH239736   0.375   3.749   1.590  0.2610  0.4090  0.3787
13264TIP3    H139737   0.354   3.842   1.593  1.0710  0.6456 -0.6863
13264TIP3    H239738   0.397   3.732   1.499 -0.5413 -0.9862  0.4230
13265TIP3   OH239739   7.664   3.112   5.621  0.3510  0.1435  0.4942
13265TIP3    H139740   7.722   3.037   5.636 -0.1792 -0.3070  0.3089
13265TIP3    H239741   7.581   3.087   5.661  0.4657  1.0637  1.3644
13266TIP3   OH239742   2.871   3.334   3.043  0.1625  0.2119 -0.0466
13266TIP3    H139743   2.902   3.253   3.084  0.0874  1.0342  1.7060
13266TIP3    H239744   2.937   3.399   3.065  0.0519  0.7321 -1.1676
13267TIP3   OH239745   2.693   3.583   4.693 -0.0721 -0.3549  0.2553
13267TIP3    H139746   2.742   3.661   4.718  1.3812 -0.6428 -1.4457
13267TIP3    H239747   2.704   3.522   4.766  0.9250  0.1121  0.5028
13268TIP3   OH239748   5.303   5.939   5.105 -0.2371  0.2509  0.2259
13268TIP3    H139749   5.226   5.882   5.098 -0.0024 -0.1015  0.4866
13268TIP3    H239750   5.268   6.024   5.132 -0.4816 -0.0427  0.8344
13269TIP3   OH239751   1.557   3.099   3.398 -0.2184  0.3242 -0.3962
13269TIP3    H139752   1.479   3.147   3.372  0.7140  2.1625  0.0008
13269TIP3    H239753   1.608   3.089   3.318 -1.3214 -1.9216 -0.8959
13270TIP3   OH239754   3.460   6.626   3.201 -0.3470 -0.1816 -0.1839
13270TIP3    H139755   3.407   6.649   3.124 -2.3236 -1.6921  0.6283
13270TIP3    H239756   3.397   6.591   3.264  1.5961 -1.8350  0.9798
13271TIP3   OH239757   3.590   5.649   0.107  0.4881 -0.1834 -0.5612
13271TIP3    H139758   3.684   5.649   0.124  0.7826 -1.3273 -2.0507
13271TIP3    H239759   3.556   5.580   0.165  0.8617 -1.0947 -1.4011
13272TIP3   OH239760   7.803   5.699   0.085  0.2410 -0.3286 -0.1068
13272TIP3    H139761   7.818   5.780   0.133 -0.4069  0.4188 -1.1287
13272TIP3    H239762   7.716   5.708   0.047  0.2277 -1.4294 -0.3944
13273TIP3   OH239763   6.754   1.092   2.738  0.0550  0.0887 -0.1549
13273TIP3    H139764   6.787   1.075   2.650 -1.0699 -1.3542 -0.3428
13273TIP3    H239765   6.705   1.174   2.730 -0.4281 -0.2631 -1.0067
13274TIP3   OH239766   0.592   6.557   4.672 -0.2909  0.5137 -0.5003
13274TIP3    H139767   0.669   6.531   4.622  0.6635  0.4406  0.9538
13274TIP3    H239768   0.613   6.644   4.705 -0.8790  0.5339 -0.1673
13275TIP3   OH239769   2.133   7.322   5.624  0.3046  0.2733  0.1080
13275TIP3    H139770   2.174   7.291   5.544 -0.4822  0.3964 -0.3576
13275TIP3    H239771   2.194   7.298   5.693  1.5331  1.1854 -0.6226
13276TIP3   OH239772   6.122   2.142   4.781 -0.1961 -0.0508 -0.2791
13276TIP3    H139773   6.122   2.197   4.859 -1.6762 -1.0206  0.4468
13276TIP3    H239774   6.033   2.150   4.747  0.0078 -0.8219 -1.0243
13277TIP3   OH239775   3.758   4.956   4.849  0.3649  0.1958  0.2617
13277TIP3    H139776   3.687   4.988   4.904  0.0614  0.9139 -0.5247
13277TIP3    H239777   3.838   4.986   4.894  0.3858 -2.8824  2.5950
13278TIP3   OH239778   3.327   4.308   3.183  0.0894 -0.3993 -0.5172
13278TIP3    H139779   3.349   4.396   3.215  0.7036  0.0497 -2.0921
13278TIP3    H239780   3.267   4.323   3.110  0.2422 -1.2721 -0.8347
13279TIP3   OH239781   1.848   7.594   1.648 -0.6382 -0.4441 -0.2526
13279TIP3    H139782   1.909   7.667   1.656 -0.1449 -1.0111  1.7448
13279TIP3    H239783   1.834   7.585   1.553  0.1792  1.4652 -0.6087
13280TIP3   OH239784   2.634   6.973   0.386  0.2690  0.5644  0.2803
13280TIP3    H139785   2.639   6.877   0.384 -1.5536  0.4431 -0.8589
13280TIP3    H239786   2.691   7.001   0.314 -0.9753  0.1877 -0.8934
13281TIP3   OH239787   2.881   7.606   5.246 -0.2963  0.2781  0.3127
13281TIP3    H139788   2.864   7.602   5.152  1.4008  1.8616 -0.1209
13281TIP3    H239789   2.798   7.634   5.284 -1.0504 -0.5368 -0.6610
13282TIP3   OH239790   3.537   3.381   2.214  0.2558 -0.0364  0.3577
13282TIP3    H139791   3.535   3.288   2.236  1.0552 -0.1060  0.1511
13282TIP3    H239792   3.629   3.401   2.200  0.2014  1.0098  1.3270
13283TIP3   OH239793   3.724   6.743   6.347  0.5847 -0.1379 -0.4937
13283TIP3    H139794   3.797   6.707   6.397  2.1229  0.3250 -2.2665
13283TIP3    H239795   3.712   6.832   6.381  0.6707 -0.3044 -0.0253
13284TIP3   OH239796   8.180   6.745   1.610  0.0933  0.2652 -0.3590
13284TIP3    H139797   8.087   6.727   1.622 -0.0213  1.0817  0.0828
13284TIP3    H239798   8.183   6.821   1.551  0.4423  0.7580  0.2771
13285TIP3   OH239799   0.511   4.426   1.696 -0.5715 -0.2326 -0.0477
13285TIP3    H139800   0.436   4.428   1.636 -0.1744  1.6038 -0.5291
13285TIP3    H239801   0.516   4.514   1.732  1.5697 -0.2132 -0.2718
13286TIP3   OH239802   4.466   5.213   1.341 -0.1136  0.2717  0.2175
13286TIP3    H139803   4.429   5.127   1.363  1.3054 -0.1741  0.9940
13286TIP3    H239804   4.561   5.201   1.349  0.1428  1.7685 -0.2348
13287TIP3   OH239805   7.504   1.181   2.057 -0.0681  0.5458 -0.6383
13287TIP3    H139806   7.458   1.218   1.981  3.0590  1.3206 -2.2999
13287TIP3    H239807   7.549   1.256   2.097  0.8871 -0.3720  0.0485
13288TIP3   OH239808   4.056   1.868   3.817 -0.6960 -0.0253 -0.1521
13288TIP3    H139809   4.008   1.949   3.830  0.9688  0.8608  0.8033
13288TIP3    H239810   4.074   1.865   3.723 -1.3055  0.3735 -0.2876
13289TIP3   OH239811   6.063   4.040   3.833 -0.6070  0.0195  0.4404
13289TIP3    H139812   6.028   4.076   3.914 -3.2963  1.0310 -1.0549
13289TIP3    H239813   6.064   3.945   3.848  0.4995  0.2562  2.1765
13290TIP3   OH239814   7.193   2.181   5.047  0.7422  0.1003 -0.0224
13290TIP3    H139815   7.268   2.178   4.987  1.0405 -1.1629  0.3920
13290TIP3    H239816   7.132   2.242   5.006  0.5864 -1.3348 -2.0509
13291TIP3   OH239817   4.452   6.237   1.824  0.1096 -0.2297  0.4187
13291TIP3    H139818   4.400   6.230   1.744  1.3385 -1.5602 -0.3251
13291TIP3    H239819   4.541   6.215   1.796  0.6469 -0.3274  2.0914
13292TIP3   OH239820   4.313   1.136   0.327 -0.3246  0.0966 -0.0455
13292TIP3    H139821   4.296   1.157   0.419  1.2142 -0.7543  0.4657
13292TIP3    H239822   4.226   1.125   0.288 -1.0032 -1.3833  1.7488
13293TIP3   OH239823   2.338   0.712   6.591  0.7193  0.4530 -0.0991
13293TIP3    H139824   2.343   0.622   6.556  1.5894  0.4295  0.0480
13293TIP3    H239825   2.390   0.764   6.529 -0.6561  1.0611 -0.7772
13294TIP3   OH239826   4.274   5.935   3.989 -0.4372 -0.8521 -0.7866
13294TIP3    H139827   4.341   5.928   4.058  0.3749 -2.0409 -1.6336
13294TIP3    H239828   4.318   5.983   3.919 -1.8491  1.9841  0.1196
13295TIP3   OH239829   0.957   6.652   4.815 -0.0140 -0.3833  0.2775
13295TIP3    H139830   0.996   6.646   4.728 -1.4831 -0.9134 -0.3757
13295TIP3    H239831   0.970   6.744   4.840 -1.6823  0.4237 -1.5671
13296TIP3   OH239832   7.815   0.301   0.283  0.1274 -0.2711 -0.1739
13296TIP3    H139833   7.858   0.385   0.264  0.4971 -0.0828  1.3500
13296TIP3    H239834   7.877   0.235   0.253  0.4855  0.0033 -0.0439
13297TIP3   OH239835   7.544   4.572   5.128 -0.0480 -0.5919 -0.6903
13297TIP3    H139836   7.455   4.604   5.124 -0.9232 -2.6610  0.5569
13297TIP3    H239837   7.598   4.650   5.138 -1.8552  0.5967  0.1834
13298TIP3   OH239838   2.130   5.087   5.442  0.1027  0.7666 -0.1787
13298TIP3    H139839   2.187   5.033   5.387 -0.1145  0.1356  0.2166
13298TIP3    H239840   2.184   5.164   5.463  0.6964  0.3258 -0.0691
13299TIP3   OH239841   1.395   7.590   2.237 -0.5854 -0.2853 -0.0802
13299TIP3    H139842   1.420   7.509   2.193 -0.0251 -1.2180  1.8400
13299TIP3    H239843   1.476   7.621   2.278 -1.2107  0.1965  0.8289
13300TIP3   OH239844   7.472   6.651   3.761 -0.3089  0.8304  0.2780
13300TIP3    H139845   7.399   6.650   3.699  0.1978  1.7544 -0.3541
13300TIP3    H239846   7.429   6.657   3.847 -0.9902  0.5270 -0.0283
13301TIP3   OH239847   2.721   2.642   0.453  0.7771  0.3971  0.2988
13301TIP3    H139848   2.705   2.721   0.402 -0.0009  0.8139  1.1613
13301TIP3    H239849   2.738   2.574   0.388 -1.2924  0.6529 -0.5655
13302TIP3   OH239850   5.713   3.388   0.439  0.1103 -0.0711 -0.6133
13302TIP3    H139851   5.626   3.427   0.425 -0.3978 -0.7998  0.3751
13302TIP3    H239852   5.705   3.299   0.404  0.7414  0.1516 -1.3342
13303TIP3   OH239853   0.547   3.313   1.934  0.1081 -0.0845 -0.8686
13303TIP3    H139854   0.510   3.392   1.973 -0.4004 -1.2190  1.1079
13303TIP3    H239855   0.584   3.342   1.851  2.7973  2.8695  1.1145
13304TIP3   OH239856   4.124   5.393   6.033 -0.2573  0.1751 -0.0877
13304TIP3    H139857   4.040   5.380   6.077 -0.9834  1.5822 -1.0072
13304TIP3    H239858   4.131   5.318   5.974 -1.3564  0.5778 -0.7459
13305TIP3   OH239859   2.181   6.120   2.942 -0.5788 -0.0256 -0.1834
13305TIP3    H139860   2.276   6.114   2.934 -0.5600 -1.6080  0.7897
13305TIP3    H239861   2.159   6.059   3.012 -2.2810  0.6243 -0.1048
13306TIP3   OH239862   0.690   4.967   2.115  0.0603  0.3318  0.0061
13306TIP3    H139863   0.628   4.995   2.183  1.1885  1.2334  0.7098
13306TIP3    H239864   0.776   4.993   2.149  0.5827  1.8870 -2.2737
13307TIP3   OH239865   2.820   6.590   6.407  0.3404  0.2957  0.2834
13307TIP3    H139866   2.768   6.632   6.476 -1.6610  0.2507 -1.1093
13307TIP3    H239867   2.857   6.663   6.357  0.0918  0.3534  0.1834
13308TIP3   OH239868   4.366   4.298   2.232  0.3220  0.5956  0.3884
13308TIP3    H139869   4.274   4.271   2.234  0.2865  0.7398  2.6196
13308TIP3    H239870   4.364   4.388   2.198 -0.4471  0.8309  1.0311
13309TIP3   OH239871   3.004   1.498   2.946  0.2494 -0.2414 -0.1939
13309TIP3    H139872   2.976   1.579   2.989 -1.2846 -0.3423 -0.9465
13309TIP3    H239873   3.089   1.479   2.985  0.4267  1.4678  0.3553
13310TIP3   OH239874   2.302   6.935   1.195  0.1045  0.0651 -0.6655
13310TIP3    H139875   2.233   6.948   1.130 -3.1347  1.1223  2.6982
13310TIP3    H239876   2.357   7.013   1.187  0.3432 -0.2393 -2.6290
13311TIP3   OH239877   4.884   0.637   3.745 -0.2801  0.2447 -0.6365
13311TIP3    H139878   4.824   0.618   3.817 -0.2120  0.4213 -0.5328
13311TIP3    H239879   4.928   0.718   3.770  0.9647 -0.5609 -0.0900
13312TIP3   OH239880   4.565   2.729   2.105  0.6927  0.0646  0.4648
13312TIP3    H139881   4.600   2.811   2.138 -0.1896  0.3127  0.8143
13312TIP3    H239882   4.541   2.679   2.183  4.9222 -2.3270  0.5576
13313TIP3   OH239883   5.855   4.653   1.448 -0.8651  0.3802 -0.1175
13313TIP3    H139884   5.938   4.609   1.467 -1.1834 -0.2774 -0.2186
13313TIP3    H239885   5.880   4.728   1.393 -0.5069 -0.7883 -1.6102
13314TIP3   OH239886   5.865   1.396   4.694  0.0137  0.3535 -0.2724
13314TIP3    H139887   5.854   1.318   4.748 -1.2421  1.4505  1.1627
13314TIP3    H239888   5.845   1.469   4.753  2.6557  1.9004 -1.1329
13315TIP3   OH239889   7.183   1.541   3.577 -0.2129  0.0915 -0.1005
13315TIP3    H139890   7.112   1.481   3.602 -0.9122  1.0288  0.1946
13315TIP3    H239891   7.153   1.580   3.494  0.2462  0.0260 -0.2981
13316TIP3   OH239892   4.737   7.663   6.027  0.2686  0.1263 -0.1688
13316TIP3    H139893   4.740   7.669   6.122 -0.0685 -1.7732  0.0060
13316TIP3    H239894   4.646   7.642   6.007  0.2927  0.6997 -0.9284
13317TIP3   OH239895   6.288   5.332   2.479  0.5969 -0.2145 -0.0224
13317TIP3    H139896   6.279   5.253   2.532  1.5676 -1.5005 -1.6504
13317TIP3    H239897   6.252   5.402   2.533  0.3960 -1.6379  1.7878
13318TIP3   OH239898   3.668   3.116   3.503 -0.2335  0.8821  0.3274
13318TIP3    H139899   3.714   3.181   3.556 -1.1560  1.7746  0.0747
13318TIP3    H239900   3.705   3.032   3.529  1.4866  1.5601  0.1506
13319TIP3   OH239901   5.997   2.682   3.128 -0.6766 -0.4739 -0.2984
13319TIP3    H139902   5.923   2.731   3.091 -1.3693  0.5187  2.1730
13319TIP3    H239903   5.968   2.591   3.131 -0.2035 -0.7989 -2.9570
13320TIP3   OH239904   6.188   0.795   3.830  0.5532 -0.0654  0.3167
13320TIP3    H139905   6.192   0.876   3.780 -2.7195 -0.2360 -0.4826
13320TIP3    H239906   6.201   0.726   3.765  1.6685 -0.2330  0.7004
13321TIP3   OH239907   1.132   6.563   1.073  0.1298 -0.8578 -0.1213
13321TIP3    H139908   1.116   6.524   0.987 -3.1550 -2.2718  0.9624
13321TIP3    H239909   1.131   6.489   1.133  0.0909  0.3233  1.3748
13322TIP3   OH239910   7.576   2.551   2.386  0.1845 -0.3832  0.1995
13322TIP3    H139911   7.546   2.642   2.396  1.3253 -0.1106  1.3631
13322TIP3    H239912   7.503   2.506   2.343 -0.6476  0.9367  0.1894
13323TIP3   OH239913   1.488   2.866   4.492  0.8077 -0.4795  0.4642
13323TIP3    H139914   1.480   2.943   4.548  0.7962 -0.0923 -0.0560
13323TIP3    H239915   1.580   2.865   4.465  0.9791 -1.0645  1.0451
13324TIP3   OH239916   5.022   5.623   3.733 -0.3847  0.1422  0.1029
13324TIP3    H139917   4.956   5.607   3.800 -1.8461 -2.3179 -1.7539
13324TIP3    H239918   4.982   5.687   3.674 -0.5467 -0.2983 -0.2699
13325TIP3   OH239919   1.247   5.870   4.992 -0.1587 -0.3541  0.0465
13325TIP3    H139920   1.324   5.846   4.939 -0.2643 -1.3770  0.3247
13325TIP3    H239921   1.258   5.963   5.010  1.0377 -0.4945  0.1143
13326TIP3   OH239922   0.639   1.492   3.641  0.0948 -0.9621 -0.0003
13326TIP3    H139923   0.574   1.493   3.570  0.2338 -0.4263 -0.1222
13326TIP3    H239924   0.719   1.461   3.598 -0.1403 -1.9242  0.2155
13327TIP3   OH239925   4.789   2.513   4.523 -0.2675 -0.4087 -0.3755
13327TIP3    H139926   4.781   2.594   4.573  0.5768 -1.5599  1.7637
13327TIP3    H239927   4.770   2.538   4.433 -1.3661  1.8838  0.4172
13328TIP3   OH239928   6.073   7.358   4.817 -0.0327 -0.5108  0.5258
13328TIP3    H139929   6.020   7.437   4.808 -0.3628 -0.6636  1.0823
13328TIP3    H239930   6.075   7.340   4.911 -1.5749 -2.2340  0.2937
13329TIP3   OH239931   1.816   0.280   1.856 -0.2002  0.0568  0.3950
13329TIP3    H139932   1.836   0.200   1.808 -0.6261  0.0160  0.2815
13329TIP3    H239933   1.886   0.341   1.832 -0.7209  0.2367 -0.7645
13330TIP3   OH239934   1.256   3.480   0.179 -0.2156 -0.1079  0.9616
13330TIP3    H139935   1.312   3.536   0.233  2.7085 -0.8828 -1.0325
13330TIP3    H239936   1.299   3.394   0.182 -1.8105 -0.9750  0.0292
13331TIP3   OH239937   4.876   1.338   4.283 -0.3346  0.8496 -0.0187
13331TIP3    H139938   4.918   1.403   4.339 -0.8952  0.4966  0.8374
13331TIP3    H239939   4.939   1.266   4.277  0.2064  1.3700 -0.8116
13332TIP3   OH239940   7.899   6.095   4.244 -0.3370 -0.2807 -0.3167
13332TIP3    H139941   7.981   6.057   4.277 -0.0215 -0.4645 -1.2926
13332TIP3    H239942   7.918   6.189   4.237 -0.3648 -0.2582 -0.0952
13333TIP3   OH239943   1.812   2.615   2.685  0.0702  0.4458  0.3472
13333TIP3    H139944   1.872   2.546   2.712  0.8810  1.0497  0.1184
13333TIP3    H239945   1.732   2.599   2.736 -0.4970 -1.8357 -1.1220
13334TIP3   OH239946   0.582   3.438   2.880  0.1446 -0.5464 -0.6600
13334TIP3    H139947   0.502   3.464   2.834  0.3936  0.0358 -0.7770
13334TIP3    H239948   0.560   3.448   2.973  0.4166  0.6549 -0.7169
13335TIP3   OH239949   2.026   1.659   0.673  0.2859 -0.6518 -0.6260
13335TIP3    H139950   2.116   1.640   0.696  0.1123  0.0769  0.7388
13335TIP3    H239951   2.029   1.747   0.634  0.1722 -0.6507 -0.6322
13336TIP3   OH239952   6.488   4.393   1.293 -0.4786  0.7724 -0.5053
13336TIP3    H139953   6.498   4.469   1.235 -2.3579  1.3438 -0.1470
13336TIP3    H239954   6.518   4.319   1.240  0.9004  1.6670 -1.0450
13337TIP3   OH239955   7.275   0.021   6.327 -0.0583  0.2724 -0.2211
13337TIP3    H139956   7.208   0.059   6.383  0.8065  3.1234 -0.9745
13337TIP3    H239957   7.234   0.016   6.241 -0.1541 -0.5664 -0.1390
13338TIP3   OH239958   0.141   2.788   1.996 -0.2390  0.4559  0.5757
13338TIP3    H139959   0.177   2.735   1.926  0.4507  0.7147  0.7313
13338TIP3    H239960   0.206   2.857   2.011  0.6140 -0.7351  2.8292
13339TIP3   OH239961   7.652   7.582   3.743 -1.0791 -0.1743 -0.0845
13339TIP3    H139962   7.674   7.500   3.788 -0.5007 -0.2885 -0.5561
13339TIP3    H239963   7.625   7.554   3.655 -1.3415  0.1068 -0.0944
13340TIP3   OH239964   5.338   3.129   0.929  0.4321 -0.1937 -0.4509
13340TIP3    H139965   5.400   3.092   0.992 -0.5307  0.8203  1.1549
13340TIP3    H239966   5.330   3.221   0.954 -0.6936  0.0123 -1.4752
13341TIP3   OH239967   7.190   4.547   2.042  0.0703 -0.1072  0.5153
13341TIP3    H139968   7.184   4.500   1.959  0.0580  0.4524  0.1997
13341TIP3    H239969   7.279   4.580   2.045 -0.2118  0.6961  0.2736
13342TIP3   OH239970   2.087   0.775   6.010 -0.2356  0.5023  0.3555
13342TIP3    H139971   2.067   0.845   5.948  0.3552  0.9081  0.6157
13342TIP3    H239972   2.100   0.698   5.955  0.5931  0.9263 -0.0709
13343TIP3   OH239973   3.698   5.168   1.464 -0.0047  0.3198 -0.2020
13343TIP3    H139974   3.620   5.131   1.423  0.2323 -2.9578  1.8567
13343TIP3    H239975   3.770   5.142   1.407 -0.1219  0.2485 -0.3168
13344TIP3   OH239976   7.506   4.393   4.272  0.4560  0.2441  0.2462
13344TIP3    H139977   7.512   4.487   4.254  0.0325  0.2115 -0.0737
13344TIP3    H239978   7.581   4.355   4.227 -0.4691  0.1881 -1.3249
13345TIP3   OH239979   5.569   2.471   4.866  0.3346  0.1798 -0.0717
13345TIP3    H139980   5.546   2.495   4.777 -1.1719 -0.3300  0.1561
13345TIP3    H239981   5.639   2.407   4.857 -1.1439 -1.3879 -1.0087
13346TIP3   OH239982   6.906   5.930   5.747 -0.0881  0.0554  0.1209
13346TIP3    H139983   6.950   5.881   5.817 -0.6542  0.1869  0.5693
13346TIP3    H239984   6.943   5.893   5.666  0.5334 -0.1294  0.4807
13347TIP3   OH239985   5.205   1.262   1.503  0.0500 -0.4012  0.4601
13347TIP3    H139986   5.292   1.258   1.542  0.5425 -0.3671 -0.6131
13347TIP3    H239987   5.200   1.185   1.446 -0.5491 -0.3002  0.3651
13348TIP3   OH239988   1.083   4.228   5.496 -0.1508 -0.0969  1.0202
13348TIP3    H139989   1.158   4.260   5.444 -0.8714 -0.0661 -0.0303
13348TIP3    H239990   1.090   4.133   5.491  0.2831 -0.1018  1.6237
13349TIP3   OH239991   1.929   2.898   3.655  0.0869 -0.6714 -0.7149
13349TIP3    H139992   1.841   2.860   3.660  0.0879 -0.7801 -1.4408
13349TIP3    H239993   1.929   2.966   3.722 -0.1447 -1.4824  0.1346
13350TIP3   OH239994   1.330   2.987   5.914  0.1072  0.1499 -0.3066
13350TIP3    H139995   1.375   2.904   5.929 -1.0147 -0.6465 -1.1952
13350TIP3    H239996   1.385   3.052   5.958  1.4079 -0.9478 -0.2364
13351TIP3   OH239997   7.980   0.966   1.543 -0.1989  0.5912  0.0283
13351TIP3    H139998   7.987   0.900   1.474 -0.7631 -0.9996  1.4148
13351TIP3    H239999   7.989   0.916   1.624  1.2676  2.5160  1.1102
13352TIP3   OH240000   2.019   4.029   1.763  0.5022  0.2344 -0.2765
13352TIP3    H140001   1.983   4.080   1.836  0.3443  0.8127 -0.7522
13352TIP3    H240002   1.993   3.939   1.782  0.4686  0.3774  0.3849
13353TIP3   OH240003   1.175   7.684   0.648 -0.2189  0.1833  0.5346
13353TIP3    H140004   1.248   7.624   0.664  0.5894  1.0682  0.2786
13353TIP3    H240005   1.196   7.725   0.564 -0.6610  0.9494  0.7858
13354TIP3   OH240006   0.518   4.197   1.854 -0.3962  0.1934  0.2316
13354TIP3    H140007   0.531   4.274   1.798  0.1542  0.0436  0.1507
13354TIP3    H240008   0.480   4.233   1.935  0.0445  0.5799  0.2725
13355TIP3   OH240009   0.429   1.059   2.234 -0.4108 -0.2902 -0.7034
13355TIP3    H140010   0.428   1.141   2.186  0.5652 -0.1903 -0.5641
13355TIP3    H240011   0.500   1.008   2.195 -1.3241 -1.2794 -1.1224
13356TIP3   OH240012   3.903   4.447   6.275 -0.3699 -0.7928 -0.3976
13356TIP3    H140013   3.923   4.376   6.336  0.5474 -1.3664 -1.3418
13356TIP3    H240014   3.830   4.414   6.223 -1.2121 -0.2685  0.4231
13357TIP3   OH240015   0.652   4.789   3.285  0.1432  0.2589  0.0460
13357TIP3    H140016   0.742   4.810   3.310  0.0467 -0.4478  1.0447
13357TIP3    H240017   0.605   4.784   3.368 -0.2617 -1.9104 -0.2550
13358TIP3   OH240018   0.513   3.299   0.584  0.9367  0.0543 -0.4363
13358TIP3    H140019   0.521   3.204   0.593 -1.3027 -0.1677  0.0246
13358TIP3    H240020   0.537   3.317   0.493 -0.5874 -1.2935 -1.1769
13359TIP3   OH240021   1.246   3.687   2.129 -0.1472 -0.5423  0.3095
13359TIP3    H140022   1.302   3.764   2.122 -1.1453  0.2776  0.9678
13359TIP3    H240023   1.200   3.699   2.213  0.1376 -2.1719  0.7310
13360TIP3   OH240024   1.676   0.495   2.175 -0.4469 -0.0066 -0.2922
13360TIP3    H140025   1.745   0.429   2.190 -0.3037  0.0002 -0.8937
13360TIP3    H240026   1.677   0.549   2.253 -2.2335 -2.1823  1.3906
13361TIP3   OH240027   1.516   6.283   6.145  0.0696 -0.2574  0.4123
13361TIP3    H140028   1.578   6.216   6.117 -0.7100 -0.8624  0.0964
13361TIP3    H240029   1.515   6.277   6.241  1.5191  0.7085  0.5221
13362TIP3   OH240030   4.791   6.310   4.621  0.5119  0.2008  0.0605
13362TIP3    H140031   4.847   6.312   4.699 -1.2503  1.6104  1.3732
13362TIP3    H240032   4.717   6.255   4.647  0.3838 -0.1568 -1.0181
13363TIP3   OH240033   1.329   6.115   5.919 -0.1908 -0.1024 -0.2553
13363TIP3    H140034   1.249   6.117   5.867 -0.0178  1.2184 -0.5120
13363TIP3    H240035   1.301   6.141   6.007 -0.1994 -0.6747 -0.0803
13364TIP3   OH240036   3.079   6.613   3.200  0.2759  0.5116 -0.9260
13364TIP3    H140037   3.034   6.536   3.166 -0.7293  0.5077  0.3883
13364TIP3    H240038   3.138   6.579   3.268 -0.1044  0.8878 -0.4059
13365TIP3   OH240039   0.380   5.702   0.091 -0.1258 -0.0886  0.1979
13365TIP3    H140040   0.459   5.650   0.077  0.3551  0.8383 -0.6349
13365TIP3    H240041   0.387   5.731   0.182 -1.1948 -2.7262  1.2302
13366TIP3   OH240042   5.390   2.062   4.471 -0.0638  0.0416  0.2177
13366TIP3    H140043   5.341   1.990   4.430  2.0969 -2.8450  2.2900
13366TIP3    H240044   5.339   2.083   4.549 -1.1268  1.4644 -0.8012
13367TIP3   OH240045   1.644   6.732   1.439 -0.0150  0.3133 -0.7493
13367TIP3    H140046   1.696   6.658   1.408 -0.9615 -0.2525 -1.0275
13367TIP3    H240047   1.619   6.780   1.360 -0.4756  0.1999 -0.6760
13368TIP3   OH240048   0.802   4.597   5.523  0.3825  0.7864  0.5363
13368TIP3    H140049   0.770   4.531   5.585  0.5931  3.3063  3.6007
13368TIP3    H240050   0.893   4.572   5.507 -0.4411 -1.4669 -1.1338
13369TIP3   OH240051   5.792   0.573   5.865  0.7433  0.3542  0.0079
13369TIP3    H140052   5.845   0.516   5.921  1.1970 -0.5684 -1.3182
13369TIP3    H240053   5.705   0.533   5.866  0.6519  0.5554  0.3410
13370TIP3   OH240054   0.837   2.192   2.290 -0.3149 -0.2851  0.0686
13370TIP3    H140055   0.770   2.180   2.358  0.4724  1.1971  1.1702
13370TIP3    H240056   0.920   2.186   2.338  0.2575  0.8664 -0.7456
13371TIP3   OH240057   1.738   3.656   0.409 -0.2013  0.5547 -0.1925
13371TIP3    H140058   1.729   3.732   0.351 -0.2950  0.7609  0.0910
13371TIP3    H240059   1.739   3.581   0.350  0.1711  0.7936 -0.4957
13372TIP3   OH240060   5.121   7.504   0.797 -0.0001  0.0598 -0.4231
13372TIP3    H140061   5.174   7.580   0.775  0.0890 -0.0933 -0.7503
13372TIP3    H240062   5.080   7.478   0.714 -0.1462 -0.1574 -0.2859
13373TIP3   OH240063   7.529   0.845   5.677 -0.6226  0.4513 -0.4774
13373TIP3    H140064   7.584   0.802   5.742 -1.0604  0.1577 -0.2937
13373TIP3    H240065   7.479   0.773   5.637 -2.0417  0.8705  0.4742
13374TIP3   OH240066   0.598   4.391   6.020 -0.0987 -0.1692  0.3090
13374TIP3    H140067   0.647   4.322   5.975 -0.2362  0.0872 -0.2419
13374TIP3    H240068   0.518   4.401   5.968  0.6358  1.5348 -0.5975
13375TIP3   OH240069   3.329   6.750   1.484 -0.3428 -0.3823  0.0510
13375TIP3    H140070   3.363   6.704   1.561  0.5670 -2.2009 -1.3766
13375TIP3    H240071   3.291   6.831   1.520  1.8125 -0.2059  2.1752
13376TIP3   OH240072   6.869   7.151   4.190 -0.0955 -0.0421 -0.0050
13376TIP3    H140073   6.945   7.132   4.245  0.2203  0.5611 -0.2130
13376TIP3    H240074   6.794   7.144   4.248  0.1348 -0.4859  0.2429
13377TIP3   OH240075   7.147   3.457   3.656  0.4726 -0.1786  0.7078
13377TIP3    H140076   7.064   3.478   3.700  0.0056 -1.4944  0.5047
13377TIP3    H240077   7.194   3.403   3.719  2.1776  2.2836  1.7066
13378TIP3   OH240078   1.112   0.641   0.757  0.2279 -0.3615  0.0285
13378TIP3    H140079   1.205   0.621   0.767  0.8297  1.2134 -1.7891
13378TIP3    H240080   1.080   0.653   0.846  2.3500  1.4354  0.6237
13379TIP3   OH240081   2.123   0.742   4.008 -0.5240  0.2093 -0.0676
13379TIP3    H140082   2.214   0.736   3.982 -0.9923 -0.0111 -1.7755
13379TIP3    H240083   2.089   0.817   3.959 -1.9249 -1.4079 -1.7315
13380TIP3   OH240084   7.690   2.916   3.558  0.3311  0.9030 -0.3503
13380TIP3    H140085   7.699   2.905   3.653 -2.5631 -0.4168 -0.1350
13380TIP3    H240086   7.725   2.835   3.521 -1.6067 -0.0739 -0.1378
13381TIP3   OH240087   7.654   6.809   2.541 -0.4733  0.2229  0.4363
13381TIP3    H140088   7.664   6.730   2.487 -0.1615  1.2781 -1.1177
13381TIP3    H240089   7.626   6.776   2.626  2.5754 -1.8256  0.7937
13382TIP3   OH240090   4.335   4.571   5.427 -0.6261  0.0380  0.3475
13382TIP3    H140091   4.257   4.556   5.479 -0.1063 -0.2091  1.0680
13382TIP3    H240092   4.317   4.653   5.380 -0.3476  1.3768  2.4176
13383TIP3   OH240093   0.441   0.219   2.954 -0.4120  0.0276  0.3365
13383TIP3    H140094   0.369   0.198   2.894 -0.4202 -0.7523  0.6041
13383TIP3    H240095   0.423   0.167   3.032 -0.3279  0.9313  0.9747
13384TIP3   OH240096   2.420   2.653   2.436 -0.0773 -0.2099 -0.1432
13384TIP3    H140097   2.510   2.674   2.412 -0.5171  0.7435 -1.0452
13384TIP3    H240098   2.375   2.637   2.353 -0.8442 -0.2380  0.2612
13385TIP3   OH240099   6.779   3.312   5.569  0.4504  0.3341 -0.0997
13385TIP3    H140100   6.830   3.234   5.549 -0.0142 -0.4407  1.6451
13385TIP3    H240101   6.813   3.378   5.508  1.8698 -0.8018 -0.6015
13386TIP3   OH240102   0.462   5.739   5.995  0.4724  0.3960  0.1423
13386TIP3    H140103   0.479   5.732   6.089  1.2485  1.3549  0.0973
13386TIP3    H240104   0.548   5.758   5.957  0.2129 -0.2786 -0.7975
13387TIP3   OH240105   7.463   4.666   0.875  0.4647 -0.5116  0.1940
13387TIP3    H140106   7.527   4.737   0.882  1.6057 -1.1723 -2.4117
13387TIP3    H240107   7.482   4.610   0.950  0.3821  1.2282  1.5863
13388TIP3   OH240108   6.847   4.070   6.337  0.9939  0.2213 -0.6859
13388TIP3    H140109   6.860   3.994   6.394 -2.3519  0.7400  1.0486
13388TIP3    H240110   6.806   4.033   6.258  2.0235 -0.0580 -1.1020
13389TIP3   OH240111   1.115   3.106   1.339 -0.9500  0.0253  0.1008
13389TIP3    H140112   1.044   3.163   1.369 -0.9705 -0.1527  0.3848
13389TIP3    H240113   1.076   3.019   1.336 -0.9363  0.0298 -0.3970
13390TIP3   OH240114   2.083   5.819   4.502  0.2524 -0.1998 -0.1089
13390TIP3    H140115   2.178   5.824   4.513  0.3048  0.6389 -0.7804
13390TIP3    H240116   2.063   5.725   4.499  1.0977 -0.3772 -0.2447
13391TIP3   OH240117   7.633   4.353   3.063 -0.0836 -0.1756  0.1508
13391TIP3    H140118   7.546   4.337   3.026 -0.0091  1.4163 -0.7963
13391TIP3    H240119   7.663   4.434   3.021  1.5074 -0.2288  1.0923
13392TIP3   OH240120   0.657   4.651   0.146 -0.3222  0.3449 -0.5383
13392TIP3    H140121   0.669   4.656   0.051 -0.9216  0.5098 -0.6062
13392TIP3    H240122   0.651   4.742   0.174  3.9622  0.6139  0.2292
13393TIP3   OH240123   1.575   2.424   2.348 -0.0303  0.0329 -0.0652
13393TIP3    H140124   1.605   2.448   2.436 -0.3975  0.3293 -0.0194
13393TIP3    H240125   1.525   2.343   2.361 -0.8540  0.5608  0.1364
13394TIP3   OH240126   0.827   0.494   0.268  0.3835  0.3299 -0.5400
13394TIP3    H140127   0.870   0.516   0.351  0.5275 -1.3965 -0.1222
13394TIP3    H240128   0.848   0.567   0.210  0.6401  1.3638  0.8147
13395TIP3   OH240129   3.567   2.104   0.142 -0.3299 -0.0527 -0.0532
13395TIP3    H140130   3.587   2.129   0.051 -2.3377  0.1343 -0.4872
13395TIP3    H240131   3.554   2.010   0.139  0.4872 -0.1800  0.2326
13396TIP3   OH240132   3.833   4.856   1.470  0.1640  0.4875 -0.3590
13396TIP3    H140133   3.746   4.840   1.507  0.4933 -0.2348  0.1421
13396TIP3    H240134   3.882   4.897   1.542  1.1627 -1.9999  0.4826
13397TIP3   OH240135   7.292   7.764   4.443 -0.1332 -0.2286  0.2482
13397TIP3    H140136   7.383   7.786   4.464  0.4536 -1.2786 -1.1142
13397TIP3    H240137   7.288   7.669   4.450 -0.0670 -0.6451 -3.4463
13398TIP3   OH240138   5.748   2.907   0.163 -0.3046  0.0644 -0.0945
13398TIP3    H140139   5.796   2.868   0.236  1.1409  0.8896 -0.5602
13398TIP3    H240140   5.686   2.840   0.136  1.1615 -1.3976  0.0069
13399TIP3   OH240141   2.191   6.483   5.255  0.3956 -0.1274  0.2299
13399TIP3    H140142   2.226   6.401   5.289 -0.6271 -0.8443 -0.4000
13399TIP3    H240143   2.169   6.463   5.164  0.7690  1.0456 -0.1355
13400TIP3   OH240144   0.854   5.426   2.352 -0.4420 -0.4946  0.2843
13400TIP3    H140145   0.883   5.449   2.440 -1.5532  1.1791  0.2510
13400TIP3    H240146   0.934   5.398   2.307  0.4093  0.1287  1.3614
13401TIP3   OH240147   3.988   1.362   2.703 -0.2697 -0.1426 -0.3371
13401TIP3    H140148   3.898   1.357   2.670 -0.9227 -0.3687  1.3937
13401TIP3    H240149   3.981   1.410   2.786  1.2025 -0.2600 -0.1153
13402TIP3   OH240150   1.327   6.730   4.050 -0.3198  0.0629  0.1515
13402TIP3    H140151   1.323   6.802   4.113  1.1088  0.2847  0.0169
13402TIP3    H240152   1.266   6.755   3.981 -1.1821  0.2739  0.9721
13403TIP3   OH240153   7.065   7.162   2.333 -0.3301  0.2089 -0.2308
13403TIP3    H140154   7.096   7.149   2.423 -0.2082 -0.6256 -0.3834
13403TIP3    H240155   7.014   7.243   2.337  0.7685  0.8950  0.3019
13404TIP3   OH240156   1.494   6.843   5.239  0.4698 -0.0272  0.3912
13404TIP3    H140157   1.448   6.762   5.259  0.1299  0.2558  0.7654
13404TIP3    H240158   1.426   6.910   5.239  0.6721  0.1882 -0.3972
13405TIP3   OH240159   4.673   5.064   4.347  0.3102  0.1048  0.1776
13405TIP3    H140160   4.629   5.013   4.416 -1.1755  0.8992 -0.1531
13405TIP3    H240161   4.681   5.003   4.274 -3.2652  0.7769 -0.9429
13406TIP3   OH240162   1.203   2.699   6.129  0.0027 -0.3350  0.2244
13406TIP3    H140163   1.158   2.641   6.191 -0.2007 -1.2201 -0.7201
13406TIP3    H240164   1.296   2.682   6.142 -0.0425 -0.5673  0.2373
13407TIP3   OH240165   1.528   2.107   3.272 -0.0265  0.6538 -0.3701
13407TIP3    H140166   1.556   2.141   3.357 -1.8768  0.9851  0.1483
13407TIP3    H240167   1.558   2.016   3.273  1.8960  1.2293 -0.3170
13408TIP3   OH240168   7.306   2.795   2.130  0.2287  0.0153  0.0374
13408TIP3    H140169   7.365   2.722   2.112  1.2613  0.6551  0.7310
13408TIP3    H240170   7.227   2.754   2.165  0.8323 -0.7654  0.5048
13409TIP3   OH240171   7.714   1.918   0.394 -0.5488  0.3035 -0.7334
13409TIP3    H140172   7.721   1.858   0.319 -1.2500 -1.5957  0.6453
13409TIP3    H240173   7.780   1.886   0.456 -1.7633  0.1589  0.5253
13410TIP3   OH240174   4.461   6.345   1.265 -0.1828  0.5328  0.7070
13410TIP3    H140175   4.490   6.358   1.355  2.0970  0.6127  0.0242
13410TIP3    H240176   4.454   6.250   1.256  1.6504  0.3889  0.4284
13411TIP3   OH240177   5.153   3.809   5.555 -0.2161  0.0565  0.3814
13411TIP3    H140178   5.155   3.888   5.609 -0.1702 -0.0260  0.4995
13411TIP3    H240179   5.062   3.800   5.528 -0.0555  0.6805 -0.4086
13412TIP3   OH240180   6.150   3.313   2.689  0.5002  0.2854 -0.1342
13412TIP3    H140181   6.062   3.344   2.708 -0.3546 -1.2178 -1.4171
13412TIP3    H240182   6.207   3.364   2.747 -1.4497 -0.8568  3.0274
13413TIP3   OH240183   1.337   6.760   1.869  0.1345 -0.1779  0.4437
13413TIP3    H140184   1.267   6.785   1.809 -0.0284 -1.0190  0.2587
13413TIP3    H240185   1.404   6.720   1.813 -1.0143 -3.1122  0.9765
13414TIP3   OH240186   5.253   0.416   5.034 -1.0728  0.0256 -0.4190
13414TIP3    H140187   5.198   0.380   5.104 -1.6582  0.7519 -0.4873
13414TIP3    H240188   5.190   0.451   4.970 -0.5541  1.9508  0.0590
13415TIP3   OH240189   5.905   5.022   2.543  0.3106 -0.2590 -0.0319
13415TIP3    H140190   5.823   5.023   2.593  0.6069 -1.5531  0.5442
13415TIP3    H240191   5.973   5.030   2.610  0.6846  2.2841 -0.6104
13416TIP3   OH240192   7.221   0.856   5.427  0.6913 -0.1049 -0.4266
13416TIP3    H140193   7.279   0.812   5.364  0.4395 -2.3818  0.8078
13416TIP3    H240194   7.137   0.861   5.381  0.5164 -1.7236 -0.3614
13417TIP3   OH240195   4.398   0.450   4.676 -0.1532  0.4350 -0.2834
13417TIP3    H140196   4.485   0.442   4.637  0.4585 -0.6842  1.2316
13417TIP3    H240197   4.399   0.535   4.721  0.5600 -0.0470  0.6399
13418TIP3   OH240198   1.489   5.436   1.456 -0.0775 -0.3917 -0.3638
13418TIP3    H140199   1.572   5.456   1.412  0.6294 -0.9685  0.6776
13418TIP3    H240200   1.427   5.497   1.417  0.8641  0.1632 -1.0529
13419TIP3   OH240201   3.359   0.894   0.992  0.4921  0.3832 -0.0438
13419TIP3    H140202   3.282   0.852   0.955  0.0808 -0.7391  1.9640
13419TIP3    H240203   3.338   0.908   1.084  1.0010  4.1507 -0.3125
13420TIP3   OH240204   3.432   5.859   2.835 -0.3254  0.0993  0.1526
13420TIP3    H140205   3.430   5.931   2.772 -0.6688 -0.5377 -0.5724
13420TIP3    H240206   3.426   5.902   2.920 -1.0469  0.9124 -0.2912
13421TIP3   OH240207   6.283   2.464   2.449 -0.2680  0.1541 -0.4253
13421TIP3    H140208   6.293   2.443   2.542  0.9759  1.0258 -0.3334
13421TIP3    H240209   6.334   2.396   2.404 -0.8200 -0.2328 -0.4705
13422TIP3   OH240210   2.961   4.314   2.854  0.2483 -0.4301  0.5644
13422TIP3    H140211   2.924   4.401   2.871 -0.3346 -0.6526  0.4517
13422TIP3    H240212   2.944   4.299   2.761  1.8652  0.0479  0.1630
13423TIP3   OH240213   2.933   2.963   5.021  0.7925  0.4008 -0.4190
13423TIP3    H140214   2.928   2.896   5.089  1.0728 -1.9443 -2.5375
13423TIP3    H240215   2.842   2.983   5.000  0.6942  1.8059  1.1757
13424TIP3   OH240216   2.531   6.764   6.200  0.6087  0.0909 -0.3930
13424TIP3    H140217   2.589   6.837   6.218 -0.7016  0.7722  1.3843
13424TIP3    H240218   2.519   6.765   6.105  0.9035  1.9557 -0.4324
13425TIP3   OH240219   6.604   4.866   1.601 -0.2028 -0.2458  0.4961
13425TIP3    H140220   6.618   4.946   1.652 -0.5087  1.0685 -1.3805
13425TIP3    H240221   6.511   4.846   1.613  0.0935 -0.9470  1.7899
13426TIP3   OH240222   0.058   3.469   0.067 -0.2881  0.4370 -0.4479
13426TIP3    H140223   0.064   3.380   0.034  0.8783  0.6455 -0.8498
13426TIP3    H240224  -0.036   3.485   0.076 -0.5572 -0.4307 -1.4690
13427TIP3   OH240225   0.525   0.812   4.898 -0.1116  0.1716 -0.6386
13427TIP3    H140226   0.497   0.857   4.978  0.7700  1.8432 -1.2283
13427TIP3    H240227   0.615   0.840   4.885 -0.2289 -0.0948 -2.2049
13428TIP3   OH240228   5.204   1.191   3.284  0.1555 -0.0142  0.4351
13428TIP3    H140229   5.264   1.266   3.284  0.9066 -0.6043  1.1745
13428TIP3    H240230   5.218   1.149   3.199  0.0903  0.3968  0.2177
13429TIP3   OH240231   2.676   2.438   3.208  0.2942 -0.1337 -0.1238
13429TIP3    H140232   2.610   2.507   3.201  0.5301  0.2483  1.0649
13429TIP3    H240233   2.758   2.480   3.183  0.3778 -0.0848  0.2274
13430TIP3   OH240234   8.229   2.289   1.811 -0.3125  0.0028  0.0303
13430TIP3    H140235   8.277   2.320   1.735 -1.1944  0.0423 -0.5253
13430TIP3    H240236   8.279   2.215   1.843  0.6103  0.6090  0.0275
13431TIP3   OH240237   7.074   0.802   6.726 -0.1278 -0.2992 -0.6800
13431TIP3    H140238   7.131   0.838   6.658  1.2239  0.5206  0.8061
13431TIP3    H240239   6.997   0.859   6.726  0.3173  0.3143 -0.8580
13432TIP3   OH240240   4.109   1.903   3.504  0.3632  0.0365 -0.0147
13432TIP3    H140241   4.185   1.847   3.490  0.9419  0.9120 -0.4503
13432TIP3    H240242   4.078   1.923   3.415  0.7322  1.1546  0.0949
13433TIP3   OH240243   3.828   7.084   6.241  0.5407  0.2567  0.1256
13433TIP3    H140244   3.877   7.011   6.203  1.6933  1.7778 -1.4781
13433TIP3    H240245   3.765   7.042   6.300  1.9060 -1.9405  0.1416
13434TIP3   OH240246   2.326   7.075   4.527  0.4324 -0.5836  0.1024
13434TIP3    H140247   2.382   7.117   4.593  1.1333 -0.5698 -0.4919
13434TIP3    H240248   2.381   7.070   4.449  0.0560 -1.7861 -0.1017
13435TIP3   OH240249   7.377   1.757   0.415  0.4392  0.0953  0.1811
13435TIP3    H140250   7.357   1.845   0.447  0.2949 -0.0876  0.5945
13435TIP3    H240251   7.472   1.757   0.402  0.3885  0.4416 -0.2146
13436TIP3   OH240252   3.485   6.182   1.893  0.8336  0.4814  0.2943
13436TIP3    H140253   3.458   6.249   1.831 -0.9694  0.0284  0.5370
13436TIP3    H240254   3.528   6.115   1.840  2.4900  1.6882  0.0262
13437TIP3   OH240255   1.169   1.840   3.521 -0.2167 -0.5121  0.1756
13437TIP3    H140256   1.217   1.839   3.604  2.6108 -0.2615 -1.3435
13437TIP3    H240257   1.130   1.927   3.517  3.0708  1.0867 -0.4701
13438TIP3   OH240258   2.955   6.397   4.253  0.3833 -0.2386  0.3938
13438TIP3    H140259   2.913   6.482   4.263  1.5287  0.1804  1.9211
13438TIP3    H240260   2.907   6.339   4.312 -0.3801 -0.6853 -0.6260
13439TIP3   OH240261   1.401   2.674   5.491 -0.3131  0.2317 -0.7742
13439TIP3    H140262   1.388   2.647   5.582  1.3489  0.5534 -0.4131
13439TIP3    H240263   1.313   2.671   5.453 -1.1287  0.5589  0.9584
13440TIP3   OH240264   2.673   4.310   0.077  0.0745  0.0290 -0.2575
13440TIP3    H140265   2.737   4.336   0.144  0.5235  1.7509 -1.2956
13440TIP3    H240266   2.594   4.359   0.099 -0.2106 -0.4262 -0.2424
13441TIP3   OH240267   2.015   6.715   4.457 -0.6697 -0.0957  0.2676
13441TIP3    H140268   1.945   6.661   4.495 -1.5468  1.3606  0.8026
13441TIP3    H240269   2.052   6.761   4.532  0.2004 -0.0936 -0.1566
13442TIP3   OH240270   5.426   7.344   5.171  0.1446  0.4640 -0.1018
13442TIP3    H140271   5.466   7.426   5.201 -1.0006  1.5385 -1.3507
13442TIP3    H240272   5.406   7.296   5.252  1.2527  1.2060  0.6357
13443TIP3   OH240273   6.441   6.435   4.725 -0.3994  0.1230  0.2445
13443TIP3    H140274   6.493   6.407   4.650 -0.5028  2.2875 -0.7406
13443TIP3    H240275   6.354   6.454   4.688 -0.8155  0.0488  1.1480
13444TIP3   OH240276   3.455   7.063   6.184 -0.1207 -0.1141 -0.5159
13444TIP3    H140277   3.483   7.154   6.194 -0.0379 -0.2087  0.1085
13444TIP3    H240278   3.527   7.011   6.220 -0.1543 -0.4309 -0.8965
13445TIP3   OH240279   5.088   4.869   5.790 -0.1333  0.6478 -0.0010
13445TIP3    H140280   5.180   4.894   5.786  0.5481 -1.5563  0.6338
13445TIP3    H240281   5.062   4.860   5.698  0.5775  0.2858 -0.1702
13446TIP3   OH240282   3.492   0.197   1.941 -0.2809  0.3067 -0.3423
13446TIP3    H140283   3.424   0.181   1.876  0.3801  2.1253 -1.5715
13446TIP3    H240284   3.573   0.170   1.899  0.0784  0.8932 -0.0425
13447TIP3   OH240285   1.806   2.862   1.988 -0.0622 -0.1016 -0.2073
13447TIP3    H140286   1.853   2.930   2.036 -0.2717  0.0509 -0.2152
13447TIP3    H240287   1.749   2.821   2.054  0.5834 -0.7526 -0.0401
13448TIP3   OH240288   7.972   2.238   1.748 -0.0600 -0.5001  0.0207
13448TIP3    H140289   8.053   2.287   1.761 -0.3839 -0.1522  0.7915
13448TIP3    H240290   7.973   2.171   1.817 -0.6167 -0.2279  0.3077
13449TIP3   OH240291   3.794   4.945   2.517 -0.3887 -0.0959  0.0436
13449TIP3    H140292   3.873   4.932   2.465  0.4361  0.0120  1.2106
13449TIP3    H240293   3.741   5.006   2.466  0.0364 -0.5810 -1.0078
13450TIP3   OH240294   5.861   6.690   5.097 -0.4662 -0.1320 -0.4086
13450TIP3    H140295   5.835   6.689   5.004  1.6412  0.4208 -1.0479
13450TIP3    H240296   5.922   6.617   5.105 -0.0293  0.3069  0.3657
13451TIP3   OH240297   1.168   7.568   5.906 -0.4222 -0.3789  0.0219
13451TIP3    H140298   1.225   7.503   5.946 -1.4513 -0.6350  1.1024
13451TIP3    H240299   1.211   7.652   5.924 -0.2679 -0.5839  0.6233
13452TIP3   OH240300   4.949   6.804   6.787 -0.3175  0.2785 -0.1127
13452TIP3    H140301   4.970   6.725   6.737 -0.0316  2.1045 -3.1323
13452TIP3    H240302   4.965   6.876   6.726 -0.0183  2.7621  2.6500
13453TIP3   OH240303   2.700   4.952   5.105  0.5099  0.0289 -0.8884
13453TIP3    H140304   2.719   4.996   5.188 -1.7135 -0.9159  0.2291
13453TIP3    H240305   2.780   4.904   5.084  2.2115  2.6997 -0.9718
13454TIP3   OH240306   6.255   2.778   4.310 -0.5380  0.5510  0.4313
13454TIP3    H140307   6.219   2.764   4.398 -0.4502 -3.1865  0.0273
13454TIP3    H240308   6.185   2.823   4.263 -1.7716 -0.0077  1.6466
13455TIP3   OH240309   2.082   6.870   1.020 -0.2302 -0.3716  0.3858
13455TIP3    H140310   2.045   6.890   0.934  0.4583  0.4226  0.2707
13455TIP3    H240311   2.005   6.857   1.077 -0.6916 -0.9673 -0.3444
13456TIP3   OH240312   2.084   2.855   0.559  0.0875  0.1093  0.2999
13456TIP3    H140313   2.152   2.839   0.493 -1.1551  0.6700 -1.1847
13456TIP3    H240314   2.037   2.932   0.527 -3.1290 -1.9375 -0.4141
13457TIP3   OH240315   3.791   6.463   2.740  0.3970 -0.1993 -0.0925
13457TIP3    H140316   3.761   6.373   2.729 -0.0530 -0.3864  2.2649
13457TIP3    H240317   3.882   6.455   2.770  0.5436  0.1537 -0.4355
13458TIP3   OH240318   3.189   1.741   4.192  0.0674  0.2287 -0.3201
13458TIP3    H140319   3.097   1.767   4.205  0.2616 -0.1333  2.5315
13458TIP3    H240320   3.185   1.651   4.161 -0.6648 -0.9728  2.8670
13459TIP3   OH240321   6.080   4.654   2.159  0.2713  0.3679 -0.1397
13459TIP3    H140322   6.063   4.714   2.232  0.7136 -0.0791  0.3334
13459TIP3    H240323   6.014   4.585   2.169  2.0833 -1.2401  1.5557
13460TIP3   OH240324   3.001   0.164   1.654 -0.1106  0.0519 -0.5481
13460TIP3    H140325   2.954   0.114   1.587  2.5752 -0.4219 -2.2764
13460TIP3    H240326   3.029   0.097   1.717  1.5146 -0.3552 -1.6362
13461TIP3   OH240327   1.200   4.503   4.508 -0.4884  0.0749 -0.2607
13461TIP3    H140328   1.209   4.409   4.491 -0.7960  0.1738 -1.0027
13461TIP3    H240329   1.141   4.534   4.440  1.4294  1.2407 -1.5017
13462TIP3   OH240330   2.694   5.885   3.533  0.3993  0.1880 -0.2169
13462TIP3    H140331   2.630   5.818   3.508  0.9621 -0.3983 -0.0977
13462TIP3    H240332   2.771   5.865   3.480  0.6001  0.6975 -0.1180
13463TIP3   OH240333   5.247   0.324   3.957  0.4780  0.4268  0.0903
13463TIP3    H140334   5.242   0.334   3.862 -1.8136 -0.7028  0.0167
13463TIP3    H240335   5.295   0.242   3.970  0.1688  0.2097 -0.1275
13464TIP3   OH240336   7.933   3.366   6.582 -0.3967  0.1547  0.1793
13464TIP3    H140337   7.911   3.455   6.606 -1.6474 -0.4263  1.2942
13464TIP3    H240338   7.943   3.320   6.665 -1.6308 -1.1671 -0.3609
13465TIP3   OH240339   2.393   5.004   2.368 -0.0391 -0.1961 -0.4223
13465TIP3    H140340   2.470   5.030   2.419 -1.3374 -1.2862  2.2962
13465TIP3    H240341   2.379   4.912   2.391 -2.3800  0.0772 -0.5356
13466TIP3   OH240342   2.634   3.403   3.720  0.5513  0.1857  0.2942
13466TIP3    H140343   2.686   3.369   3.793  2.9936  2.8696  0.0019
13466TIP3    H240344   2.691   3.469   3.680 -1.7380  0.6521 -2.4344
13467TIP3   OH240345   3.796   0.739   5.536 -0.3249 -0.1405  0.3433
13467TIP3    H140346   3.847   0.754   5.615  0.1764 -2.8444  0.6504
13467TIP3    H240347   3.817   0.812   5.479  2.6280 -0.2923  1.0920
13468TIP3   OH240348   2.360   3.651   2.391 -0.4799  0.0060 -0.5868
13468TIP3    H140349   2.322   3.673   2.476 -1.1899  1.4840 -1.2478
13468TIP3    H240350   2.424   3.720   2.374 -0.9410  0.2026 -1.6079
13469TIP3   OH240351   3.093   0.861   1.939  0.1134 -0.0197 -0.5469
13469TIP3    H140352   3.173   0.850   1.887 -0.9897 -0.0540 -2.3139
13469TIP3    H240353   3.083   0.778   1.986  0.4821 -0.4599 -1.2304
13470TIP3   OH240354   7.541   2.004   6.591 -0.3356 -0.1789  0.3977
13470TIP3    H140355   7.540   1.970   6.501 -0.7773 -0.2658  0.4360
13470TIP3    H240356   7.626   2.047   6.599  1.1024 -2.8760  0.9372
13471TIP3   OH240357   2.944   5.496   1.081  0.1331 -0.3146 -0.1925
13471TIP3    H140358   3.038   5.509   1.073  0.3387 -0.2620  1.8048
13471TIP3    H240359   2.917   5.460   0.996  1.6861  0.9850 -1.3090
13472TIP3   OH240360   0.572   0.266   3.931 -0.9558 -0.5008  0.0333
13472TIP3    H140361   0.505   0.252   3.863  0.1140 -0.8841 -0.9814
13472TIP3    H240362   0.575   0.183   3.979 -1.0636 -0.5569 -0.0562
13473TIP3   OH240363   1.675   0.107   2.569 -0.1070  0.1971  0.1418
13473TIP3    H140364   1.606   0.041   2.582  0.5219 -0.4882  0.0905
13473TIP3    H240365   1.746   0.078   2.625  0.2618  0.7241 -0.0496
13474TIP3   OH240366   4.304   5.123   5.324 -0.2184 -0.2076  0.2800
13474TIP3    H140367   4.264   5.202   5.287  0.4553 -0.3669 -0.8445
13474TIP3    H240368   4.360   5.154   5.395  0.1592  0.3507 -0.2542
13475TIP3   OH240369   6.519   1.624   0.388  0.0134 -0.1347 -0.1446
13475TIP3    H140370   6.554   1.543   0.427 -0.9594 -0.5960 -0.2033
13475TIP3    H240371   6.573   1.693   0.425  1.3042 -0.8588 -0.6047
13476TIP3   OH240372   2.018   6.332   3.490  0.2640  0.6119  0.2600
13476TIP3    H140373   2.040   6.329   3.583 -0.1001 -0.7095  0.3241
13476TIP3    H240374   2.085   6.278   3.447  0.2370  0.9397 -0.2032
13477TIP3   OH240375   2.357   7.766   0.118  0.3222 -0.3788  0.4188
13477TIP3    H140376   2.299   7.841   0.133  1.3855  0.1903  1.9185
13477TIP3    H240377   2.297   7.692   0.106 -0.7375  0.6286 -0.7726
13478TIP3   OH240378   6.802   1.079   2.477 -0.3233 -0.2403 -0.1830
13478TIP3    H140379   6.779   1.165   2.443  0.5557 -0.1806 -0.6651
13478TIP3    H240380   6.831   1.029   2.400  1.9047 -0.0327  0.4596
13479TIP3   OH240381   3.174   1.389   0.354 -0.1419  0.4148  0.0465
13479TIP3    H140382   3.091   1.417   0.392  0.8771  2.2043  1.0541
13479TIP3    H240383   3.225   1.470   0.344  1.5736 -0.6586 -0.3225
13480TIP3   OH240384   1.182   3.683   0.551 -0.0088  0.1837 -0.0899
13480TIP3    H140385   1.103   3.738   0.553  0.2181  0.4947  0.8210
13480TIP3    H240386   1.241   3.723   0.615  0.9473  0.0263 -0.8442
13481TIP3   OH240387   0.696   7.645   2.201 -0.2590  0.5320 -0.7079
13481TIP3    H140388   0.682   7.580   2.132  0.5544 -1.5177  0.9371
13481TIP3    H240389   0.784   7.628   2.234 -1.3018  0.0155  2.1493
13482TIP3   OH240390   0.278   2.794   1.366  0.5723  0.1165 -0.9811
13482TIP3    H140391   0.203   2.824   1.416  2.1535  0.5571  1.2904
13482TIP3    H240392   0.341   2.867   1.369  1.4935 -0.5919 -1.9525
13483TIP3   OH240393   6.545   2.753   2.926  0.1384  0.3032  0.5347
13483TIP3    H140394   6.456   2.760   2.962 -0.2833 -1.0237 -0.1501
13483TIP3    H240395   6.581   2.674   2.966  0.4617  0.0286 -0.2703
13484TIP3   OH240396   7.960   3.029   3.545 -0.0813  0.0379 -0.0742
13484TIP3    H140397   7.978   2.935   3.543  0.7037  0.1878 -0.5186
13484TIP3    H240398   7.922   3.048   3.459 -0.3652  0.1011  0.0663
13485TIP3   OH240399   6.523   2.577   0.781 -0.8363  0.3089 -0.2004
13485TIP3    H140400   6.485   2.644   0.837 -0.3614  1.2591 -0.9967
13485TIP3    H240401   6.450   2.549   0.725 -0.6402  1.4084 -1.0391
13486TIP3   OH240402   7.185   1.785   0.163  0.6297  0.3125  0.8647
13486TIP3    H140403   7.196   1.777   0.258  1.5095 -0.1092  0.7357
13486TIP3    H240404   7.261   1.739   0.126  0.4915  0.7967 -0.0412
13487TIP3   OH240405   0.017   7.392   1.722  0.0400 -0.3331 -0.1275
13487TIP3    H140406  -0.037   7.460   1.682 -0.1133  0.4039  1.2621
13487TIP3    H240407   0.065   7.438   1.791  4.1825 -0.4234 -2.6265
13488TIP3   OH240408   2.970   0.423   5.501  0.0354  0.3664 -0.0052
13488TIP3    H140409   3.063   0.427   5.524 -0.0627  1.2992  0.2816
13488TIP3    H240410   2.956   0.333   5.471  1.0946  0.3044 -0.3335
13489TIP3   OH240411   4.521   3.826   0.990 -0.0745  0.6716  0.4514
13489TIP3    H140412   4.600   3.803   1.040 -0.1163  1.0711  0.7019
13489TIP3    H240413   4.547   3.815   0.899 -0.6275 -2.2067  0.5356
13490TIP3   OH240414   1.561   6.914   6.365  0.1805 -0.0498  0.3042
13490TIP3    H140415   1.656   6.905   6.351 -0.1808 -2.3962 -1.2118
13490TIP3    H240416   1.523   6.898   6.279 -1.6315  0.8872  0.8823
13491TIP3   OH240417   1.888   1.843   3.581 -0.0701 -0.4559 -0.4868
13491TIP3    H140418   1.905   1.861   3.673  1.0454 -0.0547 -0.7584
13491TIP3    H240419   1.800   1.877   3.566  0.2715  0.7245  0.0955
13492TIP3   OH240420   5.354   5.695   3.345 -0.1502 -0.4784 -0.0763
13492TIP3    H140421   5.313   5.618   3.385  1.3711 -1.1489  0.2703
13492TIP3    H240422   5.369   5.754   3.418 -0.5478 -0.1954 -0.2180
13493TIP3   OH240423   3.359   5.323   1.624 -0.1401  0.4881  0.3743
13493TIP3    H140424   3.265   5.333   1.638 -0.0256  0.1175  1.5433
13493TIP3    H240425   3.398   5.392   1.678  0.2778  0.1587  0.4950
13494TIP3   OH240426   1.730   4.138   3.916 -0.1315  0.2345  0.2080
13494TIP3    H140427   1.813   4.105   3.884 -0.1677 -0.1197  0.4841
13494TIP3    H240428   1.729   4.117   4.009 -0.1221  1.0755  0.4095
13495TIP3   OH240429   1.935   5.545   3.040  0.1117 -0.0483 -0.3531
13495TIP3    H140430   1.913   5.634   3.015  2.3565  1.1637  1.5726
13495TIP3    H240431   2.020   5.529   2.998  0.6713 -0.5036  0.9068
13496TIP3   OH240432   6.239   5.492   4.281  0.0160  0.1039  0.2305
13496TIP3    H140433   6.305   5.477   4.214 -0.2807 -0.0701 -0.0276
13496TIP3    H240434   6.158   5.505   4.232 -0.1018  0.5180  0.5355
13497TIP3   OH240435   6.615   7.349   0.213  0.5568  0.6687 -0.4521
13497TIP3    H140436   6.612   7.294   0.291  1.2523  2.7467  1.1429
13497TIP3    H240437   6.670   7.301   0.152  0.1425 -0.9363  0.3755
13498TIP3   OH240438   0.177   5.731   3.376  0.0842  0.4176 -0.2592
13498TIP3    H140439   0.247   5.667   3.382 -0.1713  0.2542  1.3860
13498TIP3    H240440   0.222   5.816   3.374  0.3490  0.2790 -0.1590
13499TIP3   OH240441   3.759   0.506   1.409  0.2319  0.3409  0.0687
13499TIP3    H140442   3.729   0.486   1.498 -1.8667 -2.8998 -1.1983
13499TIP3    H240443   3.779   0.421   1.371  1.3992  1.6679 -2.5014
13500TIP3   OH240444   5.479   4.060   5.058  0.7481  0.0047  0.5469
13500TIP3    H140445   5.479   4.052   4.962 -2.6341  0.1028  0.4177
13500TIP3    H240446   5.459   3.971   5.089 -0.9431  0.5025  0.9672
13501TIP3   OH240447   3.576   2.587   2.629  0.3195  0.0252  0.4142
13501TIP3    H140448   3.487   2.562   2.652  1.0572 -0.6794  2.7212
13501TIP3    H240449   3.609   2.513   2.578  0.1891 -0.5606  1.1639
13502TIP3   OH240450   3.440   7.482   0.115 -0.2571  0.5674  0.6388
13502TIP3    H140451   3.512   7.493   0.177  0.1381  2.6992 -0.1131
13502TIP3    H240452   3.483   7.483   0.029 -0.8228 -2.0777  0.2487
13503TIP3   OH240453   3.793   1.490   1.262  0.0023  0.2031  0.3862
13503TIP3    H140454   3.773   1.465   1.352  0.0300  0.9377  0.6019
13503TIP3    H240455   3.888   1.502   1.261 -0.0566  0.6772  0.3852
13504TIP3   OH240456   1.928   7.210   3.828  0.0484  0.1178 -0.0621
13504TIP3    H140457   1.935   7.246   3.740  0.0654  1.9404  0.6399
13504TIP3    H240458   1.982   7.131   3.826 -0.1366  0.0151 -1.7355
13505TIP3   OH240459   0.061   5.494   4.859 -0.1759 -0.1374 -0.3580
13505TIP3    H140460   0.106   5.413   4.836  0.4130  0.5941 -1.8486
13505TIP3    H240461   0.047   5.486   4.954  0.8558 -1.4816 -0.2764
13506TIP3   OH240462   5.000   5.223   0.266  0.6829  0.0945  0.1129
13506TIP3    H140463   5.055   5.174   0.204  1.0324  2.2049 -1.3479
13506TIP3    H240464   5.063   5.273   0.318  0.2999 -0.4218  1.0832
13507TIP3   OH240465   1.576   1.676   3.870 -0.1209  0.7220 -0.0096
13507TIP3    H140466   1.545   1.671   3.961  1.8186 -0.4903  0.6570
13507TIP3    H240467   1.527   1.609   3.824 -1.1981  1.4175  0.0994
13508TIP3   OH240468   7.027   6.245   6.194 -0.4199  0.2448  0.1155
13508TIP3    H140469   7.023   6.240   6.098 -4.0941  0.1456  0.1367
13508TIP3    H240470   7.005   6.336   6.214 -1.0007 -0.0458  0.8517
13509TIP3   OH240471   7.781   7.458   4.295 -0.2461  0.3816 -0.0907
13509TIP3    H140472   7.731   7.402   4.354  0.1117  2.0398  1.9077
13509TIP3    H240473   7.872   7.433   4.310 -0.2387 -0.3395 -1.2369
13510TIP3   OH240474   6.688   5.656   0.608 -0.8155 -0.1161  0.2167
13510TIP3    H140475   6.726   5.588   0.664 -0.2097  0.4560  0.5248
13510TIP3    H240476   6.642   5.714   0.670 -2.2064 -0.7768 -0.1422
13511TIP3   OH240477   2.838   7.341   3.101 -0.0502 -0.3773  0.1044
13511TIP3    H140478   2.761   7.288   3.121  0.0938 -0.6323  0.0010
13511TIP3    H240479   2.909   7.299   3.151  0.0524 -0.2457  0.0696
13512TIP3   OH240480   0.976   0.167   2.143  0.1245  0.0556  0.0518
13512TIP3    H140481   1.035   0.105   2.100 -0.8909  0.6869 -2.4329
13512TIP3    H240482   1.025   0.249   2.145  0.3695 -0.1023  0.6040
13513TIP3   OH240483   6.844   2.368   1.560  0.1148  0.5174 -0.5050
13513TIP3    H140484   6.851   2.316   1.480 -1.6802  0.9030 -0.9665
13513TIP3    H240485   6.893   2.449   1.541  0.1598  0.3740 -1.0100
13514TIP3   OH240486   2.762   2.619   0.148  0.4731 -0.0107  0.1394
13514TIP3    H140487   2.750   2.651   0.059  1.6439  0.3962  0.1142
13514TIP3    H240488   2.841   2.663   0.180  0.0345 -0.0789  1.4137
13515TIP3   OH240489   0.119   0.310   6.095  0.3047  0.2207 -0.8131
13515TIP3    H140490   0.057   0.272   6.157  0.5516  2.2054  0.7287
13515TIP3    H240491   0.174   0.236   6.069 -0.5664 -0.9122  0.3988
13516TIP3   OH240492   0.349   4.241   4.950 -0.3589  0.1163  0.6644
13516TIP3    H140493   0.255   4.262   4.945 -0.3869  0.4971  2.3390
13516TIP3    H240494   0.384   4.301   5.016  0.7364 -1.1376  1.2664
13517TIP3   OH240495   0.351   7.769   1.360  0.2461 -0.1616 -0.1856
13517TIP3    H140496   0.256   7.761   1.371  0.4478 -1.1843  0.9976
13517TIP3    H240497   0.363   7.851   1.313 -1.1489  0.7234  0.9371
13518TIP3   OH240498   7.616   1.393   4.982 -0.1632 -0.8846  0.6256
13518TIP3    H140499   7.694   1.438   4.951 -0.8440  0.5773  0.9722
13518TIP3    H240500   7.598   1.327   4.915  0.1080  0.2354 -0.5840
13519TIP3   OH240501   7.421   3.153   3.396  0.2147  0.4700 -0.2165
13519TIP3    H140502   7.468   3.149   3.479  1.9806  1.8937 -1.0786
13519TIP3    H240503   7.487   3.131   3.330 -0.6014  1.4543 -1.3931
13520TIP3   OH240504   1.129   0.382   4.565 -0.1208  0.0706 -0.1920
13520TIP3    H140505   1.172   0.296   4.564 -1.3916 -0.6057  0.8426
13520TIP3    H240506   1.100   0.393   4.655  0.7443  1.9924 -0.0935
13521TIP3   OH240507   6.366   4.467   5.887 -0.7995  0.1120  0.3299
13521TIP3    H140508   6.304   4.396   5.903 -1.3336  0.6505  0.6956
13521TIP3    H240509   6.373   4.474   5.792 -0.5278 -0.6081  0.2933
13522TIP3   OH240510   0.384   1.613   0.571  0.0544  0.3650  0.2835
13522TIP3    H140511   0.306   1.666   0.554  1.7016  2.5942 -0.8090
13522TIP3    H240512   0.438   1.624   0.493  1.0025 -2.0844  0.5073
13523TIP3   OH240513   6.340   3.819   5.969  0.1064  0.0534 -0.1859
13523TIP3    H140514   6.370   3.828   6.060  1.4692  2.1492 -0.7830
13523TIP3    H240515   6.367   3.731   5.944  0.7807 -0.1287  1.0751
13524TIP3   OH240516   1.826   0.835   2.215  0.2026  0.0866  0.2123
13524TIP3    H140517   1.888   0.770   2.248  2.8831  1.5365 -1.6053
13524TIP3    H240518   1.811   0.810   2.124 -0.2561  0.9134  0.0474
13525TIP3   OH240519   5.722   4.096   6.032 -0.2550  0.1573 -0.3392
13525TIP3    H140520   5.637   4.063   6.061  0.3453 -0.3042  0.9967
13525TIP3    H240521   5.767   4.020   5.998 -0.3679  0.4062 -1.0635
13526TIP3   OH240522   1.470   1.583   1.692  0.1568  0.2473  0.1112
13526TIP3    H140523   1.529   1.645   1.735 -1.0978  0.3735  1.7825
13526TIP3    H240524   1.400   1.637   1.656 -0.1144 -0.0616  0.1664
13527TIP3   OH240525   6.484   2.048   4.391  0.4232  0.3216  0.1531
13527TIP3    H140526   6.424   2.121   4.379  1.5516  1.2197 -0.2626
13527TIP3    H240527   6.430   1.970   4.380 -0.6795  1.0921 -0.0463
13528TIP3   OH240528   8.013   0.385   0.978 -0.3742 -0.5489 -0.4604
13528TIP3    H140529   7.973   0.408   1.062  0.4560 -1.8447  0.3233
13528TIP3    H240530   8.098   0.428   0.979 -0.3818 -0.5275 -0.6614
13529TIP3   OH240531   6.458   4.087   2.648 -0.0481  0.3515  0.6232
13529TIP3    H140532   6.456   4.165   2.592 -0.3099 -0.5638 -0.6851
13529TIP3    H240533   6.366   4.061   2.655 -0.0345  0.5634  1.6428
13530TIP3   OH240534   3.669   7.775   3.005  0.4295  0.5938 -0.9050
13530TIP3    H140535   3.590   7.722   2.994 -0.4443  1.4721  0.6204
13530TIP3    H240536   3.650   7.829   3.082  1.3358  2.9472 -2.2379
13531TIP3   OH240537   7.738   0.357   3.345  0.5861 -0.2088  0.6452
13531TIP3    H140538   7.797   0.412   3.396  1.9400 -2.0047  1.1554
13531TIP3    H240539   7.776   0.269   3.353 -0.9139 -1.0512 -0.9157
13532TIP3   OH240540   2.542   2.306   4.559  0.2417  0.8733  0.4350
13532TIP3    H140541   2.565   2.272   4.645  2.2985  0.7939 -0.1018
13532TIP3    H240542   2.512   2.396   4.575  3.3690  1.9276  1.0210
13533TIP3   OH240543   6.630   2.424   2.308 -0.5331 -0.2363  0.0383
13533TIP3    H140544   6.556   2.365   2.321  0.0746 -1.2661 -0.9599
13533TIP3    H240545   6.647   2.461   2.395 -2.3626  0.2229  0.2335
13534TIP3   OH240546   3.037   4.261   5.872 -0.8091 -0.3833  0.2936
13534TIP3    H140547   3.003   4.250   5.960 -0.5337 -0.0980  0.4348
13534TIP3    H240548   3.016   4.351   5.848 -0.9700 -0.4872  0.0276
13535TIP3   OH240549   4.800   2.148   4.428 -0.0207  0.2074 -0.1976
13535TIP3    H140550   4.793   2.064   4.473  1.0425 -0.1270 -0.6386
13535TIP3    H240551   4.752   2.209   4.484 -0.9544 -0.7102  0.0418
13536TIP3   OH240552   7.970   0.853   6.582  0.3867  0.2171  0.1029
13536TIP3    H140553   7.884   0.891   6.600  0.6271  0.7052  0.2251
13536TIP3    H240554   7.962   0.762   6.611  0.3400  0.6189  1.4439
13537TIP3   OH240555   7.906   6.745   4.329 -0.0970 -0.2690 -0.0996
13537TIP3    H140556   7.968   6.683   4.366 -1.7802 -2.2180 -0.3726
13537TIP3    H240557   7.855   6.776   4.404  0.1546  0.1286 -0.0865
13538TIP3   OH240558   5.957   0.584   0.725  0.0565  0.1028  0.5435
13538TIP3    H140559   5.976   0.652   0.661  1.3095 -0.6360  0.1005
13538TIP3    H240560   5.931   0.632   0.804 -1.3301  1.0264 -0.4299
13539TIP3   OH240561   6.619   4.956   2.206  0.1227 -0.2776 -0.1307
13539TIP3    H140562   6.685   4.912   2.258  0.1158  0.6351  0.6845
13539TIP3    H240563   6.660   5.038   2.179 -0.7621  0.4595  0.6673
13540TIP3   OH240564   7.105   1.372   0.982  0.3587 -0.0332  0.1038
13540TIP3    H140565   7.174   1.430   1.015  0.9699 -1.5646  1.6963
13540TIP3    H240566   7.150   1.314   0.921  0.3719 -0.5811  0.6164
13541TIP3   OH240567   2.178   0.331   2.609  0.5850  0.1325 -0.0033
13541TIP3    H140568   2.084   0.340   2.596  0.5887  0.0003 -0.1291
13541TIP3    H240569   2.207   0.418   2.637  0.3458  0.0385  0.5457
13542TIP3   OH240570   4.013   7.645   1.633 -0.2998 -0.1602 -0.2102
13542TIP3    H140571   3.950   7.658   1.704  0.3007  0.1573  0.2771
13542TIP3    H240572   3.987   7.709   1.566  0.4341  1.0800  0.6490
13543TIP3   OH240573   0.261   2.115   6.402 -0.0772  0.0452 -0.1582
13543TIP3    H140574   0.173   2.151   6.407  0.0081  0.1215  0.9710
13543TIP3    H240575   0.249   2.024   6.375 -0.4063  0.4019 -1.2778
13544TIP3   OH240576   2.292   1.692   4.377  0.1297  0.3629  0.2269
13544TIP3    H140577   2.324   1.630   4.313  1.8858  2.4855 -1.0922
13544TIP3    H240578   2.371   1.727   4.419 -0.8973  0.1813  2.4776
13545TIP3   OH240579   6.379   3.184   2.628 -0.1132  0.3084 -0.3110
13545TIP3    H140580   6.446   3.218   2.687  0.0236  1.1857 -0.9408
13545TIP3    H240581   6.305   3.245   2.638 -0.0818  0.4738 -1.0340
13546TIP3   OH240582   5.900   5.603   3.368  0.0538 -0.0046 -0.5339
13546TIP3    H140583   5.940   5.670   3.313 -0.5233 -0.4318 -1.4942
13546TIP3    H240584   5.894   5.643   3.455  1.6972  0.3907 -0.5778
13547TIP3   OH240585   6.356   4.481   3.353 -0.5626  0.5275  0.3845
13547TIP3    H140586   6.353   4.446   3.264  1.3220  0.7795  0.1832
13547TIP3    H240587   6.287   4.434   3.400 -0.2665 -1.0376 -0.6913
13548TIP3   OH240588   3.465   1.457   3.686  0.2931  0.4011  0.4054
13548TIP3    H140589   3.452   1.513   3.763  0.3582  1.4630 -0.3309
13548TIP3    H240590   3.417   1.501   3.616 -0.2114 -0.8404 -0.0514
13549TIP3   OH240591   1.188   5.790   6.739  0.2925 -0.3692  0.2558
13549TIP3    H140592   1.157   5.758   6.655 -2.3536 -2.6548  1.9246
13549TIP3    H240593   1.271   5.744   6.754  0.4487 -0.4361 -0.7983
13550TIP3   OH240594   6.057   6.669   4.100  0.6679 -0.6799  0.8857
13550TIP3    H140595   6.131   6.620   4.065  0.0335 -0.6172 -0.6316
13550TIP3    H240596   6.092   6.755   4.123  0.8744 -0.2763 -0.8463
13551TIP3   OH240597   7.259   3.739   4.586 -0.3094  0.2471 -0.1491
13551TIP3    H140598   7.324   3.807   4.602 -1.3794  1.2525  0.0845
13551TIP3    H240599   7.186   3.784   4.544 -1.9801 -0.2554  1.9847
13552TIP3   OH240600   1.861   4.835   3.202 -0.2051  0.2721  0.4578
13552TIP3    H140601   1.788   4.791   3.246 -1.4361  0.7094 -1.0534
13552TIP3    H240602   1.823   4.917   3.170  0.8870  0.4071 -0.5557
13553TIP3   OH240603   2.345   6.762   1.647  0.3598  0.6345 -0.1830
13553TIP3    H140604   2.318   6.672   1.667 -2.0200  1.2299 -0.3524
13553TIP3    H240605   2.411   6.752   1.578  3.7386 -1.1088  2.9503
13554TIP3   OH240606   1.792   0.639   3.559  0.3897  0.2895  0.4073
13554TIP3    H140607   1.753   0.719   3.596  0.6670  0.1730  0.9515
13554TIP3    H240608   1.872   0.669   3.516  0.0006  0.4446 -0.2248
13555TIP3   OH240609   4.019   6.438   1.878 -0.0820 -0.4767 -0.0168
13555TIP3    H140610   4.084   6.380   1.917  0.0754  0.1055  0.6022
13555TIP3    H240611   4.070   6.505   1.833 -0.2567 -0.3791 -0.0714
13556TIP3   OH240612   2.743   1.992   4.203 -0.6041  0.6403  0.2891
13556TIP3    H140613   2.816   2.053   4.193 -0.5565  0.8331  1.6386
13556TIP3    H240614   2.679   2.039   4.257 -2.2869  0.9282 -1.7881
13557TIP3   OH240615   5.243   7.154   5.339 -0.2344 -0.0781  0.1454
13557TIP3    H140616   5.264   7.094   5.268 -1.2189  0.0127 -0.2424
13557TIP3    H240617   5.161   7.120   5.375 -0.4325  0.6345  0.3812
13558TIP3   OH240618   4.856   0.553   2.043 -0.2650  0.2532 -0.2665
13558TIP3    H140619   4.835   0.641   2.011  0.6727 -0.2713 -2.4854
13558TIP3    H240620   4.930   0.524   1.989 -2.0936 -2.8518 -1.3885
13559TIP3   OH240621   4.423   3.474   1.512 -0.5505  0.1634 -0.1356
13559TIP3    H140622   4.355   3.488   1.578  0.1337 -0.8744  0.8407
13559TIP3    H240623   4.376   3.443   1.435 -1.2235 -0.2518  0.4256
13560TIP3   OH240624   4.745   5.158   1.370 -0.1733 -0.7274  0.6138
13560TIP3    H140625   4.763   5.171   1.276  0.1855 -1.1496  0.6176
13560TIP3    H240626   4.825   5.118   1.404  0.1246  0.4292  1.3304
13561TIP3   OH240627   0.043   4.471   1.291 -0.0916  0.2093 -0.2377
13561TIP3    H140628  -0.007   4.487   1.371  0.5442 -2.0254  0.6518
13561TIP3    H240629   0.025   4.380   1.268  1.0687  0.2996 -1.6861
13562TIP3   OH240630   3.906   5.849   2.036 -0.4943 -0.2905  0.1606
13562TIP3    H140631   3.976   5.824   1.975  0.9106 -0.1262  1.6324
13562TIP3    H240632   3.831   5.796   2.010  0.6410 -1.6184 -0.5156
13563TIP3   OH240633   0.546   0.709   0.315 -0.1570 -0.2895 -0.2744
13563TIP3    H140634   0.595   0.717   0.233  0.2569 -0.2508 -0.0280
13563TIP3    H240635   0.592   0.768   0.375  0.3606 -1.3303  0.3633
13564TIP3   OH240636   5.180   2.227   5.309 -0.5742 -0.6369  0.4492
13564TIP3    H140637   5.127   2.304   5.330  0.5687  0.7172 -1.3771
13564TIP3    H240638   5.129   2.180   5.243  0.6306  0.9930 -1.7726
13565TIP3   OH240639   2.059   1.974   2.666  0.2805  0.5869 -0.4044
13565TIP3    H140640   2.040   1.944   2.577  1.2888  2.4300 -1.3173
13565TIP3    H240641   1.974   1.978   2.709 -0.1408 -1.0570 -1.0094
13566TIP3   OH240642   7.057   4.599   1.643  0.4199 -0.2034  0.1837
13566TIP3    H140643   7.121   4.668   1.660  1.3990 -1.4787  2.0670
13566TIP3    H240644   6.982   4.645   1.605  1.7564  1.5942 -0.4292
13567TIP3   OH240645   5.575   4.128   2.371  0.2772  0.0253  0.2152
13567TIP3    H140646   5.501   4.071   2.393  0.5036 -0.4815 -0.3196
13567TIP3    H240647   5.595   4.107   2.280  1.3865 -0.1972  0.4964
13568TIP3   OH240648   3.441   2.730   6.739 -0.0613  0.3512 -0.1514
13568TIP3    H140649   3.481   2.645   6.719  0.7669  0.2192  1.8593
13568TIP3    H240650   3.348   2.718   6.718  0.2826 -0.5871 -1.2397
13569TIP3   OH240651   8.232   4.934   3.572  0.0529  0.5687  0.5044
13569TIP3    H140652   8.234   4.912   3.479 -1.2454  0.0275  0.5920
13569TIP3    H240653   8.322   4.959   3.592  0.5629 -0.2318 -0.6721
13570TIP3   OH240654   5.063   0.466   1.809  0.1173 -0.1555 -0.0503
13570TIP3    H140655   5.067   0.553   1.769 -0.5781 -0.1986 -0.2360
13570TIP3    H240656   5.148   0.427   1.789  0.2122  0.2594 -0.4926
13571TIP3   OH240657   0.396   7.064   2.841  0.7184 -0.2716 -0.3253
13571TIP3    H140658   0.477   7.108   2.812  1.4466 -1.3016  0.0936
13571TIP3    H240659   0.392   7.082   2.935  0.5354 -0.3377 -0.3214
13572TIP3   OH240660   3.135   2.247   4.489  0.1766 -0.4564 -0.3526
13572TIP3    H140661   3.142   2.175   4.427 -0.0945 -1.6565  0.9358
13572TIP3    H240662   3.041   2.251   4.510  0.3151 -0.3390  0.2657
13573TIP3   OH240663   7.197   6.627   0.546 -0.4991  0.0805 -0.0532
13573TIP3    H140664   7.245   6.559   0.497 -0.5462 -0.4531  0.6216
13573TIP3    H240665   7.242   6.708   0.525 -0.6646 -0.0971 -1.1723
13574TIP3   OH240666   0.103   6.971   6.621  0.0406 -0.6678  0.2077
13574TIP3    H140667   0.114   7.018   6.703  0.5330 -0.6367  0.1230
13574TIP3    H240668   0.149   6.888   6.634  0.1060 -0.6697 -0.0281
13575TIP3   OH240669   6.598   3.075   4.864 -0.0239  0.2294 -0.3684
13575TIP3    H140670   6.557   3.118   4.939 -1.2442  2.2005 -2.0469
13575TIP3    H240671   6.622   3.147   4.806 -1.0093 -1.2728 -2.7824
13576TIP3   OH240672   7.385   3.960   4.177 -0.7839  0.0758 -0.2698
13576TIP3    H140673   7.437   3.919   4.245  0.9382 -0.7167 -1.9704
13576TIP3    H240674   7.365   3.889   4.116 -2.2221  0.7682 -0.6524
13577TIP3   OH240675   6.675   6.525   4.535  0.6054 -0.6775  0.0681
13577TIP3    H140676   6.729   6.561   4.606  0.5454 -0.7348  0.1424
13577TIP3    H240677   6.650   6.602   4.483 -0.9395 -0.3680  1.1891
13578TIP3   OH240678   1.746   2.241   0.297  0.0358  0.6016  0.2800
13578TIP3    H140679   1.829   2.248   0.249 -0.2505  2.2616 -0.0344
13578TIP3    H240680   1.684   2.208   0.232  0.4800 -0.9052  0.5865
13579TIP3   OH240681   1.380   7.130   0.785 -0.6533  0.3571 -0.1978
13579TIP3    H140682   1.441   7.081   0.729  0.7632  1.2709  0.4920
13579TIP3    H240683   1.294   7.115   0.745  0.1801  0.1451 -2.0106
13580TIP3   OH240684   6.522   7.068   1.486  0.1484  0.0284  0.0470
13580TIP3    H140685   6.603   7.054   1.437  0.6278  1.0722  0.5054
13580TIP3    H240686   6.453   7.060   1.421  0.7489  1.1232 -0.7740
13581TIP3   OH240687   5.206   3.652   0.264 -0.4973  0.1764  0.0510
13581TIP3    H140688   5.164   3.645   0.349  1.3333 -0.0532  0.9931
13581TIP3    H240689   5.280   3.710   0.278  1.6931 -2.2603 -0.5548
13582TIP3   OH240690   4.043   2.296   5.461 -0.3388  0.7815  0.0924
13582TIP3    H140691   4.048   2.203   5.482  1.1257  0.6695 -0.6605
13582TIP3    H240692   4.100   2.307   5.385 -2.6779  1.7986 -1.6500
13583TIP3   OH240693   0.842   2.688   2.060  0.2744  0.4350 -0.1842
13583TIP3    H140694   0.865   2.781   2.061  1.0170  0.3606 -2.9544
13583TIP3    H240695   0.856   2.661   1.970 -0.9798 -2.1402  0.3121
13584TIP3   OH240696   0.763   4.937   6.649  0.5173 -0.5491 -0.1305
13584TIP3    H140697   0.800   5.010   6.698 -0.7770 -1.3397  2.1773
13584TIP3    H240698   0.829   4.868   6.655  0.6523 -0.4179 -0.1112
13585TIP3   OH240699   5.302   4.450   5.590  0.4365 -1.0207 -0.2333
13585TIP3    H140700   5.379   4.425   5.642  2.2981 -0.6201 -2.6322
13585TIP3    H240701   5.288   4.377   5.530  0.6974  0.0542 -1.6547
13586TIP3   OH240702   0.479   6.673   3.578  1.2137  0.0181 -0.0748
13586TIP3    H140703   0.453   6.598   3.631  1.3163 -0.4003 -0.6111
13586TIP3    H240704   0.551   6.641   3.523  2.3394  0.9434  0.8157
13587TIP3   OH240705   7.247   3.365   4.802 -0.5683  0.6431 -0.2529
13587TIP3    H140706   7.259   3.335   4.892 -1.6801  0.3802 -0.1767
13587TIP3    H240707   7.331   3.346   4.759 -0.4848 -0.5131  0.3734
13588TIP3   OH240708   5.761   1.706   4.356 -0.2444  0.0418  0.2249
13588TIP3    H140709   5.797   1.622   4.326 -1.7170 -0.0883 -1.2970
13588TIP3    H240710   5.731   1.749   4.277  3.1334  3.4373  0.4631
13589TIP3   OH240711   2.865   1.161   0.464  0.7671  0.5332 -0.3148
13589TIP3    H140712   2.870   1.192   0.373 -1.8448  0.2852 -0.6164
13589TIP3    H240713   2.869   1.066   0.456 -0.3574  0.4705 -0.2916
13590TIP3   OH240714   4.461   2.589   4.727  0.0197 -0.0568 -0.1353
13590TIP3    H140715   4.419   2.664   4.769 -0.9047 -1.2573  1.1427
13590TIP3    H240716   4.525   2.559   4.791 -0.5745 -1.1877 -0.0551
13591TIP3   OH240717   0.843   1.365   3.480 -0.0172 -0.2720  0.4994
13591TIP3    H140718   0.886   1.280   3.475  1.8434  0.4604  2.6697
13591TIP3    H240719   0.904   1.426   3.437  0.0603  0.3981  1.5152
13592TIP3   OH240720   1.992   3.540   1.299  0.1786  0.2910  0.4686
13592TIP3    H140721   2.033   3.498   1.375 -1.5123  0.0153  1.2825
13592TIP3    H240722   2.005   3.478   1.227  0.1912 -0.3271  0.9906
13593TIP3   OH240723   7.746   3.195   4.330 -0.3658  0.4422  0.2785
13593TIP3    H140724   7.768   3.274   4.380  0.9186 -1.3891  2.7928
13593TIP3    H240725   7.830   3.162   4.298 -0.7831 -0.3708 -0.0160
13594TIP3   OH240726   0.477   4.956   6.609  0.2220 -0.1465 -0.0839
13594TIP3    H140727   0.564   4.953   6.572  0.9454 -1.2217  1.5798
13594TIP3    H240728   0.419   4.927   6.539  1.1308  0.8495 -1.2950
13595TIP3   OH240729   5.777   0.008   1.756 -0.1009  0.1112 -0.2555
13595TIP3    H140730   5.698  -0.045   1.754  0.4386 -0.8225  1.5549
13595TIP3    H240731   5.756   0.085   1.702 -1.3120 -1.3162 -1.9362
13596TIP3   OH240732   2.843   1.757   2.188 -0.2424 -0.2966 -0.3701
13596TIP3    H140733   2.850   1.704   2.268 -1.4265  0.3512  0.1918
13596TIP3    H240734   2.904   1.830   2.203  0.4069 -0.7895 -0.5745
13597TIP3   OH240735   0.536   2.893   3.924  0.3465  0.8740 -0.1380
13597TIP3    H140736   0.506   2.951   3.993  2.6972  1.1036  0.7898
13597TIP3    H240737   0.575   2.951   3.859  1.3758  0.4670  0.0921
13598TIP3   OH240738   8.102   7.289   4.095 -0.5154 -0.2322  0.2480
13598TIP3    H140739   8.070   7.240   4.019 -1.6844 -1.1116  1.2735
13598TIP3    H240740   8.158   7.357   4.057 -0.0263 -1.4295 -1.3219
13599TIP3   OH240741   3.392   7.556   1.311  0.1411 -0.1147 -0.1240
13599TIP3    H140742   3.403   7.631   1.370  0.2668 -0.3924  0.2109
13599TIP3    H240743   3.377   7.595   1.225  2.7298  0.3278 -0.4554
13600TIP3   OH240744   7.372   7.077   5.012  0.0741  0.1426  0.3840
13600TIP3    H140745   7.334   7.154   4.968  0.2794  1.3880  2.2751
13600TIP3    H240746   7.463   7.077   4.985  0.6538  1.9603  2.0727
13601TIP3   OH240747   1.385   6.200   5.406 -0.0925  0.1836  0.4526
13601TIP3    H140748   1.334   6.129   5.368  2.0125 -0.1676 -1.9853
13601TIP3    H240749   1.362   6.277   5.355  1.0879  0.2066 -0.0826
13602TIP3   OH240750   6.386   2.282   1.048 -0.1999  0.1505  0.8369
13602TIP3    H140751   6.460   2.233   1.011  0.8922  1.8914  0.5376
13602TIP3    H240752   6.364   2.236   1.129  2.9834  0.9215  2.3404
13603TIP3   OH240753   4.870   3.583   5.476  0.2655 -0.6362  0.1359
13603TIP3    H140754   4.872   3.678   5.482 -0.5376 -0.5835 -0.3573
13603TIP3    H240755   4.807   3.556   5.543 -3.0370 -0.4979 -2.6464
13604TIP3   OH240756   6.356   2.231   1.546 -0.2601  0.0486  0.5793
13604TIP3    H140757   6.450   2.234   1.567  0.1881  1.3253 -1.3335
13604TIP3    H240758   6.314   2.272   1.621  0.9733  1.9097  0.3113
13605TIP3   OH240759   5.410   5.599   4.831 -0.2721  0.2518 -0.6693
13605TIP3    H140760   5.442   5.581   4.920  0.1397 -1.0332 -1.0490
13605TIP3    H240761   5.486   5.634   4.785 -0.4129  0.6674 -0.5845
13606TIP3   OH240762   3.447   6.073   2.292  0.4033 -0.5756 -0.5704
13606TIP3    H140763   3.486   6.114   2.370 -0.8881  2.2931 -1.2725
13606TIP3    H240764   3.521   6.056   2.234  1.1438 -0.3608  0.2987
13607TIP3   OH240765   3.002   1.070   4.291  0.4049 -0.1791 -0.2045
13607TIP3    H140766   3.090   1.074   4.254  0.8122  0.0931  0.7557
13607TIP3    H240767   2.961   0.995   4.248  1.8998 -1.7800  0.9797
13608TIP3   OH240768   7.503   6.522   0.753  0.3264 -0.2030 -0.4936
13608TIP3    H140769   7.580   6.473   0.782 -0.1708 -1.6436 -1.5097
13608TIP3    H240770   7.430   6.461   0.764 -0.3936  0.4777 -1.3212
13609TIP3   OH240771   6.933   0.441   0.636  0.6843 -0.5272  0.2290
13609TIP3    H140772   6.977   0.442   0.721  1.3196  0.4542 -0.0989
13609TIP3    H240773   6.991   0.391   0.579 -0.5504 -2.7153  0.7435
13610TIP3   OH240774   7.927   5.476   0.193  0.0681 -0.0259 -0.0430
13610TIP3    H140775   7.912   5.565   0.161  0.5686  0.3166  0.6476
13610TIP3    H240776   7.889   5.419   0.126 -0.2054  0.7064 -0.5160
13611TIP3   OH240777   6.358   4.733   5.669  0.2448 -0.0293 -0.4051
13611TIP3    H140778   6.431   4.754   5.612  2.0041  0.0468  1.7367
13611TIP3    H240779   6.338   4.816   5.713  0.8703 -0.6637  1.1459
13612TIP3   OH240780   7.015   6.987   4.908  0.0934 -0.2754  0.1661
13612TIP3    H140781   7.093   6.940   4.936  0.9449 -0.1806 -1.8763
13612TIP3    H240782   7.042   7.032   4.828 -1.5304  1.3074  0.4346
13613TIP3   OH240783   1.999   4.059   2.797 -0.0400 -0.5323 -0.0908
13613TIP3    H140784   2.044   4.067   2.881 -1.6684 -1.0265  0.8708
13613TIP3    H240785   2.029   4.135   2.746  0.6937 -0.0234  1.0597
13614TIP3   OH240786   6.489   6.087   3.709 -0.4128  0.0605 -0.2495
13614TIP3    H140787   6.456   6.020   3.650 -1.4116 -0.7423  1.1434
13614TIP3    H240788   6.419   6.154   3.710 -0.9144 -0.4597  0.8309
13615TIP3   OH240789   6.692   3.439   2.058  0.7263  0.2642 -0.1133
13615TIP3    H140790   6.751   3.368   2.084 -0.3215 -0.7986 -0.5401
13615TIP3    H240791   6.622   3.437   2.124 -0.5809 -0.7391 -1.4699
13616TIP3   OH240792   2.018   6.521   6.741  0.3177 -0.3213  0.1450
13616TIP3    H140793   2.053   6.474   6.665  1.7997  0.3245  0.3993
13616TIP3    H240794   2.018   6.457   6.812 -0.3252 -0.7029 -0.1917
13617TIP3   OH240795   7.533   3.887   4.389 -0.2379 -0.2608 -0.2795
13617TIP3    H140796   7.484   3.907   4.469  0.7863 -2.6030  1.0440
13617TIP3    H240797   7.617   3.931   4.399 -0.5367  0.4026 -0.6365
13618TIP3   OH240798   6.336   3.195   4.574  0.4610 -0.1587  0.5937
13618TIP3    H140799   6.246   3.186   4.605  0.6878  1.0905  1.7249
13618TIP3    H240800   6.387   3.211   4.654  1.2836  1.8005 -0.2607
13619TIP3   OH240801   2.311   3.445   4.843  0.0874  0.3237 -0.0826
13619TIP3    H140802   2.397   3.419   4.877 -0.5927 -0.2534  1.2661
13619TIP3    H240803   2.331   3.508   4.774  1.6883 -1.8455 -1.7329
13620TIP3   OH240804   5.601   1.523   0.256 -0.1074  0.4406  0.2814
13620TIP3    H140805   5.640   1.611   0.249  0.5643  0.0840 -0.7000
13620TIP3    H240806   5.511   1.535   0.226  0.4177  0.5339 -1.4068
13621TIP3   OH240807   1.379   3.822   5.505  0.6066 -0.2298 -0.6093
13621TIP3    H140808   1.324   3.807   5.428 -0.6419 -1.2028  0.4043
13621TIP3    H240809   1.384   3.736   5.547  3.1542 -0.2218 -0.7720
13622TIP3   OH240810   1.779   0.060   0.235  0.1120 -0.8174 -0.2752
13622TIP3    H140811   1.813   0.017   0.157  1.1231  1.5138 -1.2055
13622TIP3    H240812   1.734   0.139   0.202 -1.7186 -1.0972  1.3216
13623TIP3   OH240813   8.051   6.936   4.674 -0.6422 -0.1474  0.5457
13623TIP3    H140814   7.971   6.923   4.622 -0.2460 -0.0204 -0.1107
13623TIP3    H240815   8.118   6.888   4.626 -0.1785  0.3313  0.7134
13624TIP3   OH240816   4.292   1.550   4.074 -0.3592  0.0327 -0.2228
13624TIP3    H140817   4.328   1.474   4.118  0.2634  1.4701  1.9016
13624TIP3    H240818   4.271   1.519   3.986  2.7843 -1.8088 -0.4627
13625TIP3   OH240819   7.015   5.570   4.258 -0.3644  0.0348 -0.3346
13625TIP3    H140820   7.095   5.563   4.206 -0.8097 -0.9725 -0.9048
13625TIP3    H240821   6.950   5.603   4.196 -1.1989 -2.2981 -0.8017
13626TIP3   OH240822   1.525   2.414   5.376 -0.3475 -0.2496  0.0130
13626TIP3    H140823   1.478   2.497   5.365  0.4923  0.2817  0.3436
13626TIP3    H240824   1.541   2.383   5.287  0.1862  0.4407 -0.1385
13627TIP3   OH240825   1.693   4.899   5.875 -0.0804  0.2338  0.4841
13627TIP3    H140826   1.755   4.870   5.943 -0.4181 -1.7285  0.0365
13627TIP3    H240827   1.617   4.930   5.924  0.3161  0.3966  1.0097
13628TIP3   OH240828   2.298   4.699   3.383  0.1444  0.2841 -0.2055
13628TIP3    H140829   2.256   4.673   3.301  1.4048 -0.4742 -0.6451
13628TIP3    H240830   2.317   4.792   3.372 -0.3143  0.3458 -0.4890
13629TIP3   OH240831   7.397   0.612   4.294 -0.1107  0.0940 -0.1950
13629TIP3    H140832   7.478   0.568   4.320  0.0282  0.8246  0.6260
13629TIP3    H240833   7.352   0.547   4.240  0.1127 -1.0641  0.9467
13630TIP3   OH240834   2.847   2.189   2.452  0.0605  0.5177 -0.0940
13630TIP3    H140835   2.832   2.103   2.491 -2.3248  0.7542 -0.3702
13630TIP3    H240836   2.869   2.245   2.527 -1.1021  0.2419  0.4713
13631TIP3   OH240837   0.213   3.986   2.582  0.0752 -0.0766 -0.2006
13631TIP3    H140838   0.215   4.081   2.597 -1.4839 -0.3397  2.2462
13631TIP3    H240839   0.240   3.948   2.665 -2.7572 -1.7644  0.0776
13632TIP3   OH240840   4.463   5.484   3.365  0.5331 -0.0274  0.0108
13632TIP3    H140841   4.492   5.394   3.349 -0.8155 -0.8564  1.8383
13632TIP3    H240842   4.390   5.497   3.305  0.5580 -0.2589 -0.0690
13633TIP3   OH240843   2.594   7.644   6.495 -0.4314 -0.1345  0.3631
13633TIP3    H140844   2.553   7.650   6.582 -1.4511  1.0782 -0.1691
13633TIP3    H240845   2.538   7.582   6.447  0.1498 -0.8277  0.5628
13634TIP3   OH240846   1.296   6.396   0.361 -0.6449 -0.0318 -0.0749
13634TIP3    H140847   1.373   6.402   0.304 -2.4377 -2.2077 -2.9545
13634TIP3    H240848   1.250   6.479   0.348 -0.4478 -0.0507 -0.9455
13635TIP3   OH240849   1.325   6.936   3.584  0.3220 -0.1093  0.0289
13635TIP3    H140850   1.390   6.873   3.552  0.1866 -1.4307  2.1405
13635TIP3    H240851   1.274   6.960   3.507  1.9017 -0.7374 -1.2684
13636TIP3   OH240852   8.069   5.213   1.584 -0.6415  0.0424  0.0528
13636TIP3    H140853   8.164   5.227   1.595 -0.7405  0.7606  0.0661
13636TIP3    H240854   8.030   5.259   1.658 -1.0294  0.3256 -0.3217
13637TIP3   OH240855   4.279   5.762   3.348 -0.2311  0.1467  0.2535
13637TIP3    H140856   4.288   5.760   3.443  0.0326 -0.4956  0.2209
13637TIP3    H240857   4.366   5.737   3.315 -0.2724  0.5268 -0.1572
13638TIP3   OH240858   5.817   6.983   2.165  0.6232  0.1330 -0.8933
13638TIP3    H140859   5.857   7.045   2.226 -0.5932  0.4599 -0.4039
13638TIP3    H240860   5.724   6.987   2.185  0.4573 -1.4370 -1.2393
13639TIP3   OH240861   6.640   5.817   3.616  0.0892  0.5724 -0.2552
13639TIP3    H140862   6.551   5.842   3.642 -0.0476 -0.1611  0.0176
13639TIP3    H240863   6.632   5.788   3.526  0.0890  0.7017 -0.2967
13640TIP3   OH240864   5.471   2.775   0.682  0.4187  0.5608 -0.4065
13640TIP3    H140865   5.422   2.834   0.740  2.9279  0.0988  2.4620
13640TIP3    H240866   5.424   2.691   0.687  0.1940  0.7296  0.3901
13641TIP3   OH240867   0.222   2.103   4.259  0.0927  0.1176  0.4963
13641TIP3    H140868   0.153   2.132   4.199 -0.0317  1.9349  1.4296
13641TIP3    H240869   0.270   2.037   4.211 -1.1116  0.2302 -0.9171
13642TIP3   OH240870   5.212   0.144   0.978  0.2071  0.4442  0.3017
13642TIP3    H140871   5.251   0.169   0.895  0.2504  0.2852  0.2739
13642TIP3    H240872   5.185   0.053   0.966 -0.3248  0.6039  0.2618
13643TIP3   OH240873   6.803   1.326   0.325 -0.5792 -0.4114  0.3295
13643TIP3    H140874   6.850   1.301   0.404 -1.5123 -0.1281  0.9835
13643TIP3    H240875   6.863   1.385   0.279 -0.5786  0.5523  1.5230
13644TIP3   OH240876   3.033   5.023   3.012 -0.7002  0.3393 -0.7122
13644TIP3    H140877   3.113   5.072   2.989 -0.9957  1.1156 -0.1455
13644TIP3    H240878   3.050   4.934   2.981  1.2229 -0.0320  1.1260
13645TIP3   OH240879   2.429   1.480   5.124 -0.3420  0.7420 -0.0709
13645TIP3    H140880   2.517   1.494   5.088  0.6286 -0.6650  1.5858
13645TIP3    H240881   2.422   1.544   5.194 -0.7906  1.0733 -0.4118
13646TIP3   OH240882   1.904   3.754   1.417 -0.1227  0.1408 -0.1099
13646TIP3    H140883   1.955   3.744   1.497 -0.1210 -0.1072 -0.1421
13646TIP3    H240884   1.925   3.676   1.365  1.5271  1.2881 -1.2809
13647TIP3   OH240885   5.865   5.064   1.596 -0.4110  0.0043 -0.0840
13647TIP3    H140886   5.773   5.078   1.574 -1.3002 -2.8379  1.2899
13647TIP3    H240887   5.872   5.094   1.687  0.1033  0.4338 -0.2627
13648TIP3   OH240888   6.705   0.094   3.862 -0.0294 -0.5599  0.9913
13648TIP3    H140889   6.691   0.187   3.848  1.6580 -0.3245  0.6830
13648TIP3    H240890   6.641   0.070   3.929  0.2154  1.0382  1.8280
13649TIP3   OH240891   0.755   5.566   1.651  0.3944  0.0621 -0.2575
13649TIP3    H140892   0.739   5.477   1.619 -0.8272  0.5783 -1.1752
13649TIP3    H240893   0.789   5.613   1.575  1.4859  0.2799  0.3499
13650TIP3   OH240894   3.075   7.245   4.434  0.5132  0.2502 -0.7711
13650TIP3    H140895   3.010   7.263   4.366 -1.4949 -0.6412  0.8210
13650TIP3    H240896   3.040   7.286   4.513  0.8079 -2.0173  0.6246
13651TIP3   OH240897   0.800   5.577   3.756 -0.3559  0.3292 -0.3773
13651TIP3    H140898   0.729   5.629   3.718 -1.3419 -0.6128  0.1489
13651TIP3    H240899   0.771   5.557   3.845  0.5779 -0.0539 -0.1496
13652TIP3   OH240900   6.154   3.783   1.129 -0.4747  0.0057  0.0713
13652TIP3    H140901   6.104   3.743   1.058 -2.0521 -0.4639  1.3878
13652TIP3    H240902   6.154   3.876   1.109  0.4439 -0.2706 -1.3349
13653TIP3   OH240903   1.565   1.922   6.403 -0.5115  0.1357 -0.2674
13653TIP3    H140904   1.571   2.013   6.374 -1.3846  0.7905  1.4716
13653TIP3    H240905   1.496   1.884   6.349  0.6274  0.1442 -1.7950
13654TIP3   OH240906   6.565   3.747   1.005  0.4448 -0.0962 -0.6105
13654TIP3    H140907   6.516   3.666   0.992  0.6339 -0.2559 -0.3360
13654TIP3    H240908   6.562   3.791   0.920 -0.1572 -0.1109 -0.6014
13655TIP3   OH240909   5.048   3.413   5.353  0.0362 -0.0610  0.7790
13655TIP3    H140910   4.998   3.405   5.434  0.9272  0.5091  1.4056
13655TIP3    H240911   4.997   3.473   5.298 -1.0197 -1.1426  0.5391
13656TIP3   OH240912   3.131   6.704   4.338  0.0561 -0.6645  0.2785
13656TIP3    H140913   3.106   6.783   4.387 -1.1283 -0.2160 -0.9830
13656TIP3    H240914   3.049   6.673   4.299  1.1479  0.0828 -2.9527
13657TIP3   OH240915   0.570   4.221   1.101  0.6197 -0.2643 -0.0098
13657TIP3    H140916   0.642   4.231   1.163  2.1252 -1.0981 -1.5554
13657TIP3    H240917   0.564   4.307   1.058  0.9070 -0.2899 -0.1033
13658TIP3   OH240918   5.369   0.173   3.339 -0.3850  0.2298 -0.6136
13658TIP3    H140919   5.340   0.096   3.291 -1.0220 -0.0887  0.2533
13658TIP3    H240920   5.288   0.210   3.375  0.1842 -0.2306  1.2144
13659TIP3   OH240921   8.197   7.709   4.800 -0.1092  0.1115 -0.2503
13659TIP3    H140922   8.128   7.681   4.741  1.3311 -1.9508 -1.0893
13659TIP3    H240923   8.233   7.627   4.835  1.0429  1.1696  1.1645
13660TIP3   OH240924   4.352   7.299   3.449 -0.0988  0.6405  0.2785
13660TIP3    H140925   4.412   7.352   3.502  0.4160  1.9433 -1.5318
13660TIP3    H240926   4.289   7.362   3.413 -0.7828 -0.2950 -0.2058
13661TIP3   OH240927   1.832   3.316   3.636  0.0785  0.8324 -0.2764
13661TIP3    H140928   1.912   3.313   3.687  0.0018  1.3505 -0.1175
13661TIP3    H240929   1.790   3.399   3.661  0.4766  1.5480 -1.8076
13662TIP3   OH240930   4.568   3.952   6.726 -0.3278  0.5253  0.5546
13662TIP3    H140931   4.614   3.909   6.654 -1.8395 -2.7693  1.4029
13662TIP3    H240932   4.478   3.963   6.694 -0.5650  0.7326  1.2807
13663TIP3   OH240933   7.194   4.634   1.030 -0.4229  0.2164 -0.2769
13663TIP3    H140934   7.157   4.644   0.943 -2.4282 -0.3515  0.4579
13663TIP3    H240935   7.252   4.710   1.040  0.7107 -0.2849 -2.4579
13664TIP3   OH240936   1.714   6.474   3.952  0.0846  0.2103 -0.3309
13664TIP3    H140937   1.748   6.563   3.961  0.2754 -0.0578  4.8956
13664TIP3    H240938   1.622   6.485   3.928  0.3487  1.7605 -0.7105
13665TIP3   OH240939   6.381   2.618   2.210 -0.1735 -0.6991 -0.4537
13665TIP3    H140940   6.311   2.577   2.159  0.0599 -2.0265  0.2711
13665TIP3    H240941   6.370   2.584   2.298 -1.7653  3.0341  0.9878
13666TIP3   OH240942   4.263   3.661   1.666 -0.5561 -0.1299 -0.5668
13666TIP3    H140943   4.173   3.688   1.647 -0.7011  0.5878  1.0505
13666TIP3    H240944   4.316   3.716   1.609 -0.9386  2.5635  1.4601
13667TIP3   OH240945   5.229   0.616   2.136  0.2410  0.2718  0.0591
13667TIP3    H140946   5.225   0.682   2.066 -2.4907  0.6312  0.4392
13667TIP3    H240947   5.255   0.666   2.214 -0.5382  0.6548  0.0788
13668TIP3   OH240948   0.643   0.231   0.427 -0.8846 -0.3686 -0.0735
13668TIP3    H140949   0.630   0.264   0.338 -2.6545 -2.7681 -0.8197
13668TIP3    H240950   0.709   0.162   0.419  0.0995  0.4270  0.8010
13669TIP3   OH240951   3.993   0.832   5.747  0.4892 -0.0592 -0.3357
13669TIP3    H140952   4.052   0.836   5.671  0.7757 -0.1728 -0.1181
13669TIP3    H240953   3.956   0.921   5.752 -0.6120 -0.4258 -1.4605
13670TIP3   OH240954   7.156   0.169   2.347 -0.6530  0.4681  0.0488
13670TIP3    H140955   7.225   0.138   2.289 -0.9147  0.4967 -0.2805
13670TIP3    H240956   7.077   0.166   2.293 -1.3488 -1.8247  1.0763
13671TIP3   OH240957   4.149   1.827   4.074  0.1376  0.3610  0.1513
13671TIP3    H140958   4.113   1.813   3.986  3.0453 -0.3738 -1.0786
13671TIP3    H240959   4.169   1.738   4.105  4.3931  0.6736 -1.0397
13672TIP3   OH240960   2.053   3.033   2.672 -0.1067  0.2725  0.2123
13672TIP3    H140961   2.016   3.051   2.586  0.6510  0.0115 -0.1753
13672TIP3    H240962   2.047   2.938   2.682  2.1973 -0.0267 -0.6930
13673TIP3   OH240963   1.104   0.823   6.569 -0.5986  0.1007  0.2360
13673TIP3    H140964   1.041   0.802   6.501 -0.9841 -0.7996  0.8581
13673TIP3    H240965   1.090   0.757   6.637 -0.5341  1.2327  1.3982
13674TIP3   OH240966   6.469   0.316   3.241 -0.6015 -0.2736 -0.7028
13674TIP3    H140967   6.416   0.300   3.163  1.7082 -1.9195 -2.0242
13674TIP3    H240968   6.447   0.244   3.300  0.0112 -0.8926 -1.2063
13675TIP3   OH240969   2.100   2.599   0.925 -0.2147  0.2123 -0.7285
13675TIP3    H140970   2.035   2.667   0.936 -3.5134 -2.5312 -1.5739
13675TIP3    H240971   2.126   2.604   0.833 -0.0042  0.6670 -0.6448
13676TIP3   OH240972   2.502   1.808   0.653 -0.5398  0.4982 -0.1522
13676TIP3    H140973   2.484   1.902   0.652  0.9376  0.8881  2.2282
13676TIP3    H240974   2.593   1.800   0.625  0.0813  0.0837  1.7863
13677TIP3   OH240975   7.339   7.218   0.968  0.2206 -0.1051 -0.9558
13677TIP3    H140976   7.369   7.221   1.059 -0.6598 -1.5719 -0.5802
13677TIP3    H240977   7.289   7.136   0.962  1.1806 -0.6167 -3.0587
13678TIP3   OH240978   1.643   7.792   3.725 -0.6596  0.1354 -0.4129
13678TIP3    H140979   1.681   7.787   3.637 -1.7375 -1.7567 -0.8116
13678TIP3    H240980   1.627   7.885   3.739 -1.3823  0.4013 -2.6331
13679TIP3   OH240981   7.679   7.226   6.440 -0.6519  0.1812  0.1315
13679TIP3    H140982   7.666   7.132   6.430  0.3152  0.2453 -2.1855
13679TIP3    H240983   7.646   7.264   6.359  1.4497  1.5557 -0.1415
13680TIP3   OH240984   0.775   5.908   2.016 -0.2632  0.2629  0.1398
13680TIP3    H140985   0.718   5.985   2.013 -1.4057 -0.5471  0.4688
13680TIP3    H240986   0.854   5.935   1.970 -0.6893  1.5965  0.1550
13681TIP3   OH240987   6.026   1.919   1.619 -0.1932  0.0591 -0.4691
13681TIP3    H140988   6.027   2.004   1.663 -0.4389 -0.2109  0.0725
13681TIP3    H240989   6.047   1.857   1.688  0.3293 -0.2919 -0.9368
13682TIP3   OH240990   1.363   3.431   4.098  0.5441 -0.1991  0.0449
13682TIP3    H140991   1.340   3.516   4.134  1.4137 -0.2006  0.6493
13682TIP3    H240992   1.281   3.395   4.065 -0.0161  0.4272  0.7315
13683TIP3   OH240993   4.620   6.564   5.380 -0.0956  0.0652 -1.0015
13683TIP3    H140994   4.540   6.578   5.430  0.2293  1.1793 -0.7668
13683TIP3    H240995   4.602   6.488   5.325 -0.5697 -1.0212  0.5926
13684TIP3   OH240996   5.596   0.351   6.246 -0.2872 -0.3995  0.1229
13684TIP3    H140997   5.542   0.409   6.300 -1.7778  0.4516 -2.1358
13684TIP3    H240998   5.686   0.377   6.267 -0.8195  0.3312  1.6812
13685TIP3   OH240999   8.276   0.664   2.095 -0.4807 -0.9425 -0.0750
13685TIP3    H141000   8.202   0.613   2.060 -1.0331  0.0610 -0.3948
13685TIP3    H241001   8.353   0.613   2.070 -0.9846 -1.2944 -0.9924
13686TIP3   OH241002   2.980   3.733   2.315  0.2907  0.0991 -0.4998
13686TIP3    H141003   2.940   3.699   2.395 -2.0114  1.4104 -1.0012
13686TIP3    H241004   2.906   3.745   2.255  1.8436  0.0127 -2.5176
13687TIP3   OH241005   3.334   6.273   0.927 -0.3190  0.2331  0.2793
13687TIP3    H141006   3.425   6.271   0.956  0.0515  1.7354 -0.6589
13687TIP3    H241007   3.305   6.182   0.932  0.6854 -0.0389  2.2161
13688TIP3   OH241008   2.147   1.195   0.767  0.5168  0.0072 -0.0658
13688TIP3    H141009   2.163   1.169   0.858  1.5986 -0.5572 -0.3958
13688TIP3    H241010   2.052   1.202   0.760  0.1407 -3.0708  0.3225
13689TIP3   OH241011   3.311   6.435   2.305  0.7028  0.3628 -0.0702
13689TIP3    H141012   3.394   6.482   2.298  0.6706  0.3161 -0.8243
13689TIP3    H241013   3.304   6.386   2.223 -1.9025  3.3394 -1.8286
13690TIP3   OH241014   2.556   6.589   1.966  0.3582 -0.5500 -0.0687
13690TIP3    H141015   2.605   6.670   1.954  1.5208 -1.0350  1.2552
13690TIP3    H241016   2.583   6.534   1.893 -0.9274  0.4268 -1.3618
13691TIP3   OH241017   0.891   3.768   4.670  0.5787 -0.6513 -0.0733
13691TIP3    H141018   0.925   3.706   4.604  1.7281 -0.9635  0.7792
13691TIP3    H241019   0.969   3.799   4.715 -0.0840  0.6216  0.2378
13692TIP3   OH241020   0.136   6.139   1.764 -0.7226  0.1590  0.4946
13692TIP3    H141021   0.119   6.233   1.775 -0.9374  0.3188 -1.0502
13692TIP3    H241022   0.051   6.103   1.739  0.0325  0.1371 -2.2932
13693TIP3   OH241023   8.045   2.402   4.699 -0.4695 -0.2328  0.0644
13693TIP3    H141024   8.105   2.339   4.660 -1.7112 -1.2341 -0.3296
13693TIP3    H241025   8.101   2.468   4.739  0.8821 -1.5415  0.4178
13694TIP3   OH241026   1.159   5.919   3.107  0.3813  0.0552  0.4855
13694TIP3    H141027   1.175   5.844   3.050 -0.1441 -0.4141  0.9473
13694TIP3    H241028   1.093   5.971   3.060  0.9329  0.3726  0.0467
13695TIP3   OH241029   1.860   4.778   1.639 -0.3364 -0.2994  0.0938
13695TIP3    H141030   1.869   4.685   1.659 -2.3217 -0.3987  0.7563
13695TIP3    H241031   1.922   4.793   1.567  0.9301 -1.8211  0.7962
13696TIP3   OH241032   4.355   5.413   6.251  0.0006 -0.1201 -0.0857
13696TIP3    H141033   4.360   5.318   6.256 -0.2538 -0.0809  1.0832
13696TIP3    H241034   4.271   5.430   6.208 -0.8612 -0.4182  1.3991
13697TIP3   OH241035   4.261   0.292   1.968  0.0914  0.2687  0.0675
13697TIP3    H141036   4.173   0.255   1.976 -0.1727  0.8876  0.0869
13697TIP3    H241037   4.249   0.386   1.981  0.6451  0.4591 -0.7171
13698TIP3   OH241038   2.974   2.885   1.605 -0.0660 -0.0403  0.1468
13698TIP3    H141039   2.890   2.911   1.642  0.2266  0.0081  0.7768
13698TIP3    H241040   3.010   2.820   1.665  1.4953  1.7615  1.2869
13699TIP3   OH241041   6.346   1.889   2.958  0.0331  0.2410  0.3821
13699TIP3    H141042   6.406   1.842   3.016 -1.8271 -2.3303  0.3848
13699TIP3    H241043   6.342   1.836   2.879 -1.5768  0.7884  0.0606
13700TIP3   OH241044   3.536   4.857   5.190 -0.2861  0.5844  0.1587
13700TIP3    H141045   3.589   4.794   5.142 -0.6652 -0.4510  1.0607
13700TIP3    H241046   3.457   4.808   5.215 -0.5483  1.3877  0.9493
13701TIP3   OH241047   0.229   3.358   0.980  0.0671 -0.1531 -0.0477
13701TIP3    H141048   0.157   3.359   0.917 -0.0952  0.7021  0.1346
13701TIP3    H241049   0.282   3.434   0.957  0.3930 -0.2393  0.4034
13702TIP3   OH241050   0.643   2.614   5.138  0.1959  0.1814 -0.0377
13702TIP3    H141051   0.629   2.563   5.058  1.8735  1.4080 -1.1738
13702TIP3    H241052   0.573   2.680   5.137 -0.0068 -0.0370 -0.2980
13703TIP3   OH241053   7.648   5.222   4.337 -0.2349  0.0924  0.8947
13703TIP3    H141054   7.636   5.169   4.416 -1.9146 -1.6762 -0.4170
13703TIP3    H241055   7.565   5.270   4.327  0.0237  0.4402  0.3171
13704TIP3   OH241056   5.819   2.597   1.599 -0.2619  0.2089 -0.1529
13704TIP3    H141057   5.886   2.604   1.668 -0.7005 -0.3925  0.3404
13704TIP3    H241058   5.746   2.551   1.640 -0.1986 -0.9454 -1.2626
13705TIP3   OH241059   3.991   6.628   0.067  0.1096  0.2874  0.5520
13705TIP3    H141060   4.025   6.705   0.021 -0.0704  0.1519  0.1839
13705TIP3    H241061   4.036   6.627   0.151  1.0110  0.1120  0.0760
13706TIP3   OH241062   4.689   0.352   5.244  0.2902  0.1282 -0.0758
13706TIP3    H141063   4.723   0.399   5.168  1.5366 -0.4861  0.0698
13706TIP3    H241064   4.595   0.364   5.240  0.4009  0.7267 -1.3020
13707TIP3   OH241065   8.049   5.991   2.907  0.0164 -0.1951 -0.2403
13707TIP3    H141066   8.026   5.992   3.000 -2.6167  1.5654 -0.7884
13707TIP3    H241067   8.065   6.083   2.885  0.3959 -0.5544 -1.5594
13708TIP3   OH241068   6.305   5.858   2.832 -0.2650 -0.1895  0.1540
13708TIP3    H141069   6.279   5.846   2.924 -0.6629 -1.3659 -0.1046
13708TIP3    H241070   6.352   5.942   2.832 -1.2930  0.4261  1.2144
13709TIP3   OH241071   5.245   4.627   5.778 -0.2190 -0.3819  0.4727
13709TIP3    H141072   5.234   4.563   5.708 -0.1119  0.7964 -0.6616
13709TIP3    H241073   5.328   4.671   5.758 -0.8978  0.9626  0.4925
13710TIP3   OH241074   4.912   4.382   4.112 -0.4646 -0.0837 -0.3357
13710TIP3    H141075   4.877   4.308   4.160  0.8536 -1.2965 -1.1666
13710TIP3    H241076   4.859   4.388   4.032 -1.8507  1.1613  0.6125
13711TIP3   OH241077   6.307   6.662   3.997 -0.0515  0.0356 -0.2267
13711TIP3    H141078   6.292   6.571   4.026  0.1215 -0.0389 -0.3713
13711TIP3    H241079   6.388   6.688   4.040 -1.8818  1.3673  2.7600
13712TIP3   OH241080   0.468   3.649   4.846 -0.1419 -0.1425 -0.0317
13712TIP3    H141081   0.416   3.652   4.765  1.9770 -1.6567 -1.5572
13712TIP3    H241082   0.515   3.733   4.847 -0.6424  0.1410 -0.0332
13713TIP3   OH241083   3.078   7.823   4.048  0.0519 -0.0306  0.1671
13713TIP3    H141084   3.164   7.781   4.042  0.2916  0.5869 -1.0946
13713TIP3    H241085   3.063   7.834   4.142  0.8456 -1.1514  0.4387
13714TIP3   OH241086   1.624   1.428   4.943  0.0061 -0.4204  0.3805
13714TIP3    H141087   1.648   1.336   4.940 -0.2722 -0.7739  4.1149
13714TIP3    H241088   1.706   1.474   4.962  0.0438  0.0852 -0.8910
13715TIP3   OH241089   2.832   7.050   2.875 -0.1080 -0.0053 -0.0024
13715TIP3    H141090   2.902   7.011   2.927  0.0951 -0.3975 -0.5627
13715TIP3    H241091   2.752   7.028   2.923  0.1600  0.6653  0.7757
13716TIP3   OH241092   7.359   2.498   6.645  0.3346  0.3308 -0.0713
13716TIP3    H141093   7.328   2.480   6.556 -0.8943 -2.4055  0.7908
13716TIP3    H241094   7.301   2.568   6.676 -1.5124 -0.9816 -0.3543
13717TIP3   OH241095   3.225   3.227   3.779 -0.2676  0.0009  0.2715
13717TIP3    H141096   3.142   3.275   3.778  0.1049  0.7701 -2.5584
13717TIP3    H241097   3.200   3.137   3.757 -0.3094  0.4088 -1.4488
13718TIP3   OH241098   3.532   2.378   6.059  0.5301 -0.0299  0.2702
13718TIP3    H141099   3.500   2.458   6.017 -0.2350  0.1282  1.1218
13718TIP3    H241100   3.592   2.340   5.995  0.5900  1.0094 -0.3168
13719TIP3   OH241101   5.733   0.050   5.441  0.5635 -0.4359 -0.1789
13719TIP3    H141102   5.723   0.143   5.421 -0.4344 -0.6012 -0.4714
13719TIP3    H241103   5.644   0.019   5.457  0.8153 -1.4962 -0.7774
13720TIP3   OH241104   3.108   3.474   0.331 -0.0429  0.1402 -0.4601
13720TIP3    H141105   3.180   3.536   0.344 -0.1153  0.9214 -3.0981
13720TIP3    H241106   3.151   3.388   0.328  0.5621  0.4323 -0.3799
13721TIP3   OH241107   5.984   6.703   4.570  0.0912 -0.1665  0.2338
13721TIP3    H141108   5.947   6.752   4.496 -1.3503 -1.7121 -0.1525
13721TIP3    H241109   5.962   6.611   4.551  1.4385 -0.8250  1.6146
13722TIP3   OH241110   4.662   1.871   4.569  0.0942  0.2082 -0.3880
13722TIP3    H141111   4.620   1.914   4.644  0.7405  1.5564 -0.7629
13722TIP3    H241112   4.606   1.893   4.495  0.3224  0.2354 -0.5523
13723TIP3   OH241113   6.180   0.556   4.393 -0.2383 -0.4446  0.2289
13723TIP3    H141114   6.137   0.525   4.313 -1.4390 -0.4961  0.8659
13723TIP3    H241115   6.110   0.599   4.442  0.5661 -0.0919  1.0831
13724TIP3   OH241116   3.504   1.121   4.346 -0.3078  0.0916  0.5083
13724TIP3    H141117   3.538   1.173   4.274 -0.2080  1.5450  1.5526
13724TIP3    H241118   3.553   1.150   4.423  0.1571 -1.9866  1.0597
13725TIP3   OH241119   7.403   5.998   5.355 -0.0911  0.6470 -0.5197
13725TIP3    H141120   7.494   6.025   5.344 -0.4607  2.0221 -0.4137
13725TIP3    H241121   7.354   6.080   5.355 -1.5891 -0.1424 -2.7833
13726TIP3   OH241122   6.913   0.020   4.679  0.7059  0.5103  0.5178
13726TIP3    H141123   6.858   0.047   4.753 -1.0385  0.7004 -0.7670
13726TIP3    H241124   6.873  -0.061   4.647  1.5532  0.3097 -0.0899
13727TIP3   OH241125   8.262   5.738   3.624 -0.0772 -0.5632 -0.8656
13727TIP3    H141126   8.325   5.730   3.552 -0.1990  1.3808 -1.2441
13727TIP3    H241127   8.195   5.797   3.590 -1.9509 -2.2925 -0.3243
13728TIP3   OH241128   7.361   5.886   5.941 -0.1947 -0.0348  0.4875
13728TIP3    H141129   7.392   5.796   5.949 -0.8832 -0.1652  2.0444
13728TIP3    H241130   7.271   5.878   5.908 -0.0347  0.1116  0.0167
13729TIP3   OH241131   1.280   2.098   6.556  0.3410  0.1011  0.0417
13729TIP3    H141132   1.221   2.160   6.599  1.7414  0.0803  2.1473
13729TIP3    H241133   1.225   2.023   6.536 -0.4238  0.1642  1.7571
13730TIP3   OH241134   7.243   0.844   0.918  0.1345  0.1316 -0.4317
13730TIP3    H141135   7.263   0.880   0.831  0.3096  0.1683 -0.3767
13730TIP3    H241136   7.211   0.756   0.901  0.5627 -0.0133 -0.5066
13731TIP3   OH241137   3.123   0.266   0.659 -0.2485 -0.2740 -0.2816
13731TIP3    H141138   3.184   0.213   0.608 -1.9236 -0.9759 -1.6164
13731TIP3    H241139   3.172   0.346   0.678  0.5365 -0.0734 -2.8075
13732TIP3   OH241140   8.195   5.105   6.691 -0.3190  0.0047  0.1859
13732TIP3    H141141   8.183   5.038   6.758 -2.6985  0.1186 -0.0495
13732TIP3    H241142   8.283   5.139   6.707  1.0568 -3.2297  0.2111
13733TIP3   OH241143   7.231   6.490   0.095 -0.3432  0.0171 -0.1094
13733TIP3    H141144   7.195   6.506   0.182 -0.8486  1.2564 -0.5281
13733TIP3    H241145   7.208   6.399   0.076 -1.0123  0.0103  0.6862
13734TIP3   OH241146   5.937   0.703   4.446 -0.3425  0.2753 -0.3610
13734TIP3    H141147   5.855   0.743   4.477  1.0528  2.0070  1.3287
13734TIP3    H241148   5.919   0.609   4.449 -2.6693  0.6084 -1.3065
13735TIP3   OH241149   0.144   5.202   2.244  0.2684 -0.0463 -0.1070
13735TIP3    H141150   0.073   5.140   2.225 -1.4511  2.2067 -1.6792
13735TIP3    H241151   0.169   5.236   2.158  4.5445 -1.9124  0.1893
13736TIP3   OH241152   7.742   2.201   0.095 -0.3163 -0.2989  0.2873
13736TIP3    H141153   7.709   2.199   0.185 -0.0317 -0.4466  0.3883
13736TIP3    H241154   7.816   2.140   0.095 -1.1163 -1.2852 -0.3644
13737TIP3   OH241155   2.320   0.732   5.747  0.1428  0.2550  0.1509
13737TIP3    H141156   2.317   0.816   5.701  0.0501 -1.2224 -2.8362
13737TIP3    H241157   2.230   0.717   5.776 -0.2762  0.3274 -1.0635
13738TIP3   OH241158   1.145   2.992   3.719  0.4288  0.6139  0.1579
13738TIP3    H141159   1.136   2.897   3.722  2.9165  0.3315  1.3445
13738TIP3    H241160   1.149   3.013   3.625 -0.1581 -0.4349 -0.1127
13739TIP3   OH241161   5.733   1.892   4.779  0.1830  0.6257  0.2917
13739TIP3    H141162   5.666   1.946   4.820 -0.4517 -0.9612  1.4436
13739TIP3    H241163   5.784   1.856   4.851  1.4189  0.7048 -0.5077
13740TIP3   OH241164   3.510   1.823   1.426 -0.4647 -0.3360 -0.4174
13740TIP3    H141165   3.589   1.876   1.413  0.9653 -2.3335 -0.3168
13740TIP3    H241166   3.449   1.855   1.360  1.0126  0.1604 -1.5987
13741TIP3   OH241167   3.302   0.159   1.753 -0.2466  0.1000  0.5119
13741TIP3    H141168   3.238   0.088   1.757  0.2644 -0.3987 -0.0407
13741TIP3    H241169   3.277   0.208   1.674  1.1313 -1.1718 -0.7826
13742TIP3   OH241170   6.764   4.575   3.936  0.0137  0.1946  0.1662
13742TIP3    H141171   6.830   4.506   3.942 -2.0048 -2.0168 -0.9225
13742TIP3    H241172   6.756   4.592   3.842 -0.2560  1.1871  0.3576
13743TIP3   OH241173   3.338   5.400   3.549  0.3439 -0.4628 -0.2512
13743TIP3    H141174   3.420   5.433   3.511 -0.4151  1.8722 -0.0155
13743TIP3    H241175   3.275   5.470   3.534 -0.3820  0.0121  3.9110
13744TIP3   OH241176   8.214   5.900   5.851  0.1402 -0.1759 -0.2895
13744TIP3    H141177   8.276   5.949   5.797 -0.2783  1.3096  0.5372
13744TIP3    H241178   8.263   5.822   5.878  1.1789  0.2845 -0.7857
13745TIP3   OH241179   0.531   3.213   2.425 -0.4854  0.1825 -0.0447
13745TIP3    H141180   0.552   3.297   2.385  0.2478 -0.3527 -0.8210
13745TIP3    H241181   0.517   3.233   2.517  0.8552  0.9990  0.0059
13746TIP3   OH241182   0.077   7.639   3.183 -0.1229  0.6471 -0.1652
13746TIP3    H141183   0.042   7.584   3.113 -0.2947  0.5868 -0.0351
13746TIP3    H241184   0.013   7.710   3.192 -0.5603  0.1868  0.5120
13747TIP3   OH241185   1.211   6.488   3.828  0.3094  0.2517 -0.2541
13747TIP3    H141186   1.160   6.406   3.827  0.8520 -0.1079  0.5063
13747TIP3    H241187   1.281   6.471   3.891  1.2426  0.8156 -1.1200
13748TIP3   OH241188   6.148   5.255   0.817 -0.1123  0.5654 -0.3485
13748TIP3    H141189   6.138   5.266   0.722  1.8008  0.6646 -0.5697
13748TIP3    H241190   6.159   5.344   0.850  1.1518  0.4097 -0.3059
13749TIP3   OH241191   4.869   4.457   3.178  0.2509 -0.6051 -0.1207
13749TIP3    H141192   4.795   4.511   3.152  1.2643 -0.0450 -2.0477
13749TIP3    H241193   4.942   4.489   3.126  2.0456 -0.7321  2.1530
13750TIP3   OH241194   0.031   7.766   1.697  0.6987 -0.2192 -0.2282
13750TIP3    H141195   0.061   7.735   1.612 -2.8073  0.6800 -1.9811
13750TIP3    H241196  -0.048   7.715   1.715 -0.5177  1.8864  0.7979
13751TIP3   OH241197   3.586   0.741   2.496  0.3238  0.0320 -0.3982
13751TIP3    H141198   3.549   0.735   2.584  2.1550  0.3598  0.4379
13751TIP3    H241199   3.556   0.825   2.462 -1.2661 -0.5683 -0.5299
13752TIP3   OH241200   1.472   6.529   4.662 -0.1426  0.0847  0.0973
13752TIP3    H141201   1.544   6.499   4.717 -1.0930 -1.8137  0.3832
13752TIP3    H241202   1.476   6.473   4.584 -0.6377  0.7132 -0.3920
13753TIP3   OH241203   8.219   4.376   6.072 -0.2683 -0.7485 -0.7057
13753TIP3    H141204   8.199   4.462   6.034 -0.8717 -1.0679 -1.1308
13753TIP3    H241205   8.251   4.396   6.160  2.6963  0.1085 -1.8784
13754TIP3   OH241206   3.219   1.076   1.575 -0.5533  0.1489  0.2812
13754TIP3    H141207   3.291   1.073   1.512 -0.3954 -1.6906  0.5136
13754TIP3    H241208   3.257   1.115   1.654 -0.8981  3.0615 -0.8481
13755TIP3   OH241209   5.748   5.968   3.342  0.1925 -0.1373  0.1764
13755TIP3    H141210   5.793   5.935   3.264 -1.2724 -1.0262 -0.3370
13755TIP3    H241211   5.682   6.029   3.308 -1.3035 -1.4644  0.5538
13756TIP3   OH241212   5.835   1.044   0.073 -0.2088 -0.4425  0.7160
13756TIP3    H141213   5.769   0.980   0.045 -1.0280  0.4731  0.4877
13756TIP3    H241214   5.897   1.047   0.000 -1.9672  1.4294 -0.8596
13757TIP3   OH241215   5.487   0.921   5.108  0.1753 -0.0370  0.3710
13757TIP3    H141216   5.463   0.833   5.138  0.4357  0.0015  0.6976
13757TIP3    H241217   5.541   0.906   5.031  0.8764 -0.1945  0.8837
13758TIP3   OH241218   4.811   4.381   3.845 -0.3615 -0.3565  0.4630
13758TIP3    H141219   4.853   4.369   3.760 -0.0700 -0.1614  0.5748
13758TIP3    H241220   4.741   4.316   3.847  0.2175 -0.9883  0.4498
13759TIP3   OH241221   6.987   3.926   4.625 -0.7961  0.3297  0.4693
13759TIP3    H141222   7.042   4.000   4.597 -0.5802  0.1842  0.5008
13759TIP3    H241223   6.989   3.866   4.550 -1.9213  0.8715 -0.0186
13760TIP3   OH241224   7.076   3.269   4.202 -0.1921  0.0081 -0.5135
13760TIP3    H141225   7.028   3.216   4.139  0.3286 -1.7853  0.5224
13760TIP3    H241226   7.167   3.260   4.176 -0.0659  0.0590 -0.0895
13761TIP3   OH241227   2.907   4.612   0.375  0.6395  0.2132  0.4559
13761TIP3    H141228   2.953   4.687   0.336  0.0168 -0.3082 -1.3815
13761TIP3    H241229   2.815   4.636   0.369  0.5451  0.5196  2.5515
13762TIP3   OH241230   5.426   2.646   6.463  0.0803  0.0339 -0.2559
13762TIP3    H141231   5.422   2.598   6.380  1.1610  0.5647 -0.6410
13762TIP3    H241232   5.337   2.679   6.476 -0.5556 -1.6085 -0.2456
13763TIP3   OH241233   3.475   6.429   6.398 -1.0372 -0.0482 -1.4146
13763TIP3    H141234   3.387   6.401   6.372 -1.9788  0.5660  0.8932
13763TIP3    H241235   3.462   6.516   6.436 -0.3341 -1.7780  3.4224
13764TIP3   OH241236   1.088   4.802   4.073 -0.1099  0.0206  0.1358
13764TIP3    H141237   1.010   4.749   4.057 -0.8529  1.3873 -0.9224
13764TIP3    H241238   1.107   4.843   3.988  2.0528 -0.6467  0.2431
13765TIP3   OH241239   0.046   4.188   3.909  0.6451  0.0271 -0.2774
13765TIP3    H141240  -0.029   4.185   3.969 -0.2877  0.3713 -1.3942
13765TIP3    H241241   0.033   4.113   3.851  0.8952  0.3844 -0.7996
13766TIP3   OH241242   3.314   2.174   6.418 -0.2914  0.6219 -0.5075
13766TIP3    H141243   3.296   2.207   6.507  2.7091 -0.4369  0.6281
13766TIP3    H241244   3.237   2.123   6.395  0.0658 -1.8808  2.9946
13767TIP3   OH241245   0.589   3.921   0.327  0.5184 -0.4547  1.0937
13767TIP3    H141246   0.673   3.927   0.281 -0.6352 -0.6078 -1.1761
13767TIP3    H241247   0.601   3.849   0.389  1.6532 -1.4669 -0.2178
13768TIP3   OH241248   2.482   3.894   3.899  0.2698 -0.2155 -0.2608
13768TIP3    H141249   2.418   3.889   3.969 -0.7703 -0.8945 -1.2365
13768TIP3    H241250   2.452   3.831   3.833  2.0266 -0.6744 -0.6740
13769TIP3   OH241251   0.293   1.437   5.345  0.3505 -0.0096  0.0121
13769TIP3    H141252   0.212   1.488   5.338  0.9127  1.4461  2.5728
13769TIP3    H241253   0.357   1.487   5.294  0.1728  0.1536 -0.0527
13770TIP3   OH241254   6.809   0.558   1.324 -0.0958 -0.1239 -0.0851
13770TIP3    H141255   6.890   0.570   1.373  0.0437  0.1800 -0.3825
13770TIP3    H241256   6.780   0.647   1.304  0.7520 -0.2337 -2.0319
13771TIP3   OH241257   3.647   4.019   0.193 -0.2619  0.5166  0.3051
13771TIP3    H141258   3.696   3.951   0.147  1.1883  1.4273  0.4483
13771TIP3    H241259   3.655   4.096   0.137  0.9644  1.4669  1.6923
13772TIP3   OH241260   7.356   3.247   4.146  0.4429  0.5848 -0.1802
13772TIP3    H141261   7.391   3.268   4.232 -0.1816 -1.5230  0.6403
13772TIP3    H241262   7.367   3.327   4.095  1.1621  1.7517  1.7378
13773TIP3   OH241263   5.643   0.892   4.889  0.0103  0.3984 -0.1509
13773TIP3    H141264   5.660   0.911   4.797  2.4896  2.0428  0.5404
13773TIP3    H241265   5.677   0.804   4.903 -1.0459 -0.1527 -0.9216
13774TIP3   OH241266   4.334   5.127   0.772  0.4639  0.3252 -0.1723
13774TIP3    H141267   4.351   5.041   0.812  0.7622  0.8617  0.8831
13774TIP3    H241268   4.242   5.144   0.791  0.6970  0.7369  0.6005
13775TIP3   OH241269   4.407   0.892   0.114  0.2480 -0.4971 -0.9363
13775TIP3    H141270   4.371   0.972   0.076  0.1165 -0.7255 -1.2858
13775TIP3    H241271   4.502   0.905   0.111  0.2126 -0.0137 -0.2623
13776TIP3   OH241272   0.954   4.085   1.722  0.0421 -0.4917 -0.2494
13776TIP3    H141273   0.866   4.050   1.738  0.1263  0.2774  2.4846
13776TIP3    H241274   1.004   4.011   1.690 -1.2987 -1.2546 -0.6686
13777TIP3   OH241275   2.590   6.078   2.109  0.0625  0.1313 -0.0021
13777TIP3    H141276   2.647   6.001   2.107  2.3786  1.6827  1.5279
13777TIP3    H241277   2.627   6.136   2.041 -0.3884  0.7083  0.2427
13778TIP3   OH241278   4.960   3.290   6.180 -0.3586 -0.1331 -0.1480
13778TIP3    H141279   4.991   3.203   6.205  0.1610  0.0459 -0.1567
13778TIP3    H241280   4.961   3.340   6.262 -0.7131 -0.1466 -0.1308
13779TIP3   OH241281   0.099   6.660   3.777  0.2966 -0.5466 -0.2377
13779TIP3    H141282   0.145   6.715   3.841  0.9235 -2.0906  0.7204
13779TIP3    H241283   0.025   6.623   3.825  0.0824 -0.8047 -0.7521
13780TIP3   OH241284   1.729   3.529   3.782 -0.6498  0.2636  0.0060
13780TIP3    H141285   1.686   3.604   3.824  0.0247  0.4250  0.4161
13780TIP3    H241286   1.658   3.467   3.766 -1.3692  1.3113 -1.0714
13781TIP3   OH241287   4.439   0.140   0.554  0.4124 -0.0007 -1.1613
13781TIP3    H141288   4.511   0.129   0.492  0.4110 -0.9508 -1.0168
13781TIP3    H241289   4.385   0.209   0.516  0.3416 -0.6517 -2.2909
13782TIP3   OH241290   7.744   7.646   4.957 -0.2197 -0.8242 -0.0422
13782TIP3    H141291   7.702   7.635   5.042 -1.3248  0.3033 -0.4239
13782TIP3    H241292   7.798   7.724   4.966 -2.2195  0.7658 -1.0387
13783TIP3   OH241293   0.941   0.559   5.873 -0.0219  0.4534  0.3550
13783TIP3    H141294   0.883   0.561   5.949 -0.3644  0.9500  0.0924
13783TIP3    H241295   0.928   0.472   5.835 -0.0889  0.3208  0.6826
13784TIP3   OH241296   1.355   0.804   4.046 -0.0605  0.1895 -1.3676
13784TIP3    H141297   1.308   0.823   4.127 -2.9956 -0.9551 -2.6822
13784TIP3    H241298   1.367   0.889   4.004 -3.8858  0.3825 -2.4012
13785TIP3   OH241299   7.713   6.177   6.123 -0.1584 -0.1360 -0.0510
13785TIP3    H141300   7.759   6.168   6.039 -1.0094  0.4210 -0.5922
13785TIP3    H241301   7.734   6.097   6.171 -1.5038 -1.5644 -1.7055
13786TIP3   OH241302   3.628   4.598   4.888 -0.0943 -0.0041  0.0399
13786TIP3    H141303   3.614   4.544   4.966 -2.5495  1.5750  0.8060
13786TIP3    H241304   3.582   4.552   4.818 -1.1634  0.4742  0.4179
13787TIP3   OH241305   1.572   4.714   3.910 -0.9082 -0.3996  0.0180
13787TIP3    H141306   1.512   4.779   3.945  0.2967 -0.1813  1.8215
13787TIP3    H241307   1.618   4.680   3.987  0.3111 -1.5284 -1.1547
13788TIP3   OH241308   5.644   4.134   3.023 -0.8079 -0.2362 -0.5031
13788TIP3    H141309   5.689   4.049   3.023  1.2519  0.7400  1.7691
13788TIP3    H241310   5.579   4.126   3.093 -0.3110  0.2113  0.0061
13789TIP3   OH241311   5.027   2.391   0.154  0.0756  0.0685 -0.1701
13789TIP3    H141312   5.062   2.434   0.077  0.9301 -0.0155  0.1574
13789TIP3    H241313   4.937   2.368   0.131  0.2671  0.2098 -1.0663
13790TIP3   OH241314   5.727   1.192   2.928 -0.0356 -0.0198  0.7154
13790TIP3    H141315   5.683   1.214   2.845  2.0559 -3.9420 -1.7896
13790TIP3    H241316   5.656   1.166   2.986 -1.4513 -0.9748 -1.3001
13791TIP3   OH241317   5.322   5.370   1.428 -0.2131  0.2147 -0.5423
13791TIP3    H141318   5.231   5.368   1.457  0.0049 -0.5707  0.1213
13791TIP3    H241319   5.317   5.373   1.333 -0.9306  0.9947 -0.4906
13792TIP3   OH241320   1.225   3.374   3.082  0.7266 -0.1079 -0.9832
13792TIP3    H141321   1.253   3.465   3.070 -0.0227  0.1092 -1.1040
13792TIP3    H241322   1.165   3.358   3.010 -2.2180  0.5548  1.1586
13793TIP3   OH241323   0.302   3.788   4.173 -0.2181 -0.8114 -0.1724
13793TIP3    H141324   0.257   3.830   4.246  1.3511  0.1041  0.3118
13793TIP3    H241325   0.316   3.698   4.202 -0.9499 -0.8721  0.0121
13794TIP3   OH241326   0.202   3.401   4.857 -0.6466 -0.1535 -0.1518
13794TIP3    H141327   0.258   3.383   4.933 -0.7314 -1.3924 -0.3566
13794TIP3    H241328   0.263   3.408   4.783 -0.6628 -0.3051 -0.1805
13795TIP3   OH241329   7.791   6.862   0.815 -0.0615 -0.2141  0.1362
13795TIP3    H141330   7.716   6.821   0.858 -0.2990 -1.2991 -1.2501
13795TIP3    H241331   7.805   6.810   0.735  0.6997  1.3735 -0.8209
13796TIP3   OH241332   8.210   4.452   3.318 -0.6143  0.5121 -0.4687
13796TIP3    H141333   8.290   4.419   3.277  0.0275 -0.3505  1.3838
13796TIP3    H241334   8.231   4.541   3.343 -0.8685  0.8998 -1.5521
13797TIP3   OH241335   6.446   0.003   2.310 -0.5029  0.3295  0.4086
13797TIP3    H141336   6.422   0.089   2.345 -1.1819 -0.1793  1.2230
13797TIP3    H241337   6.456   0.018   2.215 -2.9365  0.8295  0.1689
13798TIP3   OH241338   3.456   4.463   4.727 -0.3548  0.1322 -0.3632
13798TIP3    H141339   3.409   4.532   4.680  1.5280  2.1344  0.5110
13798TIP3    H241340   3.462   4.391   4.665 -1.3846  1.1672 -1.7319
13799TIP3   OH241341   8.092   4.126   1.623  0.0172 -0.5912  0.5890
13799TIP3    H141342   8.140   4.044   1.634  0.8404  0.0564  2.1417
13799TIP3    H241343   8.000   4.102   1.635  0.1587 -1.4279  0.0797
13800TIP3   OH241344   5.555   1.473   4.702 -0.6568  0.2489  0.0266
13800TIP3    H141345   5.524   1.517   4.781 -1.7582 -0.0947 -0.1901
13800TIP3    H241346   5.531   1.532   4.630 -0.3148  0.2281 -0.1067
13801TIP3   OH241347   3.534   7.577   4.480 -0.1418  0.2250 -0.2041
13801TIP3    H141348   3.455   7.567   4.428 -1.2418  0.4333  1.3445
13801TIP3    H241349   3.510   7.641   4.548  1.2027 -0.0462  0.5688
13802TIP3   OH241350   2.529   3.202   1.698 -0.3449  0.2913 -1.3389
13802TIP3    H141351   2.533   3.180   1.791  0.9730 -1.3453 -1.7452
13802TIP3    H241352   2.435   3.209   1.679 -0.6234  1.7478  0.3125
13803TIP3   OH241353   0.741   1.461   0.562  0.2188  0.2848  0.4900
13803TIP3    H141354   0.799   1.473   0.636  1.4374 -0.1042 -0.3751
13803TIP3    H241355   0.663   1.420   0.599 -0.4483  2.7269  2.0241
13804TIP3   OH241356   7.905   5.070   4.490 -0.0473  0.2608  0.0476
13804TIP3    H141357   7.970   5.028   4.433  0.7285  0.8073  0.5221
13804TIP3    H241358   7.862   5.134   4.433  0.7889  0.8709  0.0834
13805TIP3   OH241359   8.129   2.485   4.414  0.6597 -0.1792 -0.0684
13805TIP3    H141360   8.159   2.506   4.325  1.6901 -1.6020 -0.0774
13805TIP3    H241361   8.197   2.519   4.471  0.0006  0.7279  0.2060
13806TIP3   OH241362   5.753   4.779   2.757 -0.0049  0.3058  0.0920
13806TIP3    H141363   5.688   4.709   2.756  1.5029 -1.1693 -0.0359
13806TIP3    H241364   5.702   4.860   2.765 -1.7722 -0.8559  1.4621
13807TIP3   OH241365   6.371   4.397   3.085 -0.2290 -0.0906 -0.4901
13807TIP3    H141366   6.297   4.401   3.024 -0.4286  2.2196 -0.1573
13807TIP3    H241367   6.433   4.462   3.053  1.0716 -1.0264  0.0407
13808TIP3   OH241368   7.042   6.582   4.351 -0.7580 -0.2946 -0.5744
13808TIP3    H141369   7.002   6.666   4.373  0.1765 -0.0907  0.3950
13808TIP3    H241370   6.969   6.530   4.316 -1.5821  0.5208 -0.1175
13809TIP3   OH241371   7.385   7.758   2.736 -0.7486  0.2056 -0.0045
13809TIP3    H141372   7.391   7.682   2.795 -2.3539 -0.7600 -1.0256
13809TIP3    H241373   7.352   7.722   2.654 -0.9776  1.9381 -0.7024
13810TIP3   OH241374   7.720   4.913   3.230  0.1038 -0.0817 -0.0011
13810TIP3    H141375   7.656   4.895   3.161 -0.2543  1.2703 -0.0505
13810TIP3    H241376   7.707   4.842   3.293 -0.5251 -0.5649 -0.6542
13811TIP3   OH241377   7.892   5.582   5.379 -0.4594 -0.2145 -0.1296
13811TIP3    H141378   7.952   5.508   5.391 -1.2048 -0.8584 -0.2537
13811TIP3    H241379   7.904   5.635   5.458 -0.4001 -0.8281  0.2814
13812TIP3   OH241380   5.985   0.080   6.118  0.2050 -0.2202 -0.0206
13812TIP3    H141381   6.007   0.079   6.212  1.0868 -2.7212 -0.1735
13812TIP3    H241382   6.012  -0.006   6.087 -2.0630 -0.2475 -2.1454
13813TIP3   OH241383   7.080   2.404   2.792  0.3438 -0.2244 -0.6093
13813TIP3    H141384   7.073   2.316   2.755  2.1173 -0.6266 -0.0827
13813TIP3    H241385   7.104   2.459   2.717  0.1659 -0.3545 -0.7639
13814TIP3   OH241386   0.471   0.865   5.167 -0.3833 -0.0509  0.4189
13814TIP3    H141387   0.429   0.942   5.206  0.0182 -0.0342  0.8150
13814TIP3    H241388   0.431   0.790   5.211  1.0486 -0.0081  1.8917
13815TIP3   OH241389   2.364   6.656   6.421  0.3318 -0.1503 -0.1578
13815TIP3    H141390   2.392   6.702   6.343  1.8141  1.0680  1.0324
13815TIP3    H241391   2.277   6.691   6.440  0.4999  0.4808 -0.5424
13816TIP3   OH241392   0.474   7.037   0.349 -0.7394  0.3263  0.1306
13816TIP3    H141393   0.393   7.080   0.320 -1.4900 -1.0261  0.1316
13816TIP3    H241394   0.450   6.945   0.358  0.5226  0.0739  1.2214
13817TIP3   OH241395   1.096   7.328   1.387 -0.3692  0.0131 -0.3328
13817TIP3    H141396   1.069   7.349   1.476 -0.2610  1.7426 -0.6706
13817TIP3    H241397   1.019   7.346   1.333 -0.4592 -1.0926 -0.5875
13818TIP3   OH241398   1.975   7.829   3.824 -0.4517  0.1905 -0.2411
13818TIP3    H141399   1.995   7.741   3.790  0.5409  0.6860 -0.9665
13818TIP3    H241400   1.938   7.813   3.911 -0.5534 -0.9643 -0.4800
13819TIP3   OH241401   0.227   2.292   3.708  0.0391 -0.4514 -0.1316
13819TIP3    H141402   0.300   2.257   3.758 -0.4570 -0.9139  0.2788
13819TIP3    H241403   0.172   2.216   3.688  0.3404 -0.3202 -1.5854
13820TIP3   OH241404   1.115   4.145   4.652  0.6710  0.0288 -0.2616
13820TIP3    H141405   1.172   4.189   4.588  0.2727  2.6671  1.0429
13820TIP3    H241406   1.102   4.210   4.721 -0.1778 -2.1423  1.7745
13821TIP3   OH241407   1.230   3.601   6.702 -0.6855  0.6035  0.0154
13821TIP3    H141408   1.198   3.525   6.654 -0.6878  0.4409  0.2742
13821TIP3    H241409   1.152   3.651   6.724 -0.9863 -0.6618  2.1516
13822TIP3   OH241410   3.816   5.890   0.686  0.3518 -0.0608  0.7196
13822TIP3    H141411   3.766   5.896   0.768  0.1285 -1.6724  0.7289
13822TIP3    H241412   3.849   5.978   0.672  0.1509  0.3135  2.4048
13823TIP3   OH241413   3.839   2.031   0.693  0.5713  0.2766  0.0571
13823TIP3    H141414   3.801   1.969   0.632  0.1859  0.1183  0.4519
13823TIP3    H241415   3.933   2.026   0.677  0.6206 -0.9675  0.5968
13824TIP3   OH241416   0.853   4.328   5.634  0.1590 -0.3544 -0.0610
13824TIP3    H141417   0.935   4.324   5.584  0.1635 -1.3050 -0.0028
13824TIP3    H241418   0.800   4.257   5.598 -1.6844  1.7906 -1.8235
13825TIP3   OH241419   0.746   0.945   6.564  0.2479 -0.5115  1.1908
13825TIP3    H141420   0.827   0.981   6.599  0.7707 -1.0550  0.5785
13825TIP3    H241421   0.740   0.980   6.475 -0.6720  0.2576  1.5449
13826TIP3   OH241422   1.994   6.334   6.144  0.2300 -0.7490  0.3138
13826TIP3    H141423   2.027   6.283   6.218  0.3819 -0.9375  0.1163
13826TIP3    H241424   2.060   6.402   6.131 -0.2330 -0.1640  0.9199
13827TIP3   OH241425   0.026   4.909   0.996  0.1235  0.4513  0.3794
13827TIP3    H141426   0.048   4.820   0.968 -2.7705 -0.5645  0.9710
13827TIP3    H241427   0.005   4.900   1.089 -1.2719  1.5144  0.1950
13828TIP3   OH241428   2.456   4.789   3.804 -0.0640 -0.4950 -0.2430
13828TIP3    H141429   2.393   4.860   3.793  1.2694  1.1932  2.1341
13828TIP3    H241430   2.406   4.710   3.787 -2.2824  0.8797 -0.4736
13829TIP3   OH241431   7.476   3.547   6.253  0.1975  0.4022 -0.7031
13829TIP3    H141432   7.512   3.462   6.228 -1.0771 -0.6325  0.8087
13829TIP3    H241433   7.525   3.571   6.331 -2.4150 -1.2150  1.6259
13830TIP3   OH241434   3.537   7.089   5.191  0.2210  0.0250  0.4010
13830TIP3    H141435   3.571   7.178   5.192  0.3090  0.0094  2.8676
13830TIP3    H241436   3.508   7.072   5.280 -0.1157 -2.3107 -0.0712
13831TIP3   OH241437   6.430   3.970   5.743  0.8107  0.2046  0.0503
13831TIP3    H141438   6.376   3.948   5.819  0.4707  2.0811  0.4071
13831TIP3    H241439   6.518   3.979   5.778  1.0695 -1.0746 -0.2089
13832TIP3   OH241440   4.933   7.741   0.201 -0.1534  0.5751 -0.3439
13832TIP3    H141441   4.895   7.694   0.126 -0.5662  0.7301 -0.2352
13832TIP3    H241442   4.955   7.672   0.263 -0.4994  0.5044 -0.3008
13833TIP3   OH241443   4.624   3.635   0.579  0.1748  0.0369  0.0966
13833TIP3    H141444   4.589   3.563   0.632 -0.5670 -2.4940 -3.4243
13833TIP3    H241445   4.695   3.595   0.528 -0.9375  1.4164 -2.7729
13834TIP3   OH241446   5.549   1.053   4.330 -0.3408 -0.7656 -0.3663
13834TIP3    H141447   5.569   1.109   4.405  1.7697 -1.5709 -0.2413
13834TIP3    H241448   5.544   1.114   4.256 -3.5188  0.1710  0.4772
13835TIP3   OH241449   2.704   3.774   5.082  0.5583 -0.9524 -0.1957
13835TIP3    H141450   2.707   3.693   5.031 -0.0683 -1.0986  0.0022
13835TIP3    H241451   2.719   3.746   5.173 -0.5972 -0.9643  0.0002
13836TIP3   OH241452   5.494   2.557   4.620  0.1566 -0.4409 -0.0899
13836TIP3    H141453   5.578   2.587   4.587  0.0525  1.1403  0.9676
13836TIP3    H241454   5.429   2.611   4.575 -0.2769 -1.2230 -0.4369
13837TIP3   OH241455   0.882   4.509   4.307 -0.2839  0.2912  0.1041
13837TIP3    H141456   0.902   4.417   4.324  3.5895  0.9285 -0.3195
13837TIP3    H241457   0.947   4.537   4.243 -0.6783  3.5948  0.9599
13838TIP3   OH241458   0.910   2.900   4.382  0.0659 -0.1850  0.2617
13838TIP3    H141459   0.932   2.971   4.443  0.5115  0.0055 -0.1172
13838TIP3    H241460   0.915   2.941   4.296 -2.4086  0.0495  0.1654
13839TIP3   OH241461   4.389   6.061   1.391 -0.1447 -0.3596  0.1923
13839TIP3    H141462   4.303   6.074   1.351 -1.2732 -1.8873  1.9271
13839TIP3    H241463   4.370   6.018   1.474  2.3534 -1.2860  0.3731
13840TIP3   OH241464   0.577   2.326   2.110 -0.5142  0.1991 -0.4155
13840TIP3    H141465   0.516   2.256   2.087 -0.6091  0.2436 -0.3013
13840TIP3    H241466   0.539   2.367   2.188  0.1645 -0.4000  0.2459
13841TIP3   OH241467   1.089   3.543   5.659 -0.3373 -0.1267  0.4701
13841TIP3    H141468   1.148   3.585   5.596  0.4230 -1.0072  0.5615
13841TIP3    H241469   1.094   3.599   5.737  0.9314 -0.5456  0.7137
13842TIP3   OH241470   4.696   3.490   2.060  0.5504  0.4953  0.4208
13842TIP3    H141471   4.695   3.462   1.968  1.7542 -0.2624  0.6160
13842TIP3    H241472   4.672   3.582   2.056 -1.4912 -0.0086 -0.4370
13843TIP3   OH241473   1.425   7.403   4.447 -0.9610 -0.2613 -0.7250
13843TIP3    H141474   1.445   7.372   4.359 -1.4072 -1.5635 -0.3953
13843TIP3    H241475   1.505   7.387   4.497 -0.7949  0.2412 -0.8191
13844TIP3   OH241476   2.540   2.138   3.975  0.2878 -0.1343 -0.5934
13844TIP3    H141477   2.626   2.172   3.951  1.1590  0.4356  2.8014
13844TIP3    H241478   2.558   2.060   4.027 -1.2578 -0.2563 -0.1787
13845TIP3   OH241479   5.842   1.263   5.871 -0.0636  0.0701  0.2245
13845TIP3    H141480   5.764   1.296   5.826 -0.5592  2.2718  2.4511
13845TIP3    H241481   5.808   1.194   5.929 -0.4518  1.1110  1.2836
13846TIP3   OH241482   6.121   4.018   1.016 -0.1393 -0.6421 -0.0682
13846TIP3    H141483   6.028   4.014   0.994 -0.0011 -0.8877 -0.6279
13846TIP3    H241484   6.166   4.016   0.931  0.3749 -0.5755  0.1991
13847TIP3   OH241485   1.923   2.700   2.977 -0.4572  0.2022 -0.0916
13847TIP3    H141486   1.873   2.625   2.946 -1.3087 -0.2978  2.2935
13847TIP3    H241487   1.985   2.663   3.041 -0.6319  1.4465  0.8339
13848TIP3   OH241488   7.920   2.766   0.897  0.2070  0.1252  0.0824
13848TIP3    H141489   7.884   2.700   0.838  1.5666  0.7847 -1.5818
13848TIP3    H241490   7.868   2.758   0.977 -1.9409 -0.6063 -1.2989
13849TIP3   OH241491   1.122   3.129   1.643  0.3634 -0.0613 -0.2525
13849TIP3    H141492   1.113   3.132   1.548 -0.8764 -1.9289 -0.2490
13849TIP3    H241493   1.216   3.123   1.658  0.6001  0.6039 -1.3242
13850TIP3   OH241494   7.352   6.228   2.762 -0.6512 -0.0589  0.1340
13850TIP3    H141495   7.403   6.229   2.681 -0.1602 -1.0161  0.4126
13850TIP3    H241496   7.407   6.179   2.824 -0.8134  1.0411  1.1808
13851TIP3   OH241497   3.056   7.355   6.371  0.3667 -0.1114 -0.4851
13851TIP3    H141498   2.990   7.404   6.421 -0.6338 -1.0450 -0.8589
13851TIP3    H241499   3.057   7.268   6.410  1.8844  0.0851 -0.0520
13852TIP3   OH241500   1.404   3.567   5.599 -0.0228  0.5503 -0.1469
13852TIP3    H141501   1.415   3.516   5.679 -0.0899  0.0996 -0.4195
13852TIP3    H241502   1.451   3.517   5.532 -2.6861 -0.8820 -1.1218
13853TIP3   OH241503   6.017   6.374   3.886 -0.2466  0.4794 -0.0342
13853TIP3    H141504   6.021   6.324   3.967 -0.9765  2.5905  1.4021
13853TIP3    H241505   5.924   6.384   3.868 -0.1394  1.6087 -0.0582
13854TIP3   OH241506   3.028   7.501   6.667 -0.0342 -0.1654 -0.4637
13854TIP3    H141507   2.978   7.473   6.743  0.6875 -0.5897 -0.1283
13854TIP3    H241508   2.964   7.511   6.598 -0.4670 -1.5555 -0.2853
13855TIP3   OH241509   3.497   4.223   1.815  0.0378 -0.0362 -0.5810
13855TIP3    H141510   3.417   4.269   1.788 -1.8270 -1.6661  1.7708
13855TIP3    H241511   3.550   4.290   1.858 -0.6467  0.8024 -1.0105
13856TIP3   OH241512   2.147   0.107   1.786  0.1498 -0.4063 -0.8338
13856TIP3    H141513   2.100   0.165   1.727  1.1372 -0.1376 -1.3731
13856TIP3    H241514   2.239   0.120   1.764  0.5007 -0.6965  0.4018
13857TIP3   OH241515   1.639   4.467   3.149  0.1929  0.6287  0.0799
13857TIP3    H141516   1.686   4.393   3.111  0.4976  0.9166 -0.1078
13857TIP3    H241517   1.549   4.436   3.157  0.3307  0.2111  0.0721
13858TIP3   OH241518   4.692   4.615   4.829 -0.5110  0.3608 -0.4867
13858TIP3    H141519   4.786   4.614   4.813 -0.0789  0.2554  1.7168
13858TIP3    H241520   4.674   4.533   4.875 -1.8809 -0.0676 -1.6939
13859TIP3   OH241521   3.368   0.052   3.523  0.0845  0.3245 -0.1255
13859TIP3    H141522   3.376  -0.034   3.482 -0.5285  0.3906 -0.4040
13859TIP3    H241523   3.295   0.093   3.476  0.7771  1.2364 -0.4184
13860TIP3   OH241524   1.971   3.247   5.304  0.4698 -0.1136  0.0492
13860TIP3    H141525   1.980   3.258   5.399  0.0892  1.5293 -0.0697
13860TIP3    H241526   2.026   3.171   5.283  2.2767  0.7630  1.2953
13861TIP3   OH241527   5.949   3.196   0.092 -0.0875  0.0736 -0.0392
13861TIP3    H141528   5.962   3.110   0.052 -0.3950  0.0575 -0.1109
13861TIP3    H241529   6.027   3.245   0.068 -0.3709  0.1420 -0.8743
13862TIP3   OH241530   4.741   1.037   1.849  0.5470 -0.1942  0.4074
13862TIP3    H141531   4.718   1.112   1.795  1.9047  0.8237  1.1774
13862TIP3    H241532   4.742   0.963   1.789 -0.4315  0.4645 -0.4433
13863TIP3   OH241533   4.421   5.607   2.183 -0.0316  0.3695  0.8256
13863TIP3    H141534   4.436   5.699   2.206  0.0278  0.6252 -0.1717
13863TIP3    H241535   4.328   5.594   2.197 -0.3776  1.0707 -0.5746
13864TIP3   OH241536   4.911   0.806   2.216  0.0831 -0.2447 -0.1554
13864TIP3    H141537   4.884   0.724   2.256 -0.7022  0.1351  0.0973
13864TIP3    H241538   4.996   0.786   2.177 -0.0102 -1.1223  0.0699
13865TIP3   OH241539   5.530   1.540   4.271 -0.1557  0.6036 -0.3360
13865TIP3    H141540   5.440   1.511   4.288  0.2066  0.1165  0.8127
13865TIP3    H241541   5.527   1.635   4.284 -0.2495  0.4428  0.9035
13866TIP3   OH241542   6.914   5.952   3.086  0.4347  0.6972  0.2152
13866TIP3    H141543   6.924   5.871   3.036  2.6380  1.5873 -0.9230
13866TIP3    H241544   6.820   5.957   3.105  0.1848 -1.9316  0.0654
13867TIP3   OH241545   1.109   6.536   5.471 -0.6509  0.0686 -0.2357
13867TIP3    H141546   1.153   6.620   5.467  0.6464 -0.5912 -0.2788
13867TIP3    H241547   1.155   6.487   5.539  1.8832 -2.3490 -3.3698
13868TIP3   OH241548   4.456   1.706   0.536  0.0499  0.0928 -0.4210
13868TIP3    H141549   4.450   1.652   0.458  0.6240  0.3073 -0.6252
13868TIP3    H241550   4.421   1.652   0.607 -1.3268  0.2278 -0.9725
13869TIP3   OH241551   6.260   1.396   3.799 -0.4335 -0.0452 -0.1272
13869TIP3    H141552   6.355   1.403   3.806 -0.3878 -1.6534  1.5687
13869TIP3    H241553   6.237   1.455   3.728  1.6221  1.8717  0.6769
13870TIP3   OH241554   7.846   7.214   5.796  0.0269  0.1565  0.7130
13870TIP3    H141555   7.848   7.286   5.733  0.9515 -0.5123 -0.0409
13870TIP3    H241556   7.909   7.239   5.863  0.1372  0.1761  0.6012
13871TIP3   OH241557   2.054   3.555   6.578 -0.4718 -0.4704  0.6208
13871TIP3    H141558   2.095   3.548   6.492  0.1149 -2.6253  0.9975
13871TIP3    H241559   2.025   3.466   6.598 -0.2140 -0.1363  2.8093
13872TIP3   OH241560   5.434   7.326   2.157 -0.2704  0.2926 -0.4346
13872TIP3    H141561   5.368   7.391   2.182 -0.5407 -0.3376  0.5738
13872TIP3    H241562   5.516   7.363   2.189 -0.2974  0.5366 -0.6424
13873TIP3   OH241563   0.596   0.712   6.249  0.1209 -0.2492  0.5536
13873TIP3    H141564   0.572   0.691   6.339 -0.3516 -0.3844  0.3993
13873TIP3    H241565   0.605   0.807   6.248  1.2023 -0.3401  0.9996
13874TIP3   OH241566   2.967   3.194   5.493  0.7164  0.1424 -0.5182
13874TIP3    H141567   3.057   3.209   5.522  0.4492 -0.8443  0.9236
13874TIP3    H241568   2.935   3.125   5.551 -1.1003  0.7370 -0.7817
13875TIP3   OH241569   5.390   3.090   5.378 -0.1579  0.4071  0.1536
13875TIP3    H141570   5.390   3.000   5.410 -0.1862  0.3772  0.0683
13875TIP3    H241571   5.469   3.097   5.324 -0.8987  0.0217 -1.0119
13876TIP3   OH241572   6.656   0.768   6.675  0.2839  0.1310  0.2375
13876TIP3    H141573   6.731   0.827   6.685  0.8775 -0.5733  0.0838
13876TIP3    H241574   6.686   0.703   6.611 -1.3658  1.2973 -1.8542
13877TIP3   OH241575   0.783   3.170   0.745  0.1868 -0.4292  0.4094
13877TIP3    H141576   0.796   3.263   0.765 -0.0240 -0.1768 -0.5530
13877TIP3    H241577   0.800   3.163   0.651  0.5277 -1.4347  0.5360
13878TIP3   OH241578   3.379   0.935   3.408  0.2560  0.3913  0.0772
13878TIP3    H141579   3.447   0.895   3.355 -0.0340  1.2767 -1.0093
13878TIP3    H241580   3.389   0.896   3.495  2.1278  0.4857 -0.0609
13879TIP3   OH241581   7.049   0.898   4.839  0.0374  0.5704  0.2698
13879TIP3    H141582   7.008   0.902   4.926 -1.3055  1.8790 -0.3813
13879TIP3    H241583   7.044   0.987   4.806 -1.6571 -0.2846 -2.0758
13880TIP3   OH241584   4.019   1.045   2.837  0.2492  0.5623 -0.1063
13880TIP3    H141585   3.953   1.111   2.814  1.2423  1.4668 -0.4189
13880TIP3    H241586   4.064   1.027   2.754  0.4310 -0.0180  0.1166
13881TIP3   OH241587   5.812   7.508   4.342  0.2363 -0.2013 -0.4852
13881TIP3    H141588   5.822   7.587   4.289  0.2242 -0.5549 -1.0216
13881TIP3    H241589   5.746   7.531   4.407  0.8903  0.5221 -0.0632
13882TIP3   OH241590   1.613   1.902   5.272  0.3109  0.2534 -0.0095
13882TIP3    H141591   1.592   1.874   5.183 -1.8392  1.5918  0.0078
13882TIP3    H241592   1.580   1.830   5.328  0.3423  0.0720 -0.2230
13883TIP3   OH241593   2.107   5.531   0.567 -0.1805 -0.2305 -0.0764
13883TIP3    H141594   2.015   5.544   0.542  0.1798  0.6579 -1.0309
13883TIP3    H241595   2.104   5.467   0.638 -1.6546  0.8547  0.8964
13884TIP3   OH241596   5.898   3.748   6.118  0.0033 -0.4294  0.4000
13884TIP3    H141597   5.951   3.688   6.066  0.9952 -0.3394  1.2634
13884TIP3    H241598   5.953   3.826   6.128 -1.2279  0.6222 -0.6478
13885TIP3   OH241599   1.399   1.215   1.338 -0.1560 -0.2376 -0.3412
13885TIP3    H141600   1.315   1.213   1.383 -0.4556 -1.5469 -0.9022
13885TIP3    H241601   1.394   1.292   1.281 -0.0437  1.0218  1.2970
13886TIP3   OH241602   0.467   6.129   5.423  0.4602  0.4884 -0.0767
13886TIP3    H141603   0.488   6.050   5.374 -1.1356 -0.5457  0.8254
13886TIP3    H241604   0.374   6.120   5.445  0.2770  2.5451  0.1800
13887TIP3   OH241605   6.557   0.490   0.203 -0.4666  0.4358  0.5130
13887TIP3    H141606   6.534   0.416   0.148  0.2569  0.3298  0.3412
13887TIP3    H241607   6.631   0.532   0.158 -0.8655  1.2626  0.6063
13888TIP3   OH241608   4.396   4.912   2.960 -0.0601 -0.1392 -0.4610
13888TIP3    H141609   4.330   4.933   3.027  0.4301 -0.2850  0.0804
13888TIP3    H241610   4.421   4.997   2.924  1.4689  0.2342  1.2914
13889TIP3   OH241611   3.329   1.039   4.615 -0.5678 -0.7058 -0.2742
13889TIP3    H141612   3.321   0.969   4.549 -0.6759  0.4573 -1.5386
13889TIP3    H241613   3.351   1.117   4.564 -0.8415  0.2731  1.0661
13890TIP3   OH241614   3.511   1.482   0.560  0.2175 -0.3092  0.0632
13890TIP3    H141615   3.483   1.519   0.477 -2.3212 -0.4936  0.7473
13890TIP3    H241616   3.580   1.420   0.538 -0.9055 -0.9005 -2.0021
13891TIP3   OH241617   3.403   0.061   0.083 -0.0459  0.2315  0.2374
13891TIP3    H141618   3.471   0.119   0.118  0.5854  0.4187 -1.2149
13891TIP3    H241619   3.321   0.103   0.105  0.3987  1.4937 -0.4319
13892TIP3   OH241620   7.513   0.565   3.528  0.0740  0.6760  0.4474
13892TIP3    H141621   7.580   0.566   3.596  0.6713 -0.3347 -0.1017
13892TIP3    H241622   7.432   0.544   3.574  0.4919 -0.1151  0.8361
13893TIP3   OH241623   3.636   5.381   0.780  0.2579 -0.3376 -0.1674
13893TIP3    H141624   3.554   5.398   0.826  0.4222 -0.4963  0.1895
13893TIP3    H241625   3.628   5.291   0.749  0.4572 -0.4888  0.2132
13894TIP3   OH241626   3.216   5.568   1.119 -0.6053 -0.0228  0.3485
13894TIP3    H141627   3.259   5.520   1.048 -1.4721  1.7422 -1.5134
13894TIP3    H241628   3.278   5.566   1.191 -0.1193 -2.8231 -0.0419
13895TIP3   OH241629   1.638   5.683   2.049  0.1503 -0.5093  0.6837
13895TIP3    H141630   1.646   5.592   2.076  1.0603 -0.3388  1.0420
13895TIP3    H241631   1.561   5.685   1.993 -0.8933 -1.1724  2.0248
13896TIP3   OH241632   4.911   7.299   4.667  0.3391 -0.0183  0.4771
13896TIP3    H141633   4.859   7.260   4.596  2.4475 -2.3672  0.0590
13896TIP3    H241634   4.855   7.293   4.744 -0.4804 -1.3357 -0.1834
13897TIP3   OH241635   2.424   2.940   2.952 -0.0125  0.2799 -0.6155
13897TIP3    H141636   2.337   2.972   2.979 -0.4131 -1.3267  0.0895
13897TIP3    H241637   2.407   2.891   2.872  0.5732  1.6295 -1.5978
13898TIP3   OH241638   3.606   4.098   5.833  0.1274  0.2971 -0.1912
13898TIP3    H141639   3.552   4.055   5.767  0.5276 -0.4399 -0.0566
13898TIP3    H241640   3.696   4.076   5.808  0.3959  1.8454 -0.6496
13899TIP3   OH241641   2.298   4.211   2.051 -0.3918 -0.2193 -0.1296
13899TIP3    H141642   2.300   4.167   1.966 -1.5972  0.7360 -0.6810
13899TIP3    H241643   2.293   4.140   2.114 -0.1208 -0.9300 -0.8773
13900TIP3   OH241644   2.338   7.616   5.735  1.0819 -0.3955  0.5819
13900TIP3    H141645   2.257   7.571   5.713  1.3047 -0.0634 -1.0396
13900TIP3    H241646   2.402   7.545   5.747  1.3491 -0.5945 -1.6070
13901TIP3   OH241647   8.147   7.798   0.275 -0.9172 -0.1804 -0.5113
13901TIP3    H141648   8.149   7.706   0.299  0.7808 -0.0833 -0.0839
13901TIP3    H241649   8.222   7.836   0.322 -1.7105  1.4578 -0.4934
13902TIP3   OH241650   1.793   5.563   5.125 -0.4268 -0.1087 -0.6142
13902TIP3    H141651   1.860   5.553   5.058 -1.4791 -0.5531 -1.6352
13902TIP3    H241652   1.748   5.479   5.127  1.0274 -0.9718  2.3203
13903TIP3   OH241653   4.901   6.158   1.927 -0.2670  0.1173  0.1091
13903TIP3    H141654   4.921   6.211   2.005 -1.3548  1.9545 -0.7901
13903TIP3    H241655   4.911   6.219   1.854 -0.3345 -1.2886 -1.1279
13904TIP3   OH241656   4.073   6.782   3.545  0.1695  0.2737 -0.1765
13904TIP3    H141657   4.146   6.731   3.580 -0.5084  0.0721  1.0062
13904TIP3    H241658   4.099   6.873   3.560  0.0647  0.1977  0.5086
13905TIP3   OH241659   8.278   0.395   4.998  0.5450  0.1143 -0.2046
13905TIP3    H141660   8.207   0.345   5.038  1.1903 -0.6090  0.0652
13905TIP3    H241661   8.277   0.369   4.905  0.9564 -0.5190 -0.0417
13906TIP3   OH241662   7.864   1.650   4.999 -0.8224  1.0668  0.1633
13906TIP3    H141663   7.784   1.701   4.995 -1.1772  0.5598  0.6690
13906TIP3    H241664   7.875   1.615   4.910 -1.8598  0.0882  0.3980
13907TIP3   OH241665   2.964   2.894   2.090  0.0315  0.6379 -0.3486
13907TIP3    H141666   2.991   2.917   2.179  0.5839  1.4379 -0.7124
13907TIP3    H241667   2.983   2.801   2.082 -1.4097  0.1918  0.8640
13908TIP3   OH241668   5.596   4.855   0.478 -0.1988  0.3395  0.1405
13908TIP3    H141669   5.600   4.871   0.572 -0.2634  0.3941  0.1342
13908TIP3    H241670   5.663   4.912   0.441  0.4266 -0.3150  0.2326
13909TIP3   OH241671   5.901   6.926   4.767 -0.0993 -0.0158  0.1668
13909TIP3    H141672   5.819   6.920   4.720  0.4593  0.1454 -0.8526
13909TIP3    H241673   5.941   6.839   4.757  0.4062  0.2761 -0.3878
13910TIP3   OH241674   1.780   6.984   3.221 -0.3531 -0.0819 -0.2055
13910TIP3    H141675   1.701   6.930   3.218  0.6852 -1.7707  0.9269
13910TIP3    H241676   1.798   6.995   3.315  0.4110  0.7914 -0.4399
13911TIP3   OH241677   5.495   3.592   2.193  0.1973  0.1925 -0.4022
13911TIP3    H141678   5.554   3.667   2.192 -4.8057  4.7261 -0.1193
13911TIP3    H241679   5.478   3.573   2.101  1.7330 -1.0088 -0.4802
13912TIP3   OH241680   6.836   4.048   6.646  0.2881  0.0582 -0.0643
13912TIP3    H141681   6.883   4.114   6.697  0.8013 -1.3659  1.3841
13912TIP3    H241682   6.759   4.094   6.612  0.1366  1.1587  1.6633
13913TIP3   OH241683   8.150   6.479   0.176  0.1265  0.1014  0.5878
13913TIP3    H141684   8.062   6.468   0.141 -0.8888  0.5482  2.8600
13913TIP3    H241685   8.204   6.496   0.099 -2.2263  2.7048 -0.6691
13914TIP3   OH241686   0.538   2.069   3.013 -0.4794  0.1510 -0.0114
13914TIP3    H141687   0.476   2.009   3.054 -0.9975  0.1879 -0.7255
13914TIP3    H241688   0.551   2.139   3.076 -0.9244 -0.0164  0.2636
13915TIP3   OH241689   5.488   0.524   2.463  0.1975 -0.1470 -0.2184
13915TIP3    H141690   5.529   0.453   2.414 -0.8189  0.2422 -1.7211
13915TIP3    H241691   5.395   0.502   2.463  0.1708 -0.1545  1.6460
13916TIP3   OH241692   1.629   1.100   1.802  0.6986 -0.2688  0.1010
13916TIP3    H141693   1.613   1.183   1.757 -0.2986 -0.1817  0.5754
13916TIP3    H241694   1.550   1.086   1.854  1.2446 -1.0613  0.7409
13917TIP3   OH241695   5.750   5.715   0.782  0.1261  0.1889 -0.4322
13917TIP3    H141696   5.702   5.777   0.837  0.4530 -0.2556  0.3602
13917TIP3    H241697   5.710   5.725   0.695 -2.1585 -0.9312  0.4117
13918TIP3   OH241698   1.761   2.237   2.642 -0.2704 -0.2518  0.2716
13918TIP3    H141699   1.692   2.302   2.653 -1.5929 -1.6102  0.2761
13918TIP3    H241700   1.764   2.190   2.726  2.2373  1.1895  1.1156
13919TIP3   OH241701   0.153   4.327   0.266  0.6248 -0.4385 -0.1654
13919TIP3    H141702   0.245   4.304   0.268  1.0164  1.0045 -0.3942
13919TIP3    H241703   0.152   4.422   0.252 -0.8902 -0.4538 -0.3727
13920TIP3   OH241704   6.929   0.535   6.751  0.1948  0.7545  0.5578
13920TIP3    H141705   6.841   0.549   6.716  0.2712 -1.7539 -0.8976
13920TIP3    H241706   6.983   0.601   6.707 -0.3947  0.1098 -1.2453
13921TIP3   OH241707   3.764   7.502   3.119 -0.3345  0.2353 -0.0058
13921TIP3    H141708   3.831   7.571   3.111  0.1321 -0.1659  0.3889
13921TIP3    H241709   3.811   7.421   3.099 -0.4565 -0.1659  1.2264
13922TIP3   OH241710   3.832   2.566   5.913 -0.2385 -0.8191  0.1578
13922TIP3    H141711   3.887   2.609   5.979 -1.1197 -0.7503  0.8741
13922TIP3    H241712   3.855   2.609   5.831  2.4301 -2.3349 -0.0176
13923TIP3   OH241713   5.678   2.173   6.579  0.2531 -0.2788 -0.1956
13923TIP3    H141714   5.648   2.243   6.638  0.1359 -0.4107 -0.0985
13923TIP3    H241715   5.739   2.121   6.631 -0.8865 -1.2106  0.2602
13924TIP3   OH241716   2.956   3.430   1.865 -0.2085 -0.6629  0.1241
13924TIP3    H141717   2.903   3.469   1.796  0.9763 -0.9174 -0.9606
13924TIP3    H241718   2.966   3.500   1.930 -3.1456 -1.0617  1.1682
13925TIP3   OH241719   4.830   1.542   2.609 -0.1338 -0.4365 -0.4860
13925TIP3    H141720   4.892   1.470   2.618 -0.7664 -1.1675 -1.7947
13925TIP3    H241721   4.760   1.508   2.554 -2.3691 -0.0372  1.9477
13926TIP3   OH241722   1.055   4.328   6.225  0.2294  0.3483 -0.6239
13926TIP3    H141723   1.118   4.301   6.292 -1.5290 -0.5650  0.7538
13926TIP3    H241724   0.985   4.371   6.274  0.7670  3.4487 -2.3267
13927TIP3   OH241725   3.584   0.336   6.380 -0.0656  0.0818  0.5254
13927TIP3    H141726   3.641   0.379   6.443 -0.4657 -0.7183  1.4484
13927TIP3    H241727   3.543   0.409   6.332  0.5785  0.6880  0.8720
13928TIP3   OH241728   8.151   6.999   2.531  0.1831 -0.5021  0.0470
13928TIP3    H141729   8.069   6.955   2.554  1.1840 -1.5209  1.8280
13928TIP3    H241730   8.210   6.982   2.604  1.8278  0.7093 -0.9114
13929TIP3   OH241731   0.073   5.152   2.989 -0.0229  0.4817 -0.0013
13929TIP3    H141732   0.166   5.157   3.014 -0.2310  0.2437  0.8610
13929TIP3    H241733   0.052   5.059   2.997 -1.3584  0.9453  3.8161
13930TIP3   OH241734   5.135   1.740   4.196  0.3644  0.3235 -0.1674
13930TIP3    H141735   5.112   1.811   4.136 -0.7544  1.0878  1.1121
13930TIP3    H241736   5.099   1.662   4.154  2.4058  0.2874 -2.0460
13931TIP3   OH241737   1.737   7.140   1.213  0.2200  0.1076  0.2885
13931TIP3    H141738   1.680   7.128   1.137  0.8113  0.2246 -0.1778
13931TIP3    H241739   1.812   7.083   1.197  0.8097  0.8522  0.3038
13932TIP3   OH241740   6.958   2.883   0.729  0.6006  0.0772  0.1168
13932TIP3    H141741   6.989   2.861   0.817  0.5615 -0.4640  0.0016
13932TIP3    H241742   7.012   2.957   0.702  1.7733 -0.8199 -0.0680
13933TIP3   OH241743   6.742   1.239   4.840 -0.0503 -0.3146  0.0452
13933TIP3    H141744   6.685   1.266   4.912  0.9306  2.0223  0.0123
13933TIP3    H241745   6.830   1.241   4.877  0.2133 -2.7260 -0.2439
13934TIP3   OH241746   6.684   1.992   2.586  0.5394 -0.2204  0.1554
13934TIP3    H141747   6.723   1.953   2.664 -0.4290 -1.2605  0.1337
13934TIP3    H241748   6.676   2.085   2.607  1.4651 -0.2731  0.7876
13935TIP3   OH241749   5.966   4.698   3.494  0.1615 -0.3580  0.0733
13935TIP3    H141750   5.921   4.616   3.515 -0.4837 -0.2108 -0.7105
13935TIP3    H241751   5.976   4.697   3.399  0.4207  0.3344  0.0875
13936TIP3   OH241752   1.953   3.111   6.104 -0.2816  0.4219 -0.3440
13936TIP3    H141753   2.042   3.089   6.131 -0.0407 -1.1441 -2.1837
13936TIP3    H241754   1.948   3.083   6.012 -2.0543  2.3515 -0.9280
13937TIP3   OH241755  -0.008   5.467   4.487 -0.2285 -0.2607  0.0308
13937TIP3    H141756   0.055   5.491   4.419 -1.5368  0.2243 -1.0522
13937TIP3    H241757   0.046   5.435   4.559  1.2733  0.5278 -0.6955
13938TIP3   OH241758   3.098   2.314   6.036  0.3267  0.5066 -0.5480
13938TIP3    H141759   3.177   2.276   5.999  0.0089  0.4794 -1.2037
13938TIP3    H241760   3.026   2.280   5.982 -0.1163  0.6747 -0.0786
13939TIP3   OH241761   2.282   0.579   2.710  0.2217 -0.0560  0.7893
13939TIP3    H141762   2.315   0.522   2.779  1.2550 -0.5109 -0.0597
13939TIP3    H241763   2.356   0.635   2.687 -0.1532  0.1928  0.1528
13940TIP3   OH241764   2.227   1.476   2.705  0.2009 -0.6854  0.2932
13940TIP3    H141765   2.221   1.455   2.798 -2.5003  2.3603  1.0198
13940TIP3    H241766   2.280   1.556   2.701  0.2209 -0.7280 -0.7583
13941TIP3   OH241767   6.876   2.340   3.413 -0.2650 -0.0682  0.1665
13941TIP3    H141768   6.923   2.347   3.496  0.6097 -0.1593 -0.3095
13941TIP3    H241769   6.785   2.362   3.435  0.2828  1.6965  0.8124
13942TIP3   OH241770   7.330   6.608   6.227 -1.1556  0.1325 -0.7909
13942TIP3    H141771   7.291   6.632   6.143 -0.2346 -0.6737 -1.4834
13942TIP3    H241772   7.370   6.522   6.210  2.5244  1.6299 -0.7366
13943TIP3   OH241773   1.691   5.723   6.553  0.0398  0.1975  0.2080
13943TIP3    H141774   1.596   5.732   6.545  0.1329  2.2731  0.7530
13943TIP3    H241775   1.726   5.796   6.501  1.3367 -0.4662  0.1107
13944TIP3   OH241776   5.422   3.615   4.384  0.1012  0.2186 -0.4389
13944TIP3    H141777   5.370   3.570   4.317 -1.8752 -0.1121  1.1960
13944TIP3    H241778   5.375   3.696   4.400  0.0412 -0.0882  1.1068
13945TIP3   OH241779   1.648   0.905   0.217 -0.0200 -0.5324  0.4365
13945TIP3    H141780   1.570   0.892   0.163  0.0748  0.8579 -0.0676
13945TIP3    H241781   1.660   1.000   0.219 -0.0476 -0.5213  2.9395
13946TIP3   OH241782   8.218   6.515   1.893  0.9602  0.4908  0.4413
13946TIP3    H141783   8.214   6.451   1.822 -4.2242 -0.7618  1.3869
13946TIP3    H241784   8.197   6.599   1.852 -1.4113 -0.1323  0.2070
13947TIP3   OH241785   1.732   5.753   2.931 -0.5776  0.1260  0.4439
13947TIP3    H141786   1.695   5.841   2.939 -0.3321  0.2163  0.5929
13947TIP3    H241787   1.671   5.696   2.977 -0.9203  0.1682  0.0466
13948TIP3   OH241788   1.712   5.227   3.464 -0.2866  0.1489  0.2671
13948TIP3    H141789   1.730   5.133   3.462 -2.1889 -0.2422 -0.8355
13948TIP3    H241790   1.798   5.267   3.469  0.5417 -1.6477  2.3474
13949TIP3   OH241791   5.943   7.185   1.233 -0.2150  0.1653 -0.0768
13949TIP3    H141792   5.974   7.138   1.156  2.4779 -0.4724  1.2718
13949TIP3    H241793   5.872   7.132   1.267  0.2537 -0.9065 -0.7193
13950TIP3   OH241794   5.129   4.177   0.279 -0.1525 -0.0376 -0.0882
13950TIP3    H141795   5.113   4.248   0.216 -1.4987 -1.4706 -1.4328
13950TIP3    H241796   5.215   4.143   0.255  0.0355  0.4387 -0.1085
13951TIP3   OH241797   4.654   3.493   1.770 -0.0137 -0.3363 -0.5582
13951TIP3    H141798   4.591   3.422   1.760  0.2826 -0.5084 -1.2909
13951TIP3    H241799   4.619   3.564   1.717  0.7793 -0.6984 -1.5992
13952TIP3   OH241800   6.287   3.496   6.016 -0.6942  0.5912  0.3759
13952TIP3    H141801   6.324   3.425   6.067 -1.3363 -0.2526 -0.3023
13952TIP3    H241802   6.348   3.510   5.944 -1.1099 -0.0343 -0.1080
13953TIP3   OH241803   6.741   6.743   0.928 -0.3027  0.3863  0.2759
13953TIP3    H141804   6.715   6.686   0.855 -1.3539  1.1441  0.0342
13953TIP3    H241805   6.661   6.755   0.979  0.1688  0.7627  0.9399
13954TIP3   OH241806   3.651   6.106   2.484 -0.3613  0.5431 -0.2929
13954TIP3    H141807   3.717   6.172   2.463  1.6304  0.1838  3.8149
13954TIP3    H241808   3.613   6.135   2.567 -0.2288 -2.7473  1.0836
13955TIP3   OH241809   6.453   7.706   2.707  0.2512  0.2374 -0.3584
13955TIP3    H141810   6.441   7.739   2.795 -1.0346  0.1183 -0.4725
13955TIP3    H241811   6.514   7.633   2.717  0.7844  0.7590  0.2979
13956TIP3   OH241812   1.969   3.083   2.101 -0.2122 -0.2658  0.4792
13956TIP3    H141813   2.039   3.121   2.154  0.9255 -1.8518  0.2029
13956TIP3    H241814   1.912   3.156   2.080  0.6846  0.8548  1.7708
13957TIP3   OH241815   2.629   2.209   0.015  0.5073 -0.1856  0.3080
13957TIP3    H141816   2.633   2.267   0.091  1.2837  0.1505  0.0127
13957TIP3    H241817   2.703   2.234  -0.039 -1.1783  0.9998 -1.5985
13958TIP3   OH241818   5.684   0.416   5.126  0.0876 -0.1860 -0.5651
13958TIP3    H141819   5.605   0.380   5.087 -2.1017  2.4468  1.1485
13958TIP3    H241820   5.698   0.499   5.082  0.9566  0.1415  0.2879
13959TIP3   OH241821   6.023   2.417   2.157 -0.4591 -0.5537 -0.1810
13959TIP3    H141822   6.058   2.506   2.166  1.2864 -1.2254  0.1096
13959TIP3    H241823   5.988   2.397   2.244  2.3345 -1.3662  0.8722
13960TIP3   OH241824   6.429   6.095   2.868 -0.5844  0.4681  0.8005
13960TIP3    H141825   6.479   6.137   2.938 -2.7418  1.0610  2.0720
13960TIP3    H241826   6.450   6.146   2.790  1.0956  0.4105  1.1795
13961TIP3   OH241827   6.966   3.189   1.705 -0.3670 -0.1806  0.3147
13961TIP3    H141828   7.027   3.259   1.730  0.4869 -0.1565 -1.5991
13961TIP3    H241829   6.912   3.228   1.637 -1.4822 -0.7018  0.8772
13962TIP3   OH241830   2.832   4.773   2.354  0.7807 -0.0369  0.1304
13962TIP3    H141831   2.907   4.819   2.391 -1.0473  2.3553  1.1169
13962TIP3    H241832   2.791   4.836   2.296 -1.5227 -0.5367  1.0886
13963TIP3   OH241833   7.140   6.452   3.039  0.2205  0.1033  0.5010
13963TIP3    H141834   7.192   6.379   3.074  0.9316  1.4716  2.4260
13963TIP3    H241835   7.171   6.461   2.949  0.4477 -1.6408  0.3604
13964TIP3   OH241836   7.028   2.720   1.926  0.0455  0.0070 -0.2708
13964TIP3    H141837   6.956   2.745   1.985  0.4715  0.9129 -0.1102
13964TIP3    H241838   7.058   2.803   1.890 -0.3563 -0.5575 -1.9733
13965TIP3   OH241839   1.836   5.235   1.010  0.9135 -1.0053 -0.2784
13965TIP3    H141840   1.805   5.217   0.921 -3.4251  0.7132  0.6400
13965TIP3    H241841   1.814   5.155   1.058 -2.9157  0.2260  0.3891
13966TIP3   OH241842   0.451   4.569   2.483  0.2690 -0.9370  0.4803
13966TIP3    H141843   0.466   4.490   2.534  3.7900 -0.5771  0.2213
13966TIP3    H241844   0.467   4.543   2.392  0.1561 -0.2281  0.2465
13967TIP3   OH241845   2.044   4.735   4.054  0.1807  0.7813 -0.4847
13967TIP3    H141846   2.101   4.794   4.103 -0.1299  0.2379  0.5681
13967TIP3    H241847   2.092   4.718   3.973  0.5470  1.9779 -0.5299
13968TIP3   OH241848   2.069   0.811   3.089 -0.4071 -0.5376 -0.3562
13968TIP3    H141849   2.124   0.788   3.014 -0.4640 -1.1445 -0.2147
13968TIP3    H241850   1.980   0.810   3.054 -0.4038 -0.4384 -0.3690
13969TIP3   OH241851   4.718   2.877   6.016  0.6025 -0.2134 -0.4744
13969TIP3    H141852   4.748   2.787   6.011 -0.5350 -0.6091 -0.4527
13969TIP3    H241853   4.763   2.913   6.092  0.5993 -0.9480 -0.1165
13970TIP3   OH241854   4.082   0.821   5.337  0.5237 -0.1881 -0.0843
13970TIP3    H141855   4.109   0.739   5.295  1.4718  0.1256 -0.1157
13970TIP3    H241856   4.163   0.870   5.347  0.4279 -0.3884  2.4130
13971TIP3   OH241857   7.830   4.965   6.001  0.5075  0.1193  0.3807
13971TIP3    H141858   7.826   4.913   6.081  1.9699 -1.1067 -0.2958
13971TIP3    H241859   7.765   4.926   5.943  0.7437 -0.1925  0.3205
13972TIP3   OH241860   1.778   2.437   6.717 -0.0452 -0.2975 -0.0011
13972TIP3    H141861   1.822   2.376   6.658  1.1346 -0.3258  0.8745
13972TIP3    H241862   1.685   2.428   6.696  0.1182 -2.2317 -0.0542
13973TIP3   OH241863   7.165   6.004   3.581  0.1035 -0.2154  0.6351
13973TIP3    H141864   7.132   6.062   3.650 -0.7922  1.1441 -0.8616
13973TIP3    H241865   7.088   5.982   3.529  0.7690 -1.1501  0.0071
13974TIP3   OH241866   3.401   2.090   1.609 -0.0292 -0.1749  0.1319
13974TIP3    H141867   3.316   2.055   1.583 -0.1156  0.4844 -0.5183
13974TIP3    H241868   3.440   2.121   1.528  0.7530 -0.2993  0.4571
13975TIP3   OH241869   7.835   4.071   1.680 -0.3549  0.7306  0.2708
13975TIP3    H141870   7.784   4.140   1.723  1.2036  0.5190  2.6474
13975TIP3    H241871   7.811   3.991   1.727 -0.9232 -0.1124 -1.3820
13976TIP3   OH241872   6.729   3.106   0.032 -0.0895 -0.4354  0.2643
13976TIP3    H141873   6.724   3.024   0.079  0.4013 -0.1441  0.8381
13976TIP3    H241874   6.798   3.155   0.076 -1.5022  0.9733  1.0049
13977TIP3   OH241875   6.715   1.761   2.445  0.1101  0.2228 -0.3613
13977TIP3    H141876   6.650   1.698   2.475 -1.1717  1.5510 -0.2095
13977TIP3    H241877   6.701   1.838   2.501  3.0493 -0.0678  0.8963
13978TIP3   OH241878   7.571   5.849   4.285  0.3334 -0.0238 -0.6725
13978TIP3    H141879   7.551   5.792   4.211 -1.9089 -0.4282  0.1719
13978TIP3    H241880   7.509   5.922   4.277 -0.2204 -0.2673  0.9782
13979TIP3   OH241881   0.345   0.806   3.828  0.2157 -0.1963 -0.4107
13979TIP3    H141882   0.429   0.819   3.872 -0.0738  4.2578 -0.7092
13979TIP3    H241883   0.280   0.825   3.895 -0.4500 -0.4565 -0.9729
13980TIP3   OH241884   6.183   0.871   2.766  0.5759  0.4816 -0.1516
13980TIP3    H141885   6.223   0.934   2.706  2.0110  0.6871  0.9602
13980TIP3    H241886   6.158   0.922   2.842 -0.4810  0.0856 -0.2097
13981TIP3   OH241887   1.513   1.204   3.455 -0.2462 -0.1529  0.0437
13981TIP3    H141888   1.420   1.209   3.437  0.2175 -2.2096 -3.9914
13981TIP3    H241889   1.529   1.113   3.478  0.6583  0.5103  2.4192
13982TIP3   OH241890   2.807   0.215   3.441  0.1189 -0.3173 -0.2327
13982TIP3    H141891   2.758   0.279   3.492  2.8471 -0.2699  2.6256
13982TIP3    H241892   2.880   0.264   3.403  0.0878 -1.0393 -1.2624
13983TIP3   OH241893   1.938   0.374   2.174 -0.5015 -0.0946 -0.2454
13983TIP3    H141894   1.966   0.362   2.084 -1.4258 -2.2394 -0.3201
13983TIP3    H241895   1.942   0.286   2.212 -2.7641  0.2361  0.9723
13984TIP3   OH241896   7.208   5.003   5.265 -0.1944  0.3723  0.4242
13984TIP3    H141897   7.303   5.005   5.269 -0.2261  0.8755  0.9436
13984TIP3    H241898   7.182   4.948   5.338 -0.2757 -0.4797 -0.2271
13985TIP3   OH241899   2.545   6.966   4.070  0.0040  0.1845 -0.2576
13985TIP3    H141900   2.609   6.904   4.034 -0.5856 -1.2153  0.9754
13985TIP3    H241901   2.465   6.949   4.021  0.2711  1.1885 -1.0715
13986TIP3   OH241902   7.016   2.750   0.075  0.1916 -0.1769  0.8794
13986TIP3    H141903   7.014   2.655   0.065  0.8094  0.0181 -1.8401
13986TIP3    H241904   7.014   2.764   0.170 -0.2895 -2.8579  1.3519
13987TIP3   OH241905   2.133   4.583   2.515  0.5728 -0.1991 -0.7263
13987TIP3    H141906   2.147   4.641   2.440 -2.2742  0.8023 -0.5911
13987TIP3    H241907   2.076   4.514   2.483 -2.3374  1.3063  0.8266
13988TIP3   OH241908   3.880   2.171   1.880  0.0165  0.0846 -0.2586
13988TIP3    H141909   3.859   2.124   1.799  1.2392  1.0745 -1.1986
13988TIP3    H241910   3.861   2.263   1.861  0.1794  0.3108  0.6209
13989TIP3   OH241911   4.896   3.425   6.624  0.0638 -0.0020  0.2394
13989TIP3    H141912   4.807   3.405   6.598  0.8807 -2.0573 -1.2731
13989TIP3    H241913   4.904   3.391   6.713  0.4513 -3.8947 -1.1145
13990TIP3   OH241914   7.110   5.617   1.147  0.1775 -0.2567 -0.2741
13990TIP3    H141915   7.163   5.661   1.214  2.0053 -3.0729  0.2777
13990TIP3    H241916   7.059   5.552   1.194 -2.8718  1.3962 -1.0060
13991TIP3   OH241917   8.125   5.029   0.893  0.0513  0.3354  0.2634
13991TIP3    H141918   8.101   5.087   0.965  0.5814  1.8472 -0.7485
13991TIP3    H241919   8.207   4.988   0.923  0.0886  0.6871  0.6656
13992TIP3   OH241920   3.668   7.738   0.401  0.0077 -0.5122 -0.3305
13992TIP3    H141921   3.697   7.815   0.352  0.1766 -1.5794 -1.9902
13992TIP3    H241922   3.680   7.665   0.340 -0.6814 -1.7848  0.9965
13993TIP3   OH241923   5.725   7.519   3.439  0.2829 -0.0315  0.1163
13993TIP3    H141924   5.805   7.556   3.476  0.0384  0.0412  0.5756
13993TIP3    H241925   5.723   7.552   3.349  1.3169 -0.8838 -0.2402
13994TIP3   OH241926   1.083   6.713   1.468  0.2844 -0.0446 -0.3014
13994TIP3    H141927   1.138   6.733   1.393 -1.5688  0.5553 -1.5535
13994TIP3    H241928   1.136   6.736   1.544  1.1907  2.0033 -1.4988
13995TIP3   OH241929   0.111   0.825   3.998  0.2445  0.3922 -0.2858
13995TIP3    H141930   0.037   0.865   4.043  0.6569  0.2243  0.5666
13995TIP3    H241931   0.109   0.733   4.025  1.5080  0.6530  0.8092
13996TIP3   OH241932   6.240   4.939   5.801 -0.3631  0.3204  0.3839
13996TIP3    H141933   6.233   5.021   5.751 -2.1369 -0.2523 -0.3642
13996TIP3    H241934   6.186   4.954   5.878  0.5103  0.3547  1.0109
13997TIP3   OH241935   2.090   6.243   1.924 -1.4481  0.0188  0.0841
13997TIP3    H141936   2.116   6.306   1.991 -1.1090  1.1473 -1.0592
13997TIP3    H241937   2.009   6.205   1.957 -1.7992  1.2465  0.7077
13998TIP3   OH241938   1.271   4.871   5.955  0.2096 -0.2813  0.4205
13998TIP3    H141939   1.213   4.796   5.942 -0.8268  0.4216  0.7983
13998TIP3    H241940   1.228   4.922   6.024  1.5085  0.0551  1.0093
13999TIP3   OH241941   8.203   3.572   1.516 -0.3835 -0.1796 -0.4128
13999TIP3    H141942   8.161   3.500   1.564 -0.0604  0.1003  0.3120
13999TIP3    H241943   8.297   3.556   1.525 -0.1879  1.6508  1.9755
14000TIP3   OH241944   6.684   0.941   5.888  0.5469 -0.3031 -0.2480
14000TIP3    H141945   6.597   0.906   5.906  0.3624  0.1446 -0.2668
14000TIP3    H241946   6.693   1.015   5.948  0.5220  0.2736 -0.9558
14001TIP3   OH241947   0.284   1.110   1.248  0.4782 -0.1070 -0.1748
14001TIP3    H141948   0.313   1.041   1.308  0.6863  1.8563  2.1143
14001TIP3    H241949   0.190   1.117   1.264  0.5500  0.4868  0.0004
14002TIP3   OH241950   6.783   0.107   1.324 -0.8147  0.0537 -0.8818
14002TIP3    H141951   6.745   0.115   1.412 -0.5458 -0.7569 -0.6810
14002TIP3    H241952   6.875   0.131   1.335 -1.0130  0.9738 -1.1579
14003TIP3   OH241953   2.186   3.999   3.888  0.2723  0.6510  0.1342
14003TIP3    H141954   2.189   3.907   3.915 -1.5069 -0.0171 -1.6499
14003TIP3    H241955   2.144   4.044   3.961 -0.7625 -0.3502  0.1847
14004TIP3   OH241956   6.193   4.482   5.596  0.3096 -0.0809 -0.1197
14004TIP3    H141957   6.231   4.522   5.518  0.5919 -1.7247 -0.8546
14004TIP3    H241958   6.221   4.391   5.593 -2.7386 -1.1255 -0.1077
14005TIP3   OH241959   7.042   4.346   1.534  0.5265  0.0451 -0.1771
14005TIP3    H141960   7.023   4.427   1.581 -2.3641 -1.4263  1.4710
14005TIP3    H241961   7.020   4.277   1.596 -0.9466 -2.0428 -2.8297
14006TIP3   OH241962   2.287   1.470   1.085  0.8071  0.1051  0.5643
14006TIP3    H141963   2.192   1.470   1.075  0.9500  0.9976 -0.9913
14006TIP3    H241964   2.305   1.392   1.138 -0.8412  0.3602  1.5768
14007TIP3   OH241965   3.307   0.588   5.220 -0.0033 -0.1773  0.2882
14007TIP3    H141966   3.334   0.498   5.200 -1.2615  0.1973 -4.1593
14007TIP3    H241967   3.217   0.578   5.253 -0.8735 -0.6084 -1.9969
14008TIP3   OH241968   5.450   6.861   4.532 -0.1555  0.3078  0.3736
14008TIP3    H141969   5.492   6.894   4.612 -0.4542  1.4125  0.0947
14008TIP3    H241970   5.452   6.936   4.472  0.0731 -0.5108 -0.6675
14009TIP3   OH241971   1.753   6.471   6.087  0.6220  0.1074 -0.2879
14009TIP3    H141972   1.839   6.429   6.097  0.9204  0.5877 -0.7707
14009TIP3    H241973   1.690   6.400   6.101  1.0953 -0.2676 -0.0013
14010TIP3   OH241974   1.211   6.470   4.289  0.1230 -0.6421 -0.3208
14010TIP3    H141975   1.127   6.431   4.266 -0.6018  1.5863 -1.7539
14010TIP3    H241976   1.188   6.540   4.350  1.1302 -0.9583  0.4441
14011TIP3   OH241977   3.847   4.959   6.044  0.5493 -0.2193 -0.5436
14011TIP3    H141978   3.913   4.958   6.114  0.8474 -0.3749 -0.8261
14011TIP3    H241979   3.847   5.049   6.013 -0.9231  0.3392  0.9098
14012TIP3   OH241980   3.149   0.552   3.442 -0.1120 -0.0642  0.4846
14012TIP3    H141981   3.080   0.565   3.507  1.1537  0.4443  1.7858
14012TIP3    H241982   3.150   0.634   3.392 -1.5744 -0.7291 -0.7184
14013TIP3   OH241983   5.543   3.142   4.872 -0.4417 -0.1618  0.0374
14013TIP3    H141984   5.562   3.173   4.783  0.1933  0.2848  0.3226
14013TIP3    H241985   5.499   3.217   4.913 -2.6110 -1.0608 -0.5127
14014TIP3   OH241986   5.711   2.763   0.603 -0.1423 -0.0439  0.0006
14014TIP3    H141987   5.620   2.761   0.632 -0.3395  0.6386 -0.5412
14014TIP3    H241988   5.756   2.701   0.661 -1.0009 -0.6152  0.0752
14015TIP3   OH241989   0.699   3.817   2.823  0.2414 -0.3602  0.9658
14015TIP3    H141990   0.628   3.756   2.807  1.1175 -1.5919  1.6145
14015TIP3    H241991   0.777   3.762   2.832  1.2481  0.9275  0.4894
14016TIP3   OH241992   3.106   4.784   5.685  0.4051 -0.8580  0.3170
14016TIP3    H141993   3.167   4.726   5.639  0.0737 -1.7513  0.9670
14016TIP3    H241994   3.160   4.830   5.749  0.6529 -0.5319 -0.1244
14017TIP3   OH241995   4.796   0.589   2.358  0.1608 -0.4382  0.1098
14017TIP3    H141996   4.713   0.553   2.389 -0.3114 -0.2340 -0.8567
14017TIP3    H241997   4.838   0.516   2.313  1.2364 -0.9782  1.8788
14018TIP3   OH241998   2.752   6.955   3.311  0.1499  0.1809  0.2285
14018TIP3    H141999   2.721   7.040   3.278 -1.0947 -0.1221  0.5502
14018TIP3    H242000   2.777   6.907   3.232 -2.7359 -0.5101 -0.3835
14019TIP3   OH242001   3.305   5.992   0.401  0.1187  0.2510 -0.0701
14019TIP3    H142002   3.303   6.023   0.311  2.2603 -1.0152 -0.6372
14019TIP3    H242003   3.355   6.058   0.448  2.9760 -1.1907 -0.8625
14020TIP3   OH242004   5.174   5.105   1.070 -0.6406  0.5247 -0.1920
14020TIP3    H142005   5.174   5.151   0.986 -0.9935  0.3383 -0.2942
14020TIP3    H242006   5.082   5.105   1.098 -0.5383  0.5174  0.1578
14021TIP3   OH242007   0.740   4.317   1.521  0.1232  0.1904 -0.4169
14021TIP3    H142008   0.672   4.350   1.581  0.2124 -0.6798  0.1706
14021TIP3    H242009   0.716   4.226   1.506  1.3715 -0.2317  0.0875
14022TIP3   OH242010   5.214   3.587   2.836  0.0392  0.0846  0.2897
14022TIP3    H142011   5.178   3.523   2.898 -1.1805  0.6422  0.1850
14022TIP3    H242012   5.233   3.535   2.758 -1.7827 -0.0414 -0.1163
14023TIP3   OH242013   3.728   0.431   0.688  0.3231 -0.2504 -0.1776
14023TIP3    H142014   3.811   0.434   0.735  0.7392  0.7579 -0.9401
14023TIP3    H242015   3.738   0.359   0.626  0.1954 -0.8443  0.4701
14024TIP3   OH242016   3.072   2.454   1.281  0.1972 -0.2098 -0.1292
14024TIP3    H142017   3.153   2.481   1.238 -0.4605 -0.3787 -1.5150
14024TIP3    H242018   3.003   2.475   1.218 -0.5360 -3.1097 -0.4133
14025TIP3   OH242019   2.259   1.646   3.367  0.0091 -0.0295 -0.3963
14025TIP3    H142020   2.341   1.676   3.406 -1.3152  1.2152  1.6142
14025TIP3    H242021   2.193   1.659   3.436 -1.7265 -1.9393 -1.5655
14026TIP3   OH242022   0.232   1.589   4.092 -0.4815 -0.3614  0.0763
14026TIP3    H142023   0.231   1.553   4.004  0.4021 -2.4498  0.8504
14026TIP3    H242024   0.140   1.599   4.115 -0.7523 -1.2411 -0.5578
14027TIP3   OH242025   3.401   0.537   3.560  0.0119 -0.3074  0.4258
14027TIP3    H142026   3.407   0.596   3.636  1.2169 -1.3659  1.1948
14027TIP3    H242027   3.311   0.547   3.530 -0.7486 -0.4081  2.4776
14028TIP3   OH242028   5.759   3.932   4.019  0.0602  0.2839  0.0140
14028TIP3    H142029   5.815   3.896   3.951 -1.3822 -1.1959 -0.4660
14028TIP3    H242030   5.817   3.948   4.093  1.0527 -1.5728 -0.3219
14029TIP3   OH242031   5.710   3.852   4.799 -0.6915  0.4534  0.0007
14029TIP3    H142032   5.741   3.803   4.722 -1.6133  0.5041 -0.4127
14029TIP3    H242033   5.767   3.823   4.870 -1.0295 -1.0265 -0.3001
14030TIP3   OH242034   2.260   6.086   1.696 -0.1664 -0.0580 -0.3623
14030TIP3    H142035   2.284   6.016   1.756 -0.4121  0.9802  0.9971
14030TIP3    H242036   2.223   6.155   1.752 -0.8675  0.7583 -1.7533
14031TIP3   OH242037   3.400   2.686   0.789  0.1774 -0.1612 -0.0364
14031TIP3    H142038   3.409   2.659   0.698 -0.2344  0.4519 -0.2613
14031TIP3    H242039   3.479   2.651   0.832  0.8701  0.3906 -0.8260
14032TIP3   OH242040   2.692   4.146   2.781 -0.3880  0.3351  0.2591
14032TIP3    H142041   2.785   4.146   2.758 -0.6228  1.5658 -0.8208
14032TIP3    H242042   2.681   4.222   2.838 -0.6675 -0.0605  0.7492
14033TIP3   OH242043   6.194   6.717   0.644 -0.3784 -0.1720  0.3444
14033TIP3    H142044   6.146   6.783   0.595  2.0887  0.1497 -1.8953
14033TIP3    H242045   6.177   6.635   0.598  0.0099 -0.3060  0.4298
14034TIP3   OH242046   2.759   0.779   2.921 -0.2820  0.3490 -0.0789
14034TIP3    H142047   2.734   0.769   2.830 -1.4055  1.3343  0.0870
14034TIP3    H242048   2.782   0.872   2.930  1.8372 -0.1432  0.2026
14035TIP3   OH242049   7.793   2.370   3.265  0.0741  0.6332  0.4129
14035TIP3    H142050   7.784   2.441   3.328 -1.2138 -0.8253  1.9751
14035TIP3    H242051   7.712   2.320   3.274  0.1056  0.0035 -2.0034
14036TIP3   OH242052   3.122   3.745   5.492  0.4097  0.0571 -0.3616
14036TIP3    H142053   3.133   3.819   5.433  1.6901  1.2495  1.2558
14036TIP3    H242054   3.099   3.785   5.576  2.5146 -1.2010  0.9128
14037TIP3   OH242055   1.496   2.122   6.698  0.0603  0.3642 -0.2380
14037TIP3    H142056   1.482   2.164   6.783  2.3664  2.2785 -0.7037
14037TIP3    H242057   1.413   2.132   6.652 -0.7741  0.5624  1.2515
14038TIP3   OH242058   1.462   4.415   5.984  0.8811  0.5744 -0.4390
14038TIP3    H142059   1.368   4.403   5.971  0.4553  1.5266  1.3481
14038TIP3    H242060   1.502   4.386   5.902 -0.7757 -1.8912 -0.4701
14039TIP3   OH242061   8.085   5.441   3.963  0.2298 -0.0711  0.0741
14039TIP3    H142062   8.010   5.499   3.973  0.6167  0.6773 -1.1260
14039TIP3    H242063   8.046   5.354   3.953 -0.5217  0.3722 -1.0596
14040TIP3   OH242064   1.226   6.839   6.043  0.1084  0.7086 -0.5186
14040TIP3    H142065   1.154   6.862   6.101 -0.6475  1.1032 -1.5818
14040TIP3    H242066   1.217   6.899   5.968  0.7939 -0.0702 -1.2481
14041TIP3   OH242067   2.996   2.192   3.460  0.1286  0.2815  0.2506
14041TIP3    H142068   3.029   2.278   3.487 -0.8858  1.0605 -0.8646
14041TIP3    H242069   3.073   2.147   3.424  0.5352  1.0106  0.1845
14042TIP3   OH242070   4.272   3.322   5.800  0.3668  0.1474  0.4731
14042TIP3    H142071   4.253   3.366   5.882 -0.4247  0.0655  0.3508
14042TIP3    H242072   4.203   3.256   5.792 -0.2071  0.8383 -0.7434
14043TIP3   OH242073   5.558   7.709   4.234 -0.5623 -0.4743  0.0584
14043TIP3    H142074   5.640   7.741   4.272 -1.1386  0.2816  0.6746
14043TIP3    H242075   5.586   7.642   4.171  0.4737 -0.9689  1.0044
14044TIP3   OH242076   3.908   6.332   1.507  0.3095  0.2163 -0.0667
14044TIP3    H142077   3.855   6.316   1.430  0.7521  0.2853 -0.3890
14044TIP3    H242078   3.903   6.426   1.521  1.1003  0.3571 -0.6567
14045TIP3   OH242079   5.461   5.323   0.068  0.4133 -0.5320 -0.1811
14045TIP3    H142080   5.543   5.372   0.079  0.3684 -0.8014  1.4942
14045TIP3    H242081   5.393   5.387   0.089  0.0455  0.1000 -2.8726
14046TIP3   OH242082   5.304   4.874   1.099  0.3461 -0.1358 -0.6313
14046TIP3    H142083   5.274   4.964   1.116 -2.2915 -0.0827 -4.3732
14046TIP3    H242084   5.277   4.825   1.176 -1.9172  1.5888 -0.2234
14047TIP3   OH242085   7.351   0.576   2.427  0.2958 -0.0030 -0.2990
14047TIP3    H142086   7.427   0.538   2.383 -0.7390 -0.3703 -1.8450
14047TIP3    H242087   7.282   0.512   2.414  0.2331 -0.8096  3.1245
14048TIP3   OH242088   7.110   1.644   3.335  0.3001  0.5401  0.3007
14048TIP3    H142089   7.109   1.708   3.264  1.3292  0.0603 -0.1666
14048TIP3    H242090   7.151   1.566   3.297  1.9416  0.6595  1.7319
14049TIP3   OH242091   3.692   1.870   2.531  0.1676  0.5961 -0.4210
14049TIP3    H142092   3.720   1.930   2.600 -1.2316 -2.1399  2.8604
14049TIP3    H242093   3.604   1.898   2.508  0.5447  1.3731 -0.9451
14050TIP3   OH242094   3.292   2.061   5.185 -0.4322 -0.0251  0.8711
14050TIP3    H142095   3.224   1.996   5.165  0.0651 -0.4972  0.7174
14050TIP3    H242096   3.264   2.098   5.269 -0.1897 -1.1675  1.4878
14051TIP3   OH242097   6.321   4.709   4.719 -0.6754  0.2105 -0.4447
14051TIP3    H142098   6.304   4.783   4.777 -0.8049 -0.2426  0.0965
14051TIP3    H242099   6.372   4.747   4.647 -1.2779  0.9499 -0.4967
14052TIP3   OH242100   4.394   2.559   5.249 -0.5603 -0.5584  0.3100
14052TIP3    H142101   4.377   2.480   5.197 -0.6727  0.3301 -1.0565
14052TIP3    H242102   4.349   2.543   5.332 -1.1959 -1.6327 -0.2147
14053TIP3   OH242103   4.250   6.599   1.438 -1.0040 -0.0003  0.0740
14053TIP3    H142104   4.186   6.652   1.390 -0.4519  0.6065 -0.0183
14053TIP3    H242105   4.333   6.643   1.422 -0.6975 -0.2469  0.9383
14054TIP3   OH242106   3.948   3.486   5.069 -0.8311 -0.2208 -0.2535
14054TIP3    H142107   3.905   3.418   5.018 -0.7959  0.3313 -1.0252
14054TIP3    H242108   4.039   3.457   5.076 -0.8906 -0.4179 -0.2893
14055TIP3   OH242109   5.678   0.387   3.913 -0.0559 -0.0646  0.1275
14055TIP3    H142110   5.657   0.299   3.879  1.3866 -0.3120 -0.1818
14055TIP3    H242111   5.632   0.391   3.997 -0.3076 -1.0404  0.0565
14056TIP3   OH242112   5.554   5.262   0.489  0.0788 -0.8709  0.4777
14056TIP3    H142113   5.513   5.344   0.463  0.4373 -0.9464 -0.3386
14056TIP3    H242114   5.634   5.288   0.534  0.7112 -0.7859 -0.6767
14057TIP3   OH242115   6.548   3.345   3.720 -0.0600  0.2720 -0.3243
14057TIP3    H142116   6.562   3.412   3.786  3.0231  0.4624 -1.0144
14057TIP3    H242117   6.566   3.388   3.637  0.4171 -0.9995 -0.9164
14058TIP3   OH242118   7.253   6.629   3.280 -0.2246 -0.0446 -0.1240
14058TIP3    H142119   7.200   6.610   3.202 -0.2202  1.1358 -0.4469
14058TIP3    H242120   7.297   6.547   3.300  0.1145 -0.2751 -1.6480
14059TIP3   OH242121   0.365   0.486   3.023  0.1596 -0.6781  0.0366
14059TIP3    H142122   0.318   0.441   3.093 -2.0711  0.7722 -0.4433
14059TIP3    H242123   0.403   0.415   2.971  1.2488 -1.8173  2.2171
14060TIP3   OH242124   7.353   7.206   2.472 -0.6720  0.4632  0.1140
14060TIP3    H142125   7.398   7.124   2.449  1.3037  1.3988  0.4675
14060TIP3    H242126   7.315   7.189   2.558  1.1027  0.4000  0.9171
14061TIP3   OH242127   1.583   2.470   5.087  0.0028 -0.0553  0.1582
14061TIP3    H142128   1.603   2.557   5.052 -3.1918  1.7513  2.3358
14061TIP3    H242129   1.512   2.438   5.032 -0.7921  0.0256  1.1194
14062TIP3   OH242130   5.069   6.140   3.012  0.1305  0.4991 -0.0458
14062TIP3    H142131   5.091   6.093   3.093  0.7753  0.8821  0.0170
14062TIP3    H242132   5.146   6.129   2.957 -0.6470 -0.4848 -0.9664
14063TIP3   OH242133   6.398   0.320   1.958 -0.1499 -0.1677 -0.1401
14063TIP3    H142134   6.454   0.352   1.887 -1.2481 -0.3652 -1.1212
14063TIP3    H242135   6.459   0.303   2.030  1.0397 -0.2947 -1.1395
14064TIP3   OH242136   7.741   0.712   4.067  0.4832  0.0683 -0.4237
14064TIP3    H142137   7.833   0.735   4.058  1.2054 -1.6938  1.4357
14064TIP3    H242138   7.738   0.618   4.047 -0.1778 -0.7327  2.7944
14065TIP3   OH242139   3.651   1.159   3.922  0.0185  0.4543  0.5286
14065TIP3    H142140   3.662   1.214   4.000 -1.3781  0.4901  0.7172
14065TIP3    H242141   3.705   1.203   3.855  2.1861 -0.2192  1.7238
14066TIP3   OH242142   4.473   1.188   1.026  0.0178  0.3054  0.1792
14066TIP3    H142143   4.448   1.132   1.100 -0.5720  0.6290  0.2363
14066TIP3    H242144   4.425   1.152   0.952 -0.5876  0.8904  0.2737
14067TIP3   OH242145   1.751   4.972   0.629 -0.4481  0.7433 -0.3063
14067TIP3    H142146   1.792   5.055   0.655 -0.7784  1.1059 -0.9232
14067TIP3    H242147   1.824   4.912   0.619 -0.0120  1.4581 -1.6678
14068TIP3   OH242148   1.902   1.781   4.722 -0.0817  0.0779 -0.0087
14068TIP3    H142149   1.963   1.725   4.675 -0.9275 -0.7336 -0.1663
14068TIP3    H242150   1.821   1.776   4.672 -0.9903 -0.7772  1.4946
14069TIP3   OH242151   6.010   5.718   0.625  0.0882  0.0479 -0.1049
14069TIP3    H142152   5.951   5.707   0.700 -2.0697 -0.5502 -1.7901
14069TIP3    H242153   6.091   5.674   0.652 -1.2048 -1.6334  1.2610
14070TIP3   OH242154   8.080   1.477   3.370  0.1614 -0.1303  0.3060
14070TIP3    H142155   8.102   1.389   3.402  1.9853 -0.4762 -1.7209
14070TIP3    H242156   7.992   1.466   3.332 -0.0485 -0.8167  0.9466
14071TIP3   OH242157   1.247   6.724   1.254 -0.1112 -0.3349  0.0719
14071TIP3    H142158   1.200   6.677   1.187  0.1507  0.4968 -0.7206
14071TIP3    H242159   1.338   6.725   1.224  0.1534 -0.6666  0.8472
14072TIP3   OH242160   3.231   7.365   2.683  0.0601  0.2415  0.6317
14072TIP3    H142161   3.311   7.339   2.637 -0.2540  0.0762  0.1644
14072TIP3    H242162   3.184   7.282   2.696 -0.4900  0.4411  0.0121
14073TIP3   OH242163   1.299   3.840   5.190  0.7581  0.1007  0.3322
14073TIP3    H142164   1.258   3.766   5.145 -1.2732  1.0417  0.5327
14073TIP3    H242165   1.368   3.869   5.130  1.4733 -1.7825  0.1638
14074TIP3   OH242166   6.675   7.448   2.734 -0.1287  0.1038  0.1331
14074TIP3    H142167   6.738   7.392   2.779  0.7837 -0.6341 -1.9481
14074TIP3    H242168   6.590   7.423   2.771  0.5309 -0.6824  1.1824
14075TIP3   OH242169   3.583   0.362   4.038 -0.5079 -0.7003 -0.2474
14075TIP3    H142170   3.587   0.447   3.994 -0.3332 -0.7707 -0.3687
14075TIP3    H242171   3.617   0.300   3.974  0.6985 -0.6694  0.3252
14076TIP3   OH242172   7.656   6.737   2.008  0.4344 -0.0713 -0.1939
14076TIP3    H142173   7.611   6.662   1.967  0.5157 -0.1623 -0.1178
14076TIP3    H242174   7.595   6.767   2.076  0.3675 -0.0196 -0.2764
14077TIP3   OH242175   7.897   4.544   5.151  0.7249 -0.3285 -0.1620
14077TIP3    H142176   7.987   4.578   5.153  1.2762 -1.4792 -2.1176
14077TIP3    H242177   7.842   4.620   5.133  1.3438  0.3044  0.5449
14078TIP3   OH242178   8.081   5.825   1.122  0.2773  0.2805  0.1763
14078TIP3    H142179   8.134   5.905   1.119  1.4118 -0.4494 -0.0135
14078TIP3    H242180   8.141   5.758   1.153 -1.3129 -0.0239  2.9314
14079TIP3   OH242181   4.667   5.052   0.724  0.2795 -0.3237  0.2210
14079TIP3    H142182   4.659   4.990   0.796 -3.7377 -1.7855 -1.1853
14079TIP3    H242183   4.630   5.133   0.757 -1.4330 -0.9525 -0.0453
14080TIP3   OH242184   5.185   0.429   6.293 -0.1469  0.2850 -0.0913
14080TIP3    H142185   5.198   0.343   6.253  0.3056  0.6274 -0.6867
14080TIP3    H242186   5.200   0.492   6.223 -0.4732  0.8604  0.3381
14081TIP3   OH242187   5.949   0.085   4.514  0.6212 -0.0091  0.1732
14081TIP3    H142188   5.991   0.169   4.529  0.7719 -0.3659  1.9290
14081TIP3    H242189   5.925   0.053   4.601 -2.7445 -0.1189 -0.6353
14082TIP3   OH242190   5.963   0.784   0.935  0.2533 -0.3617 -0.3491
14082TIP3    H142191   5.938   0.844   1.006  0.1163  0.0370 -0.7277
14082TIP3    H242192   6.009   0.840   0.872  1.1112 -0.8699 -0.1874
14083TIP3   OH242193   8.009   2.383   5.152  0.0798  0.4385 -0.4817
14083TIP3    H142194   7.941   2.365   5.088 -0.8970 -1.1187  0.9336
14083TIP3    H242195   8.039   2.297   5.181  0.8933  1.1021  0.7466
14084TIP3   OH242196   7.956   0.147   4.834  0.0505 -0.1340 -0.4366
14084TIP3    H142197   7.868   0.123   4.863 -0.5610  1.6827 -0.6277
14084TIP3    H242198   7.949   0.240   4.813  2.6784  0.7602  2.0533
14085TIP3   OH242199   1.585   5.389   3.236  0.0540 -0.3692 -0.3341
14085TIP3    H142200   1.594   5.482   3.214 -2.3944  0.8937  3.0103
14085TIP3    H242201   1.644   5.377   3.311  0.8143 -1.7163 -1.1220
14086TIP3   OH242202   2.943   6.432   6.678  0.0310  0.1565  0.2857
14086TIP3    H142203   2.875   6.493   6.651  0.1103 -0.2536 -0.8738
14086TIP3    H242204   2.927   6.354   6.626  3.2863  1.1155 -2.4813
14087TIP3   OH242205   1.513   0.819   6.648 -0.3769  0.3362 -1.0666
14087TIP3    H142206   1.448   0.874   6.603 -0.8575 -0.3228 -1.1903
14087TIP3    H242207   1.597   0.847   6.611 -0.2262  3.1138  1.0074
14088TIP3   OH242208   5.437   4.931   5.446  0.4712 -0.2778 -0.0930
14088TIP3    H142209   5.397   4.979   5.373 -0.3615 -0.7304  0.0484
14088TIP3    H242210   5.469   4.999   5.505  0.0588  0.1033 -0.2979
14089TIP3   OH242211   2.436   1.511   4.220 -0.1756  0.3506 -0.0660
14089TIP3    H142212   2.509   1.454   4.194  0.4282  0.9062  0.3865
14089TIP3    H242213   2.358   1.461   4.197  0.3331  0.1613 -1.5097
14090TIP3   OH242214   2.606   3.781   1.021  0.5479 -0.0590  0.3762
14090TIP3    H142215   2.548   3.707   1.039  0.5872 -0.3059 -0.4954
14090TIP3    H242216   2.549   3.847   0.982  0.1999  0.9748  2.4750
14091TIP3   OH242217   3.690   3.349   6.670 -0.1908 -0.1116  0.0820
14091TIP3    H142218   3.727   3.432   6.641  0.1736 -0.4622 -0.4855
14091TIP3    H242219   3.596   3.360   6.662 -0.0938 -0.2504 -1.4121
14092TIP3   OH242220   4.255   6.909   6.147  0.3968 -0.7219  0.3448
14092TIP3    H142221   4.303   6.827   6.142  0.8697 -0.6116  2.2527
14092TIP3    H242222   4.308   6.971   6.098 -0.2663 -1.6285 -1.6414
14093TIP3   OH242223   3.094   7.522   4.925 -0.1208  0.3893  0.4773
14093TIP3    H142224   3.004   7.548   4.945 -0.2887  1.0978 -1.0473
14093TIP3    H242225   3.099   7.429   4.948 -1.4117  0.2050  0.0673
14094TIP3   OH242226   3.555   6.905   2.934  0.5131 -0.1253  0.0885
14094TIP3    H142227   3.599   6.833   2.980  0.4704 -0.5508 -0.5222
14094TIP3    H242228   3.591   6.984   2.973  0.0422 -0.4737  1.2568
14095TIP3   OH242229   0.741   3.062   1.050 -0.0716  0.0854 -0.8942
14095TIP3    H142230   0.696   3.127   0.995 -0.1922  0.7229 -0.0760
14095TIP3    H242231   0.816   3.109   1.085  0.1993 -0.4205 -0.7931
14096TIP3   OH242232   4.860   3.203   3.297  0.1693  0.0878  0.4115
14096TIP3    H142233   4.857   3.169   3.386 -0.6778  0.6939  0.6250
14096TIP3    H242234   4.771   3.234   3.280  0.4508  0.4529 -0.4571
14097TIP3   OH242235   2.780   7.222   3.794  0.6251  0.1316 -0.5899
14097TIP3    H142236   2.814   7.133   3.803  1.3475  0.4713  0.2129
14097TIP3    H242237   2.709   7.228   3.857 -0.0146 -0.1360 -1.2669
14098TIP3   OH242238   6.021   2.944   1.457 -0.0787 -0.3456  0.3889
14098TIP3    H142239   6.009   2.931   1.363 -0.5249  0.3111  0.3424
14098TIP3    H242240   6.014   3.039   1.468  0.5283 -0.3729  1.0120
14099TIP3   OH242241   0.203   2.099   3.266 -0.1859  0.2486  0.3776
14099TIP3    H142242   0.142   2.027   3.251 -0.5099  0.3768  1.0613
14099TIP3    H242243   0.289   2.059   3.260 -0.2657  0.2649 -1.7444
14100TIP3   OH242244   1.975   2.966   1.508  0.5683 -0.0331 -0.4234
14100TIP3    H142245   1.885   2.967   1.477  0.5463 -0.0319 -0.3584
14100TIP3    H242246   1.988   3.050   1.552  0.4434 -0.2430  0.0169
14101TIP3   OH242247   3.686   5.809   6.775  0.2927 -0.4402 -0.0682
14101TIP3    H142248   3.629   5.760   6.716  0.3094 -0.9794  0.3607
14101TIP3    H242249   3.728   5.875   6.718  1.3828 -1.8488 -0.9690
14102TIP3   OH242250   6.617   0.327   1.257 -0.1214 -0.1982 -0.6336
14102TIP3    H142251   6.699   0.370   1.282 -0.2681 -0.2785 -0.0035
14102TIP3    H242252   6.637   0.233   1.260  0.1173 -0.1922 -1.7260
14103TIP3   OH242253   6.625   3.275   2.775  0.2383  0.0974  1.1359
14103TIP3    H142254   6.666   3.188   2.773  0.9511  0.4299  0.6817
14103TIP3    H242255   6.682   3.328   2.719 -1.7954  0.1594 -1.0183
14104TIP3   OH242256   4.485   6.305   4.916  0.0565 -0.0452  0.0462
14104TIP3    H142257   4.483   6.345   5.003  1.2177  0.5174 -0.1706
14104TIP3    H242258   4.559   6.245   4.920  0.7346  0.7130 -0.8577
14105TIP3   OH242259   3.712   6.746   5.833  0.1560 -0.1587  0.0439
14105TIP3    H142260   3.644   6.683   5.811  0.7526 -0.7354 -0.2114
14105TIP3    H242261   3.737   6.723   5.923  0.9284 -0.8263 -0.3251
14106TIP3   OH242262   3.638   0.905   2.077 -0.1989 -0.3804 -0.1106
14106TIP3    H142263   3.589   0.945   2.005 -1.3512 -1.3538  0.1039
14106TIP3    H242264   3.585   0.923   2.155 -0.0601 -1.1966  0.1747
14107TIP3   OH242265   6.098   0.824   1.513 -0.4173 -0.6338  0.0846
14107TIP3    H142266   6.008   0.828   1.545 -1.1286  1.9356 -1.9087
14107TIP3    H242267   6.108   0.902   1.458  2.9925 -0.9233  0.0678
14108TIP3   OH242268   6.528   1.720   1.555 -0.5821  0.4858  0.1922
14108TIP3    H142269   6.436   1.744   1.559 -1.0233 -1.1509  3.3372
14108TIP3    H242270   6.571   1.782   1.614  0.1129  0.3845 -0.1957
14109TIP3   OH242271   2.026   5.893   0.111 -0.5649 -0.4963  0.2021
14109TIP3    H142272   2.023   5.867   0.019  1.6250  2.6421 -0.8868
14109TIP3    H242273   1.944   5.941   0.125 -0.0555  0.6720 -0.7038
14110TIP3   OH242274   2.822   2.326   2.946  0.4056  0.2794  0.0594
14110TIP3    H142275   2.849   2.350   2.857  1.7757 -2.2476 -0.3050
14110TIP3    H242276   2.733   2.293   2.936  0.3515  0.5207 -0.2714
14111TIP3   OH242277   3.319   7.777   5.622  0.0840  0.1065  0.6112
14111TIP3    H142278   3.232   7.809   5.647 -0.3031 -0.9020  0.6342
14111TIP3    H242279   3.313   7.682   5.634  0.4275 -0.2627 -1.6431
14112TIP3   OH242280   7.617   3.619   0.137 -0.2354  0.2520 -0.3995
14112TIP3    H142281   7.568   3.602   0.218  1.3599  0.7917  0.7214
14112TIP3    H242282   7.706   3.589   0.156  0.6347  2.1465 -1.2824
14113TIP3   OH242283   0.773   4.395   0.469 -0.1728 -0.2914 -1.2294
14113TIP3    H142284   0.841   4.346   0.515  1.3247  1.5275 -1.3734
14113TIP3    H242285   0.691   4.350   0.490  0.7737 -1.0563  1.0599
14114TIP3   OH242286   3.505   7.103   1.163  0.0469 -0.5527 -0.3910
14114TIP3    H142287   3.579   7.146   1.205  0.6077 -0.8710 -1.0301
14114TIP3    H242288   3.433   7.166   1.171  0.0433 -0.7428  1.2986
14115TIP3   OH242289   0.650   6.282   2.447  0.7950 -0.5829 -0.5003
14115TIP3    H142290   0.593   6.326   2.384  1.1054 -0.1611 -0.4963
14115TIP3    H242291   0.712   6.232   2.394  0.8727 -0.4602 -0.5263
14116TIP3   OH242292   2.039   1.897   0.526  0.1321  0.4357 -0.6922
14116TIP3    H142293   1.985   1.968   0.561 -1.2946 -0.7565 -0.3875
14116TIP3    H242294   2.120   1.940   0.499 -0.8585  2.2517 -0.9453
14117TIP3   OH242295   0.976   5.185   4.477 -0.0523  0.2802  0.6284
14117TIP3    H142296   0.899   5.143   4.439  0.2473 -0.4733  0.8238
14117TIP3    H242297   0.945   5.269   4.509 -0.4603  0.6380 -0.6524
14118TIP3   OH242298   2.542   3.183   2.559  0.1718  0.0594 -0.1979
14118TIP3    H142299   2.547   3.157   2.467  1.5665 -2.4959  0.5145
14118TIP3    H242300   2.454   3.157   2.587 -0.0381  0.2788 -0.6525
14119TIP3   OH242301   3.003   3.869   1.439  0.0412 -0.7111  0.0577
14119TIP3    H142302   3.023   3.803   1.505 -1.5181 -2.0599 -0.7323
14119TIP3    H242303   2.982   3.948   1.489  3.6182 -0.1708  0.9975
14120TIP3   OH242304   6.433   4.740   3.508 -0.0611  0.0827 -0.8861
14120TIP3    H142305   6.492   4.787   3.450  0.0442 -0.0528 -0.8912
14120TIP3    H242306   6.428   4.652   3.469  2.8856 -1.1980  1.2632
14121TIP3   OH242307   5.403   7.830   2.928  0.4977 -0.0471 -0.3023
14121TIP3    H142308   5.358   7.757   2.886 -1.0431  0.3835  0.5256
14121TIP3    H242309   5.344   7.857   2.998  1.4298  1.4440 -0.0538
14122TIP3   OH242310   2.239   5.255   1.228 -0.4992 -0.2554 -0.5901
14122TIP3    H142311   2.230   5.342   1.266 -4.1181  0.6552 -2.9485
14122TIP3    H242312   2.297   5.208   1.287  1.1227  3.5189  1.1274
14123TIP3   OH242313   2.437   2.843   5.266  0.4041  0.9164  0.2357
14123TIP3    H142314   2.499   2.795   5.211  0.4367  0.1695  0.8963
14123TIP3    H242315   2.458   2.935   5.252  2.3383  0.6821  1.1840
14124TIP3   OH242316   7.276   7.426   3.719  0.1149  0.3978  0.1350
14124TIP3    H142317   7.339   7.360   3.690 -0.6961 -0.0032 -0.7489
14124TIP3    H242318   7.294   7.502   3.663  0.5292  0.6586  0.6199
14125TIP3   OH242319   4.556   1.804   5.726  0.4246 -0.7184 -0.1706
14125TIP3    H142320   4.584   1.822   5.636  1.1710 -1.4821 -0.1050
14125TIP3    H242321   4.637   1.809   5.777  0.4514 -2.7495  0.0644
14126TIP3   OH242322   3.440   2.582   5.903 -0.0148 -0.4928 -0.0307
14126TIP3    H142323   3.436   2.657   5.844 -1.5208  0.0458  0.6800
14126TIP3    H242324   3.362   2.530   5.881 -1.7309  0.6926  2.5931
14127TIP3   OH242325   0.137   7.463   1.037 -0.1497  0.0845 -0.8655
14127TIP3    H142326   0.188   7.401   0.984  0.7806 -0.4128  0.5412
14127TIP3    H242327   0.072   7.498   0.977  0.1965 -1.2270 -2.0677
14128TIP3   OH242328   6.425   6.703   2.943  0.2926  0.1264  0.3641
14128TIP3    H142329   6.485   6.775   2.921 -0.3374  0.3833 -0.5666
14128TIP3    H242330   6.386   6.679   2.859 -0.5395 -0.3739  0.8896
14129TIP3   OH242331   2.296   1.967   1.961  0.6409  0.7688  0.3418
14129TIP3    H142332   2.312   2.050   2.005  0.5245 -0.5260  3.0510
14129TIP3    H242333   2.200   1.963   1.951  0.5780  0.6406  0.9482
14130TIP3   OH242334   4.724   4.543   6.236  0.0969 -0.3515 -0.3723
14130TIP3    H142335   4.696   4.566   6.147 -1.2387 -0.2160  0.0644
14130TIP3    H242336   4.787   4.612   6.258 -0.5866  0.4070 -0.7145
14131TIP3   OH242337   2.992   5.931   0.154  0.4622  0.2897  0.1486
14131TIP3    H142338   2.951   5.921   0.068 -0.2656  1.4669  0.3327
14131TIP3    H242339   2.986   5.845   0.194 -1.1271  0.2302 -0.1580
14132TIP3   OH242340   4.938   6.362   2.129  0.3592  0.5365 -0.3054
14132TIP3    H142341   4.962   6.435   2.072  0.9907  0.8006  0.2881
14132TIP3    H242342   4.903   6.403   2.208  0.8272  0.2048  0.0812
14133TIP3   OH242343   6.154   7.044   5.374  0.2544  0.5083 -0.4942
14133TIP3    H142344   6.211   7.061   5.299  1.4696  0.5628  0.4022
14133TIP3    H242345   6.083   6.991   5.339  1.9298 -1.3270 -1.2795
14134TIP3   OH242346   2.591   0.090   6.191 -0.4806 -0.1085  0.7005
14134TIP3    H142347   2.572   0.175   6.151  0.1364  0.6433  1.9490
14134TIP3    H242348   2.644   0.044   6.126 -0.7027  0.5197  0.0674
14135TIP3   OH242349   0.436   1.200   6.188  0.1728  0.0255  0.2954
14135TIP3    H142350   0.342   1.190   6.201  0.2498 -0.8728  0.2023
14135TIP3    H242351   0.456   1.148   6.110  0.6998  0.4374  0.1466
14136TIP3   OH242352   4.819   7.559   1.032  0.1960  0.0321 -0.6520
14136TIP3    H142353   4.913   7.550   1.048  0.1169  0.5076  0.1236
14136TIP3    H242354   4.788   7.469   1.020  0.8537 -0.0889 -1.5964
14137TIP3   OH242355   6.799   0.200   2.741 -0.4402 -0.1957  0.2019
14137TIP3    H142356   6.891   0.174   2.753 -0.2235 -0.1967 -1.3293
14137TIP3    H242357   6.751   0.146   2.804  0.6630  0.3343  1.5679
14138TIP3   OH242358   3.316   2.011   2.057 -0.4047  0.1176  0.1972
14138TIP3    H142359   3.337   1.965   1.975  0.9377  1.4317 -0.2421
14138TIP3    H242360   3.337   2.103   2.039 -0.1139  0.4448  2.0096
14139TIP3   OH242361   4.861   3.498   0.445 -0.0286  0.0932  0.2896
14139TIP3    H142362   4.891   3.408   0.434  1.2132  0.7048 -2.1315
14139TIP3    H242363   4.941   3.546   0.467 -0.2573  0.9083 -0.6123
14140TIP3   OH242364   5.266   2.267   6.647 -0.2588 -0.1069 -0.9162
14140TIP3    H142365   5.198   2.200   6.655 -0.8155  0.5906  0.6059
14140TIP3    H242366   5.288   2.268   6.554 -3.2933  0.5363 -1.7491
14141TIP3   OH242367   2.759   5.262   3.948  0.3993 -0.2019 -0.3944
14141TIP3    H142368   2.802   5.303   4.023 -1.0334  1.9197 -0.6175
14141TIP3    H242369   2.684   5.320   3.930 -0.1510 -1.4799 -2.5247
14142TIP3   OH242370   8.010   3.468   4.310  0.1452  0.6701  0.2505
14142TIP3    H142371   8.061   3.470   4.229 -1.0038  1.7284 -0.4956
14142TIP3    H242372   8.056   3.407   4.367  1.3946  0.4744 -0.9325
14143TIP3   OH242373   0.304   3.027   4.470  0.2873 -0.3964 -0.6979
14143TIP3    H142374   0.318   3.064   4.557  0.0531 -0.7358 -0.5123
14143TIP3    H242375   0.317   2.933   4.481 -0.9944 -0.6000 -0.7458
14144TIP3   OH242376   4.475   6.061   0.178 -0.1414 -0.1493  0.2196
14144TIP3    H142377   4.462   6.062   0.084  1.8148  0.8246 -0.0876
14144TIP3    H242378   4.498   5.970   0.199  1.0439 -0.0331 -0.5179
14145TIP3   OH242379   7.155   2.578   1.716 -0.0528  0.3832  0.5091
14145TIP3    H142380   7.100   2.638   1.767  1.5493  0.8415  1.7832
14145TIP3    H242381   7.191   2.633   1.646 -1.9950 -0.1723 -1.0297
14146TIP3   OH242382   3.341   4.376   5.528  0.7229 -0.2506 -0.5651
14146TIP3    H142383   3.290   4.441   5.576  1.4239  0.6114 -0.9725
14146TIP3    H242384   3.311   4.292   5.563 -0.9260  0.2268 -0.7442
14147TIP3   OH242385   8.144   4.677   5.215 -0.1054 -0.0835 -0.5140
14147TIP3    H142386   8.157   4.766   5.181  0.8502  0.6553  1.6197
14147TIP3    H242387   8.138   4.688   5.310 -2.0794 -2.0902 -0.3095
14148TIP3   OH242388   3.500   2.187   1.851  0.5688 -0.1750  0.3688
14148TIP3    H142389   3.476   2.279   1.863 -0.1088 -0.3273  0.1876
14148TIP3    H242390   3.481   2.168   1.759 -0.6128 -0.8789  0.7438
14149TIP3   OH242391   1.105   3.224   4.401  0.1174  0.3525  0.1647
14149TIP3    H142392   1.039   3.275   4.355  1.2712  1.6045 -0.1874
14149TIP3    H242393   1.056   3.169   4.462 -1.3358 -0.1151 -1.3668
14150TIP3   OH242394   3.656   6.074   1.245 -0.0300  0.3959 -0.0657
14150TIP3    H142395   3.611   6.035   1.170  0.6039 -0.2369 -0.1235
14150TIP3    H242396   3.612   6.158   1.258 -0.2679  0.4335 -1.0274
14151TIP3   OH242397   2.517   0.078   1.100 -0.1267  0.1466  0.2047
14151TIP3    H142398   2.605   0.116   1.095 -0.8150  1.9937  1.1844
14151TIP3    H242399   2.482   0.086   1.012  0.2679  0.4684  0.0727
14152TIP3   OH242400   0.663   5.383   4.243 -0.0238 -0.1132  0.4088
14152TIP3    H142401   0.642   5.304   4.292  0.6733 -0.7898 -0.3370
14152TIP3    H242402   0.756   5.375   4.225 -0.2031  0.2449 -0.7587
14153TIP3   OH242403   6.779   3.996   3.416 -0.0814  0.3656 -0.0829
14153TIP3    H142404   6.696   4.014   3.461 -2.2023 -0.6547 -3.1531
14153TIP3    H242405   6.803   3.908   3.444  0.2704  0.8533  1.2016
14154TIP3   OH242406   1.034   1.447   0.701  0.0615  0.0741  0.0252
14154TIP3    H142407   1.127   1.444   0.720  0.1367 -4.0060 -0.0395
14154TIP3    H242408   0.991   1.436   0.787 -0.1341 -2.0300 -0.2874
14155TIP3   OH242409   3.984   6.991   5.443  0.6555 -0.3902 -0.3492
14155TIP3    H142410   3.952   6.951   5.362  1.2930 -1.0466 -0.2858
14155TIP3    H242411   3.953   6.933   5.512 -1.1066  0.9265  0.0176
14156TIP3   OH242412   4.860   4.064   0.259 -0.3237 -0.7927  0.3061
14156TIP3    H142413   4.940   4.111   0.284 -1.3295  1.1443  0.0590
14156TIP3    H242414   4.886   3.972   0.258  1.5743 -0.3256  1.4561
14157TIP3   OH242415   7.235   7.298   4.891 -0.0476  0.9694 -0.3388
14157TIP3    H142416   7.297   7.353   4.844 -0.0335  0.9071 -0.3928
14157TIP3    H242417   7.220   7.345   4.973  1.0857  0.3229  0.2516
14158TIP3   OH242418   5.321   3.553   6.366  0.4792 -0.5441 -0.1415
14158TIP3    H142419   5.265   3.503   6.306  0.9026  1.4545 -2.3187
14158TIP3    H242420   5.365   3.486   6.418  0.7629 -2.4760 -2.6604
14159TIP3   OH242421   1.335   2.249   2.774  0.0017  0.1511  0.3197
14159TIP3    H142422   1.307   2.194   2.700 -2.9898 -1.6846  2.5921
14159TIP3    H242423   1.309   2.338   2.749 -0.8767 -0.4182 -0.8839
14160TIP3   OH242424   3.764   5.486   6.512 -0.3281  0.1416 -0.5194
14160TIP3    H142425   3.721   5.402   6.493 -0.3106  0.3872 -1.7221
14160TIP3    H242426   3.695   5.551   6.502 -0.3358  0.2875  0.4045
14161TIP3   OH242427   6.967   7.175   1.444  0.0548 -0.0187  0.0144
14161TIP3    H142428   6.941   7.095   1.399  1.6298 -0.1631 -0.7090
14161TIP3    H242429   7.008   7.229   1.376  0.9300  0.4964  0.9185
14162TIP3   OH242430   2.806   6.335   5.925 -0.6270  0.2090  0.2365
14162TIP3    H142431   2.751   6.259   5.939 -0.5006 -0.2797 -1.6232
14162TIP3    H242432   2.764   6.382   5.853  0.8067  0.3557 -0.5412
14163TIP3   OH242433   7.626   1.379   2.194 -0.3164 -0.5596 -0.3072
14163TIP3    H142434   7.591   1.454   2.241 -0.0899 -0.2959 -0.5486
14163TIP3    H242435   7.631   1.309   2.259  0.0688 -0.1786  0.0830
14164TIP3   OH242436   4.004   7.405   6.697 -0.3452 -0.1616  0.0849
14164TIP3    H142437   4.009   7.363   6.783 -0.9139 -1.0562 -0.3138
14164TIP3    H242438   3.951   7.483   6.712 -2.8452 -1.7578  0.0131
14165TIP3   OH242439   5.548   6.208   4.456 -0.0748  0.6274 -0.3771
14165TIP3    H142440   5.456   6.234   4.453  0.3030  2.0449 -0.1574
14165TIP3    H242441   5.546   6.121   4.496 -1.1963  1.3812  1.3537
14166TIP3   OH242442   6.166   6.236   5.819 -0.2009  0.0902  0.0424
14166TIP3    H142443   6.159   6.331   5.810  0.2283  0.0134 -1.3990
14166TIP3    H242444   6.258   6.216   5.802 -0.5258 -0.6785 -0.9624
14167TIP3   OH242445   1.516   6.157   3.875  0.0667 -0.3029 -0.3152
14167TIP3    H142446   1.564   6.114   3.946  1.6376 -1.1987 -1.8265
14167TIP3    H242447   1.578   6.222   3.840 -1.6814  2.1799  0.8659
14168TIP3   OH242448   3.690   1.377   0.222  0.0905  0.0335  0.0019
14168TIP3    H142449   3.784   1.392   0.232 -0.0179  1.1959 -0.5544
14168TIP3    H242450   3.682   1.282   0.215  1.0959 -0.1680  1.2380
14169TIP3   OH242451   7.891   5.230   5.306  0.4144  0.0010  0.0879
14169TIP3    H142452   7.868   5.138   5.315  0.0076  0.2228  1.6547
14169TIP3    H242453   7.933   5.253   5.389  0.7650  1.1534 -0.3817
14170TIP3   OH242454  -0.014   4.015   6.297  0.6422  0.2899 -0.5865
14170TIP3    H142455   0.030   3.931   6.294 -1.1858 -0.8221  0.9103
14170TIP3    H242456  -0.011   4.040   6.390 -2.0263 -0.0146 -0.3409
14171TIP3   OH242457   7.457   0.910   1.055 -0.2478 -0.3355  0.5892
14171TIP3    H142458   7.502   0.901   0.971  0.0954  0.5859  0.6567
14171TIP3    H242459   7.365   0.896   1.034 -0.4160  1.6927 -0.3268
14172TIP3   OH242460   1.613   1.463   1.971  0.2068  0.3370  0.3310
14172TIP3    H142461   1.596   1.556   1.987  0.7105  0.5553 -0.3276
14172TIP3    H242462   1.678   1.463   1.901  0.8618 -0.5065  0.9190
14173TIP3   OH242463   1.662   2.911   5.210 -0.1577 -0.3626 -0.1193
14173TIP3    H142464   1.727   2.972   5.174 -0.0511 -1.3329 -1.6738
14173TIP3    H242465   1.578   2.949   5.183 -0.1895  0.1377  0.6558
14174TIP3   OH242466   2.111   4.622   4.728 -0.0435 -0.1419 -0.0295
14174TIP3    H142467   2.180   4.681   4.698  1.1417 -0.1967  2.3097
14174TIP3    H242468   2.038   4.679   4.749 -0.0695  0.1242 -0.8224
14175TIP3   OH242469   6.699   6.435   6.174  0.9227 -0.0840 -0.4739
14175TIP3    H142470   6.672   6.392   6.093  0.1387  0.8894 -0.7633
14175TIP3    H242471   6.748   6.512   6.144  1.1245 -0.0351 -0.0133
14176TIP3   OH242472   1.349   0.663   5.465  0.2692 -0.0413  0.1197
14176TIP3    H142473   1.284   0.648   5.533  0.4341  2.4333  0.9097
14176TIP3    H242474   1.430   0.680   5.512  0.8693 -0.3998 -0.7685
14177TIP3   OH242475   5.931   1.818   2.285 -0.0719 -0.3561  0.0190
14177TIP3    H142476   5.887   1.867   2.215  0.7357 -2.3438 -1.9930
14177TIP3    H242477   5.898   1.858   2.366 -0.3115  2.7055 -1.4319
14178TIP3   OH242478   2.354   5.909   5.491 -0.0483  0.3640 -0.2458
14178TIP3    H142479   2.293   5.978   5.515  0.1123  0.9509 -1.4696
14178TIP3    H242480   2.299   5.832   5.474 -0.2748  0.3519  0.5051
14179TIP3   OH242481   7.380   1.779   3.487 -0.1654 -0.1834  0.1894
14179TIP3    H142482   7.459   1.740   3.450 -0.1615 -0.2896  0.3076
14179TIP3    H242483   7.332   1.704   3.523  0.6825  0.1042  2.0306
14180TIP3   OH242484   1.910   3.566   6.015  0.1124 -0.1659  0.2788
14180TIP3    H142485   1.918   3.474   5.988 -1.3247 -1.1338  2.8249
14180TIP3    H242486   1.841   3.602   5.960  1.2359 -0.3030 -1.3032
14181TIP3   OH242487   0.612   7.777   1.487  0.9272 -0.2649 -0.5744
14181TIP3    H142488   0.526   7.800   1.453  1.4399  2.1332 -0.4221
14181TIP3    H242489   0.647   7.859   1.522  2.6569 -1.4969  0.7704
14182TIP3   OH242490   7.985   6.258   5.698  0.0595 -0.2986 -0.5452
14182TIP3    H142491   7.955   6.340   5.739  0.9692 -0.5878  0.7775
14182TIP3    H242492   8.075   6.277   5.671 -0.4252 -0.2200 -2.1832
14183TIP3   OH242493   7.740   4.019   5.946 -0.1647 -0.2281 -0.1106
14183TIP3    H142494   7.688   3.942   5.924 -0.3439 -0.3416  0.6753
14183TIP3    H242495   7.753   4.012   6.041  0.7942  0.0985 -0.2086
14184TIP3   OH242496   6.036   7.813   2.292  0.0401 -0.0300 -0.1675
14184TIP3    H142497   6.114   7.863   2.267 -0.6088  0.9683 -0.2627
14184TIP3    H242498   6.005   7.775   2.210 -0.2328  0.5482 -0.3384
14185TIP3   OH242499   0.770   6.072   3.679 -0.1815  0.1549 -0.9433
14185TIP3    H142500   0.822   6.085   3.600 -0.6463 -0.6092 -1.3864
14185TIP3    H242501   0.706   6.006   3.655 -2.7807  2.5277 -1.0930
14186TIP3   OH242502   7.474   2.996   5.839  0.3507 -0.2881 -0.1830
14186TIP3    H142503   7.470   2.983   5.933 -0.0167 -0.9559 -0.2870
14186TIP3    H242504   7.556   2.955   5.811  0.1816 -0.5935 -0.2317
14187TIP3   OH242505   1.295   4.926   1.952 -0.0309 -0.0011 -0.3376
14187TIP3    H142506   1.264   4.893   2.037  0.9828 -0.5899 -0.1812
14187TIP3    H242507   1.301   4.848   1.897  1.7256 -0.0088 -0.1775
14188TIP3   OH242508   2.344   4.535   3.619  0.0400  0.1807  0.6520
14188TIP3    H142509   2.343   4.612   3.562 -2.8087 -1.2550 -1.4926
14188TIP3    H242510   2.394   4.470   3.571  2.4799  0.5813  2.4822
14189TIP3   OH242511   7.451   4.180   0.047  0.7210  0.1307  0.2069
14189TIP3    H142512   7.397   4.231  -0.013 -2.0116 -2.9990 -0.2859
14189TIP3    H242513   7.505   4.125  -0.010  0.4601 -0.5638  0.6129
14190TIP3   OH242514   2.868   3.148   5.255 -0.1713 -0.1253 -0.3339
14190TIP3    H142515   2.958   3.122   5.236  0.1846 -0.5418  1.6795
14190TIP3    H242516   2.868   3.166   5.349 -2.1374  0.1374 -0.3526
14191TIP3   OH242517   5.424   2.966   0.230 -0.4587  0.7210 -0.4601
14191TIP3    H142518   5.498   2.912   0.257 -1.7812 -1.5638 -1.1146
14191TIP3    H242519   5.462   3.053   0.213  2.2120 -0.5655 -1.6087
14192TIP3   OH242520   4.332   2.937   5.953 -0.2754 -0.5289  0.8905
14192TIP3    H142521   4.259   2.919   5.893 -0.5126 -1.3209  1.4062
14192TIP3    H242522   4.408   2.948   5.895 -0.5840 -0.8514  0.4184
14193TIP3   OH242523   2.848   5.696   1.940 -0.1200  0.3957  0.3433
14193TIP3    H142524   2.844   5.771   1.882  0.2297 -1.8627 -2.8384
14193TIP3    H242525   2.759   5.660   1.939 -0.2411  0.5792  1.6817
14194TIP3   OH242526   2.263   1.496   0.234  0.3908 -0.5759  0.1941
14194TIP3    H142527   2.312   1.536   0.163 -2.5357 -0.1768 -1.7988
14194TIP3    H242528   2.270   1.402   0.218 -0.4280 -0.4818 -0.8038
14195TIP3   OH242529   0.616   1.416   3.222  0.1029  0.1452  0.0342
14195TIP3    H142530   0.612   1.378   3.134 -2.0838  0.2113  0.0510
14195TIP3    H242531   0.627   1.340   3.280 -2.0215 -0.3406 -0.0956
14196TIP3   OH242532   1.450   5.776   6.231 -0.2084 -0.0903  0.4793
14196TIP3    H142533   1.410   5.689   6.233  0.3255 -0.3388  0.4048
14196TIP3    H242534   1.414   5.820   6.308  1.5334 -1.2881  2.0437
14197TIP3   OH242535   7.728   6.057   3.066 -0.2353 -0.2231 -0.4005
14197TIP3    H142536   7.778   5.990   3.020 -0.4098 -1.0836  0.6166
14197TIP3    H242537   7.640   6.051   3.030 -0.5106 -1.2754  0.4042
14198TIP3   OH242538   1.084   7.074   6.568  0.3394  0.4641  0.4837
14198TIP3    H142539   1.121   7.071   6.656  1.1752 -1.5598  0.1257
14198TIP3    H242540   1.160   7.076   6.510 -0.1723  0.5031 -0.1937
14199TIP3   OH242541   8.189   4.202   3.481 -0.0614  0.4188  0.4857
14199TIP3    H142542   8.158   4.250   3.558 -0.3531  0.7280  0.1866
14199TIP3    H242543   8.197   4.270   3.413  1.1753  0.3209  0.5183
14200TIP3   OH242544   2.922   7.045   1.887  0.6939 -0.3728  0.1703
14200TIP3    H142545   2.859   7.112   1.861  0.3166 -0.3808  1.0173
14200TIP3    H242546   2.968   7.084   1.961  1.7306 -0.3474 -0.4697
14201TIP3   OH242547   4.941   7.788   3.796  0.4381  0.1439  0.0285
14201TIP3    H142548   4.913   7.732   3.724 -1.3215  1.1691 -0.1399
14201TIP3    H242549   4.922   7.736   3.875  1.0154 -0.4072 -0.1878
14202TIP3   OH242550   3.253   6.885   4.838 -0.1009 -0.1747 -0.0782
14202TIP3    H142551   3.302   6.828   4.779 -0.2160  1.2246 -1.6053
14202TIP3    H242552   3.164   6.884   4.803 -0.6359 -0.8087  1.2383
14203TIP3   OH242553   1.641   7.681   2.361 -1.0488  0.0794 -0.5539
14203TIP3    H142554   1.633   7.776   2.361  0.6594  0.3167  1.7669
14203TIP3    H242555   1.720   7.663   2.310  0.2223  0.2053  1.2606
14204TIP3   OH242556   2.931   6.815   1.264 -0.1470 -0.4977 -0.6153
14204TIP3    H142557   2.946   6.820   1.358  1.0524  0.8756 -0.8431
14204TIP3    H242558   2.932   6.722   1.244  0.0740 -0.7814  0.6434
14205TIP3   OH242559   3.376   5.465   6.547 -0.3789  0.7244 -0.4396
14205TIP3    H142560   3.423   5.384   6.529 -1.1109  0.3989 -0.8994
14205TIP3    H242561   3.292   5.437   6.584  0.1222  1.3154  1.2842
14206TIP3   OH242562   7.775   1.160   3.684 -0.9238 -0.4508 -0.2198
14206TIP3    H142563   7.769   1.216   3.606  0.7978  1.6675  1.0403
14206TIP3    H242564   7.684   1.145   3.709 -1.4972 -0.5614 -2.1870
14207TIP3   OH242565   5.692   6.984   1.720  0.2415  0.4510 -0.4470
14207TIP3    H142566   5.734   6.992   1.806  1.4897 -0.8389 -0.9020
14207TIP3    H242567   5.599   6.968   1.740  0.1451  2.0625  0.6019
14208TIP3   OH242568   2.240   5.795   5.787  0.4004  0.3477 -0.8373
14208TIP3    H142569   2.198   5.850   5.722  1.0562 -0.5034 -2.0310
14208TIP3    H242570   2.272   5.719   5.737  2.1687  0.3405  0.2059
14209TIP3   OH242571   1.924   5.645   6.302  0.3103  0.3883 -0.0473
14209TIP3    H142572   1.883   5.647   6.216  0.3411  1.8629 -0.0509
14209TIP3    H242573   1.930   5.552   6.324  1.9994 -0.1450 -2.4256
14210TIP3   OH242574   4.869   3.438   4.974  0.6324 -0.4678 -0.2394
14210TIP3    H142575   4.859   3.450   5.068  0.1432 -1.2145 -0.1849
14210TIP3    H242576   4.851   3.524   4.936  1.0650 -0.1041  0.3585
14211TIP3   OH242577   6.500   5.277   0.614  0.2005 -0.4510 -1.0277
14211TIP3    H142578   6.536   5.237   0.535 -0.5966 -2.6084 -0.3788
14211TIP3    H242579   6.464   5.204   0.664 -0.5301  1.0033  0.7147
14212TIP3   OH242580   8.023   7.470   2.251 -0.1460  0.1158 -0.2954
14212TIP3    H142581   8.112   7.463   2.285 -0.4732  1.1110  0.8160
14212TIP3    H242582   8.004   7.563   2.250 -1.5024 -0.1234  0.3890
14213TIP3   OH242583   5.488   0.343   1.162  0.6403  0.1144  0.0761
14213TIP3    H142584   5.443   0.406   1.106  0.9384  1.0451  0.8555
14213TIP3    H242585   5.419   0.285   1.194  0.3299  0.1717 -0.4832
14214TIP3   OH242586   5.402   4.647   0.775 -0.6362 -0.1632 -0.3006
14214TIP3    H142587   5.458   4.717   0.743  0.1720 -0.1594  1.0568
14214TIP3    H242588   5.374   4.601   0.697 -0.6876  1.2893 -1.1826
14215TIP3   OH242589   2.077   4.492   3.627  0.6665  0.0983  0.0320
14215TIP3    H142590   2.172   4.498   3.632  0.7833  0.1232 -1.5597
14215TIP3    H242591   2.052   4.433   3.698  2.1043 -1.9037 -1.0412
14216TIP3   OH242592   7.094   2.564   2.583  0.6301 -0.3178 -0.3155
14216TIP3    H142593   7.042   2.522   2.515  2.9796 -1.9516 -1.2508
14216TIP3    H242594   7.105   2.654   2.552  0.7890 -0.7560 -1.5933
14217TIP3   OH242595   1.364   7.565   5.374  0.7358  0.2399  0.0075
14217TIP3    H142596   1.311   7.525   5.443 -1.0892  0.2197 -1.3321
14217TIP3    H242597   1.324   7.651   5.360  1.9568  0.8134 -0.0933
14218TIP3   OH242598   4.392   3.973   1.449 -0.0068 -0.4356 -0.0326
14218TIP3    H142599   4.426   4.051   1.491 -1.0680  0.7991 -1.3493
14218TIP3    H242600   4.404   3.989   1.355 -0.7630 -1.5962 -0.3540
14219TIP3   OH242601   7.457   7.622   1.016 -0.1769  0.0596  0.1548
14219TIP3    H142602   7.518   7.604   1.088 -0.1357 -1.2859 -0.1903
14219TIP3    H242603   7.416   7.705   1.040 -1.3184 -1.0717  2.5665
14220TIP3   OH242604   7.504   3.310   1.512 -0.1147 -0.4301  0.1144
14220TIP3    H142605   7.449   3.321   1.590 -0.3274  0.9668 -0.2058
14220TIP3    H242606   7.495   3.217   1.490 -1.4251 -0.4905  0.7492
14221TIP3   OH242607   4.595   4.185   2.354  0.4100 -0.4975 -0.8805
14221TIP3    H142608   4.514   4.221   2.317 -0.1229 -3.4086 -2.9133
14221TIP3    H242609   4.574   4.170   2.446 -1.6160 -1.5742 -1.4460
14222TIP3   OH242610   7.684   2.513   1.548 -0.6763 -0.1472 -0.4058
14222TIP3    H142611   7.674   2.509   1.453  0.4963  1.0422 -0.5991
14222TIP3    H242612   7.769   2.554   1.562 -1.1335  0.3398  1.1657
14223TIP3   OH242613   7.205   2.191   5.317 -0.4869  0.2643 -0.4277
14223TIP3    H142614   7.112   2.194   5.339 -0.6961 -1.5583 -0.8474
14223TIP3    H242615   7.207   2.185   5.221 -0.0121 -0.8215 -0.3706
14224TIP3   OH242616   3.959   1.627   0.985  0.2512  0.1599 -0.0279
14224TIP3    H142617   3.967   1.540   1.024  0.3959 -0.2662 -0.9937
14224TIP3    H242618   3.865   1.645   0.986  0.3105  0.5354  1.3032
14225TIP3   OH242619   2.402   2.862   1.795 -0.0370 -0.0980  0.4038
14225TIP3    H142620   2.320   2.871   1.746 -0.1505  1.6220  0.8656
14225TIP3    H242621   2.471   2.884   1.732  0.0177 -0.5993  0.2817
14226TIP3   OH242622   5.830   7.160   1.562  0.2335 -0.3194  0.6572
14226TIP3    H142623   5.912   7.189   1.602  0.6763  0.2517 -0.6124
14226TIP3    H242624   5.791   7.102   1.628  2.2994 -1.6932  0.7658
14227TIP3   OH242625   4.077   3.779   3.852 -0.0408  0.3060  0.6166
14227TIP3    H142626   4.148   3.840   3.872  0.8452 -0.9266  1.4288
14227TIP3    H242627   3.998   3.822   3.884  0.4486  1.3966  0.3684
14228TIP3   OH242628   1.915   7.053   2.196  0.1677  0.0178 -0.2198
14228TIP3    H142629   1.959   6.989   2.139 -0.0929  0.2307 -0.6672
14228TIP3    H242630   1.835   7.009   2.223  0.5716 -0.3092  0.4671
14229TIP3   OH242631   0.430   3.691   3.542 -0.4290  0.4056 -0.1743
14229TIP3    H142632   0.385   3.745   3.607  1.4412  0.9898  0.7172
14229TIP3    H242633   0.367   3.623   3.520 -1.4499  0.6963  1.6087
14230TIP3   OH242634   3.741   4.113   1.841  0.5022  0.4803 -0.4279
14230TIP3    H142635   3.780   4.149   1.921  2.4249 -0.5708 -0.8565
14230TIP3    H242636   3.648   4.134   1.850  1.0531  2.8594  0.7551
14231TIP3   OH242637   1.156   5.461   5.837 -0.2205  0.5230 -0.4139
14231TIP3    H142638   1.063   5.452   5.819  0.2148 -2.0953 -1.8570
14231TIP3    H242639   1.160   5.514   5.916 -2.8023  2.6678 -1.5588
14232TIP3   OH242640   5.069   1.412   3.430 -0.2596  0.0835 -0.1520
14232TIP3    H142641   5.116   1.448   3.506  0.3411  0.7095 -0.7999
14232TIP3    H242642   5.122   1.337   3.403  1.1760  1.5363 -1.6671
14233TIP3   OH242643   5.901   6.158   6.202 -0.0232  0.3139 -0.0217
14233TIP3    H142644   5.856   6.096   6.260 -2.2252  0.7645 -1.1802
14233TIP3    H242645   5.945   6.102   6.138 -0.8938 -0.1066 -0.2671
14234TIP3   OH242646   0.100   7.470   4.573 -0.2442  0.2232  0.3730
14234TIP3    H142647   0.023   7.461   4.517  0.0897  1.3931 -0.3215
14234TIP3    H242648   0.164   7.408   4.536 -0.6029 -0.2300  0.5092
14235TIP3   OH242649   4.895   4.304   3.573  0.6047  0.6315  0.3196
14235TIP3    H142650   4.942   4.377   3.532  0.5468  0.2344 -0.4651
14235TIP3    H242651   4.945   4.226   3.549 -0.4129  0.2073 -0.4875
14236TIP3   OH242652   1.770   6.713   5.945 -1.0374  0.5292  0.3274
14236TIP3    H142653   1.747   6.626   5.978  0.1228  0.3669  0.7619
14236TIP3    H242654   1.859   6.703   5.912 -0.6331  1.7238  1.0013
14237TIP3   OH242655   8.295   5.935   5.447  0.0539  0.1294  0.2642
14237TIP3    H142656   8.205   5.938   5.479 -1.1113  0.1529 -2.6727
14237TIP3    H242657   8.291   5.883   5.367  2.5800  0.4835 -0.1972
14238TIP3   OH242658   4.134   6.014   2.343  0.4475  0.1361  0.0054
14238TIP3    H142659   4.197   6.042   2.276  1.7340 -0.3755  0.9623
14238TIP3    H242660   4.129   6.087   2.404  0.5185 -0.0377  0.2190
14239TIP3   OH242661   6.669   3.750   1.562 -0.3149 -0.0532  0.1623
14239TIP3    H142662   6.590   3.766   1.613  0.4152  1.7770  0.7961
14239TIP3    H242663   6.653   3.791   1.477 -0.2893 -0.2338  0.0697
14240TIP3   OH242664   7.110   0.392   5.988  0.1856  0.0029 -0.4584
14240TIP3    H142665   7.179   0.331   6.014 -0.3217 -0.3641  0.0633
14240TIP3    H242666   7.155   0.475   5.975  1.1000 -0.7436 -2.4402
14241TIP3   OH242667   7.557   3.610   1.939  0.4165  0.0812 -0.6356
14241TIP3    H142668   7.616   3.579   2.007  1.2618 -1.4360 -1.9833
14241TIP3    H242669   7.476   3.633   1.986  0.0202 -3.3862  0.6942
14242TIP3   OH242670   5.031   1.199   5.792  0.3271  0.6031 -1.0049
14242TIP3    H142671   4.976   1.273   5.816 -1.4234 -0.4465 -1.5900
14242TIP3    H242672   5.028   1.141   5.869 -0.0404  0.1726 -1.3421
14243TIP3   OH242673   3.327   1.697   2.362  0.3039  0.1837  0.1661
14243TIP3    H142674   3.242   1.728   2.393  0.5460  0.6343  0.3858
14243TIP3    H242675   3.364   1.772   2.315 -1.3807 -1.3467 -4.0348
14244TIP3   OH242676   7.583   0.895   0.801  0.3447  0.3827 -0.0665
14244TIP3    H142677   7.541   0.864   0.721 -0.1512  1.8302 -0.3938
14244TIP3    H242678   7.664   0.936   0.771  0.6097  0.1179  0.2770
14245TIP3   OH242679   4.776   4.942   6.712 -0.0646  0.0260 -0.4323
14245TIP3    H142680   4.742   4.920   6.799  1.6974  0.6043  0.4378
14245TIP3    H242681   4.754   5.034   6.700 -0.8956 -0.2198 -0.9191
14246TIP3   OH242682   7.129   4.675   4.462 -0.1951  0.2744 -0.4095
14246TIP3    H142683   7.221   4.665   4.488  0.0921  1.5039 -0.8704
14246TIP3    H242684   7.133   4.695   4.368 -0.9825 -0.2017 -0.5604
14247TIP3   OH242685   3.489   1.070   0.104  0.4080  0.0557  0.1143
14247TIP3    H142686   3.431   1.087   0.179  1.7357 -0.7035  1.3719
14247TIP3    H242687   3.575   1.099   0.135  0.7062  1.3849 -1.7944
14248TIP3   OH242688   5.531   4.843   3.448  0.1971  0.5938  0.4034
14248TIP3    H142689   5.591   4.848   3.374 -0.7959  0.4871 -0.4348
14248TIP3    H242690   5.564   4.907   3.511 -0.2602  2.4298 -1.1274
14249TIP3   OH242691   5.286   1.072   3.562  0.3346  0.3400  0.2350
14249TIP3    H142692   5.263   1.117   3.481 -0.5145  0.2761  0.4312
14249TIP3    H242693   5.380   1.053   3.553  0.1851  0.0462 -0.8701
14250TIP3   OH242694   7.355   0.778   5.958 -0.4030 -1.0247 -0.5780
14250TIP3    H142695   7.447   0.777   5.931 -0.4288 -3.1252 -0.7618
14250TIP3    H242696   7.322   0.863   5.929  1.8234  0.3947  0.8110
14251TIP3   OH242697   7.361   5.843   0.492  0.0444  0.1737 -0.3774
14251TIP3    H142698   7.437   5.818   0.439  0.2399 -1.8201  0.7357
14251TIP3    H242699   7.300   5.770   0.482 -0.9459  0.9031  0.2001
14252TIP3   OH242700   4.538   5.260   4.873  0.2476 -0.2586  0.1571
14252TIP3    H142701   4.554   5.165   4.874  1.4157 -0.0722  0.2198
14252TIP3    H242702   4.488   5.277   4.952  0.5727 -0.7389  0.4718
14253TIP3   OH242703   0.406   7.727   4.586 -0.3896 -0.0751 -0.2457
14253TIP3    H142704   0.408   7.812   4.542 -0.4039  1.1653  2.0041
14253TIP3    H242705   0.313   7.702   4.587 -0.5339  0.4518  0.0569
14254TIP3   OH242706   2.170   4.381   0.869 -0.3334  0.6382  0.2639
14254TIP3    H142707   2.183   4.344   0.782  1.7574  0.1935  0.7039
14254TIP3    H242708   2.112   4.456   0.855  0.3049  0.8411 -1.5807
14255TIP3   OH242709   5.348   0.836   3.322 -0.3349  0.3773 -0.0301
14255TIP3    H142710   5.346   0.765   3.386 -1.2827  1.0652  0.7395
14255TIP3    H242711   5.277   0.815   3.261  0.9541 -0.5975 -1.2545
14256TIP3   OH242712   0.622   2.803   1.093  0.4347  0.0433  0.0636
14256TIP3    H142713   0.663   2.889   1.090  0.2873  0.1172  0.1847
14256TIP3    H242714   0.695   2.742   1.097  0.5365  0.2271  2.0861
14257TIP3   OH242715   0.934   4.132   3.187 -0.1140 -0.7412 -0.3056
14257TIP3    H142716   0.848   4.168   3.206  0.1418 -0.1555 -0.2432
14257TIP3    H242717   0.920   4.037   3.185 -0.7368 -0.6577 -0.2003
14258TIP3   OH242718   3.938   6.964   0.499  0.4677 -0.3988 -0.1647
14258TIP3    H142719   3.984   6.948   0.581  0.1777  1.0148  0.3038
14258TIP3    H242720   4.003   6.943   0.431  0.9813 -0.7845  0.4349
14259TIP3   OH242721   3.595   5.868   5.100 -0.2725 -0.3737 -0.2389
14259TIP3    H142722   3.588   5.903   5.011  0.6209  1.3201  0.3192
14259TIP3    H242723   3.526   5.914   5.148 -1.2048 -1.7820 -0.1661
14260TIP3   OH242724   8.044   4.824   2.711  0.0641 -0.1037 -0.3200
14260TIP3    H142725   8.066   4.917   2.712 -0.6058  0.0870 -1.5249
14260TIP3    H242726   7.974   4.815   2.775 -0.6068  0.4371 -0.9544
14261TIP3   OH242727   5.891   7.224   2.394  0.1584 -0.1365  0.0250
14261TIP3    H142728   5.838   7.154   2.432 -0.9998  0.0675 -1.1496
14261TIP3    H242729   5.981   7.195   2.405 -0.2159 -0.8990  1.3000
14262TIP3   OH242730   1.655   2.071   3.754 -0.2071 -0.3884 -0.2043
14262TIP3    H142731   1.586   2.136   3.770  0.0213 -0.4987  1.4245
14262TIP3    H242732   1.720   2.089   3.822  0.2078 -1.8508 -0.1978
14263TIP3   OH242733   4.623   2.363   6.151 -0.1194 -0.1235 -0.7379
14263TIP3    H142734   4.644   2.274   6.181 -1.8565 -0.9530 -1.7909
14263TIP3    H242735   4.701   2.414   6.171  0.2638 -1.4508  1.5928
14264TIP3   OH242736   6.344   6.366   2.093  0.2576  0.5896 -0.6642
14264TIP3    H142737   6.428   6.364   2.139 -1.4637  1.1750  2.8568
14264TIP3    H242738   6.366   6.386   2.002  3.8827  0.9991  0.1736
14265TIP3   OH242739   1.680   7.177   5.374 -0.5724 -0.4214  0.1586
14265TIP3    H142740   1.620   7.240   5.335  0.5547  1.0138  0.6629
14265TIP3    H242741   1.759   7.227   5.393 -0.4376 -1.4165  2.7072
14266TIP3   OH242742   4.050   5.173   0.761 -0.3460  0.3243 -0.4264
14266TIP3    H142743   4.067   5.202   0.671 -0.9825 -1.1798 -1.0771
14266TIP3    H242744   3.966   5.126   0.755 -1.5058  2.0382  1.3927
14267TIP3   OH242745   0.237   1.513   2.614 -0.3092  0.1796  0.1820
14267TIP3    H142746   0.297   1.567   2.666 -1.5983 -0.1449  2.0953
14267TIP3    H242747   0.201   1.574   2.549  1.8420  0.4345 -0.8480
14268TIP3   OH242748   8.210   5.486   5.882 -0.5554  0.1977 -0.2873
14268TIP3    H142749   8.263   5.420   5.925 -0.8987  0.0789 -0.0425
14268TIP3    H242750   8.266   5.563   5.878 -0.9024  0.5949  1.4684
14269TIP3   OH242751   3.732   2.039   2.787  0.1982 -0.0106 -0.5320
14269TIP3    H142752   3.778   2.109   2.741  1.9183  0.3735  1.5907
14269TIP3    H242753   3.656   2.082   2.825  0.9321  0.6197  0.2696
14270TIP3   OH242754   5.768   5.778   1.987 -0.5929 -0.3125  0.0544
14270TIP3    H142755   5.793   5.687   2.001  1.7286  0.1855 -0.3848
14270TIP3    H242756   5.846   5.818   1.947 -1.4282  1.9404  0.5443
14271TIP3   OH242757   3.310   4.314   0.070  0.2620  0.3727 -0.0944
14271TIP3    H142758   3.325   4.376  -0.001 -0.6276  1.3158  0.5167
14271TIP3    H242759   3.228   4.270   0.045  0.1214  0.4770  0.1817
14272TIP3   OH242760   1.954   3.730   0.189  0.0686 -0.2576 -0.2997
14272TIP3    H142761   2.046   3.709   0.204 -0.2061 -1.7915 -0.6349
14272TIP3    H242762   1.943   3.727   0.094 -0.2623  0.2108 -0.2812
14273TIP3   OH242763   2.914   3.569   5.977  0.3410 -0.2281 -0.2522
14273TIP3    H142764   2.820   3.580   5.967  0.0229 -1.9152  0.7279
14273TIP3    H242765   2.941   3.518   5.900  0.5345  0.5472 -0.7126
14274TIP3   OH242766   6.096   0.579   6.329  0.3894  0.1919  0.6574
14274TIP3    H142767   6.175   0.566   6.380  0.9991  1.2937  0.0249
14274TIP3    H242768   6.064   0.666   6.355 -0.1077  0.1431  0.2372
14275TIP3   OH242769   1.680   6.004   4.018  0.8157  0.4911 -0.0004
14275TIP3    H142770   1.714   6.019   4.106 -1.0000  1.3137  0.5899
14275TIP3    H242771   1.686   5.909   4.006 -0.9959  0.0596  1.9256
14276TIP3   OH242772   4.742   1.693   3.340 -0.0756 -0.3911  0.0646
14276TIP3    H142773   4.826   1.723   3.303  0.0364 -1.9303 -1.0485
14276TIP3    H242774   4.695   1.773   3.360  0.7031  0.5477 -1.5897
14277TIP3   OH242775   3.403   4.859   0.598  0.0339  0.4082  0.4906
14277TIP3    H142776   3.355   4.809   0.664  0.9832 -0.6222  0.4296
14277TIP3    H242777   3.488   4.816   0.593 -0.1482  0.2274 -1.7003
14278TIP3   OH242778   4.270   3.765   0.852  0.4597  0.2584 -0.3130
14278TIP3    H142779   4.273   3.858   0.875  0.4733  0.4337 -1.0130
14278TIP3    H242780   4.311   3.760   0.766  0.3927 -0.3905 -0.3126
14279TIP3   OH242781   3.707   5.279   4.819 -0.0546  0.0271 -0.9391
14279TIP3    H142782   3.688   5.186   4.810 -0.9807 -0.0083  0.8284
14279TIP3    H242783   3.799   5.283   4.845 -0.5475 -0.5846  1.0656
14280TIP3   OH242784   5.247   7.174   0.849 -0.2934 -0.4490 -0.5254
14280TIP3    H142785   5.237   7.094   0.798  1.8257 -0.4590 -1.0160
14280TIP3    H242786   5.341   7.191   0.848 -0.6955  2.1423 -0.5717
14281TIP3   OH242787   4.135   5.433   1.033  0.1667  0.5086 -0.1997
14281TIP3    H142788   4.097   5.347   1.014 -0.4459  0.4540  1.1722
14281TIP3    H242789   4.085   5.494   0.978 -0.3205  0.1476 -0.1647
14282TIP3   OH242790   6.832   2.616   2.181 -0.5734  0.2747  0.2572
14282TIP3    H142791   6.854   2.527   2.206 -0.7004 -0.6204 -2.4387
14282TIP3    H242792   6.736   2.618   2.180 -0.5886 -0.0387 -1.0124
14283TIP3   OH242793   6.796   4.999   2.550 -0.1591 -0.2892 -0.5580
14283TIP3    H142794   6.821   4.907   2.552  1.4683  0.1322 -0.6265
14283TIP3    H242795   6.877   5.046   2.530 -1.0122  1.1426 -0.7815
14284TIP3   OH242796   1.653   1.800   1.663 -0.3394 -0.3641  0.9623
14284TIP3    H142797   1.743   1.772   1.642 -0.0429  1.5114 -0.6027
14284TIP3    H242798   1.665   1.881   1.714 -1.1396 -0.0885  0.7193
14285TIP3   OH242799   5.882   0.214   1.569 -0.3356 -0.4001  0.3282
14285TIP3    H142800   5.916   0.157   1.499 -2.3792 -1.6992  0.3146
14285TIP3    H242801   5.830   0.280   1.523 -2.2139 -1.6392  0.5952
14286TIP3   OH242802   2.989   5.645   0.216 -0.0959 -0.0827 -0.3949
14286TIP3    H142803   3.004   5.603   0.131 -1.8166 -2.1927  0.2426
14286TIP3    H242804   3.075   5.649   0.257  0.4845 -0.7440 -1.5128
14287TIP3   OH242805   2.350   1.267   6.063  0.5589  0.3913 -0.2662
14287TIP3    H142806   2.356   1.213   5.984  0.6544 -0.4399  0.2974
14287TIP3    H242807   2.285   1.223   6.117  2.4201 -0.6350  1.2876
14288TIP3   OH242808   6.699   5.355   2.374 -0.0931  0.1161 -0.2359
14288TIP3    H142809   6.762   5.368   2.445 -0.2173 -0.5265 -0.0032
14288TIP3    H242810   6.627   5.307   2.415  0.2156 -1.0242 -0.9799
14289TIP3   OH242811   4.425   2.832   6.770  0.1735 -0.5107  1.3559
14289TIP3    H142812   4.430   2.771   6.844 -0.2198 -0.4881  1.4020
14289TIP3    H242813   4.503   2.812   6.718 -0.0631 -1.2024  1.2569
14290TIP3   OH242814   3.673   6.983   0.597  0.5082 -0.4860 -0.0008
14290TIP3    H142815   3.767   6.973   0.584  0.9625  1.6259  1.1639
14290TIP3    H242816   3.656   7.075   0.576 -0.8382 -0.1852  2.1274
14291TIP3   OH242817   2.514   0.333   5.224  0.4091  0.1392  0.1534
14291TIP3    H142818   2.549   0.258   5.272 -0.7431 -0.5630 -0.0746
14291TIP3    H242819   2.573   0.342   5.149  0.7673 -0.3156  0.3764
14292TIP3   OH242820   5.709   5.558   4.886  0.6523 -0.4680  0.0336
14292TIP3    H142821   5.691   5.528   4.976  0.1707  0.1107  0.1371
14292TIP3    H242822   5.750   5.483   4.844 -0.6881 -1.3416  0.2305
14293TIP3   OH242823   7.815   4.747   5.485  0.2552  0.6939  0.7568
14293TIP3    H142824   7.904   4.719   5.467 -0.6034 -1.4599 -0.6464
14293TIP3    H242825   7.797   4.717   5.574 -0.3124 -2.7254 -0.3673
14294TIP3   OH242826   7.293   4.223   3.189  0.0721  0.3131 -0.1107
14294TIP3    H142827   7.202   4.246   3.168 -0.7005 -1.3166  1.2760
14294TIP3    H242828   7.341   4.242   3.108 -1.3770  1.7246 -0.7004
14295TIP3   OH242829   1.086   6.547   2.767  0.4045 -0.1690  0.4714
14295TIP3    H142830   1.066   6.463   2.727 -0.2663 -0.2219  0.8988
14295TIP3    H242831   1.074   6.533   2.861  0.2055  0.4239  0.5392
14296TIP3   OH242832   2.348   6.902   2.164  0.2579 -1.0391 -0.0508
14296TIP3    H142833   2.307   6.984   2.193  0.0669 -0.5075 -1.7468
14296TIP3    H242834   2.276   6.840   2.160 -0.2412 -0.3840 -1.9966
14297TIP3   OH242835   3.730   4.022   1.401  0.2206 -0.0429 -0.3630
14297TIP3    H142836   3.653   4.071   1.429 -0.3681  0.1684 -2.2112
14297TIP3    H242837   3.791   4.030   1.474 -1.6648 -0.6425  1.3724
14298TIP3   OH242838   7.455   7.535   6.451  0.3460 -0.8042 -0.4642
14298TIP3    H142839   7.535   7.583   6.474  0.5031 -1.2910  0.0175
14298TIP3    H242840   7.427   7.574   6.368 -0.7264  1.6153  0.9378
14299TIP3   OH242841   2.465   5.069   5.013 -0.0535  0.1174 -0.0813
14299TIP3    H142842   2.415   4.989   4.997  0.9835 -0.5422 -0.0874
14299TIP3    H242843   2.549   5.039   5.046  0.3984  1.2066 -0.1964
14300TIP3   OH242844   4.667   4.380   3.468 -0.1142 -0.2835  0.0178
14300TIP3    H142845   4.740   4.347   3.521 -0.7777  0.2316  1.2985
14300TIP3    H242846   4.657   4.316   3.397  0.9589 -0.8583  0.3640
14301TIP3   OH242847   4.745   4.866   1.281  0.8848 -0.0104 -0.7489
14301TIP3    H142848   4.767   4.922   1.355 -0.6762  0.1353 -0.3539
14301TIP3    H242849   4.731   4.779   1.319 -1.7825  0.4371 -0.4836
14302TIP3   OH242850   7.323   1.468   1.130 -0.5714 -0.2074  0.6727
14302TIP3    H142851   7.389   1.399   1.129 -0.6069 -0.2386  0.3503
14302TIP3    H242852   7.324   1.501   1.220 -1.6413 -1.6819  1.2756
14303TIP3   OH242853   1.088   2.095   3.510 -0.3026 -0.5417 -0.5557
14303TIP3    H142854   1.101   2.145   3.429 -1.2817  0.5175 -0.0923
14303TIP3    H242855   0.993   2.083   3.516 -0.2631 -0.4204  0.5230
14304TIP3   OH242856   2.694   2.950   3.293 -0.2573 -0.0750  0.3466
14304TIP3    H142857   2.669   3.003   3.217 -1.2565 -1.2226 -0.1646
14304TIP3    H242858   2.642   2.985   3.365  0.7403  1.0585  0.5342
14305TIP3   OH242859   7.782   1.138   0.221  0.7152 -0.2873  0.1861
14305TIP3    H142860   7.690   1.149   0.196  1.1651  1.6148 -0.8861
14305TIP3    H242861   7.805   1.050   0.191 -0.8533 -0.9704  0.8916
14306TIP3   OH242862   6.720   4.248   5.272 -0.1686  0.2367  0.6114
14306TIP3    H142863   6.731   4.169   5.219 -2.3024 -0.2497  0.7769
14306TIP3    H242864   6.752   4.224   5.359 -0.7192 -0.4494  0.6343
14307TIP3   OH242865   2.446   4.931   2.090 -0.1577  0.0989  0.3463
14307TIP3    H142866   2.445   4.835   2.096 -0.7500 -0.1873 -2.7697
14307TIP3    H242867   2.376   4.959   2.150 -0.6809 -1.5050  0.5349
14308TIP3   OH242868   0.905   5.478   4.951 -0.3938 -0.6841 -0.2947
14308TIP3    H142869   0.835   5.507   5.010 -0.7207  0.0119 -1.0049
14308TIP3    H242870   0.904   5.542   4.880  2.5681  0.7549  0.8143
14309TIP3   OH242871   7.383   4.725   3.164 -0.0228  0.0222 -0.5639
14309TIP3    H142872   7.336   4.764   3.090 -0.1345  1.7618  0.3787
14309TIP3    H242873   7.339   4.640   3.178 -2.3982  1.2176 -0.2211
14310TIP3   OH242874   7.538   0.155   6.316 -0.0673  0.4082 -0.4049
14310TIP3    H142875   7.620   0.107   6.308  0.1191  0.2117  2.0718
14310TIP3    H242876   7.471   0.087   6.324 -0.0069  0.5184  1.3194
14311TIP3   OH242877   1.241   6.479   1.662  0.0434 -0.4084  0.4284
14311TIP3    H142878   1.321   6.526   1.687 -1.6316  2.8124  0.1222
14311TIP3    H242879   1.175   6.508   1.725 -1.1629 -2.2645  0.0894
14312TIP3   OH242880   2.036   2.791   5.356  0.3926  0.3888  0.1704
14312TIP3    H142881   2.061   2.862   5.296  1.2763 -0.4241 -0.4465
14312TIP3    H242882   1.954   2.757   5.320  1.5826 -0.9675 -1.4124
14313TIP3   OH242883   6.012   7.411   3.048  0.0307  0.1151  0.5655
14313TIP3    H142884   6.027   7.346   3.116 -0.4874 -2.6012 -1.7230
14313TIP3    H242885   5.918   7.405   3.029  0.2335  0.4617 -0.6656
14314TIP3   OH242886   3.110   5.553   1.954 -0.0036  0.1656  0.9819
14314TIP3    H142887   3.037   5.614   1.953  0.0764  0.2796 -1.1117
14314TIP3    H242888   3.080   5.481   2.010 -0.6699  1.3895  2.2510
14315TIP3   OH242889   3.923   7.590   3.348  0.1525  0.5707  0.1879
14315TIP3    H142890   3.950   7.511   3.302  3.0211  0.6022  1.6143
14315TIP3    H242891   3.941   7.571   3.440 -2.3716  1.6762  0.9944
14316TIP3   OH242892   3.195   6.474   5.679  0.0182  0.1509 -0.2039
14316TIP3    H142893   3.113   6.519   5.702  0.9065  1.1143  1.2990
14316TIP3    H242894   3.202   6.483   5.584 -0.8341  1.4859 -0.1693
14317TIP3   OH242895   6.646   7.115   0.391  0.0902 -0.1362  0.0104
14317TIP3    H142896   6.736   7.112   0.359  0.3105  0.9947  0.4906
14317TIP3    H242897   6.609   7.030   0.366  1.1769 -0.4761 -0.4986
14318TIP3   OH242898   6.889   5.086   0.274  0.2195 -0.4793  0.0733
14318TIP3    H142899   6.946   5.012   0.295 -0.3140 -0.9071  0.0338
14318TIP3    H242900   6.881   5.083   0.179 -1.0018 -1.2823  0.1867
14319TIP3   OH242901   6.569   7.755   3.723  0.0724  0.4192  0.1539
14319TIP3    H142902   6.520   7.735   3.642  1.8851  0.0384 -0.9078
14319TIP3    H242903   6.525   7.703   3.790 -3.5979  3.2383  0.2575
14320TIP3   OH242904   5.573   4.404   5.699 -0.0687 -0.0572  0.3435
14320TIP3    H142905   5.561   4.364   5.785  1.2747 -2.3296 -0.4281
14320TIP3    H242906   5.608   4.333   5.644  0.0222  1.5588 -1.8359
14321TIP3   OH242907   5.249   5.360   3.398  0.0577  0.3120  0.1709
14321TIP3    H142908   5.291   5.275   3.384  1.2336  0.6391  1.5206
14321TIP3    H242909   5.236   5.395   3.310 -0.7726 -1.3829 -0.4458
14322TIP3   OH242910   7.133   3.504   5.965 -0.4102 -0.4340  0.1587
14322TIP3    H142911   7.131   3.585   6.015 -1.6650 -0.1944 -0.2599
14322TIP3    H242912   7.191   3.447   6.015  1.2263  0.9925 -0.0065
14323TIP3   OH242913   5.483   6.465   6.214  0.7688 -0.1428  0.2152
14323TIP3    H142914   5.536   6.440   6.139  0.1955 -0.6795 -0.0212
14323TIP3    H242915   5.546   6.474   6.286  1.1120 -1.3754  0.0900
14324TIP3   OH242916   7.978   5.008   0.491  0.3698 -0.7362  0.8176
14324TIP3    H142917   8.010   5.022   0.401 -0.0629 -1.9560  0.4640
14324TIP3    H242918   7.892   5.050   0.492  0.4664 -0.5335  0.7294
14325TIP3   OH242919   8.081   2.512   3.680  0.5691 -0.2859  0.0546
14325TIP3    H142920   8.085   2.458   3.759  1.3578 -1.2204 -0.6070
14325TIP3    H242921   8.141   2.471   3.618  1.7638  1.7723 -0.2453
14326TIP3   OH242922   6.880   1.428   0.819 -0.1292 -0.1702 -0.1727
14326TIP3    H142923   6.937   1.392   0.887 -0.7799 -0.7158  0.0977
14326TIP3    H242924   6.851   1.352   0.769  0.7379  0.2701 -1.3973
14327TIP3   OH242925   2.085   6.405   2.494  0.1591 -0.7713 -0.3414
14327TIP3    H142926   2.088   6.355   2.575 -0.8633  1.2157  1.0038
14327TIP3    H242927   2.008   6.461   2.502  1.4523  1.3443 -1.5218
14328TIP3   OH242928   5.109   1.493   3.065 -0.3233  0.7211 -0.0158
14328TIP3    H142929   5.099   1.568   3.125 -2.5064  0.2772  0.2554
14328TIP3    H242930   5.044   1.430   3.095  0.6279 -0.7976 -1.0165
14329TIP3   OH242931   1.987   2.739   2.219 -0.0890 -0.2678  0.0569
14329TIP3    H142932   1.913   2.703   2.171 -0.7045  1.0704 -0.0421
14329TIP3    H242933   2.056   2.748   2.154 -0.8171  1.2381 -0.5767
14330TIP3   OH242934   7.317   3.644   2.069  0.3451  0.6454  0.0550
14330TIP3    H142935   7.262   3.697   2.011  0.5489  0.2085 -0.5478
14330TIP3    H242936   7.307   3.684   2.155 -0.6795  0.7462 -0.1059
14331TIP3   OH242937   6.314   6.687   0.897 -0.0733 -0.4706  0.1412
14331TIP3    H142938   6.349   6.598   0.898  1.2498  0.0226 -0.1778
14331TIP3    H242939   6.251   6.687   0.826  0.4283 -0.9819 -0.3198
14332TIP3   OH242940   6.417   2.606   0.466 -0.5462  1.1360  0.0371
14332TIP3    H142941   6.482   2.537   0.472 -0.8901  0.8255  0.1989
14332TIP3    H242942   6.334   2.560   0.456 -0.7018  1.5327 -0.5518
14333TIP3   OH242943   2.357   5.357   5.935 -0.1066 -0.2094 -0.2636
14333TIP3    H142944   2.391   5.370   6.023  0.3611 -0.6049 -0.3792
14333TIP3    H242945   2.292   5.426   5.923  0.1276  0.0985  0.2366
14334TIP3   OH242946   1.851   5.589   0.464 -0.0672  0.1428 -0.0698
14334TIP3    H142947   1.811   5.531   0.529 -0.9647  0.7291 -0.0772
14334TIP3    H242948   1.777   5.640   0.430  0.9182  2.5439  1.2029
14335TIP3   OH242949   2.274   6.932   4.006  0.2165 -0.1560 -0.8374
14335TIP3    H142950   2.220   6.889   3.940 -0.5881  0.4705 -0.6090
14335TIP3    H242951   2.250   6.889   4.089 -0.1206  0.2878 -0.7010
14336TIP3   OH242952   2.235   4.553   5.003  0.1555  0.2090  0.1639
14336TIP3    H142953   2.299   4.608   5.049  0.5919 -0.8463  0.8438
14336TIP3    H242954   2.238   4.585   4.913  0.4377  1.2628  0.5225
14337TIP3   OH242955   1.130   1.076   2.513 -0.5020 -0.2278 -0.2643
14337TIP3    H142956   1.120   1.000   2.456  0.8503  0.5455 -1.6211
14337TIP3    H242957   1.168   1.143   2.456  0.1579  0.8468  1.3714
14338TIP3   OH242958   1.099   6.745   2.230  0.4345 -0.1400 -0.1167
14338TIP3    H142959   1.134   6.704   2.151  0.9685  1.3734 -0.6872
14338TIP3    H242960   1.176   6.770   2.281  0.2035  1.5818 -0.5449
14339TIP3   OH242961   6.519   2.242   5.099  0.2813  0.2922  0.0311
14339TIP3    H142962   6.565   2.240   5.015 -0.9244  0.5939 -0.6721
14339TIP3    H242963   6.507   2.150   5.123 -1.9735  0.0487 -1.6723
14340TIP3   OH242964   7.497   3.621   4.742 -0.3832 -0.1700  0.2329
14340TIP3    H142965   7.431   3.657   4.800 -0.7939 -1.3042  0.4976
14340TIP3    H242966   7.580   3.658   4.773 -0.7716  0.4289  0.5616
14341TIP3   OH242967   7.042   2.514   0.878 -0.2694  0.1175  0.4435
14341TIP3    H142968   6.968   2.563   0.914 -0.4006 -0.4728  0.9910
14341TIP3    H242969   7.025   2.423   0.902 -0.5175 -0.3498 -1.4069
14342TIP3   OH242970   1.064   6.060   4.064 -0.0246 -0.8943  0.3563
14342TIP3    H142971   1.034   6.028   4.149 -2.2706 -0.3114 -0.1463
14342TIP3    H242972   1.017   6.007   4.000  0.0951 -0.0065 -0.5010
14343TIP3   OH242973   6.058   3.883   2.832  0.3780 -0.5663  0.1195
14343TIP3    H142974   6.067   3.914   2.742 -1.4480 -2.1309 -0.6741
14343TIP3    H242975   6.146   3.853   2.855  0.6929 -0.9842 -1.4893
14344TIP3   OH242976   6.613   2.877   5.654 -0.3899  0.5230 -0.4103
14344TIP3    H142977   6.633   2.971   5.655 -0.8026  0.6162  0.5158
14344TIP3    H242978   6.531   2.870   5.704 -0.8717 -0.2245 -1.2907
14345TIP3   OH242979   8.045   4.264   6.654 -0.2472  0.6328  0.6587
14345TIP3    H142980   8.042   4.169   6.656 -1.7338  0.6318 -0.1552
14345TIP3    H242981   8.086   4.289   6.736  0.5904 -0.7126  0.6812
14346TIP3   OH242982   3.724   4.385   5.649  0.0698 -0.3587 -0.0639
14346TIP3    H142983   3.808   4.400   5.693 -0.1449  0.4222  0.0910
14346TIP3    H242984   3.658   4.415   5.711 -0.2502  0.5237 -0.7983
14347TIP3   OH242985   0.261   6.832   3.482  0.0511 -0.1796  0.0922
14347TIP3    H142986   0.261   6.918   3.523 -0.6477 -0.4134  0.5947
14347TIP3    H242987   0.321   6.780   3.535 -0.8356 -0.4758  0.8094
14348TIP3   OH242988   1.362   4.142   3.370 -0.6849 -0.8935 -0.4408
14348TIP3    H142989   1.413   4.210   3.326  0.3440 -1.3576 -0.0057
14348TIP3    H242990   1.306   4.106   3.301  0.7131 -1.4314 -1.3487
14349TIP3   OH242991   2.981   0.257   5.172 -0.7529  0.1135 -0.0364
14349TIP3    H142992   2.969   0.327   5.108  0.7678 -0.4739 -1.0017
14349TIP3    H242993   3.032   0.190   5.126  1.1545  0.0344  2.0110
14350TIP3   OH242994   7.252   1.676   0.953 -0.8465 -0.0684 -0.2892
14350TIP3    H142995   7.314   1.620   0.999 -0.0586 -0.2102 -1.4601
14350TIP3    H242996   7.211   1.729   1.021  0.1963 -0.3426  0.5698
14351TIP3   OH242997   7.063   6.770   5.990 -0.2730 -0.4854 -0.4718
14351TIP3    H142998   6.976   6.758   6.028 -0.5549 -2.4614 -1.6007
14351TIP3    H242999   7.098   6.848   6.033 -1.5071 -1.2201  2.0234
14352TIP3   OH243000   4.193   5.095   1.543  0.2269  0.1190  0.0763
14352TIP3    H143001   4.148   5.120   1.463  2.6855  0.2466 -1.3589
14352TIP3    H243002   4.125   5.101   1.611 -2.0180 -0.2972 -1.9814
14353TIP3   OH243003   2.440   2.688   3.592  0.0172  0.1964 -0.2375
14353TIP3    H143004   2.443   2.625   3.663  1.9341  1.7654  1.1844
14353TIP3    H243005   2.362   2.741   3.609 -0.3985 -0.4004 -0.2351
14354TIP3   OH243006   6.746   6.496   1.885 -0.2233 -0.1040 -0.3870
14354TIP3    H143007   6.804   6.572   1.882 -0.6816  0.2290 -0.9867
14354TIP3    H243008   6.801   6.425   1.918  0.1075  0.5707  0.5549
14355TIP3   OH243009   1.355   7.577   0.890 -0.2731  0.4175 -0.1995
14355TIP3    H143010   1.395   7.633   0.824 -2.9926  1.4387 -1.0991
14355TIP3    H243011   1.326   7.638   0.958 -0.1683 -0.3070  0.5056
14356TIP3   OH243012   8.170   7.791   2.371 -0.0812 -0.2943  0.0002
14356TIP3    H143013   8.095   7.780   2.429  0.2725  2.3093  1.1271
14356TIP3    H243014   8.133   7.813   2.286 -0.6124 -0.3620  0.2138
14357TIP3   OH243015   2.823   5.580   3.185  0.2325  0.7647  0.8817
14357TIP3    H143016   2.770   5.501   3.177  2.9530 -1.2754  1.4211
14357TIP3    H243017   2.803   5.631   3.106  0.9661 -2.1916 -1.3820
14358TIP3   OH243018   2.493   3.494   5.412 -0.0479 -0.1752 -0.1022
14358TIP3    H143019   2.580   3.458   5.392  1.3242  2.2324  0.9894
14358TIP3    H243020   2.482   3.565   5.349  0.7855  2.2913  2.3330
14359TIP3   OH243021   0.780   7.077   5.903  0.8550  0.0127 -0.1140
14359TIP3    H143022   0.719   7.115   5.966 -1.5937 -0.9722 -1.7074
14359TIP3    H243023   0.840   7.148   5.882 -0.5734  1.4913  0.5741
14360TIP3   OH243024   3.730   3.606   6.593 -0.7019 -0.5097  0.0675
14360TIP3    H143025   3.729   3.700   6.609 -1.5772 -0.7487  1.6232
14360TIP3    H243026   3.703   3.596   6.502  0.5856  0.7834 -0.4923
14361TIP3   OH243027   2.693   7.113   1.627  0.0775  0.1950  0.3098
14361TIP3    H143028   2.703   7.183   1.692 -0.4057 -1.1164  1.8779
14361TIP3    H243029   2.628   7.054   1.666  0.4383 -1.1100 -0.9707
14362TIP3   OH243030   5.612   2.801   3.669  0.6000  0.2619 -0.1814
14362TIP3    H143031   5.581   2.745   3.740 -0.8521  0.4287 -0.6538
14362TIP3    H243032   5.707   2.805   3.682  0.6495 -1.5967  0.3664
14363TIP3   OH243033   6.603   7.080   4.050 -0.0475  0.4917 -0.0461
14363TIP3    H143034   6.580   7.024   4.124  0.0288 -0.3625 -0.6562
14363TIP3    H243035   6.698   7.090   4.054  0.1255 -0.6563 -0.7739
14364TIP3   OH243036   4.956   0.337   4.620  1.0655 -0.2934  0.0636
14364TIP3    H143037   4.973   0.298   4.534 -0.0098  0.8363 -0.6843
14364TIP3    H243038   4.952   0.431   4.604  0.1675 -0.1035  1.2313
14365TIP3   OH243039   8.064   6.842   3.829  0.0532 -0.1339 -0.3144
14365TIP3    H143040   8.042   6.832   3.922 -0.8001  0.2725 -0.4598
14365TIP3    H243041   8.005   6.782   3.784 -0.2986  0.4748 -0.6702
14366TIP3   OH243042   3.121   5.318   3.153 -0.9998 -0.3055  0.0059
14366TIP3    H143043   3.045   5.348   3.202 -1.5345 -0.2818 -0.8065
14366TIP3    H243044   3.169   5.262   3.213 -1.6494 -0.2984  0.5332
14367TIP3   OH243045   5.732   3.103   6.355  0.1117  0.4489 -0.5305
14367TIP3    H143046   5.811   3.117   6.409  0.5614  1.3953 -1.4088
14367TIP3    H243047   5.766   3.071   6.272 -0.4658  0.4796 -0.7776
14368TIP3   OH243048   2.239   4.041   5.966  0.1061 -0.2349 -0.3882
14368TIP3    H143049   2.274   4.110   5.910 -1.1995  0.1498 -0.7554
14368TIP3    H243050   2.193   3.983   5.906  0.6687 -1.1100  0.0004
14369TIP3   OH243051   2.052   5.676   3.781 -0.0632 -0.0825 -0.0652
14369TIP3    H143052   2.076   5.732   3.708 -1.3388  0.2409 -0.2533
14369TIP3    H243053   2.107   5.598   3.771  0.6952  0.5131 -0.6163
14370TIP3   OH243054   6.491   3.055   2.963  0.0209 -0.4947 -0.1016
14370TIP3    H143055   6.552   3.032   2.893 -0.3707  0.3388 -0.7337
14370TIP3    H243056   6.437   2.977   2.974 -0.0116 -0.5812 -0.8318
14371TIP3   OH243057   8.160   1.479   3.772 -0.4747  0.3386 -0.2703
14371TIP3    H143058   8.247   1.447   3.749  0.1195  0.4323  1.6946
14371TIP3    H243059   8.129   1.523   3.692  1.6488  1.1094 -0.7509
14372TIP3   OH243060   4.854   2.373   3.463 -0.1934  0.3444 -0.0813
14372TIP3    H143061   4.783   2.340   3.408  1.5319 -2.4286 -0.8248
14372TIP3    H243062   4.934   2.334   3.426  1.5763  2.0435  1.6670
14373TIP3   OH243063   3.719   3.882   3.749 -0.2540 -0.2933 -0.0645
14373TIP3    H143064   3.630   3.917   3.755 -0.7819 -1.6910  0.7188
14373TIP3    H243065   3.769   3.931   3.815 -0.6858 -0.1726  0.1734
14374TIP3   OH243066   1.933   6.803   2.419 -0.6341 -0.5606  0.1397
14374TIP3    H143067   1.981   6.813   2.502 -1.1325  0.2258  0.3438
14374TIP3    H243068   1.875   6.879   2.416 -0.4203 -0.4354 -1.0730
14375TIP3   OH243069   6.929   1.674   4.865 -0.1211 -0.3036 -1.2150
14375TIP3    H143070   6.868   1.742   4.891  1.0175  0.6203 -0.8935
14375TIP3    H243071   6.986   1.662   4.941 -0.0004 -1.2790 -1.4423
14376TIP3   OH243072   2.226   3.323   3.654  0.2851 -0.6034 -0.2211
14376TIP3    H143073   2.266   3.237   3.646 -0.5657 -1.0012 -0.3216
14376TIP3    H243074   2.144   3.307   3.701  1.3121  0.5187  2.0935
14377TIP3   OH243075   3.398   4.196   2.901  0.0877  0.6487 -0.1304
14377TIP3    H143076   3.343   4.273   2.890  1.3330  1.3425 -1.7769
14377TIP3    H243077   3.403   4.184   2.996 -1.0513  1.8915  0.1199
14378TIP3   OH243078   8.057   2.757   3.517 -0.5906 -0.0167  0.1735
14378TIP3    H143079   7.978   2.733   3.468  0.8527 -2.3003 -1.1956
14378TIP3    H243080   8.092   2.674   3.549  0.8189  1.0317  1.4789
14379TIP3   OH243081   5.020   0.586   2.589  0.7438  0.1529 -0.5013
14379TIP3    H143082   4.954   0.583   2.520 -0.3435  0.5905  0.4874
14379TIP3    H243083   4.974   0.623   2.664  1.8113 -0.6028  0.5553
14380TIP3   OH243084   0.694   2.400   3.473 -0.1356 -0.1957  0.0544
14380TIP3    H143085   0.676   2.406   3.566  0.4939  0.9703  0.1190
14380TIP3    H243086   0.789   2.386   3.467 -0.1488 -0.1185 -0.4094
14381TIP3   OH243087   2.257   4.253   3.531 -0.2820 -0.3383 -0.3699
14381TIP3    H143088   2.197   4.214   3.595 -0.0851  1.1158  0.7856
14381TIP3    H243089   2.270   4.186   3.465 -0.2615 -2.0503  1.2859
14382TIP3   OH243090   3.302   6.057   4.711 -0.4322  0.4038  0.0237
14382TIP3    H143091   3.218   6.060   4.665  0.9916 -0.5832 -2.9223
14382TIP3    H243092   3.347   6.137   4.684  0.7420 -0.5775 -1.1097
14383TIP3   OH243093   1.242   1.775   2.258 -0.2997  0.1530 -0.1915
14383TIP3    H143094   1.181   1.820   2.317  0.2185 -0.5333  0.9043
14383TIP3    H243095   1.207   1.790   2.171 -2.4416 -0.7739  0.4418
14384TIP3   OH243096   5.554   7.065   5.280 -0.0776 -0.2219 -0.7483
14384TIP3    H143097   5.561   7.119   5.358  0.4970 -0.3402 -0.7148
14384TIP3    H243098   5.484   7.003   5.300  0.1989 -0.3783 -0.2537
14385TIP3   OH243099   5.803   4.112   1.358 -0.4327 -0.2011  0.2187
14385TIP3    H143100   5.883   4.163   1.346  0.7808 -2.1317 -0.3394
14385TIP3    H243101   5.803   4.088   1.450 -0.1259 -0.5633  0.1264
14386TIP3   OH243102   5.694   3.466   3.085  0.4955  0.1668  0.2625
14386TIP3    H143103   5.679   3.560   3.088 -1.1618 -0.0669  0.0863
14386TIP3    H243104   5.620   3.431   3.035  0.8870 -1.2714  0.6355
14387TIP3   OH243105   7.173   4.121   1.205  0.6248 -0.3228  0.2688
14387TIP3    H143106   7.198   4.042   1.159  0.2625 -0.4444  0.2769
14387TIP3    H243107   7.107   4.162   1.149 -1.1709 -1.4009  1.4912
14388TIP3   OH243108   8.009   1.066   4.252 -0.0143  0.2676 -0.5526
14388TIP3    H143109   7.955   1.143   4.233 -2.2960 -1.0745  0.1674
14388TIP3    H243110   8.029   1.073   4.345 -1.3351 -0.6197 -0.1755
14389TIP3   OH243111   4.073   4.727   1.417 -0.1303 -0.8610 -0.0380
14389TIP3    H143112   4.122   4.718   1.499 -1.0007 -1.9637  0.3998
14389TIP3    H243113   3.986   4.755   1.444  0.0999  0.6347 -0.7676
14390TIP3   OH243114   4.954   1.396   0.051 -0.0972 -0.3956  0.1195
14390TIP3    H143115   4.880   1.335   0.062 -1.1674  0.7464 -0.4950
14390TIP3    H243116   4.978   1.420   0.140  0.1672 -1.4896  0.3621
14391TIP3   OH243117   7.665   2.637   3.928  0.5175  0.1119  0.0983
14391TIP3    H143118   7.645   2.556   3.973 -0.9259  0.6339  0.4530
14391TIP3    H243119   7.730   2.680   3.983 -1.7022  1.0546  2.1313
14392TIP3   OH243120   1.460   3.695   1.856  0.0698  0.3773  0.0190
14392TIP3    H143121   1.451   3.747   1.776  0.6594  2.0116  0.9727
14392TIP3    H243122   1.463   3.759   1.926  4.3907 -0.6325  1.0167
14393TIP3   OH243123   6.220   6.511   0.471 -0.4794 -0.2468  0.2123
14393TIP3    H143124   6.151   6.458   0.432  0.8891 -2.6137  0.8034
14393TIP3    H243125   6.278   6.533   0.398 -1.5600  1.3921 -0.2104
14394TIP3   OH243126   1.458   3.950   4.271  0.1014 -0.1034 -0.1039
14394TIP3    H143127   1.428   3.981   4.357 -0.0170  0.6568 -0.4154
14394TIP3    H243128   1.411   3.868   4.258  2.2723 -1.8033  1.8487
14395TIP3   OH243129   3.114   2.869   3.571 -0.4853  0.1945 -0.5804
14395TIP3    H143130   3.175   2.848   3.501  2.1000  1.7337  1.0190
14395TIP3    H243131   3.087   2.959   3.554  1.2677  1.0979  0.9954
14396TIP3   OH243132   5.081   4.141   3.439 -0.1466  0.1569  0.1971
14396TIP3    H143133   5.172   4.131   3.411 -0.0858 -1.9380  0.9425
14396TIP3    H243134   5.029   4.128   3.360  0.1700  0.8485 -0.1322
14397TIP3   OH243135   7.649   4.537   0.501 -0.4724  0.0496 -0.0010
14397TIP3    H143136   7.559   4.545   0.532 -1.3998 -1.3316 -2.1490
14397TIP3    H243137   7.644   4.554   0.407  1.5158 -0.0239 -0.1542
14398TIP3   OH243138   1.771   4.339   2.096  0.4716  0.3626  0.0173
14398TIP3    H143139   1.691   4.333   2.148  0.3356  0.9279 -0.1140
14398TIP3    H243140   1.836   4.375   2.156  0.1283  1.7148 -0.3683
14399TIP3   OH243141   2.393   4.783   6.698  0.0542  0.2893  0.6119
14399TIP3    H143142   2.465   4.840   6.722  0.2544  0.6679 -0.8047
14399TIP3    H243143   2.344   4.771   6.779  0.5788  1.6446  1.1600
14400TIP3   OH243144   6.625   2.520   3.055 -0.8790  0.4506 -0.6139
14400TIP3    H143145   6.717   2.514   3.027 -1.7013  0.0097 -3.4881
14400TIP3    H243146   6.601   2.431   3.080 -0.2733  0.7652  1.2722
14401TIP3   OH243147   0.208   2.538   6.013  0.1914 -0.3124 -0.0069
14401TIP3    H143148   0.187   2.622   6.056 -0.3156 -1.7032  2.6900
14401TIP3    H243149   0.124   2.508   5.978  0.1753 -0.1648 -0.0978
14402TIP3   OH243150   2.557   7.782   2.442  0.4402 -0.4294 -0.3919
14402TIP3    H143151   2.595   7.829   2.368 -1.3677  2.0591  0.1446
14402TIP3    H243152   2.604   7.816   2.518 -0.2294 -0.2236 -0.0693
14403TIP3   OH243153   3.283   1.711   3.230  0.4485  0.0363  0.5991
14403TIP3    H143154   3.309   1.619   3.230  0.5684  0.0680  0.9014
14403TIP3    H243155   3.260   1.730   3.139 -0.0178 -0.4119  0.6197
14404TIP3   OH243156   5.889   3.402   5.466 -0.3391 -0.3666 -0.4176
14404TIP3    H143157   5.848   3.318   5.484 -0.4763 -0.3849 -0.8034
14404TIP3    H243158   5.914   3.436   5.552  0.5568 -1.2157 -0.3202
14405TIP3   OH243159   1.091   1.435   6.747 -0.4445 -0.0888  0.7321
14405TIP3    H143160   1.078   1.529   6.753 -1.9747  0.4701 -5.0251
14405TIP3    H243161   1.182   1.425   6.719 -0.8151 -0.0870 -0.5172
14406TIP3   OH243162   1.306   5.794   5.246 -0.4192  0.4711  0.4075
14406TIP3    H143163   1.270   5.810   5.159 -0.5940  0.5001  0.4865
14406TIP3    H243164   1.384   5.740   5.230 -0.7055  0.0987  0.2723
14407TIP3   OH243165   0.709   1.301   6.186 -0.4939 -0.4363  0.1272
14407TIP3    H143166   0.617   1.284   6.207 -0.1074 -1.6059  1.0584
14407TIP3    H243167   0.742   1.348   6.263  0.5478 -3.3387  1.6305
14408TIP3   OH243168   2.234   7.421   1.099 -0.0038 -0.0243 -0.1594
14408TIP3    H143169   2.304   7.460   1.152 -0.5709  1.0309 -0.1528
14408TIP3    H243170   2.165   7.400   1.161  0.6828 -2.0745 -0.0086
14409TIP3   OH243171   6.739   4.719   6.033  0.4046  0.1032 -0.2651
14409TIP3    H143172   6.646   4.698   6.039 -0.0561  2.0033 -0.0401
14409TIP3    H243173   6.746   4.773   5.954  1.6338 -1.4040 -1.2492
14410TIP3   OH243174   0.200   4.432   3.463  0.6058  0.0952  0.3486
14410TIP3    H143175   0.187   4.428   3.558 -1.2177 -1.1310  0.0955
14410TIP3    H243176   0.250   4.353   3.442  0.7372  0.2045  0.2475
14411TIP3   OH243177   6.691   2.409   5.567  0.4245 -0.2932 -0.3304
14411TIP3    H143178   6.785   2.403   5.551  0.1874 -4.4338 -1.2426
14411TIP3    H243179   6.650   2.398   5.481 -0.9827  1.6406  0.0127
14412TIP3   OH243180   3.225   6.039   3.113 -0.3488 -0.4264 -0.9084
14412TIP3    H143181   3.254   6.129   3.099 -1.6779  0.2462  0.3960
14412TIP3    H243182   3.300   5.995   3.152  0.2361  0.1683 -1.3320
14413TIP3   OH243183   1.257   4.340   0.940  0.2228  0.0687  0.2058
14413TIP3    H143184   1.173   4.385   0.950  0.9776  1.5481  0.1044
14413TIP3    H243185   1.265   4.326   0.846  0.0730 -0.1332  0.2211
14414TIP3   OH243186   7.353   2.506   5.614 -0.6044  0.5879 -0.2410
14414TIP3    H143187   7.375   2.467   5.529  0.3694 -2.1479  1.1501
14414TIP3    H243188   7.427   2.563   5.635  1.2337 -1.8971  0.5124
14415TIP3   OH243189   8.069   4.291   2.787 -0.8701 -0.2910 -0.0828
14415TIP3    H143190   8.139   4.325   2.843  0.0771 -0.2652 -1.2315
14415TIP3    H243191   7.992   4.290   2.842 -0.4058  1.5290  0.6752
14416TIP3   OH243192   5.969   0.687   3.437  0.1860  0.3635 -0.1807
14416TIP3    H143193   5.983   0.596   3.411 -2.2928 -0.6182  1.5211
14416TIP3    H243194   6.056   0.719   3.458  1.2005 -1.4298 -1.3232
14417TIP3   OH243195   1.604   0.487   6.690  0.7252  0.3762 -0.1129
14417TIP3    H143196   1.648   0.553   6.743 -0.1055  0.2224  0.8104
14417TIP3    H243197   1.578   0.419   6.752 -0.8630  0.4999 -0.5760
14418TIP3   OH243198   0.422   1.494   5.848  0.5042 -0.0874  0.8626
14418TIP3    H143199   0.450   1.467   5.935 -1.4143  1.6433  2.1261
14418TIP3    H243200   0.476   1.570   5.827  1.4726 -0.9365  0.1600
14419TIP3   OH243201   6.339   6.561   5.444  0.3997  0.2590  0.1340
14419TIP3    H143202   6.338   6.536   5.352 -0.2249 -0.2376  0.2679
14419TIP3    H243203   6.247   6.560   5.470  0.6609 -0.8147  1.0846
14420TIP3   OH243204   3.176   3.868   3.849  0.3068 -0.1130  0.2340
14420TIP3    H143205   3.218   3.873   3.935  0.7358 -0.1393  0.0287
14420TIP3    H243206   3.163   3.774   3.835  2.1389 -0.2883 -0.6222
14421TIP3   OH243207   5.355   7.144   2.776  0.5586  0.1585 -0.0042
14421TIP3    H143208   5.358   7.225   2.725  0.9530  0.5021  0.5490
14421TIP3    H243209   5.281   7.095   2.740  1.1128  0.1759 -1.2210
14422TIP3   OH243210   0.573   4.524   3.528  0.1248  0.1309 -0.2418
14422TIP3    H143211   0.503   4.486   3.581  1.0332  0.1667  1.0614
14422TIP3    H243212   0.579   4.615   3.558  0.4985  0.2241 -0.5887
14423TIP3   OH243213   4.013   2.700   4.434 -0.4076  0.3230 -0.3799
14423TIP3    H143214   4.071   2.749   4.492 -1.9612  1.2134  0.4665
14423TIP3    H243215   3.925   2.715   4.468 -1.2090 -0.6283 -1.8934
14424TIP3   OH243216   7.999   3.137   0.077 -0.7707 -0.7011  0.5360
14424TIP3    H143217   7.977   3.060   0.024 -0.5557  0.7270 -1.7719
14424TIP3    H243218   8.089   3.123   0.104 -1.0249 -1.6665  0.9234
14425TIP3   OH243219   1.714   2.532   1.326 -0.8564  0.0634  0.1971
14425TIP3    H143220   1.733   2.479   1.404  0.6935 -1.1039 -0.9079
14425TIP3    H243221   1.781   2.505   1.262 -1.0728  2.1653 -0.9861
14426TIP3   OH243222   1.935   6.473   0.186  0.0505  0.5580  0.5142
14426TIP3    H143223   1.919   6.481   0.279 -0.0104  0.3313  0.5227
14426TIP3    H243224   2.005   6.408   0.179 -0.3689  0.1186  0.3666
14427TIP3   OH243225   5.382   0.236   2.642 -0.1634  0.0119 -0.0338
14427TIP3    H143226   5.448   0.211   2.577 -1.7441 -1.3303 -1.2511
14427TIP3    H243227   5.320   0.291   2.592 -0.0117  1.2056  1.0572
14428TIP3   OH243228   5.507   4.049   0.458  0.0668 -0.3063 -0.1301
14428TIP3    H143229   5.523   4.044   0.552  0.2927 -0.2253 -0.1628
14428TIP3    H243230   5.499   4.142   0.440  0.2061 -0.3112 -0.2203
14429TIP3   OH243231   3.183   3.440   6.688  0.5381  0.1658 -0.0266
14429TIP3    H143232   3.151   3.460   6.600 -0.1519  2.0073  0.5961
14429TIP3    H243233   3.273   3.410   6.675  0.1599 -0.4383 -1.4190
14430TIP3   OH243234   7.206   1.900   6.345 -0.6518 -0.2216  0.2610
14430TIP3    H143235   7.170   1.948   6.270  1.8810  0.2554 -0.7674
14430TIP3    H243236   7.224   1.967   6.410  1.6850  0.1796 -0.6811
14431TIP3   OH243237   0.911   1.842   0.299  0.0114  0.5097  0.4216
14431TIP3    H143238   0.897   1.860   0.206 -1.9507  0.3337  0.6420
14431TIP3    H243239   0.844   1.779   0.321 -0.3166  1.4367  2.2383
14432TIP3   OH243240   7.349   0.348   4.212  0.3709 -0.2747  0.8789
14432TIP3    H143241   7.389   0.333   4.126 -1.3831  1.9138 -0.4090
14432TIP3    H243242   7.363   0.266   4.259  1.0688 -1.6923 -1.6108
14433TIP3   OH243243   7.460   0.439   6.103  0.2572  0.3015  0.4370
14433TIP3    H143244   7.410   0.370   6.148 -0.3032  0.5975  0.2844
14433TIP3    H243245   7.459   0.513   6.164 -1.0093  0.9050 -0.2791
14434TIP3   OH243246   1.969   0.035   6.365  0.4251  0.3650 -0.3734
14434TIP3    H143247   1.891  -0.001   6.321 -0.0814 -0.5543  1.2009
14434TIP3    H243248   2.039  -0.025   6.341  0.4638  0.6561 -1.0225
14435TIP3   OH243249   4.399   5.940   6.065  0.2166  0.1972 -0.3347
14435TIP3    H143250   4.311   5.962   6.032 -0.2640 -0.7509  0.2817
14435TIP3    H243251   4.427   6.019   6.111 -0.0130  0.7564 -1.1189
14436TIP3   OH243252   2.827   5.745   1.110  0.1356 -0.7228 -0.3261
14436TIP3    H143253   2.760   5.739   1.041 -1.5200 -0.0495  1.1425
14436TIP3    H243254   2.867   5.659   1.112  0.4448 -0.6796 -2.3073
14437TIP3   OH243255   6.658   5.293   3.545  0.1508 -0.3668 -0.3036
14437TIP3    H143256   6.607   5.223   3.585  0.9573 -1.0883 -0.5098
14437TIP3    H243257   6.683   5.350   3.618 -2.5773  1.1456 -0.4010
14438TIP3   OH243258   7.427   5.800   6.642 -0.1830  0.1380 -0.2977
14438TIP3    H143259   7.336   5.830   6.647 -0.6979 -1.3922 -0.0297
14438TIP3    H243260   7.422   5.714   6.601  0.8080 -1.2409  2.2176
14439TIP3   OH243261   5.899   1.241   4.097 -0.3706 -0.1087  0.3659
14439TIP3    H143262   5.981   1.220   4.052  0.2159 -0.8973  1.7643
14439TIP3    H243263   5.836   1.177   4.064 -0.9197  1.4794 -1.9261
14440TIP3   OH243264   5.733   4.666   5.617 -0.5296 -0.2420  0.1620
14440TIP3    H143265   5.662   4.604   5.607 -1.1070  0.7439 -3.1606
14440TIP3    H243266   5.696   4.750   5.589  2.0512  0.1149 -2.7914
14441TIP3   OH243267   7.403   4.762   6.411  0.8888  0.1420  0.2847
14441TIP3    H143268   7.419   4.732   6.500 -0.7780  1.0866  0.9490
14441TIP3    H243269   7.478   4.730   6.361  2.0963 -0.0031  2.1032
14442TIP3   OH243270   6.004   5.986   5.452 -0.1444  0.1963  0.0714
14442TIP3    H143271   6.003   5.994   5.548  0.9670 -1.5134  0.2686
14442TIP3    H243272   6.022   6.075   5.421 -0.2226  0.7265  1.4688
14443TIP3   OH243273   3.411   7.673   3.060 -0.1512  0.1939  0.3171
14443TIP3    H143274   3.400   7.628   2.976 -0.3880  0.9339 -0.0497
14443TIP3    H243275   3.396   7.604   3.125  0.9616 -0.6125 -0.2339
14444TIP3   OH243276   0.200   2.798   5.874  0.6639  0.3042  0.2156
14444TIP3    H143277   0.144   2.769   5.801  0.5342 -2.0816  1.1794
14444TIP3    H243278   0.147   2.784   5.952  0.8085  2.8253  0.8449
14445TIP3   OH243279   5.408   6.955   3.712  0.4187 -0.1697 -0.2565
14445TIP3    H143280   5.342   6.932   3.647  0.0135 -0.9737  0.4230
14445TIP3    H243281   5.463   6.877   3.719  1.0844  0.2786 -0.3689
14446TIP3   OH243282   5.194   5.721   4.920  0.0404 -0.2125 -0.2407
14446TIP3    H143283   5.119   5.674   4.883 -0.3987 -0.4622  0.9426
14446TIP3    H243284   5.270   5.682   4.876 -0.4754 -0.2575 -1.1325
14447TIP3   OH243285   6.910   0.029   1.675  0.2269 -0.2886 -0.5643
14447TIP3    H143286   6.835   0.077   1.640 -1.0703 -1.6308  0.2246
14447TIP3    H243287   6.875  -0.059   1.694  0.9325  0.0921  3.4352
14448TIP3   OH243288   8.253   7.258   2.844  0.5459 -0.2298 -0.2755
14448TIP3    H143289   8.345   7.245   2.819  0.9011  0.5266  0.6104
14448TIP3    H243290   8.204   7.239   2.764  1.4103 -1.4308 -0.5563
14449TIP3   OH243291   7.933   3.869   6.521  0.1440  1.0064  0.8495
14449TIP3    H143292   7.971   3.922   6.451 -1.9151  1.5172  0.0370
14449TIP3    H243293   7.839   3.872   6.504 -0.1286 -3.2942  0.4326
14450TIP3   OH243294   0.393   1.857   5.967 -0.5213 -0.2455  0.3089
14450TIP3    H143295   0.404   1.899   6.052  0.6889 -0.2741  0.1787
14450TIP3    H243296   0.426   1.920   5.903 -0.5333 -0.6028 -0.0588
14451TIP3   OH243297   1.931   5.700   4.839 -0.1591  0.3484  0.1446
14451TIP3    H143298   2.022   5.677   4.823  0.1442  0.7007  1.2584
14451TIP3    H243299   1.889   5.618   4.864 -0.0610  0.2521 -0.0099
14452TIP3   OH243300   4.228   5.987   5.387  0.1709  0.3724  0.2540
14452TIP3    H143301   4.290   5.924   5.350 -0.3039  0.2431 -0.3295
14452TIP3    H243302   4.184   5.940   5.457  0.3900  0.3164  0.3564
14453TIP3   OH243303   0.642   2.097   5.945  0.6412  0.5681  0.0621
14453TIP3    H143304   0.625   2.129   5.857 -2.2285 -0.8448  0.0079
14453TIP3    H243305   0.628   2.173   6.002  1.1472  1.1393 -0.5610
14454TIP3   OH243306   0.889   2.659   2.584 -0.2449  0.2460 -0.3678
14454TIP3    H143307   0.877   2.662   2.489 -2.3340  1.1789 -0.1164
14454TIP3    H243308   0.978   2.692   2.597  1.0038 -2.0996 -2.0823
14455TIP3   OH243309   0.661   2.053   1.785 -0.3983 -0.0723 -0.3400
14455TIP3    H143310   0.756   2.046   1.775 -0.3641 -1.9432  0.7216
14455TIP3    H243311   0.650   2.107   1.863 -0.1474 -0.5868  0.0660
14456TIP3   OH243312   7.959   3.434   2.962 -0.5230  0.0836 -0.3352
14456TIP3    H143313   7.967   3.339   2.957 -0.8466  0.0342  0.0157
14456TIP3    H243314   8.040   3.463   3.002 -1.1049 -0.1954  1.0895
14457TIP3   OH243315   2.676   6.978   6.130  0.6365 -0.1947  0.3900
14457TIP3    H143316   2.749   7.030   6.095 -0.0153 -1.0154 -2.4331
14457TIP3    H243317   2.602   7.038   6.129  0.5061 -0.3537 -0.2149
14458TIP3   OH243318   6.837   6.578   1.113  0.3457 -0.1576 -0.0390
14458TIP3    H143319   6.776   6.504   1.105  1.0640 -0.9892  1.7155
14458TIP3    H243320   6.818   6.633   1.036 -1.0533 -1.5226 -0.7271
14459TIP3   OH243321   4.772   4.907   3.198  0.1398  0.2111 -0.1588
14459TIP3    H143322   4.731   4.988   3.168 -1.3633 -0.2471  0.5772
14459TIP3    H243323   4.864   4.930   3.211 -0.1538  1.6552 -0.4651
14460TIP3   OH243324   1.473   5.387   5.407 -0.1654  0.2636 -0.3619
14460TIP3    H143325   1.442   5.389   5.497  0.2581  0.3681 -0.2138
14460TIP3    H243326   1.547   5.449   5.406 -0.4288  0.5769 -0.8742
14461TIP3   OH243327   6.648   6.546   3.947 -0.4879  0.3455 -0.0477
14461TIP3    H143328   6.627   6.631   3.909  0.7888  0.8873  0.3884
14461TIP3    H243329   6.593   6.484   3.900 -0.8154  1.3065 -0.9683
14462TIP3   OH243330   4.659   6.885   2.667  0.1070  0.6314 -0.2196
14462TIP3    H143331   4.687   6.977   2.672  1.7984  0.1328  0.0032
14462TIP3    H243332   4.738   6.837   2.643 -0.3513 -0.9819  1.2696
14463TIP3   OH243333   1.953   6.673   3.909 -0.3488  0.5880  0.1869
14463TIP3    H143334   2.034   6.713   3.879 -0.4944  2.2167  1.7847
14463TIP3    H243335   1.963   6.669   4.004 -1.4919 -0.6790  0.2714
14464TIP3   OH243336   2.151   2.548   3.866  0.5899 -0.7679  0.0018
14464TIP3    H143337   2.245   2.538   3.879  0.4098 -0.0225  2.5299
14464TIP3    H243338   2.117   2.458   3.867  1.0336 -0.9701  2.0085
14465TIP3   OH243339   7.071   4.872   3.420  0.0546 -0.0549  0.3747
14465TIP3    H143340   7.103   4.789   3.455  0.1333  0.3082  1.1870
14465TIP3    H243341   7.024   4.912   3.493 -0.1655  0.5177 -0.0734
14466TIP3   OH243342   3.088   4.255   4.280  0.0534  0.1657 -0.5063
14466TIP3    H143343   3.101   4.279   4.188  0.8799 -1.0892 -0.7411
14466TIP3    H243344   3.063   4.163   4.277  0.1266  0.1072  0.5351
14467TIP3   OH243345   6.778   2.424   5.838 -0.1352  0.6495  0.5327
14467TIP3    H143346   6.737   2.412   5.753  0.5804 -1.5053  0.4408
14467TIP3    H243347   6.794   2.518   5.844 -1.6929  1.0538 -0.9804
14468TIP3   OH243348   5.403   4.889   4.365  0.5028  0.0466  0.1088
14468TIP3    H143349   5.351   4.820   4.326 -0.2631  0.1871  0.8437
14468TIP3    H243350   5.339   4.950   4.402  1.1781  0.4693  0.6240
14469TIP3   OH243351   1.162   7.487   4.056  0.1419 -0.2395 -0.2374
14469TIP3    H143352   1.199   7.575   4.066  1.7015 -0.7614 -1.0597
14469TIP3    H243353   1.199   7.455   3.974 -1.5639 -1.1362 -0.7041
14470TIP3   OH243354   1.596   1.804   0.577  0.1025 -0.2395  0.2412
14470TIP3    H143355   1.591   1.889   0.619 -0.1938 -0.4232  0.5851
14470TIP3    H243356   1.547   1.814   0.495  0.2933 -0.0096  0.1547
14471TIP3   OH243357   2.477   0.135   3.392  0.4475 -0.2706  0.0301
14471TIP3    H143358   2.404   0.083   3.356  0.5047 -0.4942  0.2335
14471TIP3    H243359   2.446   0.162   3.479  0.7448 -0.6645  0.2620
14472TIP3   OH243360   5.539   1.981   1.808  0.3205 -0.2194  0.0937
14472TIP3    H143361   5.514   2.019   1.893 -0.0841 -0.4760  0.0926
14472TIP3    H243362   5.585   1.900   1.831 -2.6876 -2.0923  0.0656
14473TIP3   OH243363   5.273   3.111   5.937  0.1544 -0.3540  0.1616
14473TIP3    H143364   5.332   3.053   5.986  1.7950  0.5342 -0.7144
14473TIP3    H243365   5.319   3.130   5.856 -2.0088 -0.8489 -1.2788
14474TIP3   OH243366   6.193   0.800   3.494  0.4038  0.8939 -0.3767
14474TIP3    H143367   6.246   0.857   3.550 -1.6448  3.2152 -0.6173
14474TIP3    H243368   6.235   0.806   3.408  0.3851  1.8655 -0.3318
14475TIP3   OH243369   0.572   3.910   5.298 -0.6291  0.0010 -0.6293
14475TIP3    H143370   0.664   3.902   5.274  0.2216  0.4779  2.1150
14475TIP3    H243371   0.530   3.948   5.221  1.8090  1.4671 -1.3331
14476TIP3   OH243372   4.609   3.272   3.200  0.0959 -0.6402 -0.0972
14476TIP3    H143373   4.519   3.272   3.233  1.0299  0.7054  2.7758
14476TIP3    H243374   4.603   3.316   3.115 -1.7056  1.4707  1.0287
14477TIP3   OH243375   5.495   0.075   1.468 -0.7263  0.2667 -0.7608
14477TIP3    H143376   5.517   0.155   1.516  0.7197  0.3035 -1.4314
14477TIP3    H243377   5.490   0.102   1.377  0.6503 -0.5431 -1.1051
14478TIP3   OH243378   0.529   6.967   3.481  0.5263 -0.1459  0.0187
14478TIP3    H143379   0.465   7.015   3.429  2.0142 -0.9584 -2.7325
14478TIP3    H243380   0.495   6.877   3.482 -0.1373  0.0838  1.6428
14479TIP3   OH243381   0.488   6.913   5.430 -0.1949 -0.3177 -0.4882
14479TIP3    H143382   0.525   6.841   5.379  1.7712  0.8762 -0.8501
14479TIP3    H243383   0.552   6.930   5.498  0.5313  2.4538 -1.7049
14480TIP3   OH243384   6.582   1.782   4.285  0.8096  0.4018  0.0624
14480TIP3    H143385   6.579   1.734   4.202 -0.2590 -0.0432  0.3399
14480TIP3    H243386   6.588   1.874   4.259  1.8959  0.1922 -0.4829
14481TIP3   OH243387   6.322   1.455   6.618  0.1777 -0.1923 -0.5030
14481TIP3    H143388   6.302   1.474   6.527 -1.6776 -0.0538 -0.1016
14481TIP3    H243389   6.392   1.516   6.641 -0.4908  0.9240 -1.3570
14482TIP3   OH243390   7.559   4.132   0.302  0.7855 -0.0079  0.0234
14482TIP3    H143391   7.479   4.182   0.321  1.6667  1.6778 -0.4893
14482TIP3    H243392   7.558   4.120   0.207  1.2022  0.1823 -0.0109
14483TIP3   OH243393   0.200   3.116   5.756 -0.0664 -0.0726  0.3092
14483TIP3    H143394   0.170   3.062   5.683  1.1666  0.5903 -0.7320
14483TIP3    H243395   0.289   3.084   5.773 -0.3470 -0.2372  1.5587
14484TIP3   OH243396   5.252   6.310   4.380  0.0102 -0.3636  0.2629
14484TIP3    H143397   5.180   6.252   4.355 -0.2439  0.6876 -1.6109
14484TIP3    H243398   5.270   6.287   4.471 -1.5061 -1.8740  0.2393
14485TIP3   OH243399   0.199   6.213   4.694 -0.1834  0.1011  0.3419
14485TIP3    H143400   0.261   6.267   4.645 -1.2646  0.6960 -0.4056
14485TIP3    H243401   0.223   6.227   4.786  1.3653 -0.4137  0.0599
14486TIP3   OH243402   1.087   2.918   1.826  0.5071 -0.1303 -0.0269
14486TIP3    H143403   1.137   2.957   1.898  2.3443  0.5056 -1.5557
14486TIP3    H243404   1.099   2.979   1.753 -1.1249 -0.8562 -0.9448
14487TIP3   OH243405   5.340   0.990   1.725  0.1281  0.1205 -0.3360
14487TIP3    H143406   5.247   1.006   1.716 -0.7432 -3.0306  1.3987
14487TIP3    H243407   5.374   1.066   1.772 -1.7530  0.8657 -0.1178
14488TIP3   OH243408   2.805   7.082   2.259 -0.2035  0.3026  0.3796
14488TIP3    H143409   2.727   7.032   2.235 -1.7433  1.4723  2.5872
14488TIP3    H243410   2.772   7.155   2.311  2.1902  2.1132 -0.4128
14489TIP3   OH243411   1.678   6.447   4.216  0.7070 -0.2922 -0.3906
14489TIP3    H143412   1.591   6.410   4.198  0.8697 -0.7872 -0.1749
14489TIP3    H243413   1.713   6.469   4.130 -0.3949  1.6860 -0.3832
14490TIP3   OH243414   0.216   3.745   2.841 -0.1995  0.0362 -0.4313
14490TIP3    H143415   0.122   3.754   2.856 -0.2907 -0.3343 -0.7566
14490TIP3    H243416   0.253   3.830   2.864 -0.3552 -0.3960  1.6101
14491TIP3   OH243417   4.128   3.180   3.626 -0.3660 -0.0294 -0.7417
14491TIP3    H143418   4.186   3.211   3.557 -0.6223 -1.0659 -1.4482
14491TIP3    H243419   4.073   3.114   3.583 -1.2150  0.0401  0.2125
14492TIP3   OH243420   1.545   3.581   2.918  0.3844  0.7321  0.5665
14492TIP3    H143421   1.628   3.560   2.961  0.3511 -1.1325 -0.1817
14492TIP3    H243422   1.515   3.498   2.881 -2.2165  1.1784  1.4636
14493TIP3   OH243423   3.185   5.393   2.896 -0.2578  0.3405  0.0154
14493TIP3    H143424   3.136   5.360   2.971 -0.0860 -0.1451 -0.0861
14493TIP3    H243425   3.231   5.317   2.861  1.1448  0.9100  0.5388
14494TIP3   OH243426   6.273   6.493   3.461  0.0032  0.2882  0.2975
14494TIP3    H143427   6.209   6.537   3.517  1.1434  1.3409  0.8258
14494TIP3    H243428   6.278   6.547   3.382  0.2925  0.2562  0.2917
14495TIP3   OH243429   0.449   1.521   3.432 -0.0693 -0.1859 -0.3737
14495TIP3    H143430   0.484   1.475   3.355 -0.8243 -3.5074  1.1080
14495TIP3    H243431   0.356   1.529   3.414  0.2647  2.4221 -1.3185
14496TIP3   OH243432   2.523   7.646   3.928 -0.6027 -0.4206 -0.6237
14496TIP3    H143433   2.550   7.562   3.892 -3.0675 -1.6953  0.2790
14496TIP3    H243434   2.429   7.652   3.909 -0.9727  1.0672  1.2997
14497TIP3   OH243435   0.570   7.373   3.604  0.6269 -0.0145 -0.2629
14497TIP3    H143436   0.485   7.350   3.642  0.0450  0.0663 -1.4457
14497TIP3    H243437   0.624   7.399   3.679  0.1654 -1.6935  0.7069
14498TIP3   OH243438   6.674   0.607   4.010 -0.1992 -0.1206 -0.0949
14498TIP3    H143439   6.741   0.659   4.055 -2.3328  3.1746 -0.4568
14498TIP3    H243440   6.642   0.663   3.940 -2.2546 -2.2032 -0.9613
14499TIP3   OH243441   7.308   3.003   2.477  0.5266  0.2299 -0.5251
14499TIP3    H143442   7.302   3.052   2.559 -0.8837  0.5528 -0.7869
14499TIP3    H243443   7.239   2.937   2.483 -0.0562  0.6842 -1.7043
14500TIP3   OH243444   8.260   5.533   6.330  0.0097 -0.1247  0.4420
14500TIP3    H143445   8.211   5.551   6.250  0.3276  0.6233  0.4046
14500TIP3    H243446   8.195   5.538   6.400 -0.5065 -1.9687  0.1423
14501TIP3   OH243447   3.609   3.811   2.889  0.4392  0.6404  0.2103
14501TIP3    H143448   3.678   3.774   2.834 -0.0510  0.2311 -0.1408
14501TIP3    H243449   3.643   3.897   2.916  0.0211  1.6325 -2.1385
14502TIP3   OH243450   4.447   2.933   4.022  0.0142 -0.4411  0.1899
14502TIP3    H143451   4.384   2.961   3.955  0.7017  0.6497 -0.0309
14502TIP3    H243452   4.408   2.962   4.105  1.4547  2.9401 -0.1205
14503TIP3   OH243453   8.029   0.145   3.113  0.1080  0.2276 -0.4164
14503TIP3    H143454   7.933   0.141   3.113  0.0922  0.5344 -0.3696
14503TIP3    H243455   8.049   0.214   3.049  0.1704  2.5866  1.9644
14504TIP3   OH243456   3.707   4.520   3.510  0.1654 -0.2244  0.4265
14504TIP3    H143457   3.774   4.474   3.459 -0.2829  0.1269 -0.5076
14504TIP3    H243458   3.751   4.597   3.545  0.7376 -0.9762  1.4135
14505TIP3   OH243459   5.658   0.514   3.656  0.1545 -0.1508 -0.4305
14505TIP3    H143460   5.672   0.498   3.749 -2.0860  0.8810  0.1424
14505TIP3    H243461   5.667   0.427   3.616 -2.1870 -1.2718  1.2389
14506TIP3   OH243462   2.734   6.300   2.625 -0.7114  0.0708  0.0967
14506TIP3    H143463   2.752   6.234   2.559  0.6225  0.5124 -0.0057
14506TIP3    H243464   2.752   6.384   2.582  0.0979  0.3696  0.9706
14507TIP3   OH243465   5.699   3.419   4.759  0.0672 -0.4205 -0.0650
14507TIP3    H143466   5.793   3.400   4.750  0.3537  0.9415 -0.1398
14507TIP3    H243467   5.661   3.390   4.676  0.3431 -1.3371  0.1099
14508TIP3   OH243468   6.670   5.712   0.114  0.1507 -0.6496 -0.0441
14508TIP3    H143469   6.703   5.740   0.199  0.6165  0.3840 -0.5414
14508TIP3    H243470   6.741   5.660   0.077 -0.3945 -1.8431  0.5426
14509TIP3   OH243471   6.114   1.720   0.362 -0.1573  0.9706 -0.9592
14509TIP3    H143472   6.173   1.784   0.400 -0.6141  0.3836  0.8554
14509TIP3    H243473   6.030   1.735   0.406 -0.1534 -1.1333 -0.1052
14510TIP3   OH243474   2.075   7.540   0.713  0.2687  0.5580 -0.0787
14510TIP3    H143475   2.137   7.474   0.743  1.0137 -0.0781 -2.7534
14510TIP3    H243476   2.071   7.604   0.784  2.4996 -0.3965  0.9823
14511TIP3   OH243477   8.013   1.426   6.568 -0.4590  0.5457 -0.1399
14511TIP3    H143478   7.923   1.403   6.546 -0.5399  1.0448 -0.3586
14511TIP3    H243479   8.057   1.433   6.483 -0.1229 -0.0479 -0.0181
14512TIP3   OH243480   7.343   0.187   4.428 -0.5957 -0.0418 -0.5004
14512TIP3    H143481   7.428   0.172   4.471 -1.6900 -1.8079  1.2026
14512TIP3    H243482   7.312   0.269   4.465  0.6873  1.0625 -1.7615
14513TIP3   OH243483   1.203   5.077   2.887  0.2684  0.1636  0.4098
14513TIP3    H143484   1.143   5.010   2.855 -0.8373  0.6962  1.3295
14513TIP3    H243485   1.165   5.108   2.969  1.2926  1.2011  0.5315
14514TIP3   OH243486   6.099   3.507   3.417  0.4970 -0.6310  0.3875
14514TIP3    H143487   6.184   3.476   3.448  2.0794  2.0038 -0.8499
14514TIP3    H243488   6.076   3.447   3.346  1.7692 -0.9589  0.2158
14515TIP3   OH243489   2.208   1.033   4.810 -0.2515  0.1212 -0.4473
14515TIP3    H143490   2.207   0.938   4.826  0.7342  0.2716  0.6872
14515TIP3    H243491   2.278   1.046   4.747  1.8609  0.3699  1.8183
14516TIP3   OH243492   7.906   2.706   0.071 -0.0387  0.3244  0.1587
14516TIP3    H143493   7.890   2.619   0.034  2.7779  0.1760 -0.9774
14516TIP3    H243494   7.898   2.695   0.165 -2.4442 -0.4652 -0.0738
14517TIP3   OH243495   5.629   5.098   1.814 -0.2810  0.7112  0.4941
14517TIP3    H143496   5.615   5.192   1.820 -1.5198  0.7463 -2.0344
14517TIP3    H243497   5.571   5.060   1.881 -0.9482  1.6589  0.4645
14518TIP3   OH243498   1.693   0.028   3.054 -0.1496 -0.0909  0.4066
14518TIP3    H143499   1.654   0.059   3.136  0.1619 -0.9487  0.8873
14518TIP3    H243500   1.624   0.041   2.989 -0.3126  0.8463  0.7374
14519TIP3   OH243501   3.840   7.701   4.030 -0.2539  0.2139  0.4997
14519TIP3    H143502   3.833   7.637   4.101 -0.0199 -0.5954 -0.1974
14519TIP3    H243503   3.768   7.762   4.046  0.4524  0.6887  2.0646
14520TIP3   OH243504   7.810   6.113   5.864  0.1229  0.4028 -0.3026
14520TIP3    H143505   7.744   6.075   5.805  0.7697 -0.6044 -0.3904
14520TIP3    H243506   7.866   6.165   5.806 -0.9923  1.8739 -0.1274
14521TIP3   OH243507   5.424   5.581   4.530 -0.1146  0.1374 -0.1955
14521TIP3    H143508   5.468   5.665   4.541 -0.0731 -0.1756  2.5678
14521TIP3    H243509   5.345   5.602   4.480  0.2579  1.6958 -0.1718
14522TIP3   OH243510   7.621   1.196   6.705 -0.9242  0.1412 -0.0152
14522TIP3    H143511   7.682   1.123   6.710 -1.5034 -0.3751 -0.3748
14522TIP3    H243512   7.639   1.248   6.783  0.4141  0.3554 -0.4335
14523TIP3   OH243513   2.723   0.197   1.747  0.0872  0.2801 -0.0315
14523TIP3    H143514   2.809   0.202   1.706 -0.1475  0.2898 -0.5222
14523TIP3    H243515   2.701   0.103   1.745  0.3302  0.2010  0.6096
14524TIP3   OH243516   5.436   0.676   5.247 -0.0821  0.2826  0.2630
14524TIP3    H143517   5.393   0.708   5.326 -1.5812 -0.3458 -0.2751
14524TIP3    H243518   5.399   0.590   5.232  0.9688 -0.0499 -0.5513
14525TIP3   OH243519   1.799   0.293   3.456  0.6100  0.4125  0.1574
14525TIP3    H143520   1.837   0.293   3.544  0.2900 -0.0836  0.3013
14525TIP3    H243521   1.729   0.358   3.461 -0.9249 -1.2144  0.9658
14526TIP3   OH243522   7.518   1.400   0.737  0.2562  0.4942  0.3104
14526TIP3    H143523   7.496   1.384   0.645  0.4655 -0.8389  0.4670
14526TIP3    H243524   7.583   1.333   0.758  0.3634  0.9111  1.3710
14527TIP3   OH243525   1.594   4.749   1.234 -0.0293 -0.2716  0.6344
14527TIP3    H143526   1.529   4.815   1.210  0.8053  1.1684  2.1794
14527TIP3    H243527   1.619   4.771   1.323  0.3072 -2.6967  1.1980
14528TIP3   OH243528   4.507   4.552   5.057  0.5187  0.4352 -0.6495
14528TIP3    H143529   4.585   4.499   5.046  1.1781  1.1758  0.2262
14528TIP3    H243530   4.438   4.505   5.010  1.2776 -0.7131 -0.6433
14529TIP3   OH243531   2.461   1.263   2.987 -0.5572  0.1133  0.1749
14529TIP3    H143532   2.515   1.227   3.057  0.9364  0.4509 -0.7824
14529TIP3    H243533   2.442   1.188   2.930 -1.8708 -0.1868  0.9473
14530TIP3   OH243534   2.272   5.085   5.852  0.4725  0.2438  0.0095
14530TIP3    H143535   2.293   5.144   5.925  2.5229 -1.7480  1.1443
14530TIP3    H243536   2.249   5.002   5.894  2.0638 -1.0710 -1.5899
14531TIP3   OH243537   1.316   6.765   2.415 -0.2348 -0.0945  0.3829
14531TIP3    H143538   1.350   6.846   2.378 -1.5522  0.2623 -0.0866
14531TIP3    H243539   1.390   6.728   2.464  0.4246  1.3032  0.4778
14532TIP3   OH243540   0.459   0.763   1.768 -0.0452  0.2107 -0.2193
14532TIP3    H143541   0.554   0.755   1.771 -0.0203  0.5598  1.9754
14532TIP3    H243542   0.431   0.700   1.701  1.7494  0.7531 -1.5542
14533TIP3   OH243543   5.878   0.296   6.002 -0.2019 -0.1020  0.3401
14533TIP3    H143544   5.958   0.316   5.953  0.0082 -0.7490  0.4134
14533TIP3    H243545   5.895   0.211   6.042 -0.9741 -0.2994  0.2639
14534TIP3   OH243546   4.907   0.036   4.624 -0.0289 -0.2272  0.2031
14534TIP3    H143547   4.908   0.128   4.650 -0.0777 -0.4176  0.8974
14534TIP3    H243548   4.935  -0.011   4.702  2.0080 -0.6786 -0.7287
14535TIP3   OH243549   4.208   7.316   5.702  0.7496 -0.2894  0.1129
14535TIP3    H143550   4.180   7.282   5.788  0.3301  1.0823  0.5475
14535TIP3    H243551   4.280   7.260   5.677  1.9266  0.2160  2.1108
14536TIP3   OH243552   1.657   4.896   1.459  0.0987 -0.5355 -0.6029
14536TIP3    H143553   1.687   4.878   1.548  2.9152 -0.6604 -1.4669
14536TIP3    H243554   1.715   4.966   1.428 -0.4308 -0.8849 -2.5284
14537TIP3   OH243555   5.858   2.540   5.759  0.1337  0.6317 -0.2219
14537TIP3    H143556   5.822   2.522   5.672 -1.3802  0.1611  0.4669
14537TIP3    H243557   5.951   2.521   5.751 -0.1258 -0.2011 -1.5229
14538TIP3   OH243558   3.013   3.389   2.525 -0.5836 -0.1139 -0.5483
14538TIP3    H143559   3.090   3.388   2.468 -1.4154  1.7906 -1.7936
14538TIP3    H243560   2.973   3.303   2.512  1.3221 -1.1734  0.1886
14539TIP3   OH243561   1.946   1.223   6.281 -0.1587 -0.1643 -0.0539
14539TIP3    H143562   1.915   1.220   6.372 -1.6914 -1.9763 -0.5656
14539TIP3    H243563   1.867   1.213   6.229  0.8179 -0.2005 -1.5872
14540TIP3   OH243564   1.180   3.038   5.471  0.4325  0.2939  0.4399
14540TIP3    H143565   1.162   3.132   5.473 -1.6524 -0.0663  1.5929
14540TIP3    H243566   1.134   3.006   5.393  2.3472  0.3813 -0.7947
14541TIP3   OH243567   7.237   2.842   1.208 -0.1119  0.2833  0.4448
14541TIP3    H143568   7.280   2.927   1.211  0.8323 -0.1620 -0.2952
14541TIP3    H243569   7.257   2.807   1.121  1.4879 -1.6945  1.5274
14542TIP3   OH243570   7.243   4.810   1.675 -0.6103  0.9961  0.4571
14542TIP3    H143571   7.247   4.903   1.654 -0.7230  0.7763 -0.5805
14542TIP3    H243572   7.244   4.807   1.771  2.3423  1.9349  0.5496
14543TIP3   OH243573   0.197   3.551   0.287  0.1969 -0.6000  0.2662
14543TIP3    H143574   0.224   3.636   0.253 -2.2731 -0.3930 -1.4669
14543TIP3    H243575   0.155   3.508   0.213  1.1332 -3.2714  1.1600
14544TIP3   OH243576   4.332   3.415   1.272 -0.2284 -0.3535  0.3582
14544TIP3    H143577   4.267   3.374   1.214 -0.4254  0.6205 -0.1253
14544TIP3    H243578   4.413   3.416   1.221 -0.6566  1.4918 -0.3674
14545TIP3   OH243579   6.460   5.573   1.645  0.5290 -0.6121 -0.2403
14545TIP3    H143580   6.466   5.592   1.552 -0.2650  0.9931  0.0033
14545TIP3    H243581   6.551   5.577   1.676  0.5922  1.4100 -0.5247
14546TIP3   OH243582   4.320   5.263   1.927  0.5678 -0.0085  0.3381
14546TIP3    H143583   4.228   5.279   1.904  0.7105  0.5930  0.1519
14546TIP3    H243584   4.331   5.169   1.920 -0.0158 -0.0756  0.2746
14547TIP3   OH243585   4.461   1.090   3.737  0.3774 -0.4283 -0.0672
14547TIP3    H143586   4.390   1.099   3.801  1.8312  1.7888  1.3674
14547TIP3    H243587   4.428   1.135   3.659  0.5171  1.5607  0.9457
14548TIP3   OH243588   8.090   0.558   1.845  0.1621 -0.5864 -0.0645
14548TIP3    H143589   8.110   0.466   1.833 -0.0979 -0.3858 -2.4014
14548TIP3    H243590   8.173   0.603   1.831  0.4380 -0.4547  1.7294
14549TIP3   OH243591   1.191   3.448   1.311  0.2678 -0.1996  0.0453
14549TIP3    H143592   1.239   3.527   1.286 -1.7227  1.5910  1.5655
14549TIP3    H243593   1.258   3.389   1.347  1.4625  1.9498  1.5282
14550TIP3   OH243594   6.295   4.325   0.533 -1.2365 -0.1944  0.3161
14550TIP3    H143595   6.207   4.291   0.520 -0.8545 -3.1913  3.8120
14550TIP3    H243596   6.352   4.255   0.501 -0.0735  1.2466 -0.9184
14551TIP3   OH243597   3.937   3.998   5.535 -0.4242  0.1017  0.2065
14551TIP3    H143598   3.900   4.036   5.455  0.0403  1.3776  0.5653
14551TIP3    H243599   4.018   3.956   5.506 -0.0270  0.9451  0.0615
14552TIP3   OH243600   3.122   5.392   4.272 -0.3065  0.0380  0.1808
14552TIP3    H143601   3.099   5.387   4.365 -1.6928 -0.6259 -0.1817
14552TIP3    H243602   3.209   5.353   4.267 -0.1834  0.1626  1.2072
14553TIP3   OH243603   6.380   2.763   1.010  0.0579  0.4941  0.3313
14553TIP3    H143604   6.385   2.694   1.076 -0.4928 -0.1235 -0.2439
14553TIP3    H243605   6.289   2.760   0.980  0.1707  1.1047 -0.0899
14554TIP3   OH243606   0.890   2.652   5.255  0.4257 -0.0826 -0.2472
14554TIP3    H143607   0.957   2.587   5.273 -0.3848 -0.3480  2.0737
14554TIP3    H243608   0.830   2.608   5.193  1.7868 -0.1901 -1.5411
14555TIP3   OH243609   5.591   7.300   0.092  0.8478 -0.3729 -0.3710
14555TIP3    H143610   5.609   7.388   0.126 -0.0610 -0.2354 -0.1977
14555TIP3    H243611   5.608   7.306  -0.002 -3.9084  1.5051 -1.4246
14556TIP3   OH243612   2.497   0.082   1.383  0.0536 -0.2309  0.1391
14556TIP3    H143613   2.508   0.047   1.294 -1.0515 -1.5296  0.4861
14556TIP3    H243614   2.491   0.177   1.371  0.6831 -0.3202 -1.0804
14557TIP3   OH243615   5.345   4.925   0.379 -0.0184 -0.9906 -0.2319
14557TIP3    H143616   5.432   4.891   0.398  0.1454  0.0188  0.9727
14557TIP3    H243617   5.361   5.001   0.323  0.0075 -0.0194  1.0480
14558TIP3   OH243618   3.077   4.238   4.573 -0.7144  0.1352  0.0336
14558TIP3    H143619   3.081   4.142   4.571  0.9992  0.1660  0.4950
14558TIP3    H243620   3.086   4.264   4.481 -1.2475 -0.1298 -0.1003
14559TIP3   OH243621   1.911   0.944   0.175  0.3869  0.4282 -0.0934
14559TIP3    H143622   1.873   0.995   0.247  0.6302  0.5504 -0.0495
14559TIP3    H243623   1.857   0.866   0.169  0.2562  0.5031  0.1047
14560TIP3   OH243624   6.670   3.737   2.413 -0.4888 -0.0625  0.4474
14560TIP3    H143625   6.738   3.687   2.366 -1.5955 -1.5333  0.3317
14560TIP3    H243626   6.594   3.678   2.414 -2.0683  1.8511 -0.1819
14561TIP3   OH243627   5.940   4.467   2.826  0.3767 -0.9517  0.3469
14561TIP3    H143628   5.919   4.443   2.917 -0.0927  1.2416  0.8924
14561TIP3    H243629   5.983   4.552   2.834  0.5146 -0.8210 -1.4916
14562TIP3   OH243630   1.899   2.611   4.905 -0.5493 -0.1578 -0.1550
14562TIP3    H143631   1.868   2.693   4.865  0.5673 -0.5678 -1.9805
14562TIP3    H243632   1.833   2.546   4.879 -0.2951 -0.2518 -0.5678
14563TIP3   OH243633   3.166   5.448   0.472 -0.5271 -0.0894  0.5438
14563TIP3    H143634   3.161   5.400   0.390 -2.3725 -0.1790  0.6561
14563TIP3    H243635   3.092   5.509   0.469  0.2334  0.9337  1.5177
14564TIP3   OH243636   7.289   6.892   3.333  0.1187  0.1049  0.0855
14564TIP3    H143637   7.350   6.884   3.260  0.5559  1.1718  0.3148
14564TIP3    H243638   7.257   6.803   3.347  0.4736 -0.2093 -1.0157
14565TIP3   OH243639   1.385   7.390   1.541  0.1825  0.2767  0.4188
14565TIP3    H143640   1.449   7.455   1.569  0.8781  0.7464 -2.0280
14565TIP3    H243641   1.386   7.395   1.445 -1.0643 -2.0875  0.2071
14566TIP3   OH243642   8.006   6.275   0.510 -0.3404 -0.4145  0.4537
14566TIP3    H143643   8.045   6.195   0.476  2.0004  0.7701  0.1398
14566TIP3    H243644   8.010   6.265   0.605  1.1165 -0.1976  0.4403
14567TIP3   OH243645   3.275   5.124   2.835  0.3128 -0.2514 -0.4309
14567TIP3    H143646   3.346   5.127   2.770  2.2803  1.0463  1.6353
14567TIP3    H243647   3.308   5.066   2.903 -0.2928  0.9216  0.9036
14568TIP3   OH243648   4.890   1.207   0.468 -0.2126  0.5777  0.0235
14568TIP3    H143649   4.886   1.127   0.521 -0.1289  0.4321 -0.1869
14568TIP3    H243650   4.957   1.188   0.402 -1.6674  0.0027 -1.3593
14569TIP3   OH243651   2.029   0.585   0.657  0.1631  0.5592 -0.0327
14569TIP3    H143652   1.948   0.608   0.702 -1.4830 -0.5018 -2.2449
14569TIP3    H243653   2.051   0.662   0.605 -0.1839  0.3742 -0.4541
14570TIP3   OH243654   7.272   4.185   0.240 -0.3333  0.0789  0.0996
14570TIP3    H143655   7.285   4.271   0.279  2.2010  0.0857 -0.5309
14570TIP3    H243656   7.332   4.184   0.165  0.4865 -2.5474  0.6739
14571TIP3   OH243657   5.633   7.042   0.118  0.0923 -0.0015 -0.5427
14571TIP3    H143658   5.625   7.137   0.109  2.5145  0.1830 -1.7528
14571TIP3    H243659   5.671   7.014   0.035  0.5181 -1.8660  0.2358
14572TIP3   OH243660   5.759   5.157   0.845  0.1256 -0.2658  0.4182
14572TIP3    H143661   5.830   5.124   0.900  0.5745  0.4895  0.3112
14572TIP3    H243662   5.786   5.247   0.823 -0.5196 -0.2220 -0.2191
14573TIP3   OH243663   3.564   0.232   2.233  0.1465 -0.1105 -0.3873
14573TIP3    H143664   3.561   0.328   2.224 -1.0008 -0.1632 -0.7304
14573TIP3    H243665   3.537   0.199   2.148  1.0634 -0.7625 -0.4359
14574TIP3   OH243666   4.401   5.490   0.453  0.2716 -0.3488  0.5629
14574TIP3    H143667   4.408   5.511   0.360  1.9430 -0.5147  0.6265
14574TIP3    H243668   4.310   5.512   0.475 -0.5081 -1.4301 -1.3498
14575TIP3   OH243669   1.002   5.441   1.081 -0.3870  0.0384 -0.2215
14575TIP3    H143670   0.989   5.425   1.174  1.9579  0.1588  0.1883
14575TIP3    H243671   1.058   5.519   1.077 -1.8595  1.0940 -1.8042
14576TIP3   OH243672   2.812   2.213   5.001 -0.5319  0.0423 -0.4066
14576TIP3    H143673   2.849   2.287   4.954 -1.2451  0.8249  0.2401
14576TIP3    H243674   2.871   2.140   4.981  1.6825  1.3390  0.9469
14577TIP3   OH243675   4.277   4.803   4.659 -0.0800  0.2785 -0.0863
14577TIP3    H143676   4.249   4.763   4.740  3.4519 -1.5497  0.4418
14577TIP3    H243677   4.198   4.845   4.623 -2.0135  0.1877  3.6330
14578TIP3   OH243678   7.687   3.065   3.303 -0.1188 -0.3426 -0.1451
14578TIP3    H143679   7.684   3.035   3.394 -0.1388 -0.6082 -0.2331
14578TIP3    H243680   7.776   3.098   3.292 -0.1977 -0.0576  0.0491
14579TIP3   OH243681   8.176   5.512   5.208  0.5975  0.3679  0.4313
14579TIP3    H143682   8.142   5.446   5.148  0.4363  1.4576 -0.7193
14579TIP3    H243683   8.158   5.477   5.295 -1.9806  0.1470 -0.1163
14580TIP3   OH243684   6.797   6.670   1.379 -0.3684  0.5073 -0.0611
14580TIP3    H143685   6.721   6.645   1.431  0.1840  0.1639  0.6061
14580TIP3    H243686   6.783   6.628   1.294 -0.3253 -0.6115  0.4681
14581TIP3   OH243687   7.750   7.321   5.319  0.3101 -0.0362 -0.3254
14581TIP3    H143688   7.844   7.333   5.306  0.7181 -2.6679 -0.3928
14581TIP3    H243689   7.741   7.302   5.413 -0.4965  2.4007  0.1528
14582TIP3   OH243690   7.373   2.140   4.830  0.3100  0.2516  0.1088
14582TIP3    H143691   7.432   2.194   4.777  0.3033 -0.0510 -0.2072
14582TIP3    H243692   7.385   2.051   4.796  0.1877  0.0822  0.5090
14583TIP3   OH243693   5.909   3.338   6.712 -0.2048 -0.0321  0.1338
14583TIP3    H143694   5.834   3.302   6.759  0.1798 -0.7401  0.2194
14583TIP3    H243695   5.878   3.423   6.679 -1.1749 -0.4881 -0.1819
14584TIP3   OH243696   3.225   3.009   4.547  0.4186  1.0140  0.3820
14584TIP3    H143697   3.134   3.001   4.575  0.4265  0.9324  0.3849
14584TIP3    H243698   3.220   3.030   4.454  0.4178 -0.4418  0.0414
14585TIP3   OH243699   1.866   0.493   5.266 -0.0820  0.3548  0.0591
14585TIP3    H143700   1.919   0.573   5.254  0.4006  0.2600  1.4015
14585TIP3    H243701   1.799   0.518   5.328  1.2583 -0.7649  2.0655
14586TIP3   OH243702   3.329   1.598   3.506 -0.4223 -0.9046 -0.3239
14586TIP3    H143703   3.327   1.692   3.488  2.2461 -0.8036 -0.4450
14586TIP3    H243704   3.306   1.557   3.423 -1.0054 -0.3841 -0.4298
14587TIP3   OH243705   3.141   5.335   0.221  0.1561  0.3614  0.4493
14587TIP3    H143706   3.087   5.257   0.214 -3.4080  2.4314  2.1081
14587TIP3    H243707   3.131   5.379   0.137 -0.3622  0.4737  0.5657
14588TIP3   OH243708   6.823   0.647   2.312 -0.1801  0.3428  0.1789
14588TIP3    H143709   6.850   0.593   2.237 -1.6414  0.3544 -0.3930
14588TIP3    H243710   6.774   0.586   2.368  0.8134  0.3630  1.0829
14589TIP3   OH243711   0.872   2.453   4.994 -0.0933 -0.3286  0.3087
14589TIP3    H143712   0.778   2.446   4.982 -0.0351 -1.6613  0.4404
14589TIP3    H243713   0.895   2.539   4.958 -1.2994 -0.1317 -0.0348
14590TIP3   OH243714   6.624   1.508   6.569  0.6027 -1.2993 -0.1869
14590TIP3    H143715   6.627   1.413   6.559  0.5594 -1.6153  2.2303
14590TIP3    H243716   6.688   1.528   6.637 -2.6830 -0.2391  2.9047
14591TIP3   OH243717   0.043   4.311   5.005  0.0882  0.1904 -0.1403
14591TIP3    H143718  -0.050   4.294   5.020  0.2559 -1.1149 -0.4984
14591TIP3    H243719   0.057   4.399   5.041 -1.6660  1.1862 -1.7045
14592TIP3   OH243720   3.653   3.018   1.929 -0.4053 -0.0900  0.1796
14592TIP3    H143721   3.561   3.035   1.950 -0.2700  2.1111 -0.7004
14592TIP3    H243722   3.652   2.932   1.886 -2.2991  0.5745 -1.2416
14593TIP3   OH243723   2.330   4.032   4.847 -0.4051 -0.0662 -0.9408
14593TIP3    H143724   2.392   4.022   4.775  0.7036 -1.6652  0.1857
14593TIP3    H243725   2.354   4.115   4.888  0.5425 -0.3325 -0.9399
14594TIP3   OH243726   2.475   4.919   4.453 -0.1494  0.3460  0.1071
14594TIP3    H143727   2.526   4.979   4.397 -1.3462  0.4681 -0.8980
14594TIP3    H243728   2.504   4.832   4.426 -1.1269  0.3791 -1.1772
14595TIP3   OH243729   0.372   5.004   4.778 -0.1232 -0.0949 -0.3129
14595TIP3    H143730   0.413   4.918   4.789  0.0785 -0.1397 -1.2710
14595TIP3    H243731   0.428   5.064   4.827  0.5523 -0.3037 -0.8062
14596TIP3   OH243732   2.640   4.850   0.511 -0.1107  0.0054 -0.2963
14596TIP3    H143733   2.725   4.826   0.549 -0.4197 -0.6101  0.0210
14596TIP3    H243734   2.662   4.905   0.436  0.4903  2.0846  1.3147
14597TIP3   OH243735   2.003   6.189   4.933  0.0544 -1.2202  0.6115
14597TIP3    H143736   1.910   6.167   4.942 -0.2477 -0.0312  0.4877
14597TIP3    H243737   2.032   6.138   4.858 -1.1977  0.4739 -1.0965
14598TIP3   OH243738   1.327   7.759   4.053 -0.3034 -0.6973 -0.6522
14598TIP3    H143739   1.382   7.763   4.132 -1.4429 -0.9492  0.1675
14598TIP3    H243740   1.256   7.821   4.070 -0.2354 -0.2966 -1.7478
14599TIP3   OH243741   6.182   4.363   6.165  0.1378 -0.3649 -0.1452
14599TIP3    H143742   6.110   4.323   6.117  0.4713  1.1183 -2.0440
14599TIP3    H243743   6.170   4.457   6.152  1.7778 -0.0424  0.4220
14600TIP3   OH243744   6.347   7.114   2.259  0.0425  0.1838 -0.7429
14600TIP3    H143745   6.398   7.167   2.320 -0.5459  0.1209 -0.1844
14600TIP3    H243746   6.407   7.043   2.234  0.3568  0.3223 -0.4012
14601TIP3   OH243747   3.812   7.264   1.613 -0.6246 -0.4692  0.5102
14601TIP3    H143748   3.905   7.286   1.608 -0.9985  1.1745  0.2560
14601TIP3    H243749   3.807   7.174   1.580  0.6140  0.0824 -1.3183
14602TIP3   OH243750   6.311   6.361   3.145  0.0057 -0.4229  0.2488
14602TIP3    H143751   6.367   6.283   3.145  0.1181 -0.3577  1.6446
14602TIP3    H243752   6.371   6.433   3.127 -0.1381 -0.6541 -1.3052
14603TIP3   OH243753   2.098   2.164   1.730 -0.6863  0.3360  0.1035
14603TIP3    H143754   2.090   2.155   1.825 -0.4823 -1.1985 -0.0132
14603TIP3    H243755   2.025   2.221   1.705 -1.6816 -0.5210  0.9879
14604TIP3   OH243756   5.106   3.169   5.633 -0.4183 -0.1634 -0.1485
14604TIP3    H143757   5.193   3.144   5.663  0.5227  0.4458 -2.1398
14604TIP3    H243758   5.098   3.261   5.658 -0.6300 -0.3071  0.3172
14605TIP3   OH243759   2.344   0.406   2.919 -0.4484  0.8581  0.4199
14605TIP3    H143760   2.259   0.390   2.960  0.6854  1.9548  3.4524
14605TIP3    H243761   2.385   0.319   2.915 -1.4050  0.4180 -0.4996
14606TIP3   OH243762   2.801   5.626   4.109  0.4511 -0.0271  0.2803
14606TIP3    H143763   2.741   5.609   4.036  1.5946 -0.1519 -0.6599
14606TIP3    H243764   2.765   5.704   4.151  0.7423  1.1508 -1.5309
14607TIP3   OH243765   0.658   2.624   5.791 -0.3068  0.0207  0.4305
14607TIP3    H143766   0.634   2.713   5.768 -1.7779 -0.5391 -0.3083
14607TIP3    H243767   0.744   2.611   5.751  0.5828  1.5191  1.7099
14608TIP3   OH243768   3.449   5.875   5.835 -0.4878  0.1677  0.1828
14608TIP3    H143769   3.408   5.917   5.759 -0.8998  1.1067  0.8903
14608TIP3    H243770   3.389   5.895   5.907  1.3204  1.8493  1.3243
14609TIP3   OH243771   1.825   4.586   2.750 -0.4511  0.1040 -0.2504
14609TIP3    H143772   1.917   4.610   2.761 -0.4010 -0.5970  1.1174
14609TIP3    H243773   1.826   4.490   2.746 -1.2070  0.0347  0.8868
14610TIP3   OH243774   7.554   2.281   1.683  0.0259  0.1052 -0.1715
14610TIP3    H143775   7.470   2.312   1.718  1.0196  1.0297  1.4759
14610TIP3    H243776   7.596   2.360   1.649  0.9440 -0.0814  0.5266
14611TIP3   OH243777   7.691   2.199   0.693  0.4741 -0.1037 -0.1164
14611TIP3    H143778   7.680   2.271   0.755 -3.0613 -1.1063  0.5912
14611TIP3    H243779   7.759   2.144   0.731 -0.4876  0.1526  2.0950
14612TIP3   OH243780   6.601   0.952   4.474 -0.0300  0.0007 -0.0517
14612TIP3    H143781   6.529   1.013   4.460  0.0764  0.2338  0.3967
14612TIP3    H243782   6.668   1.004   4.519  0.7086 -0.0259 -1.0891
14613TIP3   OH243783   5.763   6.229   0.145 -0.7169  0.0936 -0.3947
14613TIP3    H143784   5.834   6.198   0.089 -1.3239 -0.6564 -0.7609
14613TIP3    H243785   5.750   6.321   0.120 -0.4750 -0.0226 -0.9489
14614TIP3   OH243786   4.882   6.377   3.484  0.7261  0.6813 -0.0403
14614TIP3    H143787   4.818   6.395   3.553 -0.3632 -0.2016 -0.7990
14614TIP3    H243788   4.858   6.438   3.413 -0.5417 -0.9508 -1.0879
14615TIP3   OH243789   4.132   6.770   6.363  0.4127 -0.6156  0.1163
14615TIP3    H143790   4.157   6.826   6.436 -1.8966  0.1522  0.3920
14615TIP3    H243791   4.155   6.820   6.285 -0.3804  0.1523  0.3613
14616TIP3   OH243792   3.918   2.347   2.906  0.2643 -0.4443 -0.7562
14616TIP3    H143793   3.876   2.423   2.948 -1.5738 -1.6002 -0.3734
14616TIP3    H243794   3.879   2.344   2.818  1.2032 -0.2780 -1.1830
14617TIP3   OH243795   0.046   6.666   1.219 -0.2847 -0.6206 -0.1651
14617TIP3    H143796   0.006   6.752   1.223  0.0477 -0.3907 -1.4466
14617TIP3    H243797   0.135   6.678   1.252  0.3160 -0.0977 -1.8747
14618TIP3   OH243798   5.119   3.964   5.146  0.1988  0.3348  0.1134
14618TIP3    H143799   5.146   4.015   5.222 -0.0917  0.3751  0.1896
14618TIP3    H243800   5.201   3.945   5.100  0.2158  1.7571 -0.4838
14619TIP3   OH243801   0.548   3.926   4.686  0.2751  0.0205  0.1523
14619TIP3    H143802   0.507   4.011   4.702  0.9062  0.4579 -0.4608
14619TIP3    H243803   0.610   3.915   4.759 -1.2946 -0.9203  1.4167
14620TIP3   OH243804   2.967   5.608   5.757  0.4865 -0.3779 -0.2512
14620TIP3    H143805   3.055   5.600   5.720 -0.3987 -2.8627 -2.0578
14620TIP3    H243806   2.920   5.665   5.695  0.8410  1.2378  0.8964
14621TIP3   OH243807   0.258   0.805   4.782 -0.3374  0.3704 -0.0570
14621TIP3    H143808   0.347   0.814   4.818 -0.1390  0.2358 -0.4983
14621TIP3    H243809   0.235   0.714   4.798 -0.1331  0.2317 -0.5104
14622TIP3   OH243810   3.008   2.320   1.690  0.1000 -0.7477  0.4721
14622TIP3    H143811   2.994   2.351   1.779 -1.7921  1.4517 -0.4840
14622TIP3    H243812   3.090   2.361   1.662 -0.2458  0.0624  0.6225
14623TIP3   OH243813   4.653   7.596   6.705  0.3145  0.0354 -0.2179
14623TIP3    H143814   4.611   7.671   6.663  0.1785  0.0515 -0.0530
14623TIP3    H243815   4.730   7.579   6.651  0.9108  0.9403  0.3370
14624TIP3   OH243816   6.651   6.616   0.679  0.3568 -0.2830 -0.5225
14624TIP3    H143817   6.745   6.597   0.675  0.6094  0.3778  1.1777
14624TIP3    H243818   6.643   6.705   0.646  0.1492 -0.7329 -1.7339
14625TIP3   OH243819   0.833   5.707   1.393  0.5854 -0.2939 -0.2782
14625TIP3    H143820   0.838   5.779   1.455 -0.3465 -0.3013 -0.1803
14625TIP3    H243821   0.762   5.731   1.334  1.4550 -0.2898 -1.3587
14626TIP3   OH243822   7.597   4.302   6.542 -0.4252 -0.1356 -0.2070
14626TIP3    H143823   7.513   4.307   6.496 -0.6510  1.5765  0.3442
14626TIP3    H243824   7.638   4.222   6.507 -1.5724 -0.1367 -1.6663
14627TIP3   OH243825   2.096   7.476   6.349 -0.0519  0.0768 -0.0274
14627TIP3    H143826   2.097   7.382   6.331  0.9691 -0.1189  0.9104
14627TIP3    H243827   2.047   7.484   6.431 -1.7059  0.5794 -1.0228
14628TIP3   OH243828   3.092   1.898   2.215  0.3818 -0.5135 -0.2558
14628TIP3    H143829   3.087   1.991   2.238 -2.8952 -0.1093 -1.9801
14628TIP3    H243830   3.168   1.892   2.157 -0.1946  1.4406 -1.3127
14629TIP3   OH243831   1.807   6.485   5.527 -0.7144 -0.1910 -0.1312
14629TIP3    H143832   1.727   6.432   5.533 -0.6093 -0.2235  1.5600
14629TIP3    H243833   1.782   6.562   5.476 -1.6994 -0.4368 -0.0350
14630TIP3   OH243834   8.006   2.263   3.446  0.1156 -0.1034 -0.2271
14630TIP3    H143835   7.933   2.294   3.392  0.5918  2.1445  0.3068
14630TIP3    H243836   8.082   2.265   3.387  0.0640 -0.7818 -0.3229
14631TIP3   OH243837   3.887   1.481   1.802  0.7006  0.2061  0.6068
14631TIP3    H143838   3.850   1.554   1.752 -0.7551 -0.9985 -0.1468
14631TIP3    H243839   3.943   1.523   1.868 -0.6504  2.0416  0.6502
14632TIP3   OH243840   0.486   3.666   2.742 -0.7298  0.1425  0.1151
14632TIP3    H143841   0.399   3.679   2.779 -0.8118  0.6365 -0.2468
14632TIP3    H243842   0.476   3.685   2.649 -0.1488  0.6129  0.1431
14633TIP3   OH243843   7.345   3.564   4.203 -0.0777 -0.2593 -0.1872
14633TIP3    H143844   7.441   3.562   4.214 -0.2862  1.4992  3.2042
14633TIP3    H243845   7.311   3.533   4.287 -2.4426  2.0829 -0.1670
14634TIP3   OH243846   6.494   1.592   1.048 -0.0555 -0.5136 -0.2317
14634TIP3    H143847   6.499   1.551   0.961 -0.7429  1.0167 -1.0406
14634TIP3    H243848   6.580   1.632   1.060 -0.5164  0.7977 -1.0467
14635TIP3   OH243849   0.720   2.221   1.208  0.2163  0.0784  0.2888
14635TIP3    H143850   0.677   2.234   1.292  2.2978 -0.6854  1.5697
14635TIP3    H243851   0.649   2.222   1.143 -1.4279  0.8329  2.0177
14636TIP3   OH243852   2.772   2.893   5.928 -0.0807  0.4283  0.0229
14636TIP3    H143853   2.802   2.831   5.995 -1.0569 -1.4395 -1.1639
14636TIP3    H243854   2.700   2.847   5.884 -1.1965  2.6634 -0.5901
14637TIP3   OH243855   1.367   2.890   3.289  0.0740 -0.2052 -0.1539
14637TIP3    H143856   1.429   2.925   3.225  0.8888 -1.7078 -0.2426
14637TIP3    H243857   1.316   2.825   3.240 -1.6118  0.9981 -0.0775
14638TIP3   OH243858   0.750   0.847   2.377  0.3068 -0.3590 -0.2648
14638TIP3    H143859   0.658   0.851   2.401  0.8740 -0.4411  2.1438
14638TIP3    H243860   0.753   0.784   2.305 -1.6909  0.9790 -1.6523
14639TIP3   OH243861   3.789   5.251   5.500  0.1872 -0.4572 -0.2904
14639TIP3    H143862   3.716   5.190   5.514  0.6938 -1.4534 -1.7607
14639TIP3    H243863   3.847   5.235   5.574 -0.6077 -0.3719  0.3678
14640TIP3   OH243864   0.836   0.587   5.294 -0.0946  0.0212 -0.4032
14640TIP3    H143865   0.744   0.614   5.301 -0.5450 -1.1286 -1.5359
14640TIP3    H243866   0.874   0.646   5.229  0.5289  1.7883  1.4650
14641TIP3   OH243867   1.029   0.586   3.469  0.0509 -0.1441  0.1667
14641TIP3    H143868   1.058   0.570   3.379 -0.6211 -0.3333 -0.0252
14641TIP3    H243869   1.082   0.660   3.499  1.9202 -1.5172  0.4219
14642TIP3   OH243870   0.935   3.772   3.986  0.1849 -0.0465 -0.0118
14642TIP3    H143871   0.856   3.742   3.941  0.0219 -0.3345  0.4607
14642TIP3    H243872   1.007   3.740   3.931 -0.0174 -0.2620 -0.1504
14643TIP3   OH243873   5.770   1.772   1.653 -0.5685 -0.2030 -0.0125
14643TIP3    H143874   5.816   1.689   1.667  1.7948  1.0267  0.0681
14643TIP3    H243875   5.820   1.836   1.705 -2.5692  1.2192  0.2783
14644TIP3   OH243876   0.182   2.626   0.443  0.0477 -0.9686 -0.3032
14644TIP3    H143877   0.222   2.647   0.358  0.2288  0.0038  0.0093
14644TIP3    H243878   0.243   2.564   0.483  0.5493 -0.5473 -0.4020
14645TIP3   OH243879   8.199   4.542   5.484  0.5777 -0.3546  0.1012
14645TIP3    H143880   8.138   4.511   5.550 -0.7915  1.0410 -0.4516
14645TIP3    H243881   8.187   4.482   5.410  1.1298 -1.0978  0.6011
14646TIP3   OH243882   3.377   3.929   4.332 -0.1287 -0.2352 -0.4985
14646TIP3    H143883   3.431   3.936   4.253 -1.6885  1.8749 -1.4598
14646TIP3    H243884   3.393   4.011   4.379 -0.3983 -0.8058  0.6150
14647TIP3   OH243885   6.412   2.405   5.652 -0.3961  0.1856 -0.2099
14647TIP3    H143886   6.390   2.322   5.611 -1.9669  0.0818  0.7354
14647TIP3    H243887   6.502   2.422   5.626 -0.5386 -1.0574 -1.6459
14648TIP3   OH243888   2.245   6.710   4.995  0.2735  0.2885  0.5754
14648TIP3    H143889   2.252   6.616   5.008 -1.6648 -0.2179 -1.4827
14648TIP3    H243890   2.185   6.739   5.064  0.4042 -0.0564  0.8368
14649TIP3   OH243891   0.289   2.442   2.070 -0.4916 -0.4967 -0.2822
14649TIP3    H143892   0.343   2.428   1.992  0.7650  0.9226  0.2862
14649TIP3    H243893   0.339   2.504   2.123 -1.3020 -1.4507  1.6918
14650TIP3   OH243894   4.795   7.289   0.857  0.5904 -0.2273 -0.4404
14650TIP3    H143895   4.889   7.268   0.864  0.7092  0.7884  3.0903
14650TIP3    H243896   4.751   7.205   0.865  1.1224 -0.7929 -2.7616
14651TIP3   OH243897   7.520   2.959   1.220 -0.2362  0.2257 -0.0594
14651TIP3    H143898   7.541   3.040   1.266 -0.7247 -1.0243  2.5941
14651TIP3    H243899   7.584   2.953   1.150  0.7187  2.1824  0.5796
14652TIP3   OH243900   4.224   3.219   0.647  0.3888  0.1673  0.3295
14652TIP3    H143901   4.132   3.213   0.674  0.2418 -1.4444 -0.4153
14652TIP3    H243902   4.250   3.128   0.629  2.3654  0.4783  1.2802
14653TIP3   OH243903   7.698   3.891   0.346  0.4638  0.0207 -0.1781
14653TIP3    H143904   7.672   3.978   0.316  0.5313 -0.1038 -0.5904
14653TIP3    H243905   7.706   3.901   0.441  1.1511  0.6422 -0.2870
14654TIP3   OH243906   3.888   1.222   1.688 -0.7062  0.2263  0.3239
14654TIP3    H143907   3.911   1.314   1.705  1.2310  0.1691 -1.5336
14654TIP3    H243908   3.972   1.179   1.671 -1.6680 -1.6743  0.0927
14655TIP3   OH243909   5.676   2.025   4.555 -0.1401 -0.5142  0.0623
14655TIP3    H143910   5.584   2.036   4.532 -0.2311 -0.7681  0.3018
14655TIP3    H243911   5.675   1.977   4.638  0.2192 -0.9927 -0.2074
14656TIP3   OH243912   1.707   5.313   5.642  0.6000 -0.3046 -0.4502
14656TIP3    H143913   1.655   5.385   5.676  0.9872  0.0558 -0.6175
14656TIP3    H243914   1.647   5.238   5.641  0.3485 -0.1172  0.2231
14657TIP3   OH243915   5.999   6.447   1.732  0.0559  0.5163  0.0520
14657TIP3    H143916   5.929   6.411   1.678 -0.0811  1.9891 -0.7909
14657TIP3    H243917   5.971   6.429   1.822 -0.9708  0.3253 -0.2948
14658TIP3   OH243918   1.255   0.185   0.877 -0.2865  0.5837 -0.2513
14658TIP3    H143919   1.227   0.273   0.854  0.4171  0.6781 -0.7669
14658TIP3    H243920   1.256   0.137   0.795 -1.9652 -0.3075  0.1959
14659TIP3   OH243921   5.836   3.568   4.032 -0.3038  0.0891  0.3935
14659TIP3    H143922   5.749   3.548   3.997  0.0128 -2.5857  0.8902
14659TIP3    H243923   5.827   3.563   4.127  0.1396  1.0701  0.4999
14660TIP3   OH243924   7.524   3.323   4.720  0.2880  0.1988  0.3759
14660TIP3    H143925   7.527   3.396   4.781 -0.4287 -0.1395  0.8336
14660TIP3    H243926   7.555   3.248   4.771  0.2601  0.0319  0.1487
14661TIP3   OH243927   4.808   2.991   4.783 -0.3075  0.5486  0.0667
14661TIP3    H143928   4.776   3.068   4.736 -0.3228 -0.8389 -2.3624
14661TIP3    H243929   4.731   2.958   4.830 -0.4323  1.6564  0.6690
14662TIP3   OH243930   7.892   2.948   2.035 -0.1374  0.0036 -0.1195
14662TIP3    H143931   7.815   2.932   1.981  0.4530 -0.6845 -0.7738
14662TIP3    H243932   7.917   3.038   2.017 -1.8867  0.8904  1.5290
14663TIP3   OH243933   5.006   3.908   3.544 -0.2554 -0.0034 -0.0400
14663TIP3    H143934   4.955   3.872   3.471 -0.7319 -0.2721  0.4219
14663TIP3    H243935   5.032   3.995   3.514  0.0596 -0.3374 -0.7701
14664TIP3   OH243936   5.894   7.674   4.585 -0.5333 -0.1198  0.1190
14664TIP3    H143937   5.891   7.669   4.681 -0.9776  0.7207  0.1563
14664TIP3    H243938   5.961   7.610   4.560 -1.0089 -0.9689  0.9339
14665TIP3   OH243939   5.674   6.778   2.825 -0.8225  0.2974 -0.5029
14665TIP3    H143940   5.745   6.838   2.850  0.2878 -0.9742 -0.4661
14665TIP3    H243941   5.603   6.798   2.886 -0.0723  0.8317  0.2254
14666TIP3   OH243942   2.862   0.412   1.926 -0.7402  0.3028 -0.1719
14666TIP3    H143943   2.820   0.341   1.878  0.4650 -0.8893  0.4976
14666TIP3    H243944   2.918   0.369   1.990 -0.7517  1.8589  0.9466
14667TIP3   OH243945   8.178   6.427   2.155 -0.0874 -0.0320 -0.0834
14667TIP3    H143946   8.188   6.476   2.073  0.5744 -0.2981 -0.1724
14667TIP3    H243947   8.135   6.346   2.129 -1.0540  0.4285  0.0418
14668TIP3   OH243948   5.070   4.733   0.678 -0.5912 -0.2990 -0.2916
14668TIP3    H143949   5.088   4.654   0.728 -2.1409 -0.7015 -0.3220
14668TIP3    H243950   5.082   4.804   0.742  0.0801 -0.6005 -0.0720
14669TIP3   OH243951   6.682   4.356   4.670 -0.0300 -0.0014 -0.3103
14669TIP3    H143952   6.709   4.383   4.582  0.1864  1.3416  0.1505
14669TIP3    H243953   6.678   4.261   4.666 -1.1615  0.0828 -2.1043
14670TIP3   OH243954   5.760   3.569   1.709 -0.1807 -0.0126  0.0168
14670TIP3    H143955   5.711   3.559   1.628  1.5070 -1.4988 -0.8661
14670TIP3    H243956   5.721   3.505   1.769 -1.1182  0.7672  0.2854
14671TIP3   OH243957   4.291   7.170   3.012  0.6326 -0.3703 -0.1641
14671TIP3    H143958   4.321   7.099   2.956  0.5511 -0.1643 -0.4675
14671TIP3    H243959   4.264   7.239   2.952 -0.9131 -0.7293  0.0712
14672TIP3   OH243960   5.515   7.730   5.223 -0.0150  0.2916  0.7853
14672TIP3    H143961   5.537   7.637   5.224 -1.4292 -0.0620  2.2253
14672TIP3    H243962   5.528   7.756   5.131 -0.1985 -1.4632  0.2197
14673TIP3   OH243963   1.244   2.782   4.790  0.1338  0.2204 -0.4136
14673TIP3    H143964   1.227   2.776   4.884 -1.3095 -0.0366 -0.6743
14673TIP3    H243965   1.210   2.867   4.764 -4.3830 -1.6766 -1.5795
14674TIP3   OH243966   3.177   0.645   4.869  0.4796  0.6827 -0.4684
14674TIP3    H143967   3.196   0.737   4.849 -0.1391  0.5799 -1.6556
14674TIP3    H243968   3.258   0.599   4.847  0.6827  0.9039 -0.1896
14675TIP3   OH243969   7.552   1.847   3.207  0.8582 -0.2191 -0.4429
14675TIP3    H143970   7.483   1.799   3.162  0.7881  0.9349 -1.5987
14675TIP3    H243971   7.591   1.782   3.266 -1.4869 -0.7832  0.6115
14676TIP3   OH243972   0.925   3.382   2.309 -0.3199 -0.0065 -0.1733
14676TIP3    H143973   0.891   3.471   2.322 -0.2854  0.2048 -1.4250
14676TIP3    H243974   0.920   3.368   2.214  1.2993 -0.6788 -0.1853
14677TIP3   OH243975   3.738   4.609   2.130 -0.4271 -0.6473  0.0006
14677TIP3    H143976   3.775   4.697   2.125 -1.2105 -0.3374 -0.6040
14677TIP3    H243977   3.792   4.564   2.195  1.3898 -0.4266 -1.2808
14678TIP3   OH243978   0.352   3.533   5.286 -0.2018  0.0644  0.0420
14678TIP3    H143979   0.371   3.594   5.357  2.0680  1.3455 -1.5520
14678TIP3    H243980   0.338   3.449   5.330  0.2332  0.9738  2.0477
14679TIP3   OH243981   2.653   6.216   3.225 -0.4728 -0.6249 -0.3540
14679TIP3    H143982   2.717   6.199   3.294 -0.1018 -4.0629 -1.3624
14679TIP3    H243983   2.572   6.177   3.257 -0.7164 -0.8245 -1.2033
14680TIP3   OH243984   4.706   3.264   6.079 -0.6998 -0.2161  0.2575
14680TIP3    H143985   4.790   3.257   6.125 -0.3513  0.4774 -0.2579
14680TIP3    H243986   4.730   3.269   5.987 -1.3082  0.0350  0.1117
14681TIP3   OH243987   3.630   4.754   3.931  0.5995 -0.5948  0.3300
14681TIP3    H143988   3.622   4.783   4.022  1.2611  1.0969 -0.1001
14681TIP3    H243989   3.642   4.835   3.881  0.4600 -1.4962 -1.2461
14682TIP3   OH243990   8.265   3.845   5.269  0.0521 -0.5789 -0.0802
14682TIP3    H143991   8.264   3.872   5.361 -0.1534 -3.2596  0.7953
14682TIP3    H243992   8.332   3.777   5.265 -0.9243 -1.5029 -1.5944
14683TIP3   OH243993   3.470   1.813   6.728  0.4824  0.2511  0.5821
14683TIP3    H143994   3.506   1.902   6.733  2.0882 -0.3024 -0.2842
14683TIP3    H243995   3.458   1.798   6.634 -1.5727  0.1928  0.8085
14684TIP3   OH243996   6.382   3.473   0.977 -0.1005 -0.3894 -0.0847
14684TIP3    H143997   6.412   3.452   1.066 -2.3133  1.0415  1.0966
14684TIP3    H243998   6.314   3.408   0.959 -0.5835  0.1316 -0.1628
14685TIP3   OH243999   5.128   6.522   3.424  0.1589  0.7812 -0.8732
14685TIP3    H144000   5.112   6.607   3.465  1.6219  0.4429  0.4753
14685TIP3    H244001   5.050   6.470   3.446  0.8142  0.6735  1.3782
14686TIP3   OH244002   0.785   5.610   6.003  0.0989  0.2855  0.2017
14686TIP3    H144003   0.808   5.537   5.946  1.6726  0.7101  0.2423
14686TIP3    H244004   0.744   5.674   5.945 -1.5831 -0.7325  0.2235
14687TIP3   OH244005   4.927   7.697   2.934 -0.6058 -0.5811 -0.0545
14687TIP3    H144006   4.947   7.619   2.881 -1.7355 -0.7570 -0.2534
14687TIP3    H244007   4.880   7.755   2.874  0.8199  0.5736 -0.0975
14688TIP3   OH244008   5.845   5.922   4.893 -0.2771 -0.1539  0.6776
14688TIP3    H144009   5.751   5.914   4.878 -0.1247  0.2349 -0.6879
14688TIP3    H244010   5.883   5.843   4.854  0.0351  0.2091  0.2297
14689TIP3   OH244011   7.565   7.783   4.477 -0.2847 -0.6416 -0.1086
14689TIP3    H144012   7.638   7.759   4.419  0.9170 -0.1495  1.1367
14689TIP3    H244013   7.581   7.733   4.557 -0.5566  0.4856  0.6713
14690TIP3   OH244014   7.984   2.848   0.632  0.2166 -0.2289 -0.2200
14690TIP3    H144015   7.943   2.831   0.716 -0.8216  0.0642 -0.6576
14690TIP3    H244016   7.976   2.766   0.583 -2.8515  0.6975 -1.5192
14691TIP3   OH244017   2.713   0.521   1.149  0.1745  0.4691  0.1633
14691TIP3    H144018   2.789   0.473   1.182 -0.1101  0.5428  0.9635
14691TIP3    H244019   2.706   0.598   1.207  1.3646  2.1743 -1.8477
14692TIP3   OH244020   3.514   1.046   6.645 -0.3928 -0.2488 -0.2790
14692TIP3    H144021   3.508   0.968   6.699 -0.2109  0.9438  1.5577
14692TIP3    H244022   3.554   1.016   6.564 -0.0844 -1.9988  0.4751
14693TIP3   OH244023   4.389   7.290   2.146 -0.1668  0.7291  0.5126
14693TIP3    H144024   4.454   7.325   2.085  0.1183 -0.3388  0.1943
14693TIP3    H244025   4.434   7.286   2.230  0.2581 -0.1895  0.2536
14694TIP3   OH244026   0.314   5.147   2.823 -0.1652 -0.3997  0.4176
14694TIP3    H144027   0.276   5.076   2.875  0.8365  0.2174  2.0697
14694TIP3    H244028   0.398   5.111   2.793  1.2524  0.6117  2.8399
14695TIP3   OH244029   3.274   6.745   3.569  0.6327 -0.1727  0.3119
14695TIP3    H144030   3.282   6.702   3.655 -0.3112 -1.1288 -0.0547
14695TIP3    H244031   3.276   6.839   3.589  0.4083 -0.3790  1.3739
14696TIP3   OH244032   1.778   5.984   5.534  0.5140  0.4734 -0.1551
14696TIP3    H144033   1.761   6.029   5.451  0.5366 -0.1585 -0.5035
14696TIP3    H244034   1.868   6.008   5.556  0.6258  0.3653 -0.4903
14697TIP3   OH244035   0.907   4.831   1.390 -0.6012 -0.5251 -0.3961
14697TIP3    H144036   0.959   4.751   1.393 -1.1113 -0.8282  1.1228
14697TIP3    H244037   0.917   4.869   1.477 -3.2811 -0.8561  0.1430
14698TIP3   OH244038   2.404   7.532   3.545  0.4184  0.5527 -0.6154
14698TIP3    H144039   2.396   7.487   3.629  1.2656  0.9476 -0.3157
14698TIP3    H244040   2.418   7.462   3.482 -1.0516  0.1770 -0.5768
14699TIP3   OH244041   6.751   7.206   6.568  0.0803  0.3628 -0.7115
14699TIP3    H144042   6.662   7.220   6.599  0.2343  0.9977 -0.5324
14699TIP3    H244043   6.791   7.149   6.634  0.1863  1.1141 -0.1104
14700TIP3   OH244044   0.082   3.805   0.781  0.1731 -0.5070 -0.2450
14700TIP3    H144045   0.060   3.857   0.859  2.2690 -0.6455  0.5000
14700TIP3    H244046   0.067   3.865   0.708  0.2468  0.3746  0.4321
14701TIP3   OH244047   2.406   1.993   4.784  0.8378 -0.0698 -0.0317
14701TIP3    H144048   2.435   1.956   4.701  0.3368 -0.0482 -0.2223
14701TIP3    H244049   2.312   1.974   4.787  1.2015 -1.8809  1.4676
14702TIP3   OH244050   2.073   2.884   0.839  0.0065 -0.0844 -0.0233
14702TIP3    H144051   2.041   2.865   0.751 -1.4838  1.0200  0.2340
14702TIP3    H244052   2.167   2.864   0.836 -0.2844 -1.3705 -1.4523
14703TIP3   OH244053   3.111   0.000   6.241 -0.3158 -0.1244 -0.3344
14703TIP3    H144054   3.163   0.075   6.268 -2.1107  1.3120 -0.6637
14703TIP3    H244055   3.116  -0.061   6.315  0.3017  0.7883  0.3945
14704TIP3   OH244056   6.807   6.382   4.354 -0.0973 -0.2153 -0.2824
14704TIP3    H144057   6.799   6.430   4.436 -1.8327 -1.2864  0.2285
14704TIP3    H244058   6.746   6.425   4.294 -2.0312 -1.9392  0.3222
14705TIP3   OH244059   5.800   1.439   4.265 -0.0717  0.3935  0.1756
14705TIP3    H144060   5.707   1.424   4.284 -0.2723  1.2976 -0.0158
14705TIP3    H244061   5.820   1.377   4.195 -0.8283  0.9155 -0.5311
14706TIP3   OH244062   1.772   5.138   0.355 -0.1929  0.3361 -0.0487
14706TIP3    H144063   1.752   5.100   0.440  0.5608  0.2899  0.1120
14706TIP3    H244064   1.840   5.202   0.372  1.1079 -0.7734 -0.8182
14707TIP3   OH244065   6.537   2.568   4.490  0.1309  0.2259  0.2228
14707TIP3    H144066   6.586   2.527   4.419  0.4908 -0.4621  0.8595
14707TIP3    H244067   6.602   2.583   4.558 -0.3337  0.3088  0.6513
14708TIP3   OH244068   5.029   1.902   5.620  0.2097  0.4060 -0.2321
14708TIP3    H144069   4.960   1.892   5.554  0.2530 -0.9206 -0.1052
14708TIP3    H244070   5.100   1.946   5.574  0.3066 -0.6611 -1.1389
14709TIP3   OH244071   6.350   6.525   6.455  0.1140  0.1608 -0.3380
14709TIP3    H144072   6.371   6.444   6.408  0.6475  0.6280 -0.9194
14709TIP3    H244073   6.291   6.572   6.396  1.5291  1.1831 -1.0028
14710TIP3   OH244074   6.941   7.036   3.297  0.0011 -0.1452 -0.0204
14710TIP3    H144075   6.978   6.975   3.361 -0.9369 -1.7238 -0.9047
14710TIP3    H244076   7.005   7.038   3.226 -0.2205 -0.5729 -0.2397
14711TIP3   OH244077   7.747   5.820   2.888  0.1138  0.2494  0.2499
14711TIP3    H144078   7.788   5.838   2.803  0.0826  0.6709  0.3237
14711TIP3    H244079   7.687   5.747   2.871  1.9910 -1.4302  0.4543
14712TIP3   OH244080   4.970   1.343   2.381 -0.1169 -1.2230  0.0177
14712TIP3    H144081   4.982   1.437   2.369  1.7497 -1.2793  0.9500
14712TIP3    H244082   4.992   1.328   2.474 -0.1705 -2.5838 -0.1706
14713TIP3   OH244083   6.329   6.363   6.726 -0.4703  0.2629 -0.0139
14713TIP3    H144084   6.322   6.344   6.633  0.6888  2.8357 -0.7023
14713TIP3    H244085   6.244   6.402   6.749 -0.4082  0.5273 -0.2289
14714TIP3   OH244086   3.584   6.560   0.241  0.1399  0.6242  0.6573
14714TIP3    H144087   3.589   6.619   0.165 -1.2005  0.9166  0.7692
14714TIP3    H244088   3.663   6.579   0.291  1.8357 -0.6198 -1.3718
14715TIP3   OH244089   2.222   4.619   3.875  0.2847  0.5296  0.2946
14715TIP3    H144090   2.227   4.590   3.784 -1.0525  1.1654  0.0051
14715TIP3    H244091   2.241   4.540   3.926 -0.5786 -0.2216 -0.5169
14716TIP3   OH244092   4.709   1.596   2.152  0.1912  0.1040 -0.2600
14716TIP3    H144093   4.794   1.628   2.183  0.9921 -0.5936 -1.6543
14716TIP3    H244094   4.710   1.502   2.172 -1.1685  0.4354  1.6517
14717TIP3   OH244095   6.391   1.847   0.841  0.3133  0.4758  0.2281
14717TIP3    H144096   6.302   1.870   0.815 -0.6808 -1.5459  1.5785
14717TIP3    H244097   6.423   1.793   0.769 -0.1927 -0.1361  0.4454
14718TIP3   OH244098   4.930   4.843   1.756  0.4522  0.1960  0.4690
14718TIP3    H144099   4.906   4.782   1.825  0.5597  1.9641  2.1646
14718TIP3    H244100   4.960   4.921   1.802  0.2793  1.5635 -1.5848
14719TIP3   OH244101   0.060   4.643   0.941  0.2115 -0.1768 -0.0805
14719TIP3    H144102   0.065   4.570   1.004  0.2570  0.7101  0.9761
14719TIP3    H244103  -0.018   4.624   0.889 -0.0438 -0.7439  0.4907
14720TIP3   OH244104   3.501   1.422   2.087 -0.3559 -0.2818  0.4341
14720TIP3    H144105   3.532   1.441   2.176 -3.2647  2.2934  1.0520
14720TIP3    H244106   3.427   1.363   2.098 -0.9245  0.2833 -0.2592
14721TIP3   OH244107   3.047   5.883   6.736 -0.2764 -0.3073 -0.0156
14721TIP3    H144108   3.064   5.791   6.756  0.0983 -0.0568  0.8641
14721TIP3    H244109   3.135   5.923   6.731 -0.3455 -0.2941 -1.9445
14722TIP3   OH244110   1.550   3.973   6.654 -0.0720  0.1164  0.2076
14722TIP3    H144111   1.475   3.921   6.627 -0.6669  0.6873  0.7291
14722TIP3    H244112   1.578   4.018   6.573 -2.7079  2.9240  0.6376
14723TIP3   OH244113   6.520   1.777   3.827 -0.6076  0.0138  0.0817
14723TIP3    H144114   6.578   1.760   3.753 -0.0398  0.4977  0.4091
14723TIP3    H244115   6.489   1.867   3.813 -1.8367 -0.4753 -0.4592
14724TIP3   OH244116   2.546   4.357   4.153 -1.0413  0.3673 -0.3631
14724TIP3    H144117   2.461   4.391   4.124 -1.3240  0.1510  0.2079
14724TIP3    H244118   2.525   4.300   4.227 -0.2487  1.5333  0.7934
14725TIP3   OH244119   0.707   2.619   0.514 -0.2035 -0.6948 -0.2547
14725TIP3    H144120   0.631   2.677   0.508  0.3424  0.0253 -0.3324
14725TIP3    H244121   0.680   2.550   0.575 -0.5369  0.1553  0.5825
14726TIP3   OH244122   4.644   5.039   5.264 -0.2024  0.2914 -1.1921
14726TIP3    H144123   4.737   5.064   5.264 -0.3725  0.9508 -1.4277
14726TIP3    H244124   4.602   5.108   5.315 -0.6240  0.2183 -1.4415
14727TIP3   OH244125   5.825   2.445   3.972  0.2245  0.1524  0.5234
14727TIP3    H144126   5.890   2.470   4.038  0.3888  0.8044  0.1313
14727TIP3    H244127   5.843   2.504   3.899 -1.1419  0.6837  0.6001
14728TIP3   OH244128   8.139   5.641   4.337  0.6496  1.1789  0.0983
14728TIP3    H144129   8.165   5.725   4.377 -1.5422  1.3324  1.3718
14728TIP3    H244130   8.180   5.575   4.393 -0.9385  1.4178  1.6209
14729TIP3   OH244131   2.666   4.144   6.219  0.4593  0.4812 -0.1324
14729TIP3    H144132   2.596   4.116   6.160  0.2403  2.0101 -0.6365
14729TIP3    H244133   2.713   4.063   6.240 -1.1264 -0.4995 -0.1885
14730TIP3   OH244134   3.985   4.135   1.210  0.4344  0.5414  0.6691
14730TIP3    H144135   4.072   4.158   1.180  0.8439  1.2818  2.3185
14730TIP3    H244136   3.998   4.059   1.268 -0.1071  0.2045  0.3635
14731TIP3   OH244137   3.383   1.018   5.923  0.0323 -0.1758  0.2542
14731TIP3    H144138   3.376   0.980   6.011 -0.1978  0.6641  0.6071
14731TIP3    H244139   3.465   0.984   5.889  0.4057 -0.0697  1.0151
14732TIP3   OH244140   4.966   1.795   6.208  0.4822 -0.5489 -0.0350
14732TIP3    H144141   4.931   1.850   6.278  0.1195  0.3569 -0.8974
14732TIP3    H244142   4.954   1.705   6.238  0.8648 -0.1684  1.3049
14733TIP3   OH244143   4.448   5.125   6.095 -0.4281  0.4917 -0.0610
14733TIP3    H144144   4.369   5.163   6.056  0.4638  1.6538 -0.8343
14733TIP3    H244145   4.425   5.109   6.186 -1.8890 -0.2107 -0.5334
14734TIP3   OH244146   4.338   7.605   0.108 -0.0729  0.3821 -0.1487
14734TIP3    H144147   4.326   7.699   0.119 -0.3395  0.2483  0.8285
14734TIP3    H244148   4.272   7.566   0.166  0.2271 -0.4014 -0.3267
14735TIP3   OH244149   2.114   4.227   5.511  0.6596  0.1307 -0.2958
14735TIP3    H144150   2.071   4.182   5.439 -1.2372  2.2965 -0.6194
14735TIP3    H244151   2.164   4.158   5.556  1.0579 -1.4706 -2.9845
14736TIP3   OH244152   1.825   2.319   5.975  0.0133 -0.2347 -0.2099
14736TIP3    H144153   1.744   2.329   5.925  0.0932  1.5074 -0.0531
14736TIP3    H244154   1.884   2.386   5.940  1.2347 -1.1765 -0.0095
14737TIP3   OH244155   6.750   3.430   3.298 -0.0166  0.0164  0.5143
14737TIP3    H144156   6.842   3.405   3.298  0.0245 -0.0612  2.6588
14737TIP3    H244157   6.715   3.395   3.216  1.7084 -0.5156 -0.0284
14738TIP3   OH244158   1.818   3.588   5.542 -0.4888 -0.3238 -0.5016
14738TIP3    H144159   1.760   3.657   5.575 -0.3303 -0.1878 -0.5083
14738TIP3    H244160   1.798   3.512   5.597  1.2464  0.4555  1.3174
14739TIP3   OH244161   4.467   4.330   5.487  0.6240  0.3653  0.4091
14739TIP3    H144162   4.419   4.257   5.447  1.3676 -0.0180  0.1896
14739TIP3    H244163   4.415   4.407   5.467 -1.2871 -0.2878  2.3512
14740TIP3   OH244164   6.066   5.303   4.063 -0.3498  0.0934  0.2418
14740TIP3    H144165   6.082   5.209   4.061  0.2914  0.1164  2.2796
14740TIP3    H244166   5.971   5.311   4.066 -0.4411 -0.4326 -0.7117
14741TIP3   OH244167   6.159   7.464   5.347  0.5101 -0.1950 -0.4445
14741TIP3    H144168   6.116   7.426   5.424  1.1297 -0.8513 -0.4058
14741TIP3    H244169   6.088   7.495   5.292  0.0183 -0.6189 -0.0575
14742TIP3   OH244170   8.073   4.988   4.277  0.2213 -0.2021  0.1942
14742TIP3    H144171   8.152   5.043   4.280 -0.7070  1.1939  0.1630
14742TIP3    H244172   8.044   4.993   4.186 -0.3241 -0.0709  0.3692
14743TIP3   OH244173   6.735   1.733   1.068 -0.1657 -0.0324 -0.0897
14743TIP3    H144174   6.748   1.792   1.142  1.3941  0.4895 -0.7379
14743TIP3    H244175   6.822   1.696   1.051 -1.1750 -3.1398  0.7770
14744TIP3   OH244176   6.057   1.520   0.817 -0.2074  0.0953  0.4462
14744TIP3    H144177   5.983   1.561   0.772 -1.6482 -2.8908 -0.1762
14744TIP3    H244178   6.024   1.501   0.905  0.2502 -0.1622  0.5669
14745TIP3   OH244179   5.881   1.954   4.404 -0.0069 -0.0412 -0.2691
14745TIP3    H144180   5.839   1.870   4.387  0.3582 -0.1922 -0.4113
14745TIP3    H244181   5.831   1.991   4.477 -0.4620 -0.1713 -0.5125
14746TIP3   OH244182   7.497   4.717   5.440 -0.3627 -0.1106  0.5574
14746TIP3    H144183   7.449   4.664   5.503 -3.0860 -0.6174 -1.7403
14746TIP3    H244184   7.577   4.666   5.423 -0.7400 -1.1743  1.7488
14747TIP3   OH244185   7.644   1.421   4.083  0.2327 -0.8108  0.6979
14747TIP3    H144186   7.639   1.511   4.114  1.0071 -0.9934  1.4021
14747TIP3    H244187   7.560   1.406   4.039  0.4060  0.4834 -0.1165
14748TIP3   OH244188   3.906   4.272   2.652 -0.5376  0.0418 -0.3098
14748TIP3    H144189   3.918   4.357   2.694  2.8657 -0.1680 -0.5983
14748TIP3    H244190   3.898   4.292   2.559  0.7611  0.0341 -0.4283
14749TIP3   OH244191   0.950   6.178   4.973  0.0376  0.5069 -0.2067
14749TIP3    H144192   0.894   6.229   4.915  0.0035 -0.8634 -1.4463
14749TIP3    H244193   0.958   6.231   5.052 -1.9466  1.3243 -0.4955
14750TIP3   OH244194   4.991   6.771   3.552 -0.0209 -0.0785 -0.1569
14750TIP3    H144195   4.978   6.710   3.625  0.8448 -1.1020 -0.8418
14750TIP3    H244196   5.073   6.815   3.573 -0.7513  1.0502  0.4474
14751TIP3   OH244197   5.932   1.088   4.627  0.6461 -0.6962 -0.4801
14751TIP3    H144198   5.849   1.041   4.626  0.1126 -0.0308  2.8802
14751TIP3    H244199   5.912   1.171   4.584 -0.0753 -1.0352 -0.8244
14752TIP3   OH244200   5.618   3.983   3.478  0.1983  0.5853 -0.4781
14752TIP3    H144201   5.659   3.898   3.458  1.0534  1.0658 -0.8252
14752TIP3    H244202   5.684   4.030   3.528 -1.1061  0.2320  1.7151
14753TIP3   OH244203   6.320   0.139   0.778 -0.1733 -0.5437 -0.5414
14753TIP3    H144204   6.227   0.148   0.756 -0.1535  0.2507 -0.3190
14753TIP3    H244205   6.340   0.216   0.831  0.7441 -0.4255 -1.0329
14754TIP3   OH244206   3.080   1.066   4.756 -0.7244  0.3479 -0.3928
14754TIP3    H144207   3.164   1.059   4.711 -0.8038 -2.5177 -0.2809
14754TIP3    H244208   3.093   1.133   4.823  0.8304  1.3427 -1.6230
14755TIP3   OH244209   7.083   5.045   4.516  0.2709  0.0197 -0.0711
14755TIP3    H144210   7.014   4.987   4.486  2.5509 -1.6819 -2.5043
14755TIP3    H244211   7.085   5.116   4.451  0.0074  0.7533  0.7071
14756TIP3   OH244212   1.496   3.103   4.652  0.6420 -0.2938 -0.2060
14756TIP3    H144213   1.418   3.158   4.663  0.0081 -0.8658 -1.5656
14756TIP3    H244214   1.543   3.110   4.735  0.1604  1.6382 -0.0565
14757TIP3   OH244215   0.022   4.130   6.557 -0.0983 -0.3107  0.4541
14757TIP3    H144216   0.034   4.044   6.598  2.4845  0.4675  1.4881
14757TIP3    H244217   0.009   4.190   6.629 -0.3048  0.4034 -0.1669
14758TIP3   OH244218   2.194   4.653   0.718 -0.2566  0.9093  0.0898
14758TIP3    H144219   2.249   4.652   0.796 -1.4128  1.3550  0.9437
14758TIP3    H244220   2.108   4.622   0.747  0.5153 -4.3316 -2.1175
14759TIP3   OH244221   6.147   0.343   2.082  0.5867 -0.6198  0.0066
14759TIP3    H144222   6.126   0.250   2.078  0.0182 -0.4781 -0.4347
14759TIP3    H244223   6.213   0.355   2.013  1.1605 -0.8104  0.5060
14760TIP3   OH244224   0.578   6.644   1.289 -0.1734 -0.3703 -0.1154
14760TIP3    H144225   0.625   6.693   1.221  1.1177 -1.1061  0.2124
14760TIP3    H244226   0.536   6.572   1.242  0.9355 -1.0309 -0.1308
14761TIP3   OH244227   7.762   6.635   2.315 -0.1695 -0.0598  0.1646
14761TIP3    H144228   7.849   6.594   2.315 -0.2194 -0.1885  1.0883
14761TIP3    H244229   7.706   6.572   2.270  0.2952  0.2190 -0.8252
14762TIP3   OH244230   5.517   7.055   6.051 -0.0136  0.4179 -0.0481
14762TIP3    H144231   5.598   7.105   6.048 -0.5117  1.2355 -0.2808
14762TIP3    H244232   5.538   6.977   6.102  1.3714 -0.2455 -1.5759
14763TIP3   OH244233   4.188   1.900   6.704 -0.5807  0.2050 -0.1975
14763TIP3    H144234   4.131   1.833   6.743  1.0178 -1.6644 -0.8989
14763TIP3    H244235   4.166   1.898   6.610 -0.1879  0.3125 -0.2924
14764TIP3   OH244236   4.044   3.189   5.129  0.5737  0.5782  0.7058
14764TIP3    H144237   4.078   3.108   5.089 -0.6509  0.0532  0.6803
14764TIP3    H244238   4.078   3.259   5.074  2.5741  0.1822  1.3596
14765TIP3   OH244239   2.086   3.237   2.298 -0.0204  0.1630 -0.1621
14765TIP3    H144240   2.155   3.302   2.305  1.1489 -0.9866 -0.6463
14765TIP3    H244241   2.005   3.285   2.317  0.7538  1.8311 -0.9474
14766TIP3   OH244242   1.520   4.307   5.734 -0.2096  0.1224 -0.9437
14766TIP3    H144243   1.462   4.235   5.709  1.1882 -0.9297 -1.2422
14766TIP3    H244244   1.602   4.290   5.689  0.1552  1.9466 -1.0562
14767TIP3   OH244245   8.247   3.454   3.559  0.1772  0.3202  0.3131
14767TIP3    H144246   8.217   3.443   3.469 -0.1223 -0.5310  0.5017
14767TIP3    H244247   8.188   3.398   3.610  0.7270  0.3226  0.9613
14768TIP3   OH244248   4.323   3.078   4.976  0.4027 -0.0368  0.5245
14768TIP3    H144249   4.409   3.117   4.992  0.6031 -0.8020  1.3625
14768TIP3    H244250   4.287   3.128   4.902  1.3646  0.5952  0.4765
14769TIP3   OH244251   6.414   7.162   4.477 -0.2226 -0.1156 -0.4107
14769TIP3    H144252   6.393   7.232   4.539  0.3703  0.6285 -1.0327
14769TIP3    H244253   6.383   7.082   4.520  0.3242  0.3594  0.9247
14770TIP3   OH244254   7.134   5.654   4.489  0.5023 -0.1021 -0.4212
14770TIP3    H144255   7.226   5.664   4.466  0.3416  0.0904 -0.9803
14770TIP3    H244256   7.090   5.634   4.407 -0.0745  0.5909 -0.2938
14771TIP3   OH244257   6.552   4.314   4.326 -0.1636  0.2442 -0.2586
14771TIP3    H144258   6.584   4.375   4.393 -2.3415  0.3504  0.7868
14771TIP3    H244259   6.498   4.252   4.374  0.2706 -1.2573 -1.6119
14772TIP3   OH244260   7.018   1.851   3.711  0.5780  0.3463 -0.1495
14772TIP3    H144261   6.963   1.853   3.789 -0.5884  0.6279 -0.9526
14772TIP3    H244262   6.962   1.883   3.641  0.8874 -1.9300 -1.5549
14773TIP3   OH244263   0.001   3.424   6.599  0.2653  0.7213  0.5079
14773TIP3    H144264  -0.054   3.351   6.569  0.2846  0.7153  0.4886
14773TIP3    H244265   0.090   3.399   6.575  0.2511  0.8328  0.3378
14774TIP3   OH244266   5.986   7.531   1.468 -0.0562 -0.4437 -0.6035
14774TIP3    H144267   5.948   7.534   1.556  0.5700  0.3189 -0.3521
14774TIP3    H244268   5.913   7.506   1.412 -0.6436 -0.1999  0.0292
14775TIP3   OH244269   6.039   4.504   0.639  0.2553 -0.0580  0.5354
14775TIP3    H144270   5.997   4.456   0.567 -0.7365  1.5848 -0.0411
14775TIP3    H244271   5.966   4.536   0.692  0.9766 -1.5832  2.5811
14776TIP3   OH244272   2.971   3.713   0.699 -0.5187  0.6021 -0.0840
14776TIP3    H144273   2.891   3.661   0.712  0.2604 -0.6091 -0.0337
14776TIP3    H244274   2.971   3.774   0.773 -0.8594 -0.0912  0.4991
14777TIP3   OH244275   2.216   3.955   5.582  0.3567  0.3346 -0.1639
14777TIP3    H144276   2.233   3.887   5.517 -0.5339  0.2606 -0.3314
14777TIP3    H244277   2.149   3.918   5.639  2.1312 -0.1778  1.6980
14778TIP3   OH244278   5.857   1.557   2.209 -0.2477 -0.6778  0.1774
14778TIP3    H144279   5.925   1.494   2.236 -0.9887 -0.6350  2.3100
14778TIP3    H244280   5.883   1.639   2.251 -0.1176  0.1101 -1.3549
14779TIP3   OH244281   3.682   3.742   5.997 -0.0061  0.7292 -0.0427
14779TIP3    H144282   3.645   3.822   6.033 -0.8197  0.1995  0.3354
14779TIP3    H244283   3.612   3.677   6.005  1.3331 -0.6202  1.7374
14780TIP3   OH244284   4.613   4.362   1.271 -0.4330  0.3937  0.0607
14780TIP3    H144285   4.601   4.268   1.264 -2.2812  0.6546 -1.2248
14780TIP3    H244286   4.547   4.390   1.334  0.8280  0.7385  1.2760
14781TIP3   OH244287   5.568   3.528   6.148 -0.2037  0.2465 -0.4419
14781TIP3    H144288   5.548   3.551   6.057  0.9542  1.6500 -0.3734
14781TIP3    H244289   5.559   3.610   6.196  2.7587  0.4057  0.0510
14782TIP3   OH244290   4.564   0.738   6.715 -0.2608 -0.1508 -0.3659
14782TIP3    H144291   4.631   0.796   6.750 -1.7086  0.8535  0.8794
14782TIP3    H244292   4.612   0.660   6.687  1.2688 -0.1124  1.8883
14783TIP3   OH244293   5.901   1.529   1.635  0.3594 -0.1005 -0.4991
14783TIP3    H144294   5.970   1.520   1.701  0.1836  2.3817  0.1139
14783TIP3    H244295   5.921   1.461   1.571  2.3664 -0.5660  0.5176
14784TIP3   OH244296   4.811   2.559   2.588  0.0176 -0.0454 -0.3300
14784TIP3    H144297   4.866   2.560   2.666 -0.9195 -0.1543  0.3479
14784TIP3    H244298   4.826   2.644   2.547 -0.2979  0.4702  0.5764
14785TIP3   OH244299   1.277   7.790   5.702 -0.0416 -0.5813  0.8892
14785TIP3    H144300   1.216   7.856   5.670 -0.1408 -1.2190 -0.2785
14785TIP3    H244301   1.289   7.811   5.795  0.2916  1.3586  0.4509
14786TIP3   OH244302   7.836   2.617   5.847  0.3007 -0.2789  1.0098
14786TIP3    H144303   7.831   2.538   5.794 -1.6360  0.4529  0.0083
14786TIP3    H244304   7.904   2.598   5.912  1.8327 -1.7167 -0.8748
14787TIP3   OH244305   8.244   1.757   5.280  0.1508  0.4573 -0.0880
14787TIP3    H144306   8.226   1.761   5.374  0.5890 -2.0651  0.1680
14787TIP3    H244307   8.203   1.676   5.251  0.4516  0.9375 -1.9890
14788TIP3   OH244308   7.314   7.504   4.430  0.4936  0.1226 -0.4733
14788TIP3    H144309   7.396   7.461   4.452  1.5286  1.7019 -1.0348
14788TIP3    H244310   7.271   7.444   4.369  2.1638  0.0937 -1.7116
14789TIP3   OH244311   4.477   7.593   6.026 -0.0440  0.1577  0.4501
14789TIP3    H144312   4.492   7.552   6.111 -1.2254  0.5722  0.8801
14789TIP3    H244313   4.388   7.628   6.032  0.2485  1.1232 -0.5768
14790TIP3   OH244314   0.327   6.910   2.612  0.0109 -0.2389  0.6911
14790TIP3    H144315   0.332   6.921   2.707  0.4452  1.3929  0.5125
14790TIP3    H244316   0.347   6.997   2.577  1.3240 -1.1360 -0.9285
14791TIP3   OH244317   0.826   4.240   1.245  0.4727 -0.2434 -0.1374
14791TIP3    H144318   0.863   4.291   1.317  0.2799  1.8485 -1.4545
14791TIP3    H244319   0.829   4.150   1.277  2.5696  0.3205  1.5539
14792TIP3   OH244320   1.744   0.512   1.529 -0.1976 -0.3701  0.1968
14792TIP3    H144321   1.760   0.420   1.551  1.6034 -0.1477 -0.0049
14792TIP3    H244322   1.683   0.543   1.596 -0.3171 -1.5442  0.6488
14793TIP3   OH244323   0.574   7.200   2.991 -0.2142  0.1874  0.5808
14793TIP3    H144324   0.661   7.191   2.953 -1.0338 -1.1768 -1.1514
14793TIP3    H244325   0.549   7.291   2.973  1.2579  0.9280  2.1213
14794TIP3   OH244326   0.265   0.639   0.938  0.4510  0.4948  0.1273
14794TIP3    H144327   0.304   0.565   0.892  1.5279  0.2445  1.3684
14794TIP3    H244328   0.301   0.717   0.895  0.7560  0.2753 -0.0153
14795TIP3   OH244329   1.187   4.999   4.645 -0.1023 -0.7868 -0.0258
14795TIP3    H144330   1.129   5.042   4.582  0.7843 -0.9023 -0.9419
14795TIP3    H244331   1.199   4.911   4.610 -0.8917 -1.4090  1.1806
14796TIP3   OH244332   7.610   3.127   2.824  0.5168 -0.2426 -0.2390
14796TIP3    H144333   7.616   3.161   2.914  0.1247 -0.6845 -0.0465
14796TIP3    H244334   7.698   3.143   2.787  1.2063 -1.5586  0.7596
14797TIP3   OH244335   4.405   2.016   0.807 -0.5048  0.1149  0.0312
14797TIP3    H144336   4.451   2.099   0.803 -0.5335  0.0916 -0.9286
14797TIP3    H244337   4.431   1.978   0.891  1.4376 -0.0190 -0.6019
14798TIP3   OH244338   1.049   4.498   2.911 -0.4466 -0.4791  0.0558
14798TIP3    H144339   1.006   4.502   2.996 -1.8859 -0.7483 -0.6264
14798TIP3    H244340   1.048   4.405   2.888 -1.5796 -0.2381 -0.9690
14799TIP3   OH244341   4.355   6.379   0.872 -0.1138 -0.0859 -0.0302
14799TIP3    H144342   4.439   6.396   0.830 -0.7298 -0.6002 -1.5853
14799TIP3    H244343   4.350   6.441   0.945  4.0182 -3.5978  3.8148
14800TIP3   OH244344   6.048   2.176   1.674  0.0587  0.0941 -0.0892
14800TIP3    H144345   6.069   2.231   1.750 -0.9852  0.1252  0.1865
14800TIP3    H244346   5.994   2.232   1.618  1.3390  0.2975 -1.1957
14801TIP3   OH244347   3.748   6.011   6.616 -0.0067  0.2734 -0.5119
14801TIP3    H144348   3.786   6.099   6.621  0.5642 -0.0283  2.3369
14801TIP3    H244349   3.680   6.018   6.549  1.5256  2.2546 -1.9832
14802TIP3   OH244350   6.415   2.253   2.351  0.8389  0.0322 -0.5793
14802TIP3    H144351   6.381   2.181   2.403 -0.6545  0.0733 -1.4565
14802TIP3    H244352   6.447   2.212   2.270  0.9878  0.2405 -0.6285
14803TIP3   OH244353   0.531   3.706   1.798 -0.0618  0.5862  0.3433
14803TIP3    H144354   0.600   3.664   1.747  1.0122  3.4966 -0.7769
14803TIP3    H244355   0.465   3.732   1.734 -1.6548 -0.9069  1.2453
14804TIP3   OH244356   3.814   2.716   5.490 -0.3893 -0.4264  0.2972
14804TIP3    H144357   3.729   2.755   5.473 -0.3825 -0.6421 -0.2300
14804TIP3    H244358   3.798   2.621   5.488 -0.5669 -0.4842  2.3254
14805TIP3   OH244359   7.478   1.846   4.362 -0.3012  0.4539  0.4049
14805TIP3    H144360   7.471   1.897   4.282 -0.7433  0.3066  0.3489
14805TIP3    H244361   7.484   1.755   4.333  3.2587  0.5342  0.3353
14806TIP3   OH244362   7.279   6.353   5.612  0.0421  0.5122 -0.2660
14806TIP3    H144363   7.184   6.344   5.619  0.0472  0.3822 -0.3559
14806TIP3    H244364   7.292   6.441   5.577 -0.1083 -0.0136 -1.7193
14807TIP3   OH244365   6.913   1.926   1.432 -0.5782 -0.2258  0.1542
14807TIP3    H144366   6.843   1.924   1.497 -0.8651 -0.3300 -0.1521
14807TIP3    H244367   6.986   1.879   1.473 -0.2501  0.9505  0.9581
14808TIP3   OH244368   7.936   6.789   2.550  0.4082  0.5990  0.5893
14808TIP3    H144369   7.931   6.716   2.488  0.2990  1.1418 -0.0570
14808TIP3    H244370   7.845   6.820   2.557  0.5221  0.9514  0.5135
14809TIP3   OH244371   6.778   4.231   2.597 -0.5499 -0.2336  0.2245
14809TIP3    H144372   6.794   4.147   2.555 -1.4482 -0.1467 -0.3003
14809TIP3    H244373   6.843   4.290   2.559 -1.9940  0.1059 -1.8486
14810TIP3   OH244374   0.687   3.348   3.919  0.4666 -0.1970  0.0955
14810TIP3    H144375   0.609   3.329   3.867  0.2081 -0.8196  0.6966
14810TIP3    H244376   0.665   3.429   3.965  0.4880  0.0657 -0.3577
14811TIP3   OH244377   6.602   5.628   6.728 -0.8801 -0.2220  0.0173
14811TIP3    H144378   6.691   5.657   6.709 -1.5756  2.1237 -0.0472
14811TIP3    H244379   6.591   5.547   6.679  0.3272  0.8828 -2.1996
14812TIP3   OH244380   7.605   5.114   1.886  0.4226  0.2083  0.0894
14812TIP3    H144381   7.587   5.158   1.969 -0.2964  0.2687 -0.0923
14812TIP3    H244382   7.692   5.076   1.897 -0.4281 -1.4174  1.5774
14813TIP3   OH244383   4.378   3.924   5.465 -0.0890  0.2771  0.0214
14813TIP3    H144384   4.342   3.995   5.412 -0.0291 -0.4178 -0.9815
14813TIP3    H244385   4.356   3.845   5.416  1.6118 -0.2624  0.0748
14814TIP3   OH244386   0.218   5.792   1.427  0.0475  0.2045 -1.3242
14814TIP3    H144387   0.215   5.771   1.520  1.2128  2.0313 -0.8148
14814TIP3    H244388   0.215   5.888   1.424  0.3055  0.1942 -3.1548
14815TIP3   OH244389   3.374   4.314   0.946 -0.5833 -0.2740  0.3497
14815TIP3    H144390   3.298   4.321   0.888 -0.1575  1.1130 -0.0947
14815TIP3    H244391   3.418   4.234   0.920 -0.5236  0.2133 -1.1135
14816TIP3   OH244392   1.355   0.429   1.596  0.3515 -0.0567  0.1953
14816TIP3    H144393   1.404   0.369   1.652  0.3630  0.3479  0.6269
14816TIP3    H244394   1.400   0.513   1.606  0.2392  0.0627 -0.2737
14817TIP3   OH244395   5.537   4.963   1.612 -0.2077 -0.4525  0.4070
14817TIP3    H144396   5.607   4.899   1.623  0.1423  0.0692  1.3736
14817TIP3    H244397   5.561   5.034   1.672  0.0992  1.1740 -1.5134
14818TIP3   OH244398   3.659   5.618   1.377 -0.5743  0.1218 -0.7501
14818TIP3    H144399   3.647   5.703   1.418 -2.5216  0.8219 -2.6089
14818TIP3    H244400   3.749   5.594   1.398 -0.5323  1.8019  1.2869
14819TIP3   OH244401   6.704   1.595   0.680  0.4271  0.6234  0.0761
14819TIP3    H144402   6.764   1.537   0.728 -0.5051 -1.3551 -1.0421
14819TIP3    H244403   6.617   1.569   0.710 -0.0353  1.1860 -0.7402
14820TIP3   OH244404   2.758   3.168   5.978  0.1731 -0.7857 -0.1687
14820TIP3    H144405   2.760   3.079   5.943  0.4026 -0.3845 -1.2255
14820TIP3    H244406   2.825   3.215   5.928  0.1304 -0.0515  0.4539
14821TIP3   OH244407   0.711   6.760   5.014  0.5192 -0.1973  0.0803
14821TIP3    H144408   0.697   6.852   5.037  0.9447  0.1439 -0.9449
14821TIP3    H244409   0.779   6.730   5.073 -0.0246 -0.0205  0.8037
14822TIP3   OH244410   2.656   6.681   0.010 -0.8883  0.0638 -0.0574
14822TIP3    H144411   2.672   6.712   0.099 -2.3784 -0.8659  0.5743
14822TIP3    H244412   2.678   6.587   0.013  0.2048  0.2542 -1.0166
14823TIP3   OH244413   0.230   1.634   6.121 -0.0959 -0.5653  0.2478
14823TIP3    H144414   0.256   1.551   6.161  0.7833 -0.9575 -1.0949
14823TIP3    H244415   0.311   1.670   6.086 -0.7053  0.1849 -0.4019
14824TIP3   OH244416   3.053   1.912   1.144  0.1759 -0.3686  0.0789
14824TIP3    H144417   3.017   1.968   1.075 -0.5735 -0.1475  0.6321
14824TIP3    H244418   2.978   1.891   1.199  0.6779 -0.9282  0.5644
14825TIP3   OH244419   3.896   0.997   2.201  0.2382  0.3233 -0.3471
14825TIP3    H144420   3.915   1.085   2.171  0.7836  0.0264 -0.8985
14825TIP3    H244421   3.822   0.969   2.148 -0.0634  0.5214 -0.0319
14826TIP3   OH244422   6.126   0.744   4.900 -0.2361  0.3085 -0.3018
14826TIP3    H144423   6.068   0.780   4.968 -1.7426  0.1507 -1.4569
14826TIP3    H244424   6.162   0.821   4.856 -1.7720  0.4665 -1.3651
14827TIP3   OH244425   6.222   5.444   3.903 -0.6908 -0.3900  0.0173
14827TIP3    H144426   6.265   5.386   3.840  2.5251  0.2011  1.4487
14827TIP3    H244427   6.166   5.386   3.955 -1.0609 -1.3807 -1.4325
14828TIP3   OH244428   2.489   0.304   6.039 -0.4329 -0.1817 -0.3627
14828TIP3    H144429   2.404   0.313   6.083 -0.2226 -1.9127  0.4546
14828TIP3    H244430   2.491   0.378   5.978 -1.8395  0.8065  0.7071
14829TIP3   OH244431   0.274   5.777   1.114  0.4363 -0.3263  0.2426
14829TIP3    H144432   0.212   5.829   1.165 -0.1499 -0.0453 -0.7085
14829TIP3    H244433   0.312   5.715   1.176 -0.7714 -0.4661  0.8650
14830TIP3   OH244434   4.992   5.258   4.044 -0.5739 -0.1184 -0.2577
14830TIP3    H144435   5.080   5.247   4.006 -0.5691  0.7835 -0.5196
14830TIP3    H244436   5.007   5.299   4.129 -0.7400 -0.0810 -0.2461
14831TIP3   OH244437   1.233   5.221   1.243 -0.6494  0.3459  0.0097
14831TIP3    H144438   1.290   5.195   1.315  0.3482 -3.6079 -1.9607
14831TIP3    H244439   1.144   5.201   1.274 -0.4201  0.6568  0.8740
14832TIP3   OH244440   5.393   4.134   3.396 -0.2914  0.1586 -0.2518
14832TIP3    H144441   5.356   4.112   3.311 -1.2679 -0.8471  0.4149
14832TIP3    H244442   5.479   4.090   3.396 -0.7773 -0.8187 -0.2755
14833TIP3   OH244443   1.524   1.365   2.935 -0.2178 -0.6163 -0.3196
14833TIP3    H144444   1.576   1.304   2.883 -1.7484 -1.1944 -1.2437
14833TIP3    H244445   1.485   1.424   2.871  0.3491  0.6502  0.4748
14834TIP3   OH244446   1.395   4.688   4.735 -0.1423  0.2058  0.2560
14834TIP3    H144447   1.314   4.651   4.768  0.2414  0.1079  1.1058
14834TIP3    H244448   1.418   4.632   4.661 -0.5185 -0.1468  0.3980
14835TIP3   OH244449   7.500   5.874   6.189  0.0014  0.4089 -0.1457
14835TIP3    H144450   7.499   5.782   6.218  1.1824  0.3780 -0.1638
14835TIP3    H244451   7.418   5.884   6.140  0.1831 -0.8427 -0.7584
14836TIP3   OH244452   6.669   0.820   0.974  0.4230 -0.5283  0.0223
14836TIP3    H144453   6.758   0.817   0.939  1.1019  1.3312  1.4563
14836TIP3    H244454   6.668   0.753   1.042  0.4725 -1.0906 -0.5228
14837TIP3   OH244455   3.666   7.604   3.376  0.2634 -0.1777 -0.1266
14837TIP3    H144456   3.659   7.537   3.308  1.0324  1.8034 -2.2756
14837TIP3    H244457   3.761   7.618   3.386  0.1084  1.0766 -0.2548
14838TIP3   OH244458   2.648   1.979   0.306 -0.0740 -0.0704  0.2370
14838TIP3    H144459   2.728   1.996   0.255  0.7444 -1.8071  0.8334
14838TIP3    H244460   2.623   1.890   0.281 -1.9759  0.5151 -0.0875
14839TIP3   OH244461   3.381  -0.004   4.969  0.2829  0.1234  0.5741
14839TIP3    H144462   3.430  -0.056   5.032  0.2714  1.2706  1.5832
14839TIP3    H244463   3.433   0.075   4.958  0.7012 -0.3961 -1.5290
   8.30516   7.83018   6.78113   0.00000   0.00000  -2.76839   0.00000  -2.76839  -3.91509
