Generated by CHARMM-GUI FF-Converter
44472
    1GLY      N    1   6.355   4.601   3.655
    1GLY    HT1    2   6.451   4.625   3.688
    1GLY    HT2    3   6.298   4.687   3.641
    1GLY    HT3    4   6.366   4.555   3.561
    1GLY     CA    5   6.293   4.506   3.746
    1GLY    HA1    6   6.284   4.554   3.842
    1GLY    HA2    7   6.356   4.419   3.745
    1GLY      C    8   6.154   4.464   3.703
    1GLY      O    9   6.097   4.522   3.611
    2PRO      N   10   6.082   4.360   3.765
    2PRO     CD   11   6.155   4.264   3.834
    2PRO    HD1   12   6.190   4.306   3.931
    2PRO    HD2   13   6.241   4.226   3.774
    2PRO     CA   14   5.944   4.323   3.735
    2PRO     HA   15   5.937   4.303   3.628
    2PRO     CB   16   5.920   4.199   3.822
    2PRO    HB1   17   5.861   4.122   3.768
    2PRO    HB2   18   5.865   4.225   3.915
    2PRO     CG   19   6.057   4.152   3.858
    2PRO    HG1   20   6.061   4.116   3.964
    2PRO    HG2   21   6.085   4.065   3.793
    2PRO      C   22   5.843   4.433   3.768
    2PRO      O   23   5.873   4.520   3.850
    3GLY      N   24   5.735   4.432   3.691
    3GLY     HN   25   5.719   4.360   3.623
    3GLY     CA   26   5.627   4.527   3.716
    3GLY    HA1   27   5.551   4.509   3.641
    3GLY    HA2   28   5.668   4.627   3.712
    3GLY      C   29   5.561   4.507   3.851
    3GLY      O   30   5.581   4.405   3.916
    4ASN      N   31   5.495   4.610   3.888
    4ASN     HN   32   5.487   4.692   3.833
    4ASN     CA   33   5.414   4.594   4.008
    4ASN     HA   34   5.483   4.566   4.086
    4ASN     CB   35   5.350   4.728   4.047
    4ASN    HB1   36   5.273   4.713   4.125
    4ASN    HB2   37   5.298   4.770   3.957
    4ASN     CG   38   5.451   4.828   4.099
    4ASN    OD1   39   5.561   4.792   4.139
    4ASN    ND2   40   5.414   4.956   4.098
    4ASN   HD21   41   5.480   5.021   4.133
    4ASN   HD22   42   5.319   4.980   4.080
    4ASN      C   43   5.307   4.487   3.990
    4ASN      O   44   5.256   4.468   3.880
    5PRO      N   45   5.276   4.418   4.089
    5PRO     CD   46   5.348   4.409   4.213
    5PRO    HD1   47   5.337   4.505   4.269
    5PRO    HD2   48   5.455   4.385   4.197
    5PRO     CA   49   5.161   4.327   4.079
    5PRO     HA   50   5.186   4.251   4.006
    5PRO     CB   51   5.146   4.273   4.221
    5PRO    HB1   52   5.116   4.166   4.221
    5PRO    HB2   53   5.069   4.332   4.277
    5PRO     CG   54   5.279   4.297   4.285
    5PRO    HG1   55   5.273   4.317   4.395
    5PRO    HG2   56   5.341   4.205   4.271
    5PRO      C   57   5.034   4.398   4.033
    5PRO      O   58   5.019   4.518   4.056
    6GLY      N   59   4.959   4.314   3.954
    6GLY     HN   60   4.981   4.218   3.940
    6GLY     CA   61   4.831   4.368   3.912
    6GLY    HA1   62   4.783   4.291   3.853
    6GLY    HA2   63   4.852   4.460   3.858
    6GLY      C   64   4.738   4.399   4.028
    6GLY      O   65   4.767   4.363   4.143
    7PRO      N   66   4.640   4.457   4.000
    7PRO     CD   67   4.597   4.503   3.863
    7PRO    HD1   68   4.601   4.420   3.789
    7PRO    HD2   69   4.660   4.589   3.831
    7PRO     CA   70   4.537   4.477   4.102
    7PRO     HA   71   4.580   4.522   4.190
    7PRO     CB   72   4.437   4.571   4.033
    7PRO    HB1   73   4.467   4.676   4.055
    7PRO    HB2   74   4.332   4.557   4.066
    7PRO     CG   75   4.455   4.545   3.887
    7PRO    HG1   76   4.389   4.458   3.860
    7PRO    HG2   77   4.424   4.631   3.823
    7PRO      C   78   4.469   4.347   4.144
    7PRO      O   79   4.478   4.247   4.073
    8GLY      N   80   4.409   4.359   4.262
    8GLY     HN   81   4.411   4.442   4.316
    8GLY     CA   82   4.335   4.242   4.308
    8GLY    HA1   83   4.306   4.262   4.410
    8GLY    HA2   84   4.397   4.154   4.300
    8GLY      C   85   4.208   4.217   4.230
    8GLY      O   86   4.165   4.302   4.152
    9ASN      N   87   4.152   4.103   4.251
    9ASN     HN   88   4.197   4.035   4.308
    9ASN     CA   89   4.023   4.068   4.192
    9ASN     HA   90   4.037   4.088   4.087
    9ASN     CB   91   3.994   3.919   4.213
    9ASN    HB1   92   3.890   3.892   4.184
    9ASN    HB2   93   4.005   3.895   4.321
    9ASN     CG   94   4.086   3.830   4.132
    9ASN    OD1   95   4.150   3.875   4.037
    9ASN    ND2   96   4.094   3.703   4.170
    9ASN   HD21   97   4.158   3.644   4.122
    9ASN   HD22   98   4.035   3.668   4.243
    9ASN      C   99   3.910   4.153   4.250
    9ASN      O  100   3.920   4.201   4.363
   10PRO      N  101   3.813   4.165   4.166
   10PRO     CD  102   3.801   4.124   4.042
   10PRO    HD1  103   3.800   4.012   4.038
   10PRO    HD2  104   3.884   4.164   3.979
   10PRO     CA  105   3.697   4.234   4.223
   10PRO     HA  106   3.727   4.332   4.258
   10PRO     CB  107   3.598   4.240   4.107
   10PRO    HB1  108   3.571   4.346   4.084
   10PRO    HB2  109   3.503   4.184   4.128
   10PRO     CG  110   3.670   4.177   3.992
   10PRO    HG1  111   3.609   4.094   3.948
   10PRO    HG2  112   3.688   4.252   3.912
   10PRO      C  113   3.637   4.160   4.343
   10PRO      O  114   3.658   4.039   4.357
   11GLY      N  115   3.575   4.236   4.440
   11GLY     HN  116   3.570   4.335   4.430
   11GLY     CA  117   3.509   4.175   4.554
   11GLY    HA1  118   3.473   4.254   4.618
   11GLY    HA2  119   3.583   4.112   4.602
   11GLY      C  120   3.392   4.087   4.515
   11GLY      O  121   3.355   4.080   4.397
   12PRO      N  122   3.334   4.018   4.598
   12PRO     CD  123   3.375   4.020   4.739
   12PRO    HD1  124   3.374   4.124   4.782
   12PRO    HD2  125   3.476   3.974   4.750
   12PRO     CA  126   3.215   3.936   4.574
   12PRO     HA  127   3.231   3.875   4.486
   12PRO     CB  128   3.202   3.854   4.703
   12PRO    HB1  129   3.259   3.759   4.688
   12PRO    HB2  130   3.097   3.827   4.729
   12PRO     CG  131   3.272   3.934   4.807
   12PRO    HG1  132   3.196   4.002   4.854
   12PRO    HG2  133   3.314   3.871   4.887
   12PRO      C  134   3.089   4.020   4.550
   12PRO      O  135   3.084   4.137   4.589
   13GLY      N  136   2.996   3.968   4.474
   13GLY     HN  137   3.006   3.875   4.440
   13GLY     CA  138   2.868   4.033   4.454
   13GLY    HA1  139   2.808   3.968   4.392
   13GLY    HA2  140   2.885   4.130   4.411
   13GLY      C  141   2.789   4.051   4.583
   13GLY      O  142   2.818   3.985   4.683
   14ASN      N  143   2.709   4.128   4.595
   14ASN     HN  144   2.688   4.185   4.516
   14ASN     CA  145   2.617   4.150   4.706
   14ASN     HA  146   2.680   4.161   4.791
   14ASN     CB  147   2.542   4.282   4.688
   14ASN    HB1  148   2.466   4.273   4.607
   14ASN    HB2  149   2.615   4.360   4.658
   14ASN     CG  150   2.476   4.329   4.816
   14ASN    OD1  151   2.509   4.282   4.925
   14ASN    ND2  152   2.383   4.424   4.804
   14ASN   HD21  153   2.341   4.456   4.888
   14ASN   HD22  154   2.354   4.450   4.712
   14ASN      C  155   2.518   4.034   4.720
   14ASN      O  156   2.480   3.971   4.621
   15PRO      N  157   2.519   3.968   4.855
   15PRO     CD  158   2.581   4.018   4.962
   15PRO    HD1  159   2.519   4.096   5.006
   15PRO    HD2  160   2.688   4.042   4.951
   15PRO     CA  161   2.424   3.859   4.879
   15PRO     HA  162   2.451   3.775   4.817
   15PRO     CB  163   2.437   3.834   5.029
   15PRO    HB1  164   2.459   3.726   5.049
   15PRO    HB2  165   2.344   3.861   5.083
   15PRO     CG  166   2.548   3.923   5.073
   15PRO    HG1  167   2.529   3.973   5.171
   15PRO    HG2  168   2.639   3.859   5.087
   15PRO      C  169   2.281   3.896   4.842
   15PRO    OT1  170   2.260   4.012   4.797
   15PRO    OT2  171   2.191   3.810   4.859
   16LIT    LIT  172   5.137   3.814   8.394
   17LIT    LIT  173   7.812   3.466   6.675
   18LIT    LIT  174   3.024   3.815   2.296
   19LIT    LIT  175   4.284   7.463   2.089
   20LIT    LIT  176   6.935   5.182   5.117
   21LIT    LIT  177   3.516   6.782   6.827
   22LIT    LIT  178   6.692   6.636   4.820
   23LIT    LIT  179   2.097   1.047   6.276
   24LIT    LIT  180   5.411   2.736   3.155
   25LIT    LIT  181   5.672   7.053   5.993
   26LIT    LIT  182   7.355   1.938   2.080
   27LIT    LIT  183   3.246   0.636   7.577
   28LIT    LIT  184   1.428   3.955   2.261
   29LIT    LIT  185   1.359   1.914   5.699
   30LIT    LIT  186   3.606   1.009   2.709
   31LIT    LIT  187   1.742   2.351   2.550
   32LIT    LIT  188   2.944   7.471   6.370
   33LIT    LIT  189   1.016   4.932   4.924
   34LIT    LIT  190   5.089   7.974   6.180
   35LIT    LIT  191   7.117   3.564   3.101
   36LIT    LIT  192   7.101   2.822   7.495
   37LIT    LIT  193   6.115   7.314   2.050
   38LIT    LIT  194   3.856   5.071   6.765
   39LIT    LIT  195   2.528   3.700   3.412
   40LIT    LIT  196   0.589   5.563   5.940
   41LIT    LIT  197   7.624   1.443   2.736
   42LIT    LIT  198   4.317   0.071   2.242
   43LIT    LIT  199   6.380   7.053   6.264
   44LIT    LIT  200   2.158   5.596   0.910
   45LIT    LIT  201   6.934   0.517   2.148
   46LIT    LIT  202   4.879   0.853   7.119
   47LIT    LIT  203   8.697   6.273   5.236
   48LIT    LIT  204   7.849   4.845   2.644
   49LIT    LIT  205  -0.102   3.293   3.069
   50LIT    LIT  206   7.242   6.801   5.928
   51LIT    LIT  207   0.509   3.773   4.226
   52LIT    LIT  208   2.981   8.185   3.583
   53LIT    LIT  209   7.527   5.095   7.322
   54LIT    LIT  210   0.894   6.900   5.661
   55LIT    LIT  211   1.153   5.757   2.351
   56LIT    LIT  212   2.996   1.074   2.348
   57LIT    LIT  213   2.953   8.347   5.460
   58CLA    CLA  214   4.815   2.578   3.291
   59CLA    CLA  215   5.601   6.847   6.005
   60CLA    CLA  216   3.835   5.994   3.918
   61CLA    CLA  217   7.331   2.601   2.790
   62CLA    CLA  218   3.685   0.698   2.687
   63CLA    CLA  219   3.392   5.002  -0.021
   64CLA    CLA  220   4.231   7.365   6.671
   65CLA    CLA  221   7.522   6.869   2.461
   66CLA    CLA  222   2.444   2.308   1.771
   67CLA    CLA  223   4.858   4.623   1.213
   68CLA    CLA  224   1.075   1.244   3.110
   69CLA    CLA  225   7.761   4.426   2.086
   70CLA    CLA  226   4.352   5.874   0.353
   71CLA    CLA  227   3.312   7.413   1.023
   72CLA    CLA  228   6.402   1.079   3.100
   73CLA    CLA  229   3.580   1.103   2.510
   74CLA    CLA  230   7.532   7.480   2.881
   75CLA    CLA  231   6.982   3.650   6.328
   76CLA    CLA  232   5.226   2.597   2.667
   77CLA    CLA  233   3.264   1.410   4.112
   78CLA    CLA  234   1.373   3.239   2.082
   79CLA    CLA  235   4.247   6.681   8.028
   80CLA    CLA  236   2.593   0.826   5.742
   81CLA    CLA  237   2.429   0.708   3.412
   82CLA    CLA  238   6.284   7.733   2.387
   83CLA    CLA  239   5.652   7.539   6.102
   84CLA    CLA  240   3.836   2.220   4.083
   85CLA    CLA  241   6.993   4.211   3.166
   86CLA    CLA  242   5.994   6.213   5.261
   87CLA    CLA  243   2.655   1.851   6.823
   88CLA    CLA  244   4.132  -0.045   2.238
   89CLA    CLA  245   1.154   3.995   4.453
   90CLA    CLA  246   1.293   4.192   1.111
   91CLA    CLA  247   4.987   1.791   0.450
   92CLA    CLA  248   6.244   3.308   2.379
   93CLA    CLA  249   2.513   7.574   7.065
   94CLA    CLA  250  -0.032   3.196   2.885
   95CLA    CLA  251   7.127   1.800   3.980
   96CLA    CLA  252   7.295   0.765   2.535
   97CLA    CLA  253   2.390   8.410   5.683
   98CLA    CLA  254   1.462   0.774   4.996
   99CLA    CLA  255   5.560   2.230   6.341
  100TIP3   OH2  256   3.282   0.366   2.240
  100TIP3    H1  257   3.279   0.270   2.256
  100TIP3    H2  258   3.202   0.396   2.289
  101TIP3   OH2  259   2.967   0.716   2.335
  101TIP3    H1  260   2.965   0.739   2.240
  101TIP3    H2  261   3.053   0.755   2.359
  102TIP3   OH2  262   3.279   0.054   2.256
  102TIP3    H1  263   3.184   0.074   2.249
  102TIP3    H2  264   3.297   0.026   2.165
  103TIP3   OH2  265   2.764   0.238   2.526
  103TIP3    H1  266   2.748   0.193   2.612
  103TIP3    H2  267   2.830   0.306   2.554
  104TIP3   OH2  268   3.075   0.496   2.027
  104TIP3    H1  269   3.072   0.428   1.956
  104TIP3    H2  270   3.156   0.470   2.074
  105TIP3   OH2  271   3.142   0.170   2.577
  105TIP3    H1  272   3.072   0.179   2.644
  105TIP3    H2  273   3.189   0.255   2.585
  106TIP3   OH2  274   3.190  -0.160   2.414
  106TIP3    H1  275   3.252  -0.235   2.405
  106TIP3    H2  276   3.224  -0.096   2.350
  107TIP3   OH2  277   3.367  -0.363   2.418
  107TIP3    H1  278   3.339  -0.444   2.465
  107TIP3    H2  279   3.462  -0.360   2.436
  108TIP3   OH2  280   2.581   0.602   2.292
  108TIP3    H1  281   2.656   0.626   2.239
  108TIP3    H2  282   2.588   0.664   2.366
  109TIP3   OH2  283   3.040   0.448   2.341
  109TIP3    H1  284   2.965   0.407   2.297
  109TIP3    H2  285   3.015   0.542   2.341
  110TIP3   OH2  286   4.241  -0.173   1.484
  110TIP3    H1  287   4.280  -0.189   1.573
  110TIP3    H2  288   4.198  -0.258   1.467
  111TIP3   OH2  289   4.502   0.131   1.196
  111TIP3    H1  290   4.523   0.070   1.268
  111TIP3    H2  291   4.537   0.214   1.233
  112TIP3   OH2  292   4.176   0.585   1.178
  112TIP3    H1  293   4.234   0.519   1.133
  112TIP3    H2  294   4.179   0.557   1.270
  113TIP3   OH2  295   4.099   0.065   1.531
  113TIP3    H1  296   4.131  -0.022   1.502
  113TIP3    H2  297   4.185   0.105   1.555
  114TIP3   OH2  298   3.927  -0.037   1.732
  114TIP3    H1  299   3.876   0.024   1.791
  114TIP3    H2  300   3.985   0.026   1.685
  115TIP3   OH2  301   3.772   0.161   1.848
  115TIP3    H1  302   3.760   0.255   1.823
  115TIP3    H2  303   3.700   0.155   1.915
  116TIP3   OH2  304   4.604   0.365   1.322
  116TIP3    H1  305   4.517   0.362   1.369
  116TIP3    H2  306   4.600   0.454   1.281
  117TIP3   OH2  307   4.308   0.406   1.018
  117TIP3    H1  308   4.369   0.332   1.008
  117TIP3    H2  309   4.355   0.476   0.965
  118TIP3   OH2  310   4.831   0.312   1.706
  118TIP3    H1  311   4.827   0.232   1.649
  118TIP3    H2  312   4.814   0.383   1.641
  119TIP3   OH2  313   4.721  -0.214   1.848
  119TIP3    H1  314   4.709  -0.132   1.900
  119TIP3    H2  315   4.663  -0.199   1.772
  120TIP3   OH2  316   3.886   0.217   1.430
  120TIP3    H1  317   3.824   0.146   1.453
  120TIP3    H2  318   3.971   0.179   1.460
  121TIP3   OH2  319   4.370   0.361   1.454
  121TIP3    H1  320   4.354   0.447   1.498
  121TIP3    H2  321   4.345   0.296   1.522
  122TIP3   OH2  322   3.986   0.286   2.000
  122TIP3    H1  323   3.923   0.342   2.050
  122TIP3    H2  324   3.925   0.219   1.965
  123TIP3   OH2  325   3.704  -0.144   2.084
  123TIP3    H1  326   3.727  -0.064   2.136
  123TIP3    H2  327   3.614  -0.160   2.113
  124TIP3   OH2  328   4.088   0.245   1.100
  124TIP3    H1  329   4.166   0.304   1.101
  124TIP3    H2  330   4.018   0.299   1.136
  125TIP3   OH2  331   3.778   0.440   2.088
  125TIP3    H1  332   3.741   0.449   1.999
  125TIP3    H2  333   3.698   0.424   2.143
  126TIP3   OH2  334   5.066   0.623   1.719
  126TIP3    H1  335   5.070   0.528   1.744
  126TIP3    H2  336   4.985   0.650   1.768
  127TIP3   OH2  337   4.173   0.407   1.850
  127TIP3    H1  338   4.173   0.499   1.883
  127TIP3    H2  339   4.105   0.368   1.910
  128TIP3   OH2  340   4.218   0.479   0.732
  128TIP3    H1  341   4.134   0.434   0.750
  128TIP3    H2  342   4.283   0.410   0.753
  129TIP3   OH2  343   4.967  -0.256   1.981
  129TIP3    H1  344   4.878  -0.235   1.948
  129TIP3    H2  345   4.962  -0.352   1.991
  130TIP3   OH2  346   3.569   0.177   2.027
  130TIP3    H1  347   3.612   0.153   2.112
  130TIP3    H2  348   3.505   0.107   2.013
  131TIP3   OH2  349   4.703  -0.470   1.943
  131TIP3    H1  350   4.704  -0.431   2.032
  131TIP3    H2  351   4.712  -0.391   1.888
  132TIP3   OH2  352   4.403  -0.251   1.706
  132TIP3    H1  353   4.477  -0.303   1.671
  132TIP3    H2  354   4.391  -0.291   1.794
  133TIP3   OH2  355   4.765   0.974   1.823
  133TIP3    H1  356   4.763   1.003   1.730
  133TIP3    H2  357   4.845   1.021   1.855
  134TIP3   OH2  358   3.710   0.081   2.246
  134TIP3    H1  359   3.793   0.104   2.293
  134TIP3    H2  360   3.648   0.085   2.321
  135TIP3   OH2  361   4.148  -0.582   1.859
  135TIP3    H1  362   4.100  -0.553   1.782
  135TIP3    H2  363   4.222  -0.521   1.864
  136TIP3   OH2  364   4.802   0.109   1.533
  136TIP3    H1  365   4.845   0.160   1.460
  136TIP3    H2  366   4.710   0.101   1.503
  137TIP3   OH2  367   4.300   0.142   1.905
  137TIP3    H1  368   4.246   0.064   1.905
  137TIP3    H2  369   4.238   0.216   1.894
  138TIP3   OH2  370   4.452   0.406   1.783
  138TIP3    H1  371   4.356   0.400   1.799
  138TIP3    H2  372   4.479   0.460   1.859
  139TIP3   OH2  373   5.088   0.341   1.777
  139TIP3    H1  374   4.990   0.337   1.770
  139TIP3    H2  375   5.115   0.314   1.686
  140TIP3   OH2  376   4.566  -0.008   1.444
  140TIP3    H1  377   4.492  -0.050   1.492
  140TIP3    H2  378   4.626  -0.083   1.433
  141TIP3   OH2  379   3.961   0.503   1.649
  141TIP3    H1  380   4.004   0.574   1.597
  141TIP3    H2  381   4.036   0.467   1.698
  142TIP3   OH2  382   4.350   0.134   1.627
  142TIP3    H1  383   4.349   0.133   1.725
  142TIP3    H2  384   4.443   0.120   1.610
  143TIP3   OH2  385   4.592   0.660   1.656
  143TIP3    H1  386   4.510   0.608   1.648
  143TIP3    H2  387   4.579   0.727   1.586
  144TIP3   OH2  388   3.428   0.378   1.803
  144TIP3    H1  389   3.471   0.296   1.826
  144TIP3    H2  390   3.446   0.433   1.880
  145TIP3   OH2  391   4.365  -0.399   1.940
  145TIP3    H1  392   4.319  -0.347   2.008
  145TIP3    H2  393   4.428  -0.450   1.992
  146TIP3   OH2  394   4.616   0.631   1.248
  146TIP3    H1  395   4.574   0.684   1.177
  146TIP3    H2  396   4.711   0.655   1.233
  147TIP3   OH2  397   3.393   0.668   2.241
  147TIP3    H1  398   3.477   0.679   2.292
  147TIP3    H2  399   3.389   0.571   2.238
  148TIP3   OH2  400   3.853   0.647   2.262
  148TIP3    H1  401   3.938   0.636   2.304
  148TIP3    H2  402   3.847   0.571   2.201
  149TIP3   OH2  403   4.518   0.526   2.035
  149TIP3    H1  404   4.574   0.459   2.075
  149TIP3    H2  405   4.577   0.604   2.042
  150TIP3   OH2  406   3.510   0.067   2.433
  150TIP3    H1  407   3.528  -0.028   2.446
  150TIP3    H2  408   3.424   0.065   2.386
  151TIP3   OH2  409   4.612   0.172   1.800
  151TIP3    H1  410   4.690   0.226   1.777
  151TIP3    H2  411   4.543   0.241   1.803
  152TIP3   OH2  412   3.637  -0.207   2.424
  152TIP3    H1  413   3.723  -0.236   2.389
  152TIP3    H2  414   3.666  -0.161   2.505
  153TIP3   OH2  415   3.948  -0.299   2.010
  153TIP3    H1  416   3.896  -0.231   2.055
  153TIP3    H2  417   4.030  -0.252   1.990
  154TIP3   OH2  418   4.038  -0.497   2.185
  154TIP3    H1  419   4.028  -0.526   2.094
  154TIP3    H2  420   4.017  -0.403   2.172
  155TIP3   OH2  421   4.145  -0.157   1.862
  155TIP3    H1  422   4.180  -0.219   1.798
  155TIP3    H2  423   4.059  -0.134   1.823
  156TIP3   OH2  424   4.730  -0.251   2.219
  156TIP3    H1  425   4.736  -0.294   2.306
  156TIP3    H2  426   4.781  -0.171   2.231
  157TIP3   OH2  427   4.754   0.031   1.989
  157TIP3    H1  428   4.694   0.082   1.930
  157TIP3    H2  429   4.842   0.050   1.949
  158TIP3   OH2  430   3.931  -0.378   2.434
  158TIP3    H1  431   3.918  -0.472   2.421
  158TIP3    H2  432   4.011  -0.364   2.382
  159TIP3   OH2  433   4.870   0.727   1.228
  159TIP3    H1  434   4.892   0.765   1.315
  159TIP3    H2  435   4.926   0.782   1.170
  160TIP3   OH2  436   4.898   0.750   1.504
  160TIP3    H1  437   4.858   0.661   1.497
  160TIP3    H2  438   4.974   0.729   1.562
  161TIP3   OH2  439   4.938   0.424   2.073
  161TIP3    H1  440   4.868   0.435   2.139
  161TIP3    H2  441   4.984   0.511   2.074
  162TIP3   OH2  442   4.958   0.227   1.349
  162TIP3    H1  443   5.024   0.186   1.290
  162TIP3    H2  444   4.944   0.311   1.301
  163TIP3   OH2  445   4.769   0.500   1.513
  163TIP3    H1  446   4.699   0.547   1.562
  163TIP3    H2  447   4.719   0.455   1.442
  164TIP3   OH2  448   5.008   0.083   1.888
  164TIP3    H1  449   5.078   0.015   1.881
  164TIP3    H2  450   5.041   0.153   1.830
  165TIP3   OH2  451   5.193  -0.128   1.912
  165TIP3    H1  452   5.116  -0.180   1.945
  165TIP3    H2  453   5.267  -0.187   1.932
  166TIP3   OH2  454   3.562  -0.585   2.489
  166TIP3    H1  455   3.629  -0.591   2.421
  166TIP3    H2  456   3.609  -0.614   2.569
  167TIP3   OH2  457   4.462   0.590   0.889
  167TIP3    H1  458   4.537   0.541   0.850
  167TIP3    H2  459   4.506   0.668   0.927
  168TIP3   OH2  460   3.556   0.405   2.249
  168TIP3    H1  461   3.464   0.376   2.235
  168TIP3    H2  462   3.564   0.403   2.345
  169TIP3   OH2  463   3.739   0.429   1.798
  169TIP3    H1  464   3.682   0.500   1.762
  169TIP3    H2  465   3.823   0.456   1.756
  170TIP3   OH2  466   4.174   0.668   1.935
  170TIP3    H1  467   4.210   0.667   2.026
  170TIP3    H2  468   4.239   0.726   1.889
  171TIP3   OH2  469   4.355   0.828   1.800
  171TIP3    H1  470   4.429   0.785   1.756
  171TIP3    H2  471   4.404   0.887   1.862
  172TIP3   OH2  472   3.420   0.703   1.823
  172TIP3    H1  473   3.324   0.717   1.809
  172TIP3    H2  474   3.431   0.746   1.909
  173TIP3   OH2  475   3.649   0.664   1.682
  173TIP3    H1  476   3.563   0.678   1.728
  173TIP3    H2  477   3.630   0.699   1.594
  174TIP3   OH2  478   4.072   0.695   1.477
  174TIP3    H1  479   4.000   0.715   1.415
  174TIP3    H2  480   4.082   0.782   1.523
  175TIP3   OH2  481   4.339   0.628   1.527
  175TIP3    H1  482   4.246   0.653   1.513
  175TIP3    H2  483   4.385   0.705   1.490
  176TIP3   OH2  484   4.540   0.820   1.443
  176TIP3    H1  485   4.528   0.908   1.399
  176TIP3    H2  486   4.569   0.765   1.368
  177TIP3   OH2  487   3.355   0.492   1.564
  177TIP3    H1  488   3.381   0.461   1.654
  177TIP3    H2  489   3.337   0.410   1.519
  178TIP3   OH2  490   3.787   0.475   1.428
  178TIP3    H1  491   3.821   0.385   1.410
  178TIP3    H2  492   3.830   0.491   1.515
  179TIP3   OH2  493   4.821   0.705   1.820
  179TIP3    H1  494   4.743   0.678   1.768
  179TIP3    H2  495   4.806   0.802   1.826
  180TIP3   OH2  496   5.537   0.420   1.301
  180TIP3    H1  497   5.531   0.517   1.297
  180TIP3    H2  498   5.477   0.402   1.375
  181TIP3   OH2  499   5.758   0.531   1.483
  181TIP3    H1  500   5.696   0.597   1.519
  181TIP3    H2  501   5.698   0.461   1.455
  182TIP3   OH2  502   5.561   0.710   1.573
  182TIP3    H1  503   5.524   0.716   1.483
  182TIP3    H2  504   5.481   0.690   1.627
  183TIP3   OH2  505   5.157   0.247   1.535
  183TIP3    H1  506   5.083   0.225   1.477
  183TIP3    H2  507   5.187   0.159   1.569
  184TIP3   OH2  508   4.996   0.437   1.177
  184TIP3    H1  509   5.093   0.441   1.175
  184TIP3    H2  510   4.975   0.522   1.219
  185TIP3   OH2  511   5.932   0.721   1.302
  185TIP3    H1  512   5.956   0.808   1.340
  185TIP3    H2  513   5.941   0.666   1.382
  186TIP3   OH2  514   5.354   0.431   1.502
  186TIP3    H1  515   5.409   0.419   1.583
  186TIP3    H2  516   5.286   0.362   1.516
  187TIP3   OH2  517   6.544   1.240   1.332
  187TIP3    H1  518   6.526   1.247   1.237
  187TIP3    H2  519   6.635   1.272   1.338
  188TIP3   OH2  520   5.498   0.378   1.732
  188TIP3    H1  521   5.588   0.379   1.770
  188TIP3    H2  522   5.444   0.360   1.810
  189TIP3   OH2  523   5.237   0.033   1.678
  189TIP3    H1  524   5.298   0.057   1.750
  189TIP3    H2  525   5.220  -0.060   1.697
  190TIP3   OH2  526   5.722   0.793   1.150
  190TIP3    H1  527   5.755   0.849   1.078
  190TIP3    H2  528   5.802   0.781   1.205
  191TIP3   OH2  529   5.205   0.601   1.308
  191TIP3    H1  530   5.257   0.544   1.368
  191TIP3    H2  531   5.222   0.688   1.346
  192TIP3   OH2  532   5.187   0.929   1.721
  192TIP3    H1  533   5.273   0.933   1.768
  192TIP3    H2  534   5.174   0.833   1.717
  193TIP3   OH2  535   5.661   0.882   1.769
  193TIP3    H1  536   5.757   0.873   1.767
  193TIP3    H2  537   5.634   0.824   1.695
  194TIP3   OH2  538   6.264   0.821   1.515
  194TIP3    H1  539   6.268   0.736   1.561
  194TIP3    H2  540   6.355   0.851   1.517
  195TIP3   OH2  541   5.309   0.343   1.934
  195TIP3    H1  542   5.332   0.248   1.931
  195TIP3    H2  543   5.224   0.344   1.884
  196TIP3   OH2  544   5.911   0.420   1.711
  196TIP3    H1  545   5.910   0.462   1.623
  196TIP3    H2  546   5.911   0.327   1.687
  197TIP3   OH2  547   5.402   0.092   1.911
  197TIP3    H1  548   5.417  -0.005   1.903
  197TIP3    H2  549   5.453   0.113   1.991
  198TIP3   OH2  550   4.752   0.718   0.783
  198TIP3    H1  551   4.733   0.661   0.708
  198TIP3    H2  552   4.786   0.657   0.851
  199TIP3   OH2  553   4.891   0.580   0.964
  199TIP3    H1  554   4.901   0.494   1.006
  199TIP3    H2  555   4.945   0.635   1.023
  200TIP3   OH2  556   5.342   0.669   1.739
  200TIP3    H1  557   5.254   0.631   1.723
  200TIP3    H2  558   5.363   0.636   1.827
  201TIP3   OH2  559   5.517   0.694   1.290
  201TIP3    H1  560   5.468   0.769   1.250
  201TIP3    H2  561   5.603   0.715   1.248
  202TIP3   OH2  562   5.965   0.956   1.437
  202TIP3    H1  563   6.008   0.948   1.525
  202TIP3    H2  564   6.031   1.011   1.389
  203TIP3   OH2  565   6.130   1.111   1.283
  203TIP3    H1  566   6.201   1.065   1.234
  203TIP3    H2  567   6.183   1.161   1.348
  204TIP3   OH2  568   5.196   0.935   1.320
  204TIP3    H1  569   5.106   0.970   1.297
  204TIP3    H2  570   5.219   0.993   1.393
  205TIP3   OH2  571   5.430   0.925   1.173
  205TIP3    H1  572   5.342   0.940   1.212
  205TIP3    H2  573   5.420   0.961   1.082
  206TIP3   OH2  574   5.828   0.950   0.949
  206TIP3    H1  575   5.775   1.009   0.895
  206TIP3    H2  576   5.874   1.014   1.007
  207TIP3   OH2  577   5.107   0.737   1.073
  207TIP3    H1  578   5.149   0.710   1.157
  207TIP3    H2  579   5.172   0.708   1.008
  208TIP3   OH2  580   0.830   2.244   2.468
  208TIP3    H1  581   0.781   2.293   2.401
  208TIP3    H2  582   0.876   2.313   2.516
  209TIP3   OH2  583   1.024   1.723   2.748
  209TIP3    H1  584   0.995   1.693   2.835
  209TIP3    H2  585   1.057   1.813   2.767
  210TIP3   OH2  586   2.349   1.686   1.371
  210TIP3    H1  587   2.319   1.654   1.456
  210TIP3    H2  588   2.388   1.772   1.398
  211TIP3   OH2  589   1.997   2.109   1.363
  211TIP3    H1  590   2.074   2.070   1.320
  211TIP3    H2  591   2.035   2.133   1.450
  212TIP3   OH2  592   3.001   0.955   1.730
  212TIP3    H1  593   2.994   1.050   1.748
  212TIP3    H2  594   3.001   0.953   1.633
  213TIP3   OH2  595   3.039   1.185   1.897
  213TIP3    H1  596   2.965   1.236   1.858
  213TIP3    H2  597   2.990   1.134   1.963
  214TIP3   OH2  598   2.436   1.917   1.478
  214TIP3    H1  599   2.350   1.925   1.524
  214TIP3    H2  600   2.444   2.007   1.437
  215TIP3   OH2  601   2.672   1.846   1.837
  215TIP3    H1  602   2.670   1.772   1.773
  215TIP3    H2  603   2.644   1.922   1.781
  216TIP3   OH2  604   2.876   1.469   1.672
  216TIP3    H1  605   2.794   1.523   1.683
  216TIP3    H2  606   2.904   1.502   1.584
  217TIP3   OH2  607   2.570   1.358   1.977
  217TIP3    H1  608   2.561   1.442   2.026
  217TIP3    H2  609   2.480   1.354   1.937
  218TIP3   OH2  610   2.196   1.924   1.599
  218TIP3    H1  611   2.180   2.012   1.638
  218TIP3    H2  612   2.204   1.866   1.677
  219TIP3   OH2  613   1.809   1.837   2.155
  219TIP3    H1  614   1.772   1.909   2.209
  219TIP3    H2  615   1.727   1.796   2.126
  220TIP3   OH2  616   1.614   2.017   2.243
  220TIP3    H1  617   1.594   2.003   2.149
  220TIP3    H2  618   1.533   1.987   2.285
  221TIP3   OH2  619   2.913   2.185   1.879
  221TIP3    H1  620   2.909   2.089   1.892
  221TIP3    H2  621   2.829   2.212   1.924
  222TIP3   OH2  622   2.006   1.969   2.002
  222TIP3    H1  623   2.009   2.059   2.042
  222TIP3    H2  624   1.937   1.926   2.056
  223TIP3   OH2  625   2.817   1.294   2.157
  223TIP3    H1  626   2.738   1.343   2.127
  223TIP3    H2  627   2.806   1.211   2.107
  224TIP3   OH2  628   2.596   1.095   2.083
  224TIP3    H1  629   2.529   1.079   2.153
  224TIP3    H2  630   2.562   1.175   2.039
  225TIP3   OH2  631   2.278   1.314   2.313
  225TIP3    H1  632   2.262   1.239   2.374
  225TIP3    H2  633   2.373   1.331   2.331
  226TIP3   OH2  634   2.319   1.306   1.893
  226TIP3    H1  635   2.321   1.237   1.826
  226TIP3    H2  636   2.262   1.265   1.961
  227TIP3   OH2  637   2.593   2.528   1.991
  227TIP3    H1  638   2.557   2.509   1.902
  227TIP3    H2  639   2.671   2.584   1.974
  228TIP3   OH2  640   1.584   1.664   2.386
  228TIP3    H1  641   1.650   1.677   2.456
  228TIP3    H2  642   1.506   1.636   2.436
  229TIP3   OH2  643   2.662   1.636   1.665
  229TIP3    H1  644   2.674   1.681   1.578
  229TIP3    H2  645   2.569   1.606   1.660
  230TIP3   OH2  646   2.116   1.698   2.033
  230TIP3    H1  647   2.172   1.683   2.109
  230TIP3    H2  648   2.104   1.794   2.034
  231TIP3   OH2  649   2.038   1.446   2.339
  231TIP3    H1  650   1.982   1.390   2.284
  231TIP3    H2  651   2.128   1.411   2.318
  232TIP3   OH2  652   2.288   1.942   1.940
  232TIP3    H1  653   2.194   1.966   1.941
  232TIP3    H2  654   2.324   2.008   2.003
  233TIP3   OH2  655   2.926   1.891   1.916
  233TIP3    H1  656   2.827   1.890   1.909
  233TIP3    H2  657   2.949   1.863   1.825
  234TIP3   OH2  658   2.411   1.532   1.650
  234TIP3    H1  659   2.323   1.506   1.616
  234TIP3    H2  660   2.457   1.445   1.647
  235TIP3   OH2  661   1.827   2.060   1.801
  235TIP3    H1  662   1.844   2.155   1.807
  235TIP3    H2  663   1.901   2.023   1.852
  236TIP3   OH2  664   2.203   1.694   1.764
  236TIP3    H1  665   2.181   1.684   1.859
  236TIP3    H2  666   2.289   1.649   1.760
  237TIP3   OH2  667   2.205   1.164   2.100
  237TIP3    H1  668   2.231   1.227   2.171
  237TIP3    H2  669   2.256   1.086   2.126
  238TIP3   OH2  670   2.856   1.038   2.049
  238TIP3    H1  671   2.759   1.041   2.069
  238TIP3    H2  672   2.853   0.993   1.964
  239TIP3   OH2  673   2.465   2.160   1.379
  239TIP3    H1  674   2.418   2.223   1.320
  239TIP3    H2  675   2.554   2.202   1.378
  240TIP3   OH2  676   1.230   2.221   2.371
  240TIP3    H1  677   1.293   2.158   2.409
  240TIP3    H2  678   1.165   2.160   2.335
  241TIP3   OH2  679   2.344   2.098   2.165
  241TIP3    H1  680   2.342   2.026   2.232
  241TIP3    H2  681   2.424   2.148   2.189
  242TIP3   OH2  682   1.370   1.632   2.592
  242TIP3    H1  683   1.413   1.544   2.586
  242TIP3    H2  684   1.278   1.604   2.582
  243TIP3   OH2  685   1.964   1.720   2.359
  243TIP3    H1  686   1.920   1.736   2.273
  243TIP3    H2  687   1.998   1.628   2.348
  244TIP3   OH2  688   2.458   1.728   1.967
  244TIP3    H1  689   2.536   1.771   1.926
  244TIP3    H2  690   2.391   1.799   1.952
  245TIP3   OH2  691   1.498   1.388   2.578
  245TIP3    H1  692   1.536   1.301   2.567
  245TIP3    H2  693   1.525   1.410   2.669
  246TIP3   OH2  694   2.327   1.648   2.360
  246TIP3    H1  695   2.409   1.624   2.317
  246TIP3    H2  696   2.324   1.586   2.435
  247TIP3   OH2  697   2.537   1.329   2.409
  247TIP3    H1  698   2.584   1.252   2.445
  247TIP3    H2  699   2.609   1.387   2.379
  248TIP3   OH2  700   2.590   1.582   2.150
  248TIP3    H1  701   2.528   1.634   2.093
  248TIP3    H2  702   2.676   1.608   2.109
  249TIP3   OH2  703   1.828   1.135   2.595
  249TIP3    H1  704   1.756   1.129   2.660
  249TIP3    H2  705   1.812   1.058   2.537
  250TIP3   OH2  706   2.205   1.086   2.453
  250TIP3    H1  707   2.213   1.084   2.550
  250TIP3    H2  708   2.112   1.062   2.442
  251TIP3   OH2  709   2.430   1.039   2.293
  251TIP3    H1  710   2.361   1.042   2.362
  251TIP3    H2  711   2.509   1.010   2.344
  252TIP3   OH2  712   2.670   0.979   2.432
  252TIP3    H1  713   2.682   0.887   2.461
  252TIP3    H2  714   2.662   1.027   2.517
  253TIP3   OH2  715   2.247   0.815   2.641
  253TIP3    H1  716   2.222   0.737   2.588
  253TIP3    H2  717   2.162   0.863   2.654
  254TIP3   OH2  718   2.707   2.283   1.363
  254TIP3    H1  719   2.742   2.295   1.453
  254TIP3    H2  720   2.772   2.330   1.309
  255TIP3   OH2  721   2.782   2.292   1.624
  255TIP3    H1  722   2.698   2.247   1.643
  255TIP3    H2  723   2.831   2.273   1.705
  256TIP3   OH2  724   2.785   1.982   2.219
  256TIP3    H1  725   2.712   1.993   2.283
  256TIP3    H2  726   2.827   2.070   2.221
  257TIP3   OH2  727   2.765   1.755   1.443
  257TIP3    H1  728   2.835   1.693   1.417
  257TIP3    H2  729   2.785   1.835   1.390
  258TIP3   OH2  730   2.597   2.055   1.673
  258TIP3    H1  731   2.533   2.126   1.696
  258TIP3    H2  732   2.554   2.013   1.597
  259TIP3   OH2  733   2.832   1.647   2.044
  259TIP3    H1  734   2.905   1.581   2.034
  259TIP3    H2  735   2.858   1.717   1.981
  260TIP3   OH2  736   3.017   1.451   2.054
  260TIP3    H1  737   2.955   1.390   2.099
  260TIP3    H2  738   3.100   1.401   2.055
  261TIP3   OH2  739   2.757   1.069   1.583
  261TIP3    H1  740   2.828   1.126   1.547
  261TIP3    H2  741   2.713   1.130   1.644
  262TIP3   OH2  742   2.783   1.258   1.820
  262TIP3    H1  743   2.700   1.291   1.862
  262TIP3    H2  744   2.804   1.332   1.760
  263TIP3   OH2  745   3.207   0.852   2.322
  263TIP3    H1  746   3.256   0.768   2.332
  263TIP3    H2  747   3.270   0.896   2.263
  264TIP3   OH2  748   2.322   2.086   1.030
  264TIP3    H1  749   2.323   2.146   0.954
  264TIP3    H2  750   2.336   2.154   1.100
  265TIP3   OH2  751   1.372   1.961   2.417
  265TIP3    H1  752   1.386   1.881   2.365
  265TIP3    H2  753   1.389   1.933   2.507
  266TIP3   OH2  754   1.601   1.971   1.960
  266TIP3    H1  755   1.508   1.989   1.940
  266TIP3    H2  756   1.649   2.038   1.909
  267TIP3   OH2  757   2.018   2.232   2.085
  267TIP3    H1  758   2.060   2.231   2.174
  267TIP3    H2  759   2.087   2.282   2.034
  268TIP3   OH2  760   2.192   2.392   1.941
  268TIP3    H1  761   2.265   2.369   1.879
  268TIP3    H2  762   2.243   2.439   2.009
  269TIP3   OH2  763   2.984   0.748   2.066
  269TIP3    H1  764   2.913   0.744   2.000
  269TIP3    H2  765   3.027   0.660   2.056
  270TIP3   OH2  766   1.277   2.275   1.990
  270TIP3    H1  767   1.226   2.257   1.911
  270TIP3    H2  768   1.234   2.220   2.056
  271TIP3   OH2  769   1.482   2.241   1.809
  271TIP3    H1  770   1.431   2.245   1.893
  271TIP3    H2  771   1.409   2.256   1.747
  272TIP3   OH2  772   2.155   2.210   1.636
  272TIP3    H1  773   2.111   2.280   1.684
  272TIP3    H2  774   2.248   2.237   1.647
  273TIP3   OH2  775   2.733   0.718   2.489
  273TIP3    H1  776   2.745   0.683   2.580
  273TIP3    H2  777   2.823   0.707   2.452
  274TIP3   OH2  778   2.669   2.262   1.981
  274TIP3    H1  779   2.596   2.243   1.918
  274TIP3    H2  780   2.652   2.358   1.993
  275TIP3   OH2  781   3.917   1.626   0.723
  275TIP3    H1  782   3.906   1.721   0.702
  275TIP3    H2  783   3.840   1.612   0.778
  276TIP3   OH2  784   3.925   1.631   1.123
  276TIP3    H1  785   3.965   1.620   1.211
  276TIP3    H2  786   3.890   1.542   1.107
  277TIP3   OH2  787   3.230   1.526   1.489
  277TIP3    H1  788   3.259   1.457   1.551
  277TIP3    H2  789   3.306   1.586   1.491
  278TIP3   OH2  790   4.172   1.936   0.807
  278TIP3    H1  791   4.170   1.872   0.878
  278TIP3    H2  792   4.205   2.016   0.853
  279TIP3   OH2  793   3.203   1.938   1.204
  279TIP3    H1  794   3.196   1.840   1.209
  279TIP3    H2  795   3.299   1.951   1.204
  280TIP3   OH2  796   2.996   1.460   1.176
  280TIP3    H1  797   3.058   1.389   1.205
  280TIP3    H2  798   3.056   1.528   1.144
  281TIP3   OH2  799   3.826   2.401   0.821
  281TIP3    H1  800   3.867   2.329   0.769
  281TIP3    H2  801   3.820   2.361   0.908
  282TIP3   OH2  802   3.730   1.860   1.168
  282TIP3    H1  803   3.776   1.782   1.132
  282TIP3    H2  804   3.810   1.911   1.193
  283TIP3   OH2  805   4.743   1.181   1.166
  283TIP3    H1  806   4.773   1.264   1.209
  283TIP3    H2  807   4.770   1.196   1.074
  284TIP3   OH2  808   4.138   1.360   1.198
  284TIP3    H1  809   4.184   1.277   1.223
  284TIP3    H2  810   4.111   1.339   1.107
  285TIP3   OH2  811   3.483   1.009   1.187
  285TIP3    H1  812   3.461   1.071   1.116
  285TIP3    H2  813   3.422   0.936   1.171
  286TIP3   OH2  814   4.174   1.113   0.783
  286TIP3    H1  815   4.242   1.098   0.853
  286TIP3    H2  816   4.231   1.146   0.712
  287TIP3   OH2  817   3.119   1.230   1.262
  287TIP3    H1  818   3.205   1.211   1.305
  287TIP3    H2  819   3.102   1.145   1.217
  288TIP3   OH2  820   3.570   1.443   1.066
  288TIP3    H1  821   3.662   1.415   1.084
  288TIP3    H2  822   3.530   1.359   1.036
  289TIP3   OH2  823   4.817   1.387   1.341
  289TIP3    H1  824   4.734   1.436   1.321
  289TIP3    H2  825   4.844   1.429   1.424
  290TIP3   OH2  826   3.481   1.015   1.600
  290TIP3    H1  827   3.421   1.060   1.538
  290TIP3    H2  828   3.429   1.021   1.683
  291TIP3   OH2  829   3.803   1.849   0.607
  291TIP3    H1  830   3.792   1.864   0.513
  291TIP3    H2  831   3.767   1.933   0.643
  292TIP3   OH2  832   3.582   1.782   1.391
  292TIP3    H1  833   3.523   1.851   1.429
  292TIP3    H2  834   3.627   1.831   1.319
  293TIP3   OH2  835   4.373   1.127   0.962
  293TIP3    H1  836   4.371   1.073   1.042
  293TIP3    H2  837   4.432   1.200   0.988
  294TIP3   OH2  838   3.351   1.139   1.387
  294TIP3    H1  839   3.408   1.213   1.415
  294TIP3    H2  840   3.412   1.092   1.327
  295TIP3   OH2  841   3.411   1.978   1.489
  295TIP3    H1  842   3.389   2.067   1.456
  295TIP3    H2  843   3.332   1.961   1.545
  296TIP3   OH2  844   4.241   2.182   0.963
  296TIP3    H1  845   4.151   2.174   1.004
  296TIP3    H2  846   4.234   2.270   0.921
  297TIP3   OH2  847   4.538   1.074   1.330
  297TIP3    H1  848   4.453   1.107   1.299
  297TIP3    H2  849   4.600   1.110   1.263
  298TIP3   OH2  850   3.830   0.726   1.319
  298TIP3    H1  851   3.814   0.632   1.344
  298TIP3    H2  852   3.756   0.769   1.368
  299TIP3   OH2  853   3.941   2.227   0.636
  299TIP3    H1  854   3.990   2.143   0.618
  299TIP3    H2  855   4.006   2.291   0.600
  300TIP3   OH2  856   4.080   2.005   0.555
  300TIP3    H1  857   4.079   1.925   0.501
  300TIP3    H2  858   4.119   1.973   0.639
  301TIP3   OH2  859   4.468   2.092   1.312
  301TIP3    H1  860   4.459   2.015   1.252
  301TIP3    H2  861   4.453   2.167   1.252
  302TIP3   OH2  862   3.728   1.447   0.490
  302TIP3    H1  863   3.654   1.509   0.515
  302TIP3    H2  864   3.804   1.502   0.506
  303TIP3   OH2  865   4.664   1.728   1.154
  303TIP3    H1  866   4.582   1.782   1.159
  303TIP3    H2  867   4.697   1.754   1.066
  304TIP3   OH2  868   4.113   1.562   0.541
  304TIP3    H1  869   4.059   1.586   0.619
  304TIP3    H2  870   4.199   1.542   0.584
  305TIP3   OH2  871   4.344   1.607   1.460
  305TIP3    H1  872   4.345   1.688   1.515
  305TIP3    H2  873   4.260   1.618   1.412
  306TIP3   OH2  874   3.347   1.567   0.960
  306TIP3    H1  875   3.327   1.513   0.882
  306TIP3    H2  876   3.427   1.524   0.996
  307TIP3   OH2  877   3.473   1.977   1.107
  307TIP3    H1  878   3.457   1.945   1.018
  307TIP3    H2  879   3.563   1.943   1.126
  308TIP3   OH2  880   3.474   1.545   1.308
  308TIP3    H1  881   3.518   1.522   1.224
  308TIP3    H2  882   3.520   1.628   1.334
  309TIP3   OH2  883   4.001   2.175   1.089
  309TIP3    H1  884   3.991   2.258   1.140
  309TIP3    H2  885   3.986   2.105   1.155
  310TIP3   OH2  886   3.618   2.095   1.635
  310TIP3    H1  887   3.558   2.156   1.683
  310TIP3    H2  888   3.553   2.042   1.585
  311TIP3   OH2  889   3.968   1.428   0.358
  311TIP3    H1  890   4.022   1.487   0.416
  311TIP3    H2  891   4.001   1.456   0.268
  312TIP3   OH2  892   3.372   1.652   1.737
  312TIP3    H1  893   3.378   1.740   1.780
  312TIP3    H2  894   3.279   1.630   1.755
  313TIP3   OH2  895   3.696   2.103   0.651
  313TIP3    H1  896   3.778   2.156   0.654
  313TIP3    H2  897   3.637   2.158   0.598
  314TIP3   OH2  898   3.410   2.258   1.724
  314TIP3    H1  899   3.375   2.264   1.633
  314TIP3    H2  900   3.330   2.237   1.777
  315TIP3   OH2  901   4.264   2.042  -0.043
  315TIP3    H1  902   4.280   2.137  -0.059
  315TIP3    H2  903   4.355   2.006  -0.049
  316TIP3   OH2  904   2.989   1.792   1.672
  316TIP3    H1  905   2.928   1.763   1.602
  316TIP3    H2  906   3.031   1.709   1.701
  317TIP3   OH2  907   2.847   1.985   1.303
  317TIP3    H1  908   2.944   1.994   1.303
  317TIP3    H2  909   2.822   2.063   1.356
  318TIP3   OH2  910   4.707   2.439   1.359
  318TIP3    H1  911   4.707   2.344   1.377
  318TIP3    H2  912   4.625   2.466   1.406
  319TIP3   OH2  913   3.812   2.224   1.492
  319TIP3    H1  914   3.810   2.317   1.526
  319TIP3    H2  915   3.742   2.183   1.547
  320TIP3   OH2  916   3.576   2.351   0.446
  320TIP3    H1  917   3.536   2.340   0.358
  320TIP3    H2  918   3.545   2.439   0.474
  321TIP3   OH2  919   3.026   2.219   0.831
  321TIP3    H1  920   3.067   2.203   0.918
  321TIP3    H2  921   2.973   2.138   0.819
  322TIP3   OH2  922   3.765   2.246   0.095
  322TIP3    H1  923   3.827   2.190   0.043
  322TIP3    H2  924   3.812   2.254   0.180
  323TIP3   OH2  925   3.831   2.306   0.362
  323TIP3    H1  926   3.741   2.312   0.400
  323TIP3    H2  927   3.881   2.270   0.437
  324TIP3   OH2  928   4.597   1.566   1.637
  324TIP3    H1  929   4.514   1.576   1.588
  324TIP3    H2  930   4.613   1.469   1.629
  325TIP3   OH2  931   3.194   1.976   1.654
  325TIP3    H1  932   3.242   1.963   1.738
  325TIP3    H2  933   3.118   1.914   1.665
  326TIP3   OH2  934   3.604   0.812   1.452
  326TIP3    H1  935   3.513   0.785   1.429
  326TIP3    H2  936   3.582   0.891   1.505
  327TIP3   OH2  937   4.131   0.911   1.638
  327TIP3    H1  938   4.199   0.888   1.704
  327TIP3    H2  939   4.047   0.896   1.687
  328TIP3   OH2  940   4.359   1.341   1.553
  328TIP3    H1  941   4.312   1.340   1.639
  328TIP3    H2  942   4.341   1.432   1.521
  329TIP3   OH2  943   4.045   1.484   0.112
  329TIP3    H1  944   4.016   1.473   0.022
  329TIP3    H2  945   4.125   1.539   0.098
  330TIP3   OH2  946   3.529   1.327   1.463
  330TIP3    H1  947   3.488   1.351   1.549
  330TIP3    H2  948   3.511   1.408   1.411
  331TIP3   OH2  949   3.422   1.231   0.969
  331TIP3    H1  950   3.340   1.182   0.988
  331TIP3    H2  951   3.467   1.167   0.911
  332TIP3   OH2  952   3.899   1.283   0.697
  332TIP3    H1  953   3.843   1.339   0.642
  332TIP3    H2  954   3.960   1.243   0.632
  333TIP3   OH2  955   4.074   1.561   1.786
  333TIP3    H1  956   4.053   1.490   1.850
  333TIP3    H2  957   4.167   1.580   1.810
  334TIP3   OH2  958   4.052   1.310   0.941
  334TIP3    H1  959   3.995   1.337   0.867
  334TIP3    H2  960   4.093   1.231   0.900
  335TIP3   OH2  961   3.343   1.344   1.672
  335TIP3    H1  962   3.385   1.406   1.734
  335TIP3    H2  963   3.334   1.263   1.726
  336TIP3   OH2  964   4.055   1.559   1.360
  336TIP3    H1  965   4.093   1.488   1.303
  336TIP3    H2  966   4.031   1.507   1.439
  337TIP3   OH2  967   3.741   1.017   1.039
  337TIP3    H1  968   3.675   1.016   1.110
  337TIP3    H2  969   3.824   1.018   1.092
  338TIP3   OH2  970   4.226   1.100   1.241
  338TIP3    H1  971   4.196   1.113   1.333
  338TIP3    H2  972   4.159   1.037   1.210
  339TIP3   OH2  973   4.401   2.789   1.460
  339TIP3    H1  974   4.401   2.814   1.366
  339TIP3    H2  975   4.482   2.834   1.492
  340TIP3   OH2  976   3.358   1.897   1.879
  340TIP3    H1  977   3.438   1.926   1.927
  340TIP3    H2  978   3.292   1.900   1.952
  341TIP3   OH2  979   3.822   1.352   1.132
  341TIP3    H1  980   3.901   1.317   1.087
  341TIP3    H2  981   3.829   1.310   1.220
  342TIP3   OH2  982   3.796   1.255   1.422
  342TIP3    H1  983   3.708   1.294   1.441
  342TIP3    H2  984   3.857   1.312   1.473
  343TIP3   OH2  985   3.527   1.629   0.535
  343TIP3    H1  986   3.435   1.604   0.523
  343TIP3    H2  987   3.521   1.676   0.622
  344TIP3   OH2  988   4.432   1.877   1.144
  344TIP3    H1  989   4.459   1.928   1.064
  344TIP3    H2  990   4.348   1.836   1.115
  345TIP3   OH2  991   3.924   1.954   1.519
  345TIP3    H1  992   3.969   1.942   1.603
  345TIP3    H2  993   3.892   2.046   1.524
  346TIP3   OH2  994   4.057   1.194   0.478
  346TIP3    H1  995   4.152   1.192   0.501
  346TIP3    H2  996   4.049   1.278   0.431
  347TIP3   OH2  997   3.222   1.653   1.192
  347TIP3    H1  998   3.268   1.632   1.109
  347TIP3    H2  999   3.280   1.611   1.258
  348TIP3   OH2 1000   3.656   1.784   0.343
  348TIP3    H1 1001   3.628   1.876   0.362
  348TIP3    H2 1002   3.614   1.737   0.418
  349TIP3   OH2 1003   3.109   1.585   1.808
  349TIP3    H1 1004   3.133   1.572   1.902
  349TIP3    H2 1005   3.042   1.517   1.794
  350TIP3   OH2 1006   3.837   1.699   1.824
  350TIP3    H1 1007   3.780   1.637   1.777
  350TIP3    H2 1008   3.926   1.665   1.800
  351TIP3   OH2 1009   4.088   2.214   1.415
  351TIP3    H1 1010   3.991   2.219   1.429
  351TIP3    H2 1011   4.119   2.267   1.491
  352TIP3   OH2 1012   4.485   1.295   0.327
  352TIP3    H1 1013   4.450   1.238   0.257
  352TIP3    H2 1014   4.476   1.383   0.284
  353TIP3   OH2 1015   4.719   2.149   1.401
  353TIP3    H1 1016   4.622   2.143   1.393
  353TIP3    H2 1017   4.745   2.119   1.311
  354TIP3   OH2 1018   4.204   2.111   0.224
  354TIP3    H1 1019   4.175   2.041   0.283
  354TIP3    H2 1020   4.211   2.065   0.138
  355TIP3   OH2 1021   4.197   1.742   1.056
  355TIP3    H1 1022   4.105   1.717   1.075
  355TIP3    H2 1023   4.231   1.659   1.018
  356TIP3   OH2 1024   3.326   1.966   0.811
  356TIP3    H1 1025   3.326   2.050   0.761
  356TIP3    H2 1026   3.232   1.956   0.829
  357TIP3   OH2 1027   3.463   1.734   0.770
  357TIP3    H1 1028   3.428   1.825   0.780
  357TIP3    H2 1029   3.425   1.691   0.849
  358TIP3   OH2 1030   3.598   2.309   1.287
  358TIP3    H1 1031   3.641   2.382   1.238
  358TIP3    H2 1032   3.673   2.273   1.336
  359TIP3   OH2 1033   3.248   2.205   0.666
  359TIP3    H1 1034   3.164   2.218   0.715
  359TIP3    H2 1035   3.283   2.296   0.668
  360TIP3   OH2 1036   3.979   1.941   1.250
  360TIP3    H1 1037   3.967   1.940   1.348
  360TIP3    H2 1038   4.066   1.901   1.242
  361TIP3   OH2 1039   3.969   1.850   0.126
  361TIP3    H1 1040   4.011   1.825   0.210
  361TIP3    H2 1041   3.898   1.784   0.117
  362TIP3   OH2 1042   4.229   2.474   1.296
  362TIP3    H1 1043   4.148   2.420   1.289
  362TIP3    H2 1044   4.215   2.540   1.225
  363TIP3   OH2 1045   4.299   2.321  -0.059
  363TIP3    H1 1046   4.348   2.403  -0.080
  363TIP3    H2 1047   4.217   2.360  -0.023
  364TIP3   OH2 1048   3.312   1.087   1.812
  364TIP3    H1 1049   3.221   1.107   1.840
  364TIP3    H2 1050   3.345   1.037   1.888
  365TIP3   OH2 1051   4.121   1.770   0.357
  365TIP3    H1 1052   4.117   1.702   0.427
  365TIP3    H2 1053   4.217   1.769   0.338
  366TIP3   OH2 1054   3.039   2.166   1.439
  366TIP3    H1 1055   3.098   2.105   1.485
  366TIP3    H2 1056   3.035   2.240   1.501
  367TIP3   OH2 1057   3.294   1.820   0.392
  367TIP3    H1 1058   3.309   1.808   0.486
  367TIP3    H2 1059   3.284   1.917   0.389
  368TIP3   OH2 1060   4.154   1.150   1.499
  368TIP3    H1 1061   4.233   1.194   1.536
  368TIP3    H2 1062   4.145   1.071   1.555
  369TIP3   OH2 1063   4.005   0.945   0.645
  369TIP3    H1 1064   4.034   0.972   0.556
  369TIP3    H2 1065   4.059   1.004   0.701
  370TIP3   OH2 1066   3.543   2.024   0.378
  370TIP3    H1 1067   3.456   2.058   0.407
  370TIP3    H2 1068   3.540   2.044   0.283
  371TIP3   OH2 1069   3.708   1.086   0.754
  371TIP3    H1 1070   3.780   1.152   0.747
  371TIP3    H2 1071   3.713   1.061   0.848
  372TIP3   OH2 1072   3.994   1.399   1.572
  372TIP3    H1 1073   4.018   1.452   1.650
  372TIP3    H2 1074   4.048   1.319   1.585
  373TIP3   OH2 1075   3.929   0.842   0.893
  373TIP3    H1 1076   3.876   0.917   0.922
  373TIP3    H2 1077   3.945   0.863   0.799
  374TIP3   OH2 1078   3.274   2.088   0.417
  374TIP3    H1 1079   3.248   2.161   0.356
  374TIP3    H2 1080   3.259   2.130   0.505
  375TIP3   OH2 1081   4.628   1.300   1.559
  375TIP3    H1 1082   4.530   1.295   1.560
  375TIP3    H2 1083   4.647   1.270   1.470
  376TIP3   OH2 1084   4.282   1.496   0.944
  376TIP3    H1 1085   4.210   1.432   0.961
  376TIP3    H2 1086   4.357   1.453   0.990
  377TIP3   OH2 1087   4.252   2.453   0.888
  377TIP3    H1 1088   4.210   2.500   0.813
  377TIP3    H2 1089   4.347   2.472   0.869
  378TIP3   OH2 1090   3.331   0.748   1.480
  378TIP3    H1 1091   3.335   0.697   1.397
  378TIP3    H2 1092   3.333   0.674   1.544
  379TIP3   OH2 1093   2.891   1.982   0.784
  379TIP3    H1 1094   2.811   1.934   0.805
  379TIP3    H2 1095   2.925   1.930   0.709
  380TIP3   OH2 1096   3.028   2.487   1.869
  380TIP3    H1 1097   3.113   2.487   1.917
  380TIP3    H2 1098   3.007   2.392   1.868
  381TIP3   OH2 1099   3.501   2.442   1.914
  381TIP3    H1 1100   3.596   2.427   1.923
  381TIP3    H2 1101   3.479   2.379   1.842
  382TIP3   OH2 1102   3.495   2.025   0.102
  382TIP3    H1 1103   3.419   1.967   0.087
  382TIP3    H2 1104   3.536   2.019   0.015
  383TIP3   OH2 1105   4.145   2.350   1.647
  383TIP3    H1 1106   4.137   2.281   1.718
  383TIP3    H2 1107   4.222   2.401   1.678
  384TIP3   OH2 1108   3.935   2.067  -0.041
  384TIP3    H1 1109   3.946   1.991   0.019
  384TIP3    H2 1110   4.025   2.076  -0.076
  385TIP3   OH2 1111   3.155   1.889   2.069
  385TIP3    H1 1112   3.164   1.794   2.087
  385TIP3    H2 1113   3.068   1.893   2.024
  386TIP3   OH2 1114   3.760   1.974   1.845
  386TIP3    H1 1115   3.723   1.995   1.757
  386TIP3    H2 1116   3.794   1.883   1.834
  387TIP3   OH2 1117   3.737   1.665   0.100
  387TIP3    H1 1118   3.709   1.711   0.182
  387TIP3    H2 1119   3.663   1.682   0.041
  388TIP3   OH2 1120   4.251   1.986   1.447
  388TIP3    H1 1121   4.330   2.025   1.406
  388TIP3    H2 1122   4.186   2.058   1.434
  389TIP3   OH2 1123   3.283   1.602   2.053
  389TIP3    H1 1124   3.372   1.571   2.028
  389TIP3    H2 1125   3.302   1.647   2.138
  390TIP3   OH2 1126   3.601   1.497   1.704
  390TIP3    H1 1127   3.531   1.565   1.711
  390TIP3    H2 1128   3.659   1.534   1.634
  391TIP3   OH2 1129   4.125   1.906   1.845
  391TIP3    H1 1130   4.209   1.882   1.806
  391TIP3    H2 1131   4.120   1.845   1.921
  392TIP3   OH2 1132   4.268   1.577  -0.033
  392TIP3    H1 1133   4.297   1.541  -0.118
  392TIP3    H2 1134   4.272   1.672  -0.048
  393TIP3   OH2 1135   3.730   1.296   1.841
  393TIP3    H1 1136   3.736   1.216   1.784
  393TIP3    H2 1137   3.686   1.360   1.782
  394TIP3   OH2 1138   3.740   1.083   1.648
  394TIP3    H1 1139   3.769   1.124   1.565
  394TIP3    H2 1140   3.645   1.064   1.630
  395TIP3   OH2 1141   3.757   1.611   1.518
  395TIP3    H1 1142   3.846   1.628   1.484
  395TIP3    H2 1143   3.704   1.681   1.473
  396TIP3   OH2 1144   4.339   1.582   1.897
  396TIP3    H1 1145   4.390   1.502   1.921
  396TIP3    H2 1146   4.409   1.641   1.866
  397TIP3   OH2 1147   4.384   1.835   1.630
  397TIP3    H1 1148   4.325   1.891   1.574
  397TIP3    H2 1149   4.472   1.858   1.593
  398TIP3   OH2 1150   3.600   1.408   2.066
  398TIP3    H1 1151   3.535   1.337   2.086
  398TIP3    H2 1152   3.643   1.373   1.986
  399TIP3   OH2 1153   3.868   0.841   1.714
  399TIP3    H1 1154   3.817   0.923   1.694
  399TIP3    H2 1155   3.798   0.772   1.707
  400TIP3   OH2 1156   3.994   1.347   1.934
  400TIP3    H1 1157   3.990   1.333   2.030
  400TIP3    H2 1158   3.902   1.322   1.910
  401TIP3   OH2 1159   4.228   1.293   1.784
  401TIP3    H1 1160   4.157   1.298   1.850
  401TIP3    H2 1161   4.305   1.266   1.840
  402TIP3   OH2 1162   4.456   1.236   1.932
  402TIP3    H1 1163   4.470   1.141   1.953
  402TIP3    H2 1164   4.452   1.277   2.021
  403TIP3   OH2 1165   3.450   1.185   2.129
  403TIP3    H1 1166   3.452   1.091   2.103
  403TIP3    H2 1167   3.491   1.182   2.216
  404TIP3   OH2 1168   3.966   0.855   1.970
  404TIP3    H1 1169   4.027   0.780   1.965
  404TIP3    H2 1170   3.921   0.848   1.883
  405TIP3   OH2 1171   4.030   1.072   2.127
  405TIP3    H1 1172   4.006   0.999   2.065
  405TIP3    H2 1173   3.948   1.126   2.128
  406TIP3   OH2 1174   3.239   2.280   0.223
  406TIP3    H1 1175   3.333   2.295   0.202
  406TIP3    H2 1176   3.195   2.344   0.167
  407TIP3   OH2 1177   2.642   2.282   0.858
  407TIP3    H1 1178   2.601   2.210   0.809
  407TIP3    H2 1179   2.692   2.232   0.928
  408TIP3   OH2 1180   2.764   2.150   1.062
  408TIP3    H1 1181   2.773   2.073   1.120
  408TIP3    H2 1182   2.821   2.214   1.109
  409TIP3   OH2 1183   4.506   2.543   0.851
  409TIP3    H1 1184   4.533   2.573   0.940
  409TIP3    H2 1185   4.573   2.584   0.795
  410TIP3   OH2 1186   4.535   2.561   1.132
  410TIP3    H1 1187   4.491   2.473   1.129
  410TIP3    H2 1188   4.610   2.540   1.190
  411TIP3   OH2 1189   4.579   2.239   1.704
  411TIP3    H1 1190   4.509   2.250   1.771
  411TIP3    H2 1191   4.624   2.326   1.708
  412TIP3   OH2 1192   4.394   1.747   0.322
  412TIP3    H1 1193   4.455   1.818   0.291
  412TIP3    H2 1194   4.444   1.716   0.401
  413TIP3   OH2 1195   4.528   1.624   0.527
  413TIP3    H1 1196   4.471   1.586   0.596
  413TIP3    H2 1197   4.603   1.661   0.578
  414TIP3   OH2 1198   4.580   2.009   0.954
  414TIP3    H1 1199   4.635   1.942   0.909
  414TIP3    H2 1200   4.580   2.083   0.890
  415TIP3   OH2 1201   4.409   2.312   1.152
  415TIP3    H1 1202   4.337   2.354   1.204
  415TIP3    H2 1203   4.359   2.266   1.081
  416TIP3   OH2 1204   4.441   1.519   0.178
  416TIP3    H1 1205   4.382   1.541   0.103
  416TIP3    H2 1206   4.431   1.599   0.234
  417TIP3   OH2 1207   4.333   1.167   0.118
  417TIP3    H1 1208   4.309   1.254   0.086
  417TIP3    H2 1209   4.245   1.126   0.135
  418TIP3   OH2 1210   4.337   1.478   0.677
  418TIP3    H1 1211   4.351   1.383   0.672
  418TIP3    H2 1212   4.325   1.493   0.773
  419TIP3   OH2 1213   2.967   1.567   1.432
  419TIP3    H1 1214   2.965   1.533   1.341
  419TIP3    H2 1215   3.064   1.563   1.450
  420TIP3   OH2 1216   4.630   1.903   1.529
  420TIP3    H1 1217   4.701   1.835   1.520
  420TIP3    H2 1218   4.659   1.972   1.467
  421TIP3   OH2 1219   4.810   1.701   1.540
  421TIP3    H1 1220   4.737   1.652   1.583
  421TIP3    H2 1221   4.885   1.640   1.556
  422TIP3   OH2 1222   4.325   1.195   0.559
  422TIP3    H1 1223   4.369   1.108   0.576
  422TIP3    H2 1224   4.389   1.233   0.495
  423TIP3   OH2 1225   4.494   1.367   1.062
  423TIP3    H1 1226   4.581   1.389   1.021
  423TIP3    H2 1227   4.511   1.403   1.152
  424TIP3   OH2 1228   4.567   1.510   1.293
  424TIP3    H1 1229   4.491   1.546   1.343
  424TIP3    H2 1230   4.601   1.590   1.247
  425TIP3   OH2 1231   5.014   1.100   1.849
  425TIP3    H1 1232   5.078   1.038   1.808
  425TIP3    H2 1233   4.986   1.154   1.772
  426TIP3   OH2 1234   4.440   0.955   0.612
  426TIP3    H1 1235   4.482   0.945   0.700
  426TIP3    H2 1236   4.384   0.875   0.611
  427TIP3   OH2 1237   3.157   0.949   1.453
  427TIP3    H1 1238   3.222   0.885   1.490
  427TIP3    H2 1239   3.208   1.031   1.455
  428TIP3   OH2 1240   2.968   1.219   1.499
  428TIP3    H1 1241   3.011   1.227   1.412
  428TIP3    H2 1242   2.984   1.305   1.538
  429TIP3   OH2 1243   4.886   1.240   1.654
  429TIP3    H1 1244   4.803   1.284   1.680
  429TIP3    H2 1245   4.850   1.169   1.597
  430TIP3   OH2 1246   4.092   2.408   0.506
  430TIP3    H1 1247   4.143   2.401   0.424
  430TIP3    H2 1248   4.142   2.475   0.556
  431TIP3   OH2 1249   3.159   0.767   1.839
  431TIP3    H1 1250   3.121   0.780   1.927
  431TIP3    H2 1251   3.104   0.830   1.787
  432TIP3   OH2 1252   3.190   2.213   1.888
  432TIP3    H1 1253   3.096   2.191   1.877
  432TIP3    H2 1254   3.203   2.198   1.982
  433TIP3   OH2 1255   3.372   2.247   1.436
  433TIP3    H1 1256   3.322   2.322   1.398
  433TIP3    H2 1257   3.458   2.263   1.391
  434TIP3   OH2 1258   3.810   2.491   1.573
  434TIP3    H1 1259   3.852   2.489   1.662
  434TIP3    H2 1260   3.877   2.543   1.523
  435TIP3   OH2 1261   3.992   2.644   1.436
  435TIP3    H1 1262   4.064   2.594   1.396
  435TIP3    H2 1263   4.043   2.702   1.498
  436TIP3   OH2 1264   4.787   1.006   1.535
  436TIP3    H1 1265   4.698   0.997   1.496
  436TIP3    H2 1266   4.821   0.914   1.527
  437TIP3   OH2 1267   3.039   2.506   1.459
  437TIP3    H1 1268   2.948   2.540   1.443
  437TIP3    H2 1269   3.054   2.538   1.548
  438TIP3   OH2 1270   3.279   2.481   1.321
  438TIP3    H1 1271   3.192   2.494   1.364
  438TIP3    H2 1272   3.262   2.513   1.231
  439TIP3   OH2 1273   3.706   2.509   1.118
  439TIP3    H1 1274   3.637   2.528   1.053
  439TIP3    H2 1275   3.718   2.596   1.161
  440TIP3   OH2 1276   3.976   2.445   1.169
  440TIP3    H1 1277   3.883   2.466   1.150
  440TIP3    H2 1278   4.022   2.520   1.128
  441TIP3   OH2 1279   4.178   2.637   1.082
  441TIP3    H1 1280   4.167   2.722   1.035
  441TIP3    H2 1281   4.208   2.578   1.010
  442TIP3   OH2 1282   2.955   2.295   1.204
  442TIP3    H1 1283   2.984   2.267   1.294
  442TIP3    H2 1284   3.027   2.252   1.152
  443TIP3   OH2 1285   3.153   2.169   1.067
  443TIP3    H1 1286   3.168   2.085   1.117
  443TIP3    H2 1287   3.244   2.205   1.064
  444TIP3   OH2 1288   3.419   2.260   1.072
  444TIP3    H1 1289   3.451   2.169   1.063
  444TIP3    H2 1290   3.466   2.286   1.153
  445TIP3   OH2 1291   3.988   0.931   1.167
  445TIP3    H1 1292   3.949   0.857   1.215
  445TIP3    H2 1293   4.041   0.885   1.098
  446TIP3   OH2 1294   4.512   0.803   1.068
  446TIP3    H1 1295   4.544   0.860   0.994
  446TIP3    H2 1296   4.415   0.816   1.061
  447TIP3   OH2 1297   4.587   0.922   0.838
  447TIP3    H1 1298   4.659   0.859   0.815
  447TIP3    H2 1299   4.632   1.008   0.823
  448TIP3   OH2 1300   3.683   0.676   1.088
  448TIP3    H1 1301   3.710   0.733   1.016
  448TIP3    H2 1302   3.736   0.708   1.163
  449TIP3   OH2 1303   4.237   0.809   1.034
  449TIP3    H1 1304   4.220   0.777   0.945
  449TIP3    H2 1305   4.210   0.732   1.088
  450TIP3   OH2 1306   4.269   0.740   0.637
  450TIP3    H1 1307   4.178   0.771   0.626
  450TIP3    H2 1308   4.262   0.668   0.702
  451TIP3   OH2 1309   3.509   2.290   0.175
  451TIP3    H1 1310   3.601   2.306   0.143
  451TIP3    H2 1311   3.502   2.197   0.146
  452TIP3   OH2 1312   4.237   2.377   0.273
  452TIP3    H1 1313   4.230   2.279   0.261
  452TIP3    H2 1314   4.189   2.408   0.193
  453TIP3   OH2 1315   3.434   0.899   2.071
  453TIP3    H1 1316   3.414   0.818   2.121
  453TIP3    H2 1317   3.532   0.902   2.087
  454TIP3   OH2 1318   3.691   0.884   2.152
  454TIP3    H1 1319   3.784   0.862   2.133
  454TIP3    H2 1320   3.686   0.860   2.246
  455TIP3   OH2 1321   4.526   0.965   1.967
  455TIP3    H1 1322   4.544   0.937   2.059
  455TIP3    H2 1323   4.616   0.965   1.927
  456TIP3   OH2 1324   4.460   2.519   1.457
  456TIP3    H1 1325   4.381   2.490   1.408
  456TIP3    H2 1326   4.441   2.615   1.466
  457TIP3   OH2 1327   5.696   1.914   0.256
  457TIP3    H1 1328   5.674   1.998   0.210
  457TIP3    H2 1329   5.623   1.857   0.229
  458TIP3   OH2 1330   5.737   1.896   0.605
  458TIP3    H1 1331   5.750   1.855   0.692
  458TIP3    H2 1332   5.683   1.830   0.559
  459TIP3   OH2 1333   5.023   1.790   0.974
  459TIP3    H1 1334   5.059   1.726   1.038
  459TIP3    H2 1335   5.101   1.806   0.917
  460TIP3   OH2 1336   5.977   2.202   0.288
  460TIP3    H1 1337   5.947   2.134   0.350
  460TIP3    H2 1338   6.005   2.273   0.348
  461TIP3   OH2 1339   4.999   2.199   0.691
  461TIP3    H1 1340   4.987   2.104   0.685
  461TIP3    H2 1341   5.096   2.206   0.685
  462TIP3   OH2 1342   4.698   1.398   0.477
  462TIP3    H1 1343   4.681   1.491   0.499
  462TIP3    H2 1344   4.610   1.369   0.449
  463TIP3   OH2 1345   4.768   1.689   0.648
  463TIP3    H1 1346   4.822   1.614   0.678
  463TIP3    H2 1347   4.833   1.732   0.586
  464TIP3   OH2 1348   5.623   2.658   0.310
  464TIP3    H1 1349   5.663   2.582   0.263
  464TIP3    H2 1350   5.611   2.622   0.398
  465TIP3   OH2 1351   5.521   2.126   0.654
  465TIP3    H1 1352   5.551   2.048   0.605
  465TIP3    H2 1353   5.608   2.163   0.679
  466TIP3   OH2 1354   5.946   1.628   0.690
  466TIP3    H1 1355   5.976   1.540   0.721
  466TIP3    H2 1356   5.886   1.599   0.618
  467TIP3   OH2 1357   5.263   1.301   0.678
  467TIP3    H1 1358   5.241   1.364   0.606
  467TIP3    H2 1359   5.249   1.215   0.635
  468TIP3   OH2 1360   4.904   1.476   0.760
  468TIP3    H1 1361   4.987   1.469   0.809
  468TIP3    H2 1362   4.923   1.415   0.685
  469TIP3   OH2 1363   5.361   1.703   0.580
  469TIP3    H1 1364   5.447   1.658   0.579
  469TIP3    H2 1365   5.304   1.641   0.533
  470TIP3   OH2 1366   6.587   1.619   0.855
  470TIP3    H1 1367   6.524   1.684   0.820
  470TIP3    H2 1368   6.656   1.675   0.894
  471TIP3   OH2 1369   5.271   1.264   1.091
  471TIP3    H1 1370   5.213   1.306   1.024
  471TIP3    H2 1371   5.219   1.282   1.172
  472TIP3   OH2 1372   5.630   2.127   0.085
  472TIP3    H1 1373   5.574   2.089   0.015
  472TIP3    H2 1374   5.575   2.203   0.113
  473TIP3   OH2 1375   5.385   2.041   0.880
  473TIP3    H1 1376   5.322   2.108   0.916
  473TIP3    H2 1377   5.424   2.088   0.804
  474TIP3   OH2 1378   5.132   1.391   0.892
  474TIP3    H1 1379   5.195   1.463   0.915
  474TIP3    H2 1380   5.180   1.355   0.813
  475TIP3   OH2 1381   5.209   2.235   0.978
  475TIP3    H1 1382   5.182   2.323   0.943
  475TIP3    H2 1383   5.130   2.215   1.033
  476TIP3   OH2 1384   4.576   1.929   0.227
  476TIP3    H1 1385   4.569   1.948   0.132
  476TIP3    H2 1386   4.633   2.001   0.258
  477TIP3   OH2 1387   6.040   2.442   0.454
  477TIP3    H1 1388   5.951   2.432   0.495
  477TIP3    H2 1389   6.030   2.528   0.408
  478TIP3   OH2 1390   5.736   2.470   0.142
  478TIP3    H1 1391   5.784   2.386   0.123
  478TIP3    H2 1392   5.800   2.533   0.102
  479TIP3   OH2 1393   5.876   2.255   0.039
  479TIP3    H1 1394   5.800   2.193   0.046
  479TIP3    H2 1395   5.929   2.229   0.118
  480TIP3   OH2 1396   6.268   2.349   0.798
  480TIP3    H1 1397   6.252   2.271   0.740
  480TIP3    H2 1398   6.248   2.424   0.737
  481TIP3   OH2 1399   6.461   2.000   0.661
  481TIP3    H1 1400   6.373   2.044   0.656
  481TIP3    H2 1401   6.490   2.009   0.569
  482TIP3   OH2 1402   6.133   1.871   0.949
  482TIP3    H1 1403   6.127   1.952   1.003
  482TIP3    H2 1404   6.044   1.871   0.907
  483TIP3   OH2 1405   5.267   2.237   0.591
  483TIP3    H1 1406   5.247   2.196   0.506
  483TIP3    H2 1407   5.356   2.201   0.611
  484TIP3   OH2 1408   5.265   1.796   0.818
  484TIP3    H1 1409   5.287   1.769   0.725
  484TIP3    H2 1410   5.313   1.880   0.825
  485TIP3   OH2 1411   5.800   2.432   0.576
  485TIP3    H1 1412   5.789   2.511   0.632
  485TIP3    H2 1413   5.784   2.359   0.638
  486TIP3   OH2 1414   5.414   2.351   1.123
  486TIP3    H1 1415   5.353   2.411   1.170
  486TIP3    H2 1416   5.350   2.297   1.072
  487TIP3   OH2 1417   5.176   1.903   1.240
  487TIP3    H1 1418   5.175   1.993   1.279
  487TIP3    H2 1419   5.080   1.888   1.230
  488TIP3   OH2 1420   5.487   2.357   0.130
  488TIP3    H1 1421   5.571   2.406   0.142
  488TIP3    H2 1422   5.430   2.423   0.090
  489TIP3   OH2 1423   5.206   2.515   1.211
  489TIP3    H1 1424   5.170   2.519   1.121
  489TIP3    H2 1425   5.127   2.495   1.265
  490TIP3   OH2 1426   4.784   2.052   1.157
  490TIP3    H1 1427   4.721   2.026   1.087
  490TIP3    H2 1428   4.825   1.966   1.182
  491TIP3   OH2 1429   4.640   2.243   0.789
  491TIP3    H1 1430   4.736   2.237   0.781
  491TIP3    H2 1431   4.631   2.321   0.847
  492TIP3   OH2 1432   6.505   2.698   0.847
  492TIP3    H1 1433   6.503   2.602   0.863
  492TIP3    H2 1434   6.422   2.724   0.893
  493TIP3   OH2 1435   5.607   2.480   0.979
  493TIP3    H1 1436   5.606   2.573   1.012
  493TIP3    H2 1437   5.537   2.439   1.034
  494TIP3   OH2 1438   5.376   2.620  -0.070
  494TIP3    H1 1439   5.306   2.596  -0.131
  494TIP3    H2 1440   5.346   2.706  -0.035
  495TIP3   OH2 1441   4.811   2.456   0.319
  495TIP3    H1 1442   4.857   2.448   0.405
  495TIP3    H2 1443   4.764   2.371   0.315
  496TIP3   OH2 1444   5.606   2.500  -0.163
  496TIP3    H1 1445   5.526   2.543  -0.126
  496TIP3    H2 1446   5.668   2.512  -0.090
  497TIP3   OH2 1447   6.395   1.826   1.132
  497TIP3    H1 1448   6.316   1.834   1.077
  497TIP3    H2 1449   6.412   1.729   1.128
  498TIP3   OH2 1450   4.989   2.235   1.141
  498TIP3    H1 1451   5.039   2.219   1.224
  498TIP3    H2 1452   4.915   2.171   1.150
  499TIP3   OH2 1453   5.377   1.054   0.941
  499TIP3    H1 1454   5.289   1.029   0.906
  499TIP3    H2 1455   5.356   1.139   0.983
  500TIP3   OH2 1456   5.919   1.159   1.112
  500TIP3    H1 1457   5.987   1.143   1.181
  500TIP3    H2 1458   5.835   1.146   1.162
  501TIP3   OH2 1459   6.160   1.601   1.038
  501TIP3    H1 1460   6.112   1.598   1.124
  501TIP3    H2 1461   6.137   1.690   1.005
  502TIP3   OH2 1462   5.329   1.573   0.955
  502TIP3    H1 1463   5.280   1.599   1.036
  502TIP3    H2 1464   5.314   1.652   0.899
  503TIP3   OH2 1465   5.209   1.480   0.478
  503TIP3    H1 1466   5.121   1.518   0.474
  503TIP3    H2 1467   5.232   1.468   0.384
  504TIP3   OH2 1468   5.871   1.819   1.274
  504TIP3    H1 1469   5.848   1.747   1.337
  504TIP3    H2 1470   5.964   1.834   1.298
  505TIP3   OH2 1471   5.822   1.553   0.461
  505TIP3    H1 1472   5.831   1.606   0.379
  505TIP3    H2 1473   5.836   1.463   0.426
  506TIP3   OH2 1474   5.141   1.603   1.158
  506TIP3    H1 1475   5.174   1.667   1.222
  506TIP3    H2 1476   5.133   1.521   1.210
  507TIP3   OH2 1477   4.724   1.138   0.763
  507TIP3    H1 1478   4.803   1.170   0.812
  507TIP3    H2 1479   4.761   1.114   0.677
  508TIP3   OH2 1480   4.754   1.198   0.289
  508TIP3    H1 1481   4.802   1.280   0.298
  508TIP3    H2 1482   4.664   1.227   0.312
  509TIP3   OH2 1483   5.866   1.821   0.859
  509TIP3    H1 1484   5.900   1.753   0.796
  509TIP3    H2 1485   5.832   1.763   0.930
  510TIP3   OH2 1486   5.509   1.303   0.538
  510TIP3    H1 1487   5.442   1.328   0.605
  510TIP3    H2 1488   5.576   1.256   0.588
  511TIP3   OH2 1489   4.947   1.310   0.545
  511TIP3    H1 1490   4.858   1.340   0.516
  511TIP3    H2 1491   4.980   1.260   0.470
  512TIP3   OH2 1492   5.966   1.355   0.723
  512TIP3    H1 1493   5.959   1.375   0.819
  512TIP3    H2 1494   5.930   1.266   0.719
  513TIP3   OH2 1495   6.199   3.044   0.948
  513TIP3    H1 1496   6.197   3.070   0.854
  513TIP3    H2 1497   6.278   3.092   0.980
  514TIP3   OH2 1498   5.152   2.158   1.365
  514TIP3    H1 1499   5.232   2.186   1.413
  514TIP3    H2 1500   5.087   2.156   1.438
  515TIP3   OH2 1501   5.619   1.611   0.642
  515TIP3    H1 1502   5.683   1.570   0.580
  515TIP3    H2 1503   5.623   1.553   0.720
  516TIP3   OH2 1504   5.595   1.504   0.911
  516TIP3    H1 1505   5.504   1.539   0.920
  516TIP3    H2 1506   5.648   1.569   0.959
  517TIP3   OH2 1507   5.290   1.930  -0.005
  517TIP3    H1 1508   5.255   1.839  -0.010
  517TIP3    H2 1509   5.293   1.943   0.093
  518TIP3   OH2 1510   6.224   2.133   0.633
  518TIP3    H1 1511   6.244   2.186   0.553
  518TIP3    H2 1512   6.136   2.096   0.611
  519TIP3   OH2 1513   5.734   2.220   1.000
  519TIP3    H1 1514   5.755   2.194   1.091
  519TIP3    H2 1515   5.688   2.304   1.011
  520TIP3   OH2 1516   5.470   2.063  -0.157
  520TIP3    H1 1517   5.420   2.147  -0.164
  520TIP3    H2 1518   5.406   2.008  -0.107
  521TIP3   OH2 1519   4.900   1.844   1.297
  521TIP3    H1 1520   4.926   1.830   1.390
  521TIP3    H2 1521   4.836   1.772   1.284
  522TIP3   OH2 1522   5.630   1.955   1.313
  522TIP3    H1 1523   5.568   1.897   1.266
  522TIP3    H2 1524   5.716   1.918   1.284
  523TIP3   OH2 1525   5.886   2.482   0.894
  523TIP3    H1 1526   5.791   2.473   0.911
  523TIP3    H2 1527   5.915   2.529   0.975
  524TIP3   OH2 1528   6.517   2.406   0.887
  524TIP3    H1 1529   6.419   2.401   0.881
  524TIP3    H2 1530   6.542   2.374   0.798
  525TIP3   OH2 1531   5.984   2.014   0.558
  525TIP3    H1 1532   5.891   1.987   0.573
  525TIP3    H2 1533   6.019   1.931   0.521
  526TIP3   OH2 1534   5.124   2.222   0.309
  526TIP3    H1 1535   5.113   2.301   0.253
  526TIP3    H2 1536   5.033   2.192   0.321
  527TIP3   OH2 1537   4.684   1.506   0.023
  527TIP3    H1 1538   4.728   1.593   0.026
  527TIP3    H2 1539   4.611   1.519   0.085
  528TIP3   OH2 1540   5.256   1.975   0.261
  528TIP3    H1 1541   5.217   2.061   0.283
  528TIP3    H2 1542   5.216   1.917   0.328
  529TIP3   OH2 1543   5.393   2.565   0.774
  529TIP3    H1 1544   5.438   2.637   0.727
  529TIP3    H2 1545   5.467   2.526   0.823
  530TIP3   OH2 1546   5.035   2.465   0.154
  530TIP3    H1 1547   4.951   2.469   0.205
  530TIP3    H2 1548   5.066   2.557   0.162
  531TIP3   OH2 1549   5.777   2.199   0.732
  531TIP3    H1 1550   5.768   2.199   0.830
  531TIP3    H2 1551   5.854   2.142   0.720
  532TIP3   OH2 1552   6.028   2.730   0.784
  532TIP3    H1 1553   5.950   2.672   0.783
  532TIP3    H2 1554   6.008   2.793   0.712
  533TIP3   OH2 1555   5.111   1.343   1.304
  533TIP3    H1 1556   5.015   1.346   1.318
  533TIP3    H2 1557   5.141   1.290   1.380
  534TIP3   OH2 1558   4.829   2.426   0.933
  534TIP3    H1 1559   4.885   2.355   0.970
  534TIP3    H2 1560   4.854   2.500   0.990
  535TIP3   OH2 1561   5.114   2.079  -0.384
  535TIP3    H1 1562   5.085   1.989  -0.407
  535TIP3    H2 1563   5.102   2.079  -0.287
  536TIP3   OH2 1564   5.070   2.083  -0.111
  536TIP3    H1 1565   5.141   2.041  -0.059
  536TIP3    H2 1566   5.080   2.178  -0.088
  537TIP3   OH2 1567   4.778   1.763   0.071
  537TIP3    H1 1568   4.772   1.790   0.164
  537TIP3    H2 1569   4.830   1.835   0.033
  538TIP3   OH2 1570   5.953   1.406   0.990
  538TIP3    H1 1571   6.030   1.448   1.031
  538TIP3    H2 1572   5.940   1.325   1.044
  539TIP3   OH2 1573   5.324   2.291  -0.187
  539TIP3    H1 1574   5.242   2.314  -0.139
  539TIP3    H2 1575   5.321   2.352  -0.261
  540TIP3   OH2 1576   5.788   1.655   1.059
  540TIP3    H1 1577   5.810   1.710   1.137
  540TIP3    H2 1578   5.841   1.575   1.075
  541TIP3   OH2 1579   5.078   2.357  -0.092
  541TIP3    H1 1580   5.050   2.428  -0.154
  541TIP3    H2 1581   5.057   2.396  -0.005
  542TIP3   OH2 1582   6.430   1.556   1.070
  542TIP3    H1 1583   6.335   1.548   1.049
  542TIP3    H2 1584   6.470   1.560   0.980
  543TIP3   OH2 1585   6.067   1.764   0.473
  543TIP3    H1 1586   5.996   1.717   0.519
  543TIP3    H2 1587   6.143   1.732   0.526
  544TIP3   OH2 1588   4.792   2.018  -0.106
  544TIP3    H1 1589   4.878   2.060  -0.088
  544TIP3    H2 1590   4.825   1.942  -0.159
  545TIP3   OH2 1591   6.046   2.715   0.371
  545TIP3    H1 1592   6.004   2.765   0.299
  545TIP3    H2 1593   6.141   2.737   0.353
  546TIP3   OH2 1594   5.112   0.972   0.903
  546TIP3    H1 1595   5.093   0.928   0.819
  546TIP3    H2 1596   5.103   0.898   0.966
  547TIP3   OH2 1597   4.668   2.208   0.283
  547TIP3    H1 1598   4.596   2.224   0.345
  547TIP3    H2 1599   4.630   2.241   0.199
  548TIP3   OH2 1600   4.823   2.743   1.356
  548TIP3    H1 1601   4.909   2.746   1.404
  548TIP3    H2 1602   4.806   2.648   1.356
  549TIP3   OH2 1603   5.297   2.700   1.400
  549TIP3    H1 1604   5.392   2.684   1.409
  549TIP3    H2 1605   5.274   2.636   1.329
  550TIP3   OH2 1606   5.943   2.606   1.133
  550TIP3    H1 1607   5.933   2.538   1.204
  550TIP3    H2 1608   6.017   2.660   1.166
  551TIP3   OH2 1609   4.950   2.143   1.556
  551TIP3    H1 1610   4.966   2.047   1.565
  551TIP3    H2 1611   4.863   2.145   1.511
  552TIP3   OH2 1612   4.923   1.821  -0.228
  552TIP3    H1 1613   4.977   1.751  -0.190
  552TIP3    H2 1614   4.944   1.816  -0.323
  553TIP3   OH2 1615   5.558   2.231   1.331
  553TIP3    H1 1616   5.516   2.250   1.244
  553TIP3    H2 1617   5.588   2.138   1.320
  554TIP3   OH2 1618   6.051   2.241   0.939
  554TIP3    H1 1619   6.125   2.287   0.896
  554TIP3    H2 1620   5.978   2.302   0.923
  555TIP3   OH2 1621   5.069   1.879   1.542
  555TIP3    H1 1622   5.148   1.834   1.511
  555TIP3    H2 1623   5.098   1.912   1.630
  556TIP3   OH2 1624   5.137   1.690  -0.029
  556TIP3    H1 1625   5.098   1.686   0.060
  556TIP3    H2 1626   5.150   1.597  -0.051
  557TIP3   OH2 1627   5.405   1.759   1.201
  557TIP3    H1 1628   5.328   1.820   1.205
  557TIP3    H2 1629   5.456   1.796   1.125
  558TIP3   OH2 1630   5.923   2.165   1.334
  558TIP3    H1 1631   6.000   2.133   1.286
  558TIP3    H2 1632   5.915   2.101   1.407
  559TIP3   OH2 1633   5.530   1.552   1.324
  559TIP3    H1 1634   5.529   1.474   1.266
  559TIP3    H2 1635   5.486   1.620   1.268
  560TIP3   OH2 1636   5.530   1.339   1.135
  560TIP3    H1 1637   5.558   1.381   1.051
  560TIP3    H2 1638   5.436   1.317   1.116
  561TIP3   OH2 1639   5.557   1.875   1.012
  561TIP3    H1 1640   5.639   1.885   0.963
  561TIP3    H2 1641   5.498   1.938   0.965
  562TIP3   OH2 1642   6.137   1.837   1.385
  562TIP3    H1 1643   6.187   1.755   1.398
  562TIP3    H2 1644   6.205   1.896   1.349
  563TIP3   OH2 1645   6.178   2.095   1.126
  563TIP3    H1 1646   6.121   2.149   1.067
  563TIP3    H2 1647   6.266   2.115   1.086
  564TIP3   OH2 1648   5.408   1.658   1.559
  564TIP3    H1 1649   5.339   1.590   1.575
  564TIP3    H2 1650   5.440   1.633   1.470
  565TIP3   OH2 1651   5.663   1.101   1.205
  565TIP3    H1 1652   5.609   1.180   1.181
  565TIP3    H2 1653   5.599   1.028   1.191
  566TIP3   OH2 1654   5.790   1.601   1.417
  566TIP3    H1 1655   5.775   1.587   1.513
  566TIP3    H2 1656   5.700   1.579   1.384
  567TIP3   OH2 1657   6.028   1.551   1.271
  567TIP3    H1 1658   5.955   1.555   1.335
  567TIP3    H2 1659   6.103   1.524   1.328
  568TIP3   OH2 1660   6.257   1.496   1.422
  568TIP3    H1 1661   6.266   1.400   1.440
  568TIP3    H2 1662   6.255   1.534   1.512
  569TIP3   OH2 1663   5.244   1.439   1.613
  569TIP3    H1 1664   5.252   1.347   1.581
  569TIP3    H2 1665   5.282   1.430   1.703
  570TIP3   OH2 1666   5.742   1.113   1.468
  570TIP3    H1 1667   5.814   1.047   1.463
  570TIP3    H2 1668   5.709   1.109   1.376
  571TIP3   OH2 1669   5.824   1.326   1.620
  571TIP3    H1 1670   5.799   1.255   1.557
  571TIP3    H2 1671   5.746   1.385   1.615
  572TIP3   OH2 1672   5.063   2.551  -0.289
  572TIP3    H1 1673   5.141   2.530  -0.342
  572TIP3    H2 1674   5.014   2.607  -0.351
  573TIP3   OH2 1675   4.531   1.940  -0.059
  573TIP3    H1 1676   4.617   1.984  -0.077
  573TIP3    H2 1677   4.551   1.850  -0.089
  574TIP3   OH2 1678   4.442   2.548   0.350
  574TIP3    H1 1679   4.376   2.486   0.312
  574TIP3    H2 1680   4.486   2.489   0.416
  575TIP3   OH2 1681   4.572   2.397   0.540
  575TIP3    H1 1682   4.564   2.324   0.603
  575TIP3    H2 1683   4.627   2.459   0.592
  576TIP3   OH2 1684   6.299   2.809   0.339
  576TIP3    H1 1685   6.330   2.833   0.428
  576TIP3    H2 1686   6.379   2.815   0.285
  577TIP3   OH2 1687   6.332   2.818   0.619
  577TIP3    H1 1688   6.286   2.731   0.616
  577TIP3    H2 1689   6.408   2.794   0.675
  578TIP3   OH2 1690   6.378   2.494   1.192
  578TIP3    H1 1691   6.306   2.504   1.257
  578TIP3    H2 1692   6.420   2.583   1.195
  579TIP3   OH2 1693   6.375   2.274   0.448
  579TIP3    H1 1694   6.428   2.208   0.402
  579TIP3    H2 1695   6.372   2.348   0.384
  580TIP3   OH2 1696   6.206   2.570   0.639
  580TIP3    H1 1697   6.134   2.611   0.692
  580TIP3    H2 1698   6.155   2.524   0.569
  581TIP3   OH2 1699   4.760   1.806   0.903
  581TIP3    H1 1700   4.762   1.771   0.811
  581TIP3    H2 1701   4.857   1.808   0.923
  582TIP3   OH2 1702   6.423   2.161   1.018
  582TIP3    H1 1703   6.493   2.093   1.007
  582TIP3    H2 1704   6.448   2.229   0.954
  583TIP3   OH2 1705   6.605   1.963   1.025
  583TIP3    H1 1706   6.531   1.914   1.067
  583TIP3    H2 1707   6.677   1.899   1.042
  584TIP3   OH2 1708   6.278   1.648   0.606
  584TIP3    H1 1709   6.372   1.630   0.585
  584TIP3    H2 1710   6.290   1.687   0.695
  585TIP3   OH2 1711   6.371   1.795   0.820
  585TIP3    H1 1712   6.289   1.833   0.858
  585TIP3    H2 1713   6.406   1.871   0.769
  586TIP3   OH2 1714   4.977   1.489   1.573
  586TIP3    H1 1715   5.075   1.487   1.582
  586TIP3    H2 1716   4.955   1.404   1.617
  587TIP3   OH2 1717   6.822   1.357   1.335
  587TIP3    H1 1718   6.879   1.299   1.282
  587TIP3    H2 1719   6.782   1.414   1.266
  588TIP3   OH2 1720   4.940   1.189   0.927
  588TIP3    H1 1721   5.004   1.115   0.925
  588TIP3    H2 1722   5.000   1.266   0.916
  589TIP3   OH2 1723   4.739   1.456   0.984
  589TIP3    H1 1724   4.789   1.454   0.900
  589TIP3    H2 1725   4.772   1.539   1.023
  590TIP3   OH2 1726   6.684   1.509   1.157
  590TIP3    H1 1727   6.589   1.537   1.155
  590TIP3    H2 1728   6.680   1.432   1.098
  591TIP3   OH2 1729   4.702   0.999   0.509
  591TIP3    H1 1730   4.612   0.977   0.537
  591TIP3    H2 1731   4.685   1.068   0.443
  592TIP3   OH2 1732   5.875   2.643  -0.011
  592TIP3    H1 1733   5.908   2.601  -0.091
  592TIP3    H2 1734   5.930   2.723  -0.009
  593TIP3   OH2 1735   4.942   1.034   1.296
  593TIP3    H1 1736   4.895   1.042   1.381
  593TIP3    H2 1737   4.880   1.079   1.236
  594TIP3   OH2 1738   4.986   2.473   1.376
  594TIP3    H1 1739   4.893   2.446   1.362
  594TIP3    H2 1740   4.999   2.453   1.469
  595TIP3   OH2 1741   5.165   2.506   0.923
  595TIP3    H1 1742   5.119   2.583   0.884
  595TIP3    H2 1743   5.252   2.518   0.880
  596TIP3   OH2 1744   5.606   2.747   1.060
  596TIP3    H1 1745   5.647   2.745   1.149
  596TIP3    H2 1746   5.672   2.800   1.010
  597TIP3   OH2 1747   5.787   2.902   0.922
  597TIP3    H1 1748   5.858   2.848   0.884
  597TIP3    H2 1749   5.838   2.958   0.984
  598TIP3   OH2 1750   4.840   2.761   0.948
  598TIP3    H1 1751   4.749   2.792   0.929
  598TIP3    H2 1752   4.856   2.806   1.032
  599TIP3   OH2 1753   5.077   2.740   0.808
  599TIP3    H1 1754   4.989   2.751   0.851
  599TIP3    H2 1755   5.057   2.770   0.717
  600TIP3   OH2 1756   5.504   2.766   0.603
  600TIP3    H1 1757   5.430   2.786   0.542
  600TIP3    H2 1758   5.515   2.852   0.649
  601TIP3   OH2 1759   5.772   2.704   0.656
  601TIP3    H1 1760   5.678   2.723   0.636
  601TIP3    H2 1761   5.817   2.780   0.616
  602TIP3   OH2 1762   5.978   2.895   0.570
  602TIP3    H1 1763   5.964   2.979   0.521
  602TIP3    H2 1764   6.005   2.835   0.497
  603TIP3   OH2 1765   4.752   2.552   0.693
  603TIP3    H1 1766   4.779   2.524   0.784
  603TIP3    H2 1767   4.825   2.509   0.642
  604TIP3   OH2 1768   4.949   2.428   0.552
  604TIP3    H1 1769   4.963   2.343   0.600
  604TIP3    H2 1770   5.041   2.462   0.547
  605TIP3   OH2 1771   5.218   2.518   0.555
  605TIP3    H1 1772   5.245   2.424   0.544
  605TIP3    H2 1773   5.265   2.538   0.638
  606TIP3   OH2 1774   4.539   2.323   0.079
  606TIP3    H1 1775   4.454   2.290   0.045
  606TIP3    H2 1776   4.529   2.418   0.061
  607TIP3   OH2 1777   5.244   1.160   1.543
  607TIP3    H1 1778   5.208   1.092   1.602
  607TIP3    H2 1779   5.338   1.161   1.572
  608TIP3   OH2 1780   5.493   1.162   1.664
  608TIP3    H1 1781   5.578   1.138   1.622
  608TIP3    H2 1782   5.484   1.091   1.731
  609TIP3   OH2 1783   4.660   2.358  -0.284
  609TIP3    H1 1784   4.610   2.415  -0.225
  609TIP3    H2 1785   4.696   2.292  -0.223
  610TIP3   OH2 1786   6.304   1.224   1.460
  610TIP3    H1 1787   6.326   1.197   1.552
  610TIP3    H2 1788   6.394   1.226   1.419
  611TIP3   OH2 1789   6.257   2.775   0.944
  611TIP3    H1 1790   6.178   2.745   0.896
  611TIP3    H2 1791   6.237   2.870   0.953
  612TIP3   OH2 1792   6.841   2.066   0.466
  612TIP3    H1 1793   6.878   2.052   0.554
  612TIP3    H2 1794   6.884   2.149   0.443
  613TIP3   OH2 1795   6.792   2.464   0.203
  613TIP3    H1 1796   6.766   2.385   0.153
  613TIP3    H2 1797   6.884   2.446   0.226
  614TIP3   OH2 1798   7.066   2.303   0.302
  614TIP3    H1 1799   7.043   2.376   0.363
  614TIP3    H2 1800   7.159   2.287   0.330
  615TIP3   OH2 1801   6.995   2.506   0.477
  615TIP3    H1 1802   6.975   2.597   0.448
  615TIP3    H2 1803   6.919   2.491   0.538
  616TIP3   OH2 1804   7.211   2.606   0.624
  616TIP3    H1 1805   7.148   2.672   0.662
  616TIP3    H2 1806   7.149   2.554   0.569
  617TIP3   OH2 1807   6.952   2.178   0.708
  617TIP3    H1 1808   6.965   2.263   0.755
  617TIP3    H2 1809   6.865   2.151   0.743
  618TIP3   OH2 1810   7.003   2.774   0.698
  618TIP3    H1 1811   6.966   2.785   0.608
  618TIP3    H2 1812   6.922   2.753   0.751
  619TIP3   OH2 1813   6.580   2.302   0.646
  619TIP3    H1 1814   6.508   2.284   0.582
  619TIP3    H2 1815   6.613   2.212   0.667
  620TIP3   OH2 1816   6.441   2.496   0.281
  620TIP3    H1 1817   6.536   2.507   0.266
  620TIP3    H2 1818   6.421   2.574   0.335
  621TIP3   OH2 1819   7.399   2.726   0.462
  621TIP3    H1 1820   7.401   2.818   0.493
  621TIP3    H2 1821   7.331   2.687   0.521
  622TIP3   OH2 1822   6.775   2.494   0.638
  622TIP3    H1 1823   6.824   2.477   0.721
  622TIP3    H2 1824   6.703   2.428   0.643
  623TIP3   OH2 1825   6.961   1.876   0.728
  623TIP3    H1 1826   6.901   1.921   0.788
  623TIP3    H2 1827   6.920   1.789   0.715
  624TIP3   OH2 1828   6.948   2.416   0.854
  624TIP3    H1 1829   7.028   2.445   0.901
  624TIP3    H2 1830   6.884   2.413   0.927
  625TIP3   OH2 1831   7.517   2.452   0.570
  625TIP3    H1 1832   7.504   2.483   0.660
  625TIP3    H2 1833   7.497   2.531   0.518
  626TIP3   OH2 1834   6.703   2.084   0.784
  626TIP3    H1 1835   6.710   2.074   0.881
  626TIP3    H2 1836   6.625   2.029   0.765
  627TIP3   OH2 1837   7.419   2.206   0.798
  627TIP3    H1 1838   7.338   2.158   0.770
  627TIP3    H2 1839   7.476   2.184   0.723
  628TIP3   OH2 1840   7.185   2.833   0.306
  628TIP3    H1 1841   7.195   2.845   0.211
  628TIP3    H2 1842   7.270   2.796   0.332
  629TIP3   OH2 1843   6.628   2.681   0.432
  629TIP3    H1 1844   6.681   2.611   0.474
  629TIP3    H2 1845   6.656   2.758   0.482
  630TIP3   OH2 1846   6.619   2.999   0.842
  630TIP3    H1 1847   6.704   3.000   0.890
  630TIP3    H2 1848   6.598   2.905   0.842
  631TIP3   OH2 1849   7.093   2.953   0.890
  631TIP3    H1 1850   7.189   2.937   0.894
  631TIP3    H2 1851   7.068   2.894   0.817
  632TIP3   OH2 1852   6.747   2.401   1.044
  632TIP3    H1 1853   6.759   2.305   1.054
  632TIP3    H2 1854   6.659   2.405   1.000
  633TIP3   OH2 1855   7.370   2.487   0.813
  633TIP3    H1 1856   7.314   2.507   0.735
  633TIP3    H2 1857   7.383   2.390   0.805
  634TIP3   OH2 1858   6.873   2.134   1.026
  634TIP3    H1 1859   6.954   2.086   1.005
  634TIP3    H2 1860   6.895   2.170   1.114
  635TIP3   OH2 1861   7.213   2.067   0.688
  635TIP3    H1 1862   7.120   2.094   0.697
  635TIP3    H2 1863   7.204   1.991   0.631
  636TIP3   OH2 1864   7.169   1.944   1.058
  636TIP3    H1 1865   7.111   1.874   1.094
  636TIP3    H2 1866   7.191   1.906   0.971
  637TIP3   OH2 1867   7.030   1.716   1.122
  637TIP3    H1 1868   7.062   1.662   1.047
  637TIP3    H2 1869   7.075   1.675   1.199
  638TIP3   OH2 1870   6.362   2.648   0.031
  638TIP3    H1 1871   6.350   2.574   0.092
  638TIP3    H2 1872   6.426   2.702   0.079
  639TIP3   OH2 1873   6.566   2.068   0.411
  639TIP3    H1 1874   6.570   1.997   0.345
  639TIP3    H2 1875   6.661   2.079   0.431
  640TIP3   OH2 1876   6.769   1.752   1.062
  640TIP3    H1 1877   6.864   1.744   1.081
  640TIP3    H2 1878   6.737   1.669   1.104
  641TIP3   OH2 1879   6.783   2.728   0.863
  641TIP3    H1 1880   6.690   2.704   0.845
  641TIP3    H2 1881   6.790   2.712   0.958
  642TIP3   OH2 1882   6.949   2.770   0.419
  642TIP3    H1 1883   6.902   2.838   0.367
  642TIP3    H2 1884   7.040   2.786   0.384
  643TIP3   OH2 1885   7.404   3.002   0.543
  643TIP3    H1 1886   7.451   3.007   0.630
  643TIP3    H2 1887   7.463   3.051   0.484
  644TIP3   OH2 1888   7.574   3.136   0.333
  644TIP3    H1 1889   7.607   3.114   0.245
  644TIP3    H2 1890   7.585   3.232   0.333
  645TIP3   OH2 1891   6.632   3.009   0.454
  645TIP3    H1 1892   6.546   3.044   0.423
  645TIP3    H2 1893   6.644   3.062   0.533
  646TIP3   OH2 1894   6.848   2.998   0.284
  646TIP3    H1 1895   6.776   2.997   0.350
  646TIP3    H2 1896   6.813   3.066   0.224
  647TIP3   OH2 1897   6.535   2.794   0.196
  647TIP3    H1 1898   6.575   2.768   0.281
  647TIP3    H2 1899   6.612   2.776   0.137
  648TIP3   OH2 1900   6.751   2.693   0.062
  648TIP3    H1 1901   6.764   2.613   0.117
  648TIP3    H2 1902   6.838   2.703   0.020
  649TIP3   OH2 1903   0.883   2.668   2.053
  649TIP3    H1 1904   0.813   2.707   1.998
  649TIP3    H2 1905   0.905   2.741   2.113
  650TIP3   OH2 1906   0.360   3.482   1.646
  650TIP3    H1 1907   0.284   3.424   1.660
  650TIP3    H2 1908   0.340   3.520   1.558
  651TIP3   OH2 1909   0.516   3.402   1.986
  651TIP3    H1 1910   0.511   3.324   1.927
  651TIP3    H2 1911   0.507   3.477   1.925
  652TIP3   OH2 1912   0.724   3.020   1.827
  652TIP3    H1 1913   0.650   3.084   1.833
  652TIP3    H2 1914   0.744   3.022   1.732
  653TIP3   OH2 1915   0.439   2.906   2.151
  653TIP3    H1 1916   0.404   2.980   2.204
  653TIP3    H2 1917   0.362   2.882   2.097
  654TIP3   OH2 1918   0.748   3.748   2.017
  654TIP3    H1 1919   0.754   3.652   2.031
  654TIP3    H2 1920   0.664   3.766   2.064
  655TIP3   OH2 1921  -0.132   3.533   2.180
  655TIP3    H1 1922  -0.138   3.629   2.198
  655TIP3    H2 1923  -0.225   3.508   2.185
  656TIP3   OH2 1924   0.660   2.870   2.302
  656TIP3    H1 1925   0.577   2.885   2.252
  656TIP3    H2 1926   0.661   2.772   2.303
  657TIP3   OH2 1927   0.126   2.875   2.501
  657TIP3    H1 1928   0.114   2.798   2.557
  657TIP3    H2 1929   0.223   2.885   2.506
  658TIP3   OH2 1930   0.445   4.091   2.123
  658TIP3    H1 1931   0.442   4.114   2.028
  658TIP3    H2 1932   0.523   4.141   2.153
  659TIP3   OH2 1933   0.504   3.179   1.819
  659TIP3    H1 1934   0.508   3.210   1.727
  659TIP3    H2 1935   0.450   3.098   1.811
  660TIP3   OH2 1936   0.023   3.305   2.191
  660TIP3    H1 1937   0.038   3.280   2.283
  660TIP3    H2 1938  -0.036   3.383   2.201
  661TIP3   OH2 1939   0.124   3.559   2.063
  661TIP3    H1 1940   0.037   3.550   2.105
  661TIP3    H2 1941   0.175   3.591   2.140
  662TIP3   OH2 1942   0.768   3.461   2.072
  662TIP3    H1 1943   0.671   3.450   2.064
  662TIP3    H2 1944   0.797   3.427   1.984
  663TIP3   OH2 1945   0.273   3.780   1.965
  663TIP3    H1 1946   0.199   3.715   1.962
  663TIP3    H2 1947   0.248   3.844   1.895
  664TIP3   OH2 1948   0.657   2.599   2.234
  664TIP3    H1 1949   0.570   2.557   2.224
  664TIP3    H2 1950   0.689   2.606   2.143
  665TIP3   OH2 1951   0.291   3.795   1.579
  665TIP3    H1 1952   0.247   3.809   1.494
  665TIP3    H2 1953   0.386   3.802   1.552
  666TIP3   OH2 1954  -0.452   3.736   2.592
  666TIP3    H1 1955  -0.356   3.734   2.608
  666TIP3    H2 1956  -0.455   3.728   2.497
  667TIP3   OH2 1957   0.197   3.649   2.309
  667TIP3    H1 1958   0.184   3.582   2.379
  667TIP3    H2 1959   0.270   3.703   2.345
  668TIP3   OH2 1960  -0.183   3.293   2.521
  668TIP3    H1 1961  -0.208   3.263   2.431
  668TIP3    H2 1962  -0.120   3.225   2.550
  669TIP3   OH2 1963   0.294   3.263   2.088
  669TIP3    H1 1964   0.356   3.336   2.070
  669TIP3    H2 1965   0.211   3.307   2.114
  670TIP3   OH2 1966   0.166   3.211   2.498
  670TIP3    H1 1967   0.246   3.175   2.457
  670TIP3    H2 1968   0.147   3.143   2.565
  671TIP3   OH2 1969   0.394   2.874   2.542
  671TIP3    H1 1970   0.441   2.798   2.579
  671TIP3    H2 1971   0.466   2.936   2.527
  672TIP3   OH2 1972   0.426   3.157   2.304
  672TIP3    H1 1973   0.370   3.191   2.230
  672TIP3    H2 1974   0.515   3.169   2.265
  673TIP3   OH2 1975   0.542   2.552   2.593
  673TIP3    H1 1976   0.545   2.455   2.609
  673TIP3    H2 1977   0.520   2.587   2.681
  674TIP3   OH2 1978   0.552   3.848   1.516
  674TIP3    H1 1979   0.583   3.880   1.602
  674TIP3    H2 1980   0.613   3.890   1.455
  675TIP3   OH2 1981   0.589   3.876   1.797
  675TIP3    H1 1982   0.540   3.791   1.798
  675TIP3    H2 1983   0.667   3.847   1.847
  676TIP3   OH2 1984   0.625   3.542   2.368
  676TIP3    H1 1985   0.554   3.550   2.435
  676TIP3    H2 1986   0.668   3.630   2.372
  677TIP3   OH2 1987   0.678   3.335   1.612
  677TIP3    H1 1988   0.735   3.265   1.576
  677TIP3    H2 1989   0.685   3.406   1.547
  678TIP3   OH2 1990   0.474   3.634   1.840
  678TIP3    H1 1991   0.395   3.672   1.883
  678TIP3    H2 1992   0.436   3.587   1.763
  679TIP3   OH2 1993   0.677   3.203   2.194
  679TIP3    H1 1994   0.749   3.137   2.184
  679TIP3    H2 1995   0.700   3.267   2.125
  680TIP3   OH2 1996   0.871   3.015   2.219
  680TIP3    H1 1997   0.792   2.965   2.251
  680TIP3    H2 1998   0.940   2.948   2.238
  681TIP3   OH2 1999   0.648   2.796   1.965
  681TIP3    H1 2000   0.573   2.825   2.019
  681TIP3    H2 2001   0.668   2.878   1.915
  682TIP3   OH2 2002   1.083   2.424   2.513
  682TIP3    H1 2003   1.135   2.352   2.472
  682TIP3    H2 2004   1.034   2.460   2.436
  683TIP3   OH2 2005   0.926   2.540   2.322
  683TIP3    H1 2006   0.843   2.581   2.355
  683TIP3    H2 2007   0.899   2.518   2.231
  684TIP3   OH2 2008  -0.140   3.798   2.239
  684TIP3    H1 2009  -0.100   3.798   2.328
  684TIP3    H2 2010  -0.073   3.849   2.188
  685TIP3   OH2 2011   0.044   3.938   2.097
  685TIP3    H1 2012   0.122   3.890   2.063
  685TIP3    H2 2013   0.088   4.001   2.158
  686TIP3   OH2 2014   0.015   3.763   1.810
  686TIP3    H1 2015  -0.072   3.780   1.848
  686TIP3    H2 2016   0.050   3.853   1.799
  687TIP3   OH2 2017   0.221   3.968   1.771
  687TIP3    H1 2018   0.207   4.050   1.718
  687TIP3    H2 2019   0.245   3.904   1.699
  688TIP3   OH2 2020   0.600   2.286   2.646
  688TIP3    H1 2021   0.602   2.251   2.737
  688TIP3    H2 2022   0.664   2.229   2.601
  689TIP3   OH2 2023   0.503   3.821   2.126
  689TIP3    H1 2024   0.426   3.790   2.075
  689TIP3    H2 2025   0.483   3.917   2.132
  690TIP3   OH2 2026   1.763   3.197   0.885
  690TIP3    H1 2027   1.748   3.288   0.851
  690TIP3    H2 2028   1.682   3.186   0.936
  691TIP3   OH2 2029   1.778   3.190   1.270
  691TIP3    H1 2030   1.811   3.170   1.360
  691TIP3    H2 2031   1.732   3.108   1.248
  692TIP3   OH2 2032   1.071   3.094   1.642
  692TIP3    H1 2033   1.093   3.028   1.710
  692TIP3    H2 2034   1.160   3.124   1.617
  693TIP3   OH2 2035   2.018   3.495   0.955
  693TIP3    H1 2036   2.003   3.427   1.022
  693TIP3    H2 2037   2.048   3.571   1.008
  694TIP3   OH2 2038   1.043   3.489   1.353
  694TIP3    H1 2039   1.042   3.392   1.362
  694TIP3    H2 2040   1.138   3.505   1.339
  695TIP3   OH2 2041   1.669   3.963   0.969
  695TIP3    H1 2042   1.711   3.889   0.920
  695TIP3    H2 2043   1.644   3.921   1.052
  696TIP3   OH2 2044   1.570   3.423   1.321
  696TIP3    H1 2045   1.603   3.348   1.269
  696TIP3    H2 2046   1.655   3.464   1.346
  697TIP3   OH2 2047   2.600   2.741   1.306
  697TIP3    H1 2048   2.620   2.823   1.354
  697TIP3    H2 2049   2.623   2.765   1.214
  698TIP3   OH2 2050   1.984   2.923   1.349
  698TIP3    H1 2051   2.025   2.837   1.370
  698TIP3    H2 2052   1.951   2.906   1.259
  699TIP3   OH2 2053   2.016   2.668   0.960
  699TIP3    H1 2054   2.101   2.657   1.009
  699TIP3    H2 2055   2.047   2.692   0.872
  700TIP3   OH2 2056   1.406   2.978   1.237
  700TIP3    H1 2057   1.500   2.955   1.250
  700TIP3    H2 2058   1.390   2.941   1.149
  701TIP3   OH2 2059   2.660   2.951   1.481
  701TIP3    H1 2060   2.573   2.991   1.457
  701TIP3    H2 2061   2.656   2.961   1.577
  702TIP3   OH2 2062   1.314   2.548   1.761
  702TIP3    H1 2063   1.256   2.594   1.697
  702TIP3    H2 2064   1.265   2.566   1.843
  703TIP3   OH2 2065   1.653   3.418   0.767
  703TIP3    H1 2066   1.601   3.409   0.687
  703TIP3    H2 2067   1.622   3.505   0.798
  704TIP3   OH2 2068   1.427   3.342   1.541
  704TIP3    H1 2069   1.366   3.410   1.577
  704TIP3    H2 2070   1.468   3.389   1.466
  705TIP3   OH2 2071   2.228   2.666   1.131
  705TIP3    H1 2072   2.194   2.650   1.220
  705TIP3    H2 2073   2.279   2.748   1.144
  706TIP3   OH2 2074   1.180   2.692   1.572
  706TIP3    H1 2075   1.211   2.774   1.614
  706TIP3    H2 2076   1.232   2.695   1.491
  707TIP3   OH2 2077   1.254   3.538   1.642
  707TIP3    H1 2078   1.228   3.624   1.603
  707TIP3    H2 2079   1.176   3.521   1.698
  708TIP3   OH2 2080   2.087   3.741   1.118
  708TIP3    H1 2081   1.997   3.732   1.158
  708TIP3    H2 2082   2.077   3.826   1.072
  709TIP3   OH2 2083   2.377   2.701   1.480
  709TIP3    H1 2084   2.292   2.676   1.447
  709TIP3    H2 2085   2.436   2.693   1.404
  710TIP3   OH2 2086   1.786   3.785   0.792
  710TIP3    H1 2087   1.834   3.701   0.772
  710TIP3    H2 2088   1.850   3.848   0.755
  711TIP3   OH2 2089   1.928   3.570   0.704
  711TIP3    H1 2090   1.929   3.492   0.645
  711TIP3    H2 2091   1.963   3.532   0.787
  712TIP3   OH2 2092   2.313   3.649   1.463
  712TIP3    H1 2093   2.299   3.572   1.404
  712TIP3    H2 2094   2.293   3.724   1.402
  713TIP3   OH2 2095   2.507   3.293   1.309
  713TIP3    H1 2096   2.422   3.342   1.312
  713TIP3    H2 2097   2.537   3.316   1.218
  714TIP3   OH2 2098   1.948   3.125   0.690
  714TIP3    H1 2099   1.891   3.149   0.766
  714TIP3    H2 2100   2.033   3.104   0.734
  715TIP3   OH2 2101   2.184   3.167   1.605
  715TIP3    H1 2102   2.179   3.251   1.654
  715TIP3    H2 2103   2.098   3.167   1.560
  716TIP3   OH2 2104   1.307   3.512   1.259
  716TIP3    H1 2105   1.300   3.500   1.163
  716TIP3    H2 2106   1.399   3.481   1.276
  717TIP3   OH2 2107   1.304   3.104   1.464
  717TIP3    H1 2108   1.341   3.068   1.380
  717TIP3    H2 2109   1.357   3.185   1.478
  718TIP3   OH2 2110   1.847   3.735   1.242
  718TIP3    H1 2111   1.829   3.814   1.295
  718TIP3    H2 2112   1.828   3.662   1.303
  719TIP3   OH2 2113   1.455   3.660   1.786
  719TIP3    H1 2114   1.390   3.714   1.834
  719TIP3    H2 2115   1.394   3.602   1.735
  720TIP3   OH2 2116   1.534   3.669   0.781
  720TIP3    H1 2117   1.617   3.717   0.798
  720TIP3    H2 2118   1.473   3.741   0.758
  721TIP3   OH2 2119   1.247   3.832   1.879
  721TIP3    H1 2120   1.220   3.834   1.785
  721TIP3    H2 2121   1.168   3.796   1.923
  722TIP3   OH2 2122   2.096   3.599   0.108
  722TIP3    H1 2123   2.116   3.694   0.093
  722TIP3    H2 2124   2.185   3.560   0.106
  723TIP3   OH2 2125   0.844   3.365   1.833
  723TIP3    H1 2126   0.779   3.341   1.763
  723TIP3    H2 2127   0.878   3.278   1.863
  724TIP3   OH2 2128   0.718   3.567   1.433
  724TIP3    H1 2129   0.814   3.572   1.443
  724TIP3    H2 2130   0.690   3.635   1.496
  725TIP3   OH2 2131   2.548   3.999   1.513
  725TIP3    H1 2132   2.546   3.902   1.523
  725TIP3    H2 2133   2.464   4.023   1.557
  726TIP3   OH2 2134   1.657   3.780   1.647
  726TIP3    H1 2135   1.650   3.873   1.676
  726TIP3    H2 2136   1.581   3.740   1.695
  727TIP3   OH2 2137   1.419   3.895   0.606
  727TIP3    H1 2138   1.383   3.883   0.516
  727TIP3    H2 2139   1.381   3.981   0.632
  728TIP3   OH2 2140   0.849   3.767   0.973
  728TIP3    H1 2141   0.890   3.744   1.060
  728TIP3    H2 2142   0.808   3.683   0.947
  729TIP3   OH2 2143   1.613   3.802   0.242
  729TIP3    H1 2144   1.673   3.747   0.189
  729TIP3    H2 2145   1.660   3.813   0.326
  730TIP3   OH2 2146   1.674   3.857   0.514
  730TIP3    H1 2147   1.583   3.865   0.550
  730TIP3    H2 2148   1.720   3.816   0.590
  731TIP3   OH2 2149   2.436   3.122   1.780
  731TIP3    H1 2150   2.352   3.133   1.732
  731TIP3    H2 2151   2.452   3.027   1.769
  732TIP3   OH2 2152   1.035   3.556   1.810
  732TIP3    H1 2153   1.089   3.538   1.891
  732TIP3    H2 2154   0.968   3.485   1.818
  733TIP3   OH2 2155   1.976   2.463   1.780
  733TIP3    H1 2156   2.043   2.442   1.849
  733TIP3    H2 2157   1.892   2.439   1.821
  734TIP3   OH2 2158   2.212   2.908   1.713
  734TIP3    H1 2159   2.154   2.901   1.792
  734TIP3    H2 2160   2.181   2.990   1.671
  735TIP3   OH2 2161   1.372   2.889   1.617
  735TIP3    H1 2162   1.352   2.924   1.705
  735TIP3    H2 2163   1.347   2.964   1.560
  736TIP3   OH2 2164   1.769   2.874   0.846
  736TIP3    H1 2165   1.685   2.919   0.827
  736TIP3    H2 2166   1.818   2.889   0.764
  737TIP3   OH2 2167   1.920   3.119   1.936
  737TIP3    H1 2168   1.895   3.047   1.999
  737TIP3    H2 2169   2.014   3.129   1.958
  738TIP3   OH2 2170   1.898   2.875   1.094
  738TIP3    H1 2171   1.846   2.903   1.016
  738TIP3    H2 2172   1.934   2.792   1.057
  739TIP3   OH2 2173   1.177   2.914   1.829
  739TIP3    H1 2174   1.231   2.962   1.893
  739TIP3    H2 2175   1.167   2.827   1.872
  740TIP3   OH2 2176   1.909   3.120   1.514
  740TIP3    H1 2177   1.942   3.049   1.454
  740TIP3    H2 2178   1.877   3.065   1.589
  741TIP3   OH2 2179   2.069   2.663   1.384
  741TIP3    H1 2180   2.044   2.674   1.479
  741TIP3    H2 2181   1.998   2.603   1.355
  742TIP3   OH2 2182   2.243   4.346   1.609
  742TIP3    H1 2183   2.239   4.369   1.515
  742TIP3    H2 2184   2.324   4.393   1.638
  743TIP3   OH2 2185   1.186   3.499   2.036
  743TIP3    H1 2186   1.256   3.430   2.041
  743TIP3    H2 2187   1.129   3.469   2.108
  744TIP3   OH2 2188   1.670   2.913   1.284
  744TIP3    H1 2189   1.744   2.875   1.234
  744TIP3    H2 2190   1.673   2.863   1.367
  745TIP3   OH2 2191   1.634   2.806   1.582
  745TIP3    H1 2192   1.546   2.848   1.592
  745TIP3    H2 2193   1.693   2.870   1.627
  746TIP3   OH2 2194   2.271   3.434   1.296
  746TIP3    H1 2195   2.294   3.485   1.216
  746TIP3    H2 2196   2.187   3.390   1.269
  747TIP3   OH2 2197   1.779   3.520   1.665
  747TIP3    H1 2198   1.788   3.489   1.756
  747TIP3    H2 2199   1.734   3.606   1.675
  748TIP3   OH2 2200   1.051   3.210   1.336
  748TIP3    H1 2201   1.106   3.180   1.263
  748TIP3    H2 2202   1.095   3.166   1.411
  749TIP3   OH2 2203   0.922   3.146   1.970
  749TIP3    H1 2204   0.959   3.103   2.049
  749TIP3    H2 2205   0.866   3.075   1.932
  750TIP3   OH2 2206   1.690   3.272   1.980
  750TIP3    H1 2207   1.612   3.218   1.962
  750TIP3    H2 2208   1.763   3.218   1.943
  751TIP3   OH2 2209   1.933   3.781   1.564
  751TIP3    H1 2210   1.837   3.772   1.576
  751TIP3    H2 2211   1.957   3.833   1.643
  752TIP3   OH2 2212   2.336   2.848   0.456
  752TIP3    H1 2213   2.263   2.801   0.416
  752TIP3    H2 2214   2.325   2.937   0.415
  753TIP3   OH2 2215   2.563   3.712   1.549
  753TIP3    H1 2216   2.466   3.702   1.541
  753TIP3    H2 2217   2.590   3.679   1.460
  754TIP3   OH2 2218   2.049   3.665   0.379
  754TIP3    H1 2219   2.011   3.597   0.435
  754TIP3    H2 2220   2.052   3.621   0.291
  755TIP3   OH2 2221   2.038   3.297   1.213
  755TIP3    H1 2222   1.945   3.271   1.227
  755TIP3    H2 2223   2.073   3.217   1.169
  756TIP3   OH2 2224   1.198   3.537   0.972
  756TIP3    H1 2225   1.175   3.627   0.941
  756TIP3    H2 2226   1.110   3.499   0.988
  757TIP3   OH2 2227   1.368   3.311   0.972
  757TIP3    H1 2228   1.328   3.399   0.960
  757TIP3    H2 2229   1.289   3.254   0.975
  758TIP3   OH2 2230   1.438   3.870   1.440
  758TIP3    H1 2231   1.474   3.942   1.384
  758TIP3    H2 2232   1.519   3.833   1.477
  759TIP3   OH2 2233   1.101   3.770   0.857
  759TIP3    H1 2234   1.009   3.783   0.882
  759TIP3    H2 2235   1.130   3.862   0.846
  760TIP3   OH2 2236   1.823   3.500   1.398
  760TIP3    H1 2237   1.814   3.500   1.496
  760TIP3    H2 2238   1.902   3.445   1.385
  761TIP3   OH2 2239   1.816   3.429   0.293
  761TIP3    H1 2240   1.867   3.398   0.370
  761TIP3    H2 2241   1.740   3.369   0.295
  762TIP3   OH2 2242   2.071   4.035   1.447
  762TIP3    H1 2243   1.991   3.978   1.442
  762TIP3    H2 2244   2.054   4.098   1.374
  763TIP3   OH2 2245   2.141   3.873   0.091
  763TIP3    H1 2246   2.194   3.948   0.058
  763TIP3    H2 2247   2.064   3.921   0.126
  764TIP3   OH2 2248   1.147   2.638   1.965
  764TIP3    H1 2249   1.050   2.642   1.976
  764TIP3    H2 2250   1.173   2.598   2.049
  765TIP3   OH2 2251   1.964   3.353   0.521
  765TIP3    H1 2252   1.944   3.271   0.571
  765TIP3    H2 2253   2.056   3.333   0.494
  766TIP3   OH2 2254   0.884   3.724   1.607
  766TIP3    H1 2255   0.936   3.660   1.657
  766TIP3    H2 2256   0.907   3.807   1.650
  767TIP3   OH2 2257   2.003   2.706   1.648
  767TIP3    H1 2258   2.087   2.739   1.685
  767TIP3    H2 2259   1.991   2.622   1.698
  768TIP3   OH2 2260   1.371   3.564   0.478
  768TIP3    H1 2261   1.359   3.586   0.571
  768TIP3    H2 2262   1.391   3.651   0.440
  769TIP3   OH2 2263   1.836   2.955   1.717
  769TIP3    H1 2264   1.856   3.007   1.798
  769TIP3    H2 2265   1.889   2.875   1.730
  770TIP3   OH2 2266   2.474   2.847   1.697
  770TIP3    H1 2267   2.378   2.860   1.713
  770TIP3    H2 2268   2.464   2.787   1.620
  771TIP3   OH2 2269   2.124   3.055   1.093
  771TIP3    H1 2270   2.048   2.995   1.105
  771TIP3    H2 2271   2.195   3.007   1.139
  772TIP3   OH2 2272   2.095   4.011   1.043
  772TIP3    H1 2273   2.052   4.059   0.969
  772TIP3    H2 2274   2.189   4.029   1.020
  773TIP3   OH2 2275   0.859   4.025   2.021
  773TIP3    H1 2276   0.941   3.980   2.049
  773TIP3    H2 2277   0.803   3.946   2.010
  774TIP3   OH2 2278   1.371   3.969   2.081
  774TIP3    H1 2279   1.450   3.966   2.025
  774TIP3    H2 2280   1.308   3.922   2.020
  775TIP3   OH2 2281   1.977   3.915   1.805
  775TIP3    H1 2282   1.974   3.842   1.870
  775TIP3    H2 2283   2.059   3.962   1.830
  776TIP3   OH2 2284   1.771   3.615   0.101
  776TIP3    H1 2285   1.793   3.557   0.178
  776TIP3    H2 2286   1.857   3.624   0.058
  777TIP3   OH2 2287   0.993   3.441   2.232
  777TIP3    H1 2288   1.008   3.350   2.260
  777TIP3    H2 2289   0.909   3.435   2.180
  778TIP3   OH2 2290   1.604   3.538   1.990
  778TIP3    H1 2291   1.552   3.545   1.908
  778TIP3    H2 2292   1.631   3.444   1.990
  779TIP3   OH2 2293   2.097   3.542   1.605
  779TIP3    H1 2294   2.170   3.586   1.558
  779TIP3    H2 2295   2.024   3.604   1.588
  780TIP3   OH2 2296   1.450   3.035   1.861
  780TIP3    H1 2297   1.419   3.099   1.929
  780TIP3    H2 2298   1.502   3.092   1.801
  781TIP3   OH2 2299   1.978   3.471   2.001
  781TIP3    H1 2300   2.040   3.428   1.942
  781TIP3    H2 2301   1.958   3.401   2.065
  782TIP3   OH2 2302   1.595   2.839   1.988
  782TIP3    H1 2303   1.579   2.764   1.929
  782TIP3    H2 2304   1.535   2.907   1.950
  783TIP3   OH2 2305   1.577   2.624   1.793
  783TIP3    H1 2306   1.600   2.680   1.715
  783TIP3    H2 2307   1.483   2.603   1.776
  784TIP3   OH2 2308   1.602   3.180   1.677
  784TIP3    H1 2309   1.685   3.190   1.628
  784TIP3    H2 2310   1.543   3.242   1.630
  785TIP3   OH2 2311   2.185   3.137   2.050
  785TIP3    H1 2312   2.230   3.051   2.057
  785TIP3    H2 2313   2.253   3.192   2.009
  786TIP3   OH2 2314   2.224   3.398   1.794
  786TIP3    H1 2315   2.167   3.451   1.733
  786TIP3    H2 2316   2.312   3.417   1.754
  787TIP3   OH2 2317   1.708   2.390   1.864
  787TIP3    H1 2318   1.667   2.477   1.843
  787TIP3    H2 2319   1.634   2.330   1.843
  788TIP3   OH2 2320   1.840   2.904   2.084
  788TIP3    H1 2321   1.818   2.894   2.178
  788TIP3    H2 2322   1.753   2.877   2.045
  789TIP3   OH2 2323   2.073   2.859   1.938
  789TIP3    H1 2324   1.999   2.859   2.002
  789TIP3    H2 2325   2.148   2.827   1.993
  790TIP3   OH2 2326   2.302   2.800   2.086
  790TIP3    H1 2327   2.314   2.703   2.099
  790TIP3    H2 2328   2.301   2.834   2.178
  791TIP3   OH2 2329   1.281   2.735   2.283
  791TIP3    H1 2330   1.297   2.641   2.261
  791TIP3    H2 2331   1.299   2.738   2.377
  792TIP3   OH2 2332   1.808   2.410   2.121
  792TIP3    H1 2333   1.875   2.339   2.112
  792TIP3    H2 2334   1.763   2.405   2.035
  793TIP3   OH2 2335   1.863   2.631   2.276
  793TIP3    H1 2336   1.845   2.562   2.209
  793TIP3    H2 2337   1.786   2.689   2.268
  794TIP3   OH2 2338   0.618   3.725   1.219
  794TIP3    H1 2339   0.656   3.668   1.287
  794TIP3    H2 2340   0.663   3.808   1.238
  795TIP3   OH2 2341   2.350   4.098   1.001
  795TIP3    H1 2342   2.378   4.134   1.087
  795TIP3    H2 2343   2.414   4.138   0.940
  796TIP3   OH2 2344   2.375   4.121   1.285
  796TIP3    H1 2345   2.329   4.035   1.278
  796TIP3    H2 2346   2.453   4.094   1.334
  797TIP3   OH2 2347   2.426   3.796   1.859
  797TIP3    H1 2348   2.350   3.807   1.920
  797TIP3    H2 2349   2.465   3.885   1.859
  798TIP3   OH2 2350   2.242   3.301   0.467
  798TIP3    H1 2351   2.305   3.370   0.439
  798TIP3    H2 2352   2.286   3.267   0.548
  799TIP3   OH2 2353   2.368   3.174   0.677
  799TIP3    H1 2354   2.300   3.135   0.736
  799TIP3    H2 2355   2.430   3.214   0.742
  800TIP3   OH2 2356   2.425   3.572   1.111
  800TIP3    H1 2357   2.475   3.503   1.063
  800TIP3    H2 2358   2.420   3.644   1.045
  801TIP3   OH2 2359   2.251   3.871   1.305
  801TIP3    H1 2360   2.177   3.912   1.353
  801TIP3    H2 2361   2.204   3.825   1.231
  802TIP3   OH2 2362   2.282   3.076   0.311
  802TIP3    H1 2363   2.218   3.095   0.239
  802TIP3    H2 2364   2.263   3.152   0.370
  803TIP3   OH2 2365   2.179   3.039   0.824
  803TIP3    H1 2366   2.171   2.943   0.811
  803TIP3    H2 2367   2.165   3.048   0.921
  804TIP3   OH2 2368   0.818   3.110   1.551
  804TIP3    H1 2369   0.842   3.051   1.478
  804TIP3    H2 2370   0.906   3.114   1.596
  805TIP3   OH2 2371   2.471   3.461   1.686
  805TIP3    H1 2372   2.541   3.393   1.674
  805TIP3    H2 2373   2.491   3.523   1.614
  806TIP3   OH2 2374   2.653   3.262   1.696
  806TIP3    H1 2375   2.577   3.210   1.731
  806TIP3    H2 2376   2.726   3.198   1.713
  807TIP3   OH2 2377   2.167   2.775   0.738
  807TIP3    H1 2378   2.207   2.692   0.773
  807TIP3    H2 2379   2.225   2.791   0.663
  808TIP3   OH2 2380   2.335   2.920   1.211
  808TIP3    H1 2381   2.421   2.946   1.171
  808TIP3    H2 2382   2.350   2.952   1.302
  809TIP3   OH2 2383   2.409   3.069   1.440
  809TIP3    H1 2384   2.331   3.101   1.489
  809TIP3    H2 2385   2.441   3.152   1.397
  810TIP3   OH2 2386   1.023   2.799   2.258
  810TIP3    H1 2387   1.121   2.791   2.250
  810TIP3    H2 2388   1.002   2.713   2.298
  811TIP3   OH2 2389   2.868   2.669   1.998
  811TIP3    H1 2390   2.925   2.602   1.957
  811TIP3    H2 2391   2.833   2.718   1.920
  812TIP3   OH2 2392   2.276   2.546   0.812
  812TIP3    H1 2393   2.335   2.503   0.878
  812TIP3    H2 2394   2.265   2.479   0.741
  813TIP3   OH2 2395   2.727   2.800   1.803
  813TIP3    H1 2396   2.636   2.834   1.817
  813TIP3    H2 2397   2.712   2.749   1.722
  814TIP3   OH2 2398   1.937   3.966   0.659
  814TIP3    H1 2399   1.982   3.954   0.573
  814TIP3    H2 2400   1.989   4.037   0.699
  815TIP3   OH2 2401   1.027   3.794   2.057
  815TIP3    H1 2402   0.941   3.760   2.025
  815TIP3    H2 2403   1.048   3.730   2.126
  816TIP3   OH2 2404   1.213   3.814   1.592
  816TIP3    H1 2405   1.164   3.886   1.547
  816TIP3    H2 2406   1.297   3.822   1.543
  817TIP3   OH2 2407   1.649   4.050   1.730
  817TIP3    H1 2408   1.696   4.049   1.815
  817TIP3    H2 2409   1.713   4.099   1.673
  818TIP3   OH2 2410   1.830   4.200   1.590
  818TIP3    H1 2411   1.896   4.152   1.539
  818TIP3    H2 2412   1.886   4.256   1.647
  819TIP3   OH2 2413   0.882   4.050   1.618
  819TIP3    H1 2414   0.797   4.086   1.585
  819TIP3    H2 2415   0.891   4.102   1.699
  820TIP3   OH2 2416   1.121   4.045   1.463
  820TIP3    H1 2417   1.032   4.059   1.503
  820TIP3    H2 2418   1.107   4.072   1.371
  821TIP3   OH2 2419   1.536   4.070   1.267
  821TIP3    H1 2420   1.459   4.090   1.208
  821TIP3    H2 2421   1.551   4.160   1.302
  822TIP3   OH2 2422   1.809   4.009   1.323
  822TIP3    H1 2423   1.716   4.026   1.299
  822TIP3    H2 2424   1.855   4.077   1.271
  823TIP3   OH2 2425   2.025   4.199   1.233
  823TIP3    H1 2426   2.008   4.282   1.184
  823TIP3    H2 2427   2.051   4.137   1.161
  824TIP3   OH2 2428   0.812   3.865   1.367
  824TIP3    H1 2429   0.840   3.837   1.456
  824TIP3    H2 2430   0.876   3.814   1.312
  825TIP3   OH2 2431   0.976   3.714   1.212
  825TIP3    H1 2432   0.999   3.633   1.264
  825TIP3    H2 2433   1.065   3.755   1.206
  826TIP3   OH2 2434   1.232   3.794   1.234
  826TIP3    H1 2435   1.288   3.717   1.218
  826TIP3    H2 2436   1.291   3.850   1.286
  827TIP3   OH2 2437   1.842   2.504   1.301
  827TIP3    H1 2438   1.787   2.451   1.360
  827TIP3    H2 2439   1.895   2.437   1.256
  828TIP3   OH2 2440   2.355   2.308   1.180
  828TIP3    H1 2441   2.404   2.375   1.126
  828TIP3    H2 2442   2.280   2.361   1.214
  829TIP3   OH2 2443   2.472   2.456   0.982
  829TIP3    H1 2444   2.544   2.405   0.939
  829TIP3    H2 2445   2.503   2.548   0.965
  830TIP3   OH2 2446   2.094   2.382   1.233
  830TIP3    H1 2447   2.064   2.426   1.153
  830TIP3    H2 2448   2.048   2.297   1.232
  831TIP3   OH2 2449   1.363   3.824   0.345
  831TIP3    H1 2450   1.449   3.824   0.296
  831TIP3    H2 2451   1.301   3.794   0.276
  832TIP3   OH2 2452   2.077   3.933   0.423
  832TIP3    H1 2453   2.072   3.835   0.412
  832TIP3    H2 2454   2.033   3.962   0.341
  833TIP3   OH2 2455   1.312   2.468   2.233
  833TIP3    H1 2456   1.275   2.396   2.285
  833TIP3    H2 2457   1.356   2.420   2.162
  834TIP3   OH2 2458   2.355   2.529   2.125
  834TIP3    H1 2459   2.373   2.494   2.214
  834TIP3    H2 2460   2.444   2.522   2.083
  835TIP3   OH2 2461   2.297   4.075   1.613
  835TIP3    H1 2462   2.221   4.046   1.558
  835TIP3    H2 2463   2.280   4.171   1.615
  836TIP3   OH2 2464   3.570   3.450   0.372
  836TIP3    H1 2465   3.540   3.541   0.353
  836TIP3    H2 2466   3.493   3.400   0.342
  837TIP3   OH2 2467   3.568   3.449   0.760
  837TIP3    H1 2468   3.604   3.428   0.848
  837TIP3    H2 2469   3.527   3.366   0.734
  838TIP3   OH2 2470   2.865   3.343   1.124
  838TIP3    H1 2471   2.896   3.273   1.186
  838TIP3    H2 2472   2.947   3.394   1.112
  839TIP3   OH2 2473   3.814   3.754   0.440
  839TIP3    H1 2474   3.798   3.688   0.509
  839TIP3    H2 2475   3.844   3.831   0.492
  840TIP3   OH2 2476   2.840   3.755   0.846
  840TIP3    H1 2477   2.832   3.657   0.847
  840TIP3    H2 2478   2.937   3.764   0.836
  841TIP3   OH2 2479   2.546   2.957   0.624
  841TIP3    H1 2480   2.504   3.043   0.646
  841TIP3    H2 2481   2.468   2.906   0.600
  842TIP3   OH2 2482   2.603   3.244   0.808
  842TIP3    H1 2483   2.654   3.166   0.840
  842TIP3    H2 2484   2.665   3.283   0.744
  843TIP3   OH2 2485   3.459   4.209   0.454
  843TIP3    H1 2486   3.505   4.139   0.403
  843TIP3    H2 2487   3.459   4.172   0.543
  844TIP3   OH2 2488   3.366   3.676   0.806
  844TIP3    H1 2489   3.408   3.599   0.763
  844TIP3    H2 2490   3.448   3.724   0.832
  845TIP3   OH2 2491   4.381   2.996   0.805
  845TIP3    H1 2492   4.411   3.078   0.849
  845TIP3    H2 2493   4.402   3.016   0.712
  846TIP3   OH2 2494   3.778   3.176   0.835
  846TIP3    H1 2495   3.822   3.091   0.857
  846TIP3    H2 2496   3.747   3.158   0.744
  847TIP3   OH2 2497   3.120   2.834   0.801
  847TIP3    H1 2498   3.100   2.907   0.739
  847TIP3    H2 2499   3.071   2.761   0.757
  848TIP3   OH2 2500   3.814   2.928   0.422
  848TIP3    H1 2501   3.885   2.912   0.489
  848TIP3    H2 2502   3.868   2.962   0.348
  849TIP3   OH2 2503   2.752   3.037   0.907
  849TIP3    H1 2504   2.834   3.019   0.957
  849TIP3    H2 2505   2.767   2.981   0.828
  850TIP3   OH2 2506   3.191   3.235   0.706
  850TIP3    H1 2507   3.285   3.212   0.717
  850TIP3    H2 2508   3.153   3.151   0.674
  851TIP3   OH2 2509   4.454   3.204   0.974
  851TIP3    H1 2510   4.370   3.250   0.957
  851TIP3    H2 2511   4.477   3.239   1.062
  852TIP3   OH2 2512   3.114   2.821   1.237
  852TIP3    H1 2513   3.054   2.857   1.169
  852TIP3    H2 2514   3.062   2.837   1.318
  853TIP3   OH2 2515   3.458   3.672   0.242
  853TIP3    H1 2516   3.415   3.661   0.156
  853TIP3    H2 2517   3.415   3.754   0.274
  854TIP3   OH2 2518   3.220   3.596   1.028
  854TIP3    H1 2519   3.161   3.665   1.065
  854TIP3    H2 2520   3.264   3.643   0.954
  855TIP3   OH2 2521   4.019   2.933   0.601
  855TIP3    H1 2522   4.001   2.892   0.686
  855TIP3    H2 2523   4.070   3.012   0.627
  856TIP3   OH2 2524   2.986   2.935   1.019
  856TIP3    H1 2525   3.048   3.007   1.044
  856TIP3    H2 2526   3.036   2.894   0.945
  857TIP3   OH2 2527   3.050   3.793   1.130
  857TIP3    H1 2528   3.025   3.879   1.091
  857TIP3    H2 2529   2.970   3.776   1.183
  858TIP3   OH2 2530   2.441   3.479   0.369
  858TIP3    H1 2531   2.402   3.503   0.283
  858TIP3    H2 2532   2.472   3.567   0.402
  859TIP3   OH2 2533   3.879   3.994   0.601
  859TIP3    H1 2534   3.790   3.988   0.641
  859TIP3    H2 2535   3.873   4.083   0.558
  860TIP3   OH2 2536   4.175   2.892   0.968
  860TIP3    H1 2537   4.088   2.923   0.936
  860TIP3    H2 2538   4.236   2.926   0.900
  861TIP3   OH2 2539   3.466   2.537   0.952
  861TIP3    H1 2540   3.451   2.442   0.970
  861TIP3    H2 2541   3.390   2.576   0.999
  862TIP3   OH2 2542   3.583   4.040   0.272
  862TIP3    H1 2543   3.632   3.957   0.254
  862TIP3    H2 2544   3.651   4.104   0.240
  863TIP3   OH2 2545   3.727   3.823   0.188
  863TIP3    H1 2546   3.681   3.744   0.157
  863TIP3    H2 2547   3.766   3.791   0.272
  864TIP3   OH2 2548   4.105   3.905   0.950
  864TIP3    H1 2549   4.095   3.829   0.889
  864TIP3    H2 2550   4.088   3.981   0.891
  865TIP3   OH2 2551   3.400   3.300   0.208
  865TIP3    H1 2552   3.321   3.355   0.189
  865TIP3    H2 2553   3.445   3.298   0.122
  866TIP3   OH2 2554   3.349   3.075  -0.060
  866TIP3    H1 2555   3.419   3.138  -0.034
  866TIP3    H2 2556   3.401   2.999  -0.089
  867TIP3   OH2 2557   4.301   3.543   0.794
  867TIP3    H1 2558   4.218   3.596   0.798
  867TIP3    H2 2559   4.333   3.571   0.705
  868TIP3   OH2 2560   3.747   3.380   0.176
  868TIP3    H1 2561   3.692   3.405   0.254
  868TIP3    H2 2562   3.832   3.358   0.219
  869TIP3   OH2 2563   3.981   3.421   1.096
  869TIP3    H1 2564   3.980   3.504   1.147
  869TIP3    H2 2565   3.896   3.428   1.049
  870TIP3   OH2 2566   2.979   3.379   0.596
  870TIP3    H1 2567   2.942   3.321   0.526
  870TIP3    H2 2568   3.056   3.327   0.627
  871TIP3   OH2 2569   3.107   3.790   0.744
  871TIP3    H1 2570   3.090   3.759   0.654
  871TIP3    H2 2571   3.197   3.754   0.761
  872TIP3   OH2 2572   3.112   3.354   0.950
  872TIP3    H1 2573   3.146   3.328   0.862
  872TIP3    H2 2574   3.157   3.439   0.967
  873TIP3   OH2 2575   3.640   3.991   0.726
  873TIP3    H1 2576   3.628   4.072   0.778
  873TIP3    H2 2577   3.623   3.920   0.791
  874TIP3   OH2 2578   3.255   3.910   1.275
  874TIP3    H1 2579   3.193   3.971   1.319
  874TIP3    H2 2580   3.193   3.856   1.223
  875TIP3   OH2 2581   3.584   3.243  -0.002
  875TIP3    H1 2582   3.642   3.302   0.051
  875TIP3    H2 2583   3.616   3.263  -0.093
  876TIP3   OH2 2584   3.010   3.462   1.381
  876TIP3    H1 2585   3.013   3.552   1.420
  876TIP3    H2 2586   2.914   3.442   1.390
  877TIP3   OH2 2587   3.332   3.917   0.284
  877TIP3    H1 2588   3.412   3.972   0.291
  877TIP3    H2 2589   3.271   3.976   0.238
  878TIP3   OH2 2590   3.048   4.075   1.360
  878TIP3    H1 2591   3.015   4.080   1.268
  878TIP3    H2 2592   2.966   4.054   1.410
  879TIP3   OH2 2593   4.106   2.485   0.052
  879TIP3    H1 2594   4.023   2.505   0.100
  879TIP3    H2 2595   4.119   2.565  -0.002
  880TIP3   OH2 2596   2.850   3.223   0.388
  880TIP3    H1 2597   2.779   3.270   0.340
  880TIP3    H2 2598   2.805   3.142   0.415
  881TIP3   OH2 2599   2.626   3.609   1.308
  881TIP3    H1 2600   2.558   3.590   1.239
  881TIP3    H2 2601   2.662   3.521   1.328
  882TIP3   OH2 2602   2.481   3.800   0.940
  882TIP3    H1 2603   2.577   3.795   0.929
  882TIP3    H2 2604   2.472   3.880   0.994
  883TIP3   OH2 2605   4.341   4.255   0.999
  883TIP3    H1 2606   4.341   4.159   1.015
  883TIP3    H2 2607   4.258   4.280   1.045
  884TIP3   OH2 2608   3.451   4.038   1.131
  884TIP3    H1 2609   3.447   4.131   1.163
  884TIP3    H2 2610   3.380   3.997   1.185
  885TIP3   OH2 2611   3.206   4.164   0.086
  885TIP3    H1 2612   3.162   4.151   0.000
  885TIP3    H2 2613   3.180   4.256   0.110
  886TIP3   OH2 2614   2.650   4.015   0.469
  886TIP3    H1 2615   2.697   4.006   0.555
  886TIP3    H2 2616   2.599   3.932   0.468
  887TIP3   OH2 2617   3.428   4.026  -0.232
  887TIP3    H1 2618   3.520   4.002  -0.243
  887TIP3    H2 2619   3.431   4.058  -0.139
  888TIP3   OH2 2620   3.461   4.115   0.022
  888TIP3    H1 2621   3.371   4.128   0.059
  888TIP3    H2 2622   3.512   4.090   0.101
  889TIP3   OH2 2623   4.233   3.381   1.274
  889TIP3    H1 2624   4.151   3.391   1.224
  889TIP3    H2 2625   4.250   3.285   1.265
  890TIP3   OH2 2626   2.830   3.792   1.292
  890TIP3    H1 2627   2.879   3.774   1.375
  890TIP3    H2 2628   2.755   3.728   1.299
  891TIP3   OH2 2629   3.230   2.614   1.083
  891TIP3    H1 2630   3.142   2.584   1.054
  891TIP3    H2 2631   3.205   2.695   1.131
  892TIP3   OH2 2632   3.767   2.727   1.276
  892TIP3    H1 2633   3.837   2.701   1.339
  892TIP3    H2 2634   3.685   2.709   1.325
  893TIP3   OH2 2635   3.998   3.157   1.191
  893TIP3    H1 2636   3.949   3.155   1.276
  893TIP3    H2 2637   3.978   3.246   1.157
  894TIP3   OH2 2638   3.672   3.304  -0.252
  894TIP3    H1 2639   3.665   3.270  -0.342
  894TIP3    H2 2640   3.704   3.394  -0.267
  895TIP3   OH2 2641   3.389   2.686   0.057
  895TIP3    H1 2642   3.353   2.673   0.146
  895TIP3    H2 2643   3.356   2.609   0.010
  896TIP3   OH2 2644   3.162   3.131   1.099
  896TIP3    H1 2645   3.112   3.152   1.180
  896TIP3    H2 2646   3.146   3.213   1.046
  897TIP3   OH2 2647   3.046   3.018   0.616
  897TIP3    H1 2648   2.953   2.991   0.634
  897TIP3    H2 2649   3.059   2.977   0.527
  898TIP3   OH2 2650   3.536   3.099   0.342
  898TIP3    H1 2651   3.486   3.171   0.298
  898TIP3    H2 2652   3.592   3.066   0.269
  899TIP3   OH2 2653   3.712   3.378   1.425
  899TIP3    H1 2654   3.691   3.304   1.487
  899TIP3    H2 2655   3.806   3.393   1.446
  900TIP3   OH2 2656   3.691   3.127   0.579
  900TIP3    H1 2657   3.629   3.155   0.509
  900TIP3    H2 2658   3.727   3.047   0.534
  901TIP3   OH2 2659   2.982   3.158   1.307
  901TIP3    H1 2660   3.015   3.220   1.373
  901TIP3    H2 2661   2.970   3.076   1.359
  902TIP3   OH2 2662   3.034   2.609   0.027
  902TIP3    H1 2663   3.040   2.622   0.123
  902TIP3    H2 2664   2.959   2.665   0.006
  903TIP3   OH2 2665   2.585   2.681   0.881
  903TIP3    H1 2666   2.647   2.719   0.948
  903TIP3    H2 2667   2.646   2.654   0.812
  904TIP3   OH2 2668   2.583   2.706   0.434
  904TIP3    H1 2669   2.636   2.734   0.357
  904TIP3    H2 2670   2.523   2.781   0.444
  905TIP3   OH2 2671   3.699   3.373   1.000
  905TIP3    H1 2672   3.735   3.303   0.941
  905TIP3    H2 2673   3.671   3.319   1.076
  906TIP3   OH2 2674   3.376   2.836   0.672
  906TIP3    H1 2675   3.296   2.836   0.728
  906TIP3    H2 2676   3.447   2.832   0.738
  907TIP3   OH2 2677   2.808   2.895   0.678
  907TIP3    H1 2678   2.714   2.902   0.649
  907TIP3    H2 2679   2.832   2.803   0.654
  908TIP3   OH2 2680   3.078   2.895   0.377
  908TIP3    H1 2681   3.173   2.908   0.359
  908TIP3    H2 2682   3.034   2.910   0.291
  909TIP3   OH2 2683   3.865   2.915   0.874
  909TIP3    H1 2684   3.835   2.928   0.967
  909TIP3    H2 2685   3.797   2.854   0.842
  910TIP3   OH2 2686   2.927   2.911   0.154
  910TIP3    H1 2687   2.831   2.905   0.144
  910TIP3    H2 2688   2.958   2.957   0.074
  911TIP3   OH2 2689   4.036   4.602   1.096
  911TIP3    H1 2690   4.035   4.628   1.002
  911TIP3    H2 2691   4.118   4.647   1.126
  912TIP3   OH2 2692   2.992   3.714   1.516
  912TIP3    H1 2693   3.073   3.741   1.562
  912TIP3    H2 2694   2.928   3.713   1.589
  913TIP3   OH2 2695   3.455   3.167   0.771
  913TIP3    H1 2696   3.531   3.130   0.722
  913TIP3    H2 2697   3.462   3.123   0.857
  914TIP3   OH2 2698   2.974   2.654   0.649
  914TIP3    H1 2699   2.936   2.577   0.698
  914TIP3    H2 2700   3.018   2.610   0.576
  915TIP3   OH2 2701   3.433   3.067   1.060
  915TIP3    H1 2702   3.343   3.103   1.075
  915TIP3    H2 2703   3.490   3.128   1.110
  916TIP3   OH2 2704   3.171   3.453   0.155
  916TIP3    H1 2705   3.096   3.391   0.143
  916TIP3    H2 2706   3.151   3.489   0.245
  917TIP3   OH2 2707   4.068   3.690   0.782
  917TIP3    H1 2708   4.093   3.742   0.702
  917TIP3    H2 2709   3.984   3.648   0.754
  918TIP3   OH2 2710   3.650   2.762   0.016
  918TIP3    H1 2711   3.554   2.739   0.016
  918TIP3    H2 2712   3.649   2.857   0.037
  919TIP3   OH2 2713   3.561   3.769   1.155
  919TIP3    H1 2714   3.605   3.758   1.240
  919TIP3    H2 2715   3.531   3.862   1.158
  920TIP3   OH2 2716   3.694   3.015   0.125
  920TIP3    H1 2717   3.790   3.019   0.140
  920TIP3    H2 2718   3.678   3.095   0.071
  921TIP3   OH2 2719   2.862   3.476   0.829
  921TIP3    H1 2720   2.900   3.448   0.743
  921TIP3    H2 2721   2.910   3.419   0.891
  922TIP3   OH2 2722   3.314   3.603  -0.027
  922TIP3    H1 2723   3.267   3.690  -0.019
  922TIP3    H2 2724   3.262   3.550   0.037
  923TIP3   OH2 2725   2.743   3.396   1.446
  923TIP3    H1 2726   2.758   3.378   1.541
  923TIP3    H2 2727   2.674   3.330   1.425
  924TIP3   OH2 2728   3.472   3.511   1.465
  924TIP3    H1 2729   3.412   3.453   1.416
  924TIP3    H2 2730   3.559   3.477   1.436
  925TIP3   OH2 2731   3.726   4.026   1.055
  925TIP3    H1 2732   3.630   4.032   1.066
  925TIP3    H2 2733   3.756   4.083   1.130
  926TIP3   OH2 2734   4.130   3.106  -0.043
  926TIP3    H1 2735   4.069   3.064  -0.110
  926TIP3    H2 2736   4.127   3.197  -0.080
  927TIP3   OH2 2737   4.356   3.962   1.040
  927TIP3    H1 2738   4.258   3.957   1.030
  927TIP3    H2 2739   4.383   3.933   0.950
  928TIP3   OH2 2740   3.866   3.915  -0.147
  928TIP3    H1 2741   3.829   3.868  -0.071
  928TIP3    H2 2742   3.813   3.881  -0.220
  929TIP3   OH2 2743   3.834   3.554   0.699
  929TIP3    H1 2744   3.740   3.530   0.713
  929TIP3    H2 2745   3.867   3.473   0.655
  930TIP3   OH2 2746   2.966   3.782   0.458
  930TIP3    H1 2747   2.963   3.863   0.403
  930TIP3    H2 2748   2.872   3.764   0.467
  931TIP3   OH2 2749   2.534   3.082   0.178
  931TIP3    H1 2750   2.573   3.172   0.189
  931TIP3    H2 2751   2.446   3.094   0.220
  932TIP3   OH2 2752   3.094   3.544   0.397
  932TIP3    H1 2753   3.063   3.634   0.416
  932TIP3    H2 2754   3.061   3.495   0.474
  933TIP3   OH2 2755   3.234   4.124   0.924
  933TIP3    H1 2756   3.275   4.197   0.873
  933TIP3    H2 2757   3.311   4.087   0.970
  934TIP3   OH2 2758   2.882   4.020   0.310
  934TIP3    H1 2759   2.797   4.031   0.355
  934TIP3    H2 2760   2.916   4.113   0.311
  935TIP3   OH2 2761   3.616   3.757   0.887
  935TIP3    H1 2762   3.605   3.754   0.984
  935TIP3    H2 2763   3.700   3.709   0.875
  936TIP3   OH2 2764   3.575   3.609  -0.227
  936TIP3    H1 2765   3.641   3.606  -0.155
  936TIP3    H2 2766   3.494   3.628  -0.179
  937TIP3   OH2 2767   3.867   4.289   0.931
  937TIP3    H1 2768   3.785   4.238   0.922
  937TIP3    H2 2769   3.855   4.356   0.860
  938TIP3   OH2 2770   2.950   2.902   1.449
  938TIP3    H1 2771   2.853   2.906   1.459
  938TIP3    H2 2772   2.975   2.843   1.522
  939TIP3   OH2 2773   3.755   3.580  -0.018
  939TIP3    H1 2774   3.747   3.516   0.055
  939TIP3    H2 2775   3.852   3.582  -0.028
  940TIP3   OH2 2776   2.670   3.986   1.084
  940TIP3    H1 2777   2.724   3.913   1.117
  940TIP3    H2 2778   2.703   4.060   1.136
  941TIP3   OH2 2779   2.961   3.646  -0.227
  941TIP3    H1 2780   2.976   3.559  -0.265
  941TIP3    H2 2781   2.935   3.628  -0.135
  942TIP3   OH2 2782   2.904   3.637   0.046
  942TIP3    H1 2783   2.980   3.617   0.102
  942TIP3    H2 2784   2.906   3.736   0.046
  943TIP3   OH2 2785   2.640   3.333   0.246
  943TIP3    H1 2786   2.574   3.379   0.302
  943TIP3    H2 2787   2.652   3.399   0.176
  944TIP3   OH2 2788   3.794   2.964   1.134
  944TIP3    H1 2789   3.873   3.006   1.172
  944TIP3    H2 2790   3.783   2.884   1.191
  945TIP3   OH2 2791   3.669   2.716   0.301
  945TIP3    H1 2792   3.662   2.736   0.206
  945TIP3    H2 2793   3.710   2.798   0.336
  946TIP3   OH2 2794   3.175   3.831  -0.007
  946TIP3    H1 2795   3.089   3.862   0.027
  946TIP3    H2 2796   3.186   3.888  -0.084
  947TIP3   OH2 2797   3.355   2.898   0.403
  947TIP3    H1 2798   3.420   2.970   0.385
  947TIP3    H2 2799   3.364   2.888   0.500
  948TIP3   OH2 2800   3.631   3.213   1.209
  948TIP3    H1 2801   3.655   3.266   1.288
  948TIP3    H2 2802   3.684   3.133   1.221
  949TIP3   OH2 2803   3.504   2.618   0.502
  949TIP3    H1 2804   3.501   2.694   0.564
  949TIP3    H2 2805   3.565   2.653   0.433
  950TIP3   OH2 2806   2.919   3.908   0.060
  950TIP3    H1 2807   2.890   3.978  -0.003
  950TIP3    H2 2808   2.903   3.952   0.146
  951TIP3   OH2 2809   3.032   2.636   0.306
  951TIP3    H1 2810   3.029   2.727   0.342
  951TIP3    H2 2811   3.128   2.619   0.314
  952TIP3   OH2 2812   4.266   3.116   1.193
  952TIP3    H1 2813   4.168   3.113   1.198
  952TIP3    H2 2814   4.281   3.074   1.108
  953TIP3   OH2 2815   3.920   3.309   0.578
  953TIP3    H1 2816   3.844   3.250   0.592
  953TIP3    H2 2817   3.991   3.263   0.627
  954TIP3   OH2 2818   2.634   3.540   0.055
  954TIP3    H1 2819   2.707   3.604   0.063
  954TIP3    H2 2820   2.675   3.478  -0.009
  955TIP3   OH2 2821   2.621   2.829   0.174
  955TIP3    H1 2822   2.591   2.923   0.176
  955TIP3    H2 2823   2.560   2.792   0.108
  956TIP3   OH2 2824   3.891   4.263   0.528
  956TIP3    H1 2825   3.846   4.312   0.456
  956TIP3    H2 2826   3.985   4.284   0.506
  957TIP3   OH2 2827   2.964   2.536   1.057
  957TIP3    H1 2828   2.933   2.503   0.970
  957TIP3    H2 2829   2.955   2.457   1.114
  958TIP3   OH2 2830   2.502   3.751   0.433
  958TIP3    H1 2831   2.435   3.781   0.496
  958TIP3    H2 2832   2.470   3.794   0.350
  959TIP3   OH2 2833   2.663   4.300   1.510
  959TIP3    H1 2834   2.750   4.300   1.555
  959TIP3    H2 2835   2.645   4.205   1.504
  960TIP3   OH2 2836   3.137   4.253   1.555
  960TIP3    H1 2837   3.233   4.243   1.558
  960TIP3    H2 2838   3.114   4.193   1.481
  961TIP3   OH2 2839   3.139   3.834  -0.308
  961TIP3    H1 2840   3.060   3.781  -0.284
  961TIP3    H2 2841   3.200   3.762  -0.328
  962TIP3   OH2 2842   3.778   4.167   1.288
  962TIP3    H1 2843   3.773   4.097   1.357
  962TIP3    H2 2844   3.857   4.218   1.315
  963TIP3   OH2 2845   2.791   3.702   1.710
  963TIP3    H1 2846   2.808   3.606   1.710
  963TIP3    H2 2847   2.705   3.706   1.661
  964TIP3   OH2 2848   2.778   3.357  -0.076
  964TIP3    H1 2849   2.851   3.330  -0.017
  964TIP3    H2 2850   2.812   3.340  -0.164
  965TIP3   OH2 2851   3.392   3.786   1.484
  965TIP3    H1 2852   3.358   3.810   1.395
  965TIP3    H2 2853   3.428   3.696   1.470
  966TIP3   OH2 2854   3.254   3.543  -0.289
  966TIP3    H1 2855   3.274   3.574  -0.198
  966TIP3    H2 2856   3.286   3.452  -0.285
  967TIP3   OH2 2857   3.889   3.800   1.088
  967TIP3    H1 2858   3.968   3.839   1.045
  967TIP3    H2 2859   3.824   3.871   1.072
  968TIP3   OH2 2860   2.911   3.442   1.689
  968TIP3    H1 2861   2.986   3.391   1.655
  968TIP3    H2 2862   2.943   3.469   1.777
  969TIP3   OH2 2863   2.974   3.258   0.117
  969TIP3    H1 2864   2.947   3.228   0.206
  969TIP3    H2 2865   3.012   3.178   0.077
  970TIP3   OH2 2866   3.245   3.319   1.350
  970TIP3    H1 2867   3.168   3.379   1.350
  970TIP3    H2 2868   3.298   3.353   1.275
  971TIP3   OH2 2869   3.076   3.044  -0.041
  971TIP3    H1 2870   3.078   3.017  -0.133
  971TIP3    H2 2871   3.172   3.058  -0.026
  972TIP3   OH2 2872   3.763   3.722   1.485
  972TIP3    H1 2873   3.842   3.695   1.436
  972TIP3    H2 2874   3.760   3.656   1.557
  973TIP3   OH2 2875   3.368   3.111   1.477
  973TIP3    H1 2876   3.370   3.032   1.420
  973TIP3    H2 2877   3.325   3.177   1.419
  974TIP3   OH2 2878   3.373   2.897   1.286
  974TIP3    H1 2879   3.401   2.938   1.202
  974TIP3    H2 2880   3.279   2.874   1.266
  975TIP3   OH2 2881   3.396   3.429   1.158
  975TIP3    H1 2882   3.482   3.444   1.119
  975TIP3    H2 2883   3.340   3.495   1.112
  976TIP3   OH2 2884   3.977   3.396   1.536
  976TIP3    H1 2885   4.027   3.315   1.552
  976TIP3    H2 2886   4.047   3.455   1.501
  977TIP3   OH2 2887   4.019   3.651   1.272
  977TIP3    H1 2888   3.962   3.706   1.213
  977TIP3    H2 2889   4.108   3.673   1.234
  978TIP3   OH2 2890   3.247   3.218   1.712
  978TIP3    H1 2891   3.181   3.146   1.726
  978TIP3    H2 2892   3.281   3.195   1.623
  979TIP3   OH2 2893   3.503   2.657   1.353
  979TIP3    H1 2894   3.454   2.738   1.331
  979TIP3    H2 2895   3.435   2.588   1.343
  980TIP3   OH2 2896   3.630   3.161   1.569
  980TIP3    H1 2897   3.619   3.144   1.664
  980TIP3    H2 2898   3.540   3.137   1.538
  981TIP3   OH2 2899   3.867   3.111   1.422
  981TIP3    H1 2900   3.794   3.113   1.487
  981TIP3    H2 2901   3.943   3.082   1.477
  982TIP3   OH2 2902   4.092   3.052   1.571
  982TIP3    H1 2903   4.109   2.957   1.588
  982TIP3    H2 2904   4.092   3.090   1.662
  983TIP3   OH2 2905   3.088   2.997   1.765
  983TIP3    H1 2906   3.090   2.905   1.730
  983TIP3    H2 2907   3.127   2.983   1.853
  984TIP3   OH2 2908   3.596   2.668   1.612
  984TIP3    H1 2909   3.663   2.597   1.606
  984TIP3    H2 2910   3.557   2.662   1.522
  985TIP3   OH2 2911   3.665   2.883   1.770
  985TIP3    H1 2912   3.644   2.811   1.706
  985TIP3    H2 2913   3.586   2.940   1.762
  986TIP3   OH2 2914   2.875   4.105  -0.126
  986TIP3    H1 2915   2.968   4.109  -0.158
  986TIP3    H2 2916   2.827   4.148  -0.198
  987TIP3   OH2 2917   2.364   3.498   0.102
  987TIP3    H1 2918   2.453   3.530   0.076
  987TIP3    H2 2919   2.357   3.417   0.049
  988TIP3   OH2 2920   2.282   4.105   0.499
  988TIP3    H1 2921   2.216   4.044   0.460
  988TIP3    H2 2922   2.326   4.045   0.564
  989TIP3   OH2 2923   2.415   3.952   0.686
  989TIP3    H1 2924   2.402   3.882   0.752
  989TIP3    H2 2925   2.469   4.015   0.738
  990TIP3   OH2 2926   4.146   4.351   0.487
  990TIP3    H1 2927   4.168   4.388   0.575
  990TIP3    H2 2928   4.202   4.404   0.429
  991TIP3   OH2 2929   4.168   4.376   0.769
  991TIP3    H1 2930   4.128   4.287   0.766
  991TIP3    H2 2931   4.247   4.357   0.822
  992TIP3   OH2 2932   4.218   4.054   1.342
  992TIP3    H1 2933   4.147   4.065   1.408
  992TIP3    H2 2934   4.262   4.141   1.345
  993TIP3   OH2 2935   4.033   3.560  -0.033
  993TIP3    H1 2936   4.100   3.625  -0.058
  993TIP3    H2 2937   4.075   3.519   0.045
  994TIP3   OH2 2938   4.165   3.428   0.167
  994TIP3    H1 2939   4.097   3.390   0.227
  994TIP3    H2 2940   4.229   3.468   0.229
  995TIP3   OH2 2941   4.219   3.828   0.595
  995TIP3    H1 2942   4.271   3.762   0.547
  995TIP3    H2 2943   4.215   3.902   0.532
  996TIP3   OH2 2944   4.045   4.124   0.791
  996TIP3    H1 2945   3.974   4.170   0.840
  996TIP3    H2 2946   3.996   4.081   0.718
  997TIP3   OH2 2947   4.093   3.346  -0.194
  997TIP3    H1 2948   4.019   3.338  -0.257
  997TIP3    H2 2949   4.064   3.422  -0.140
  998TIP3   OH2 2950   3.977   3.021  -0.252
  998TIP3    H1 2951   3.968   3.042  -0.347
  998TIP3    H2 2952   3.943   2.929  -0.250
  999TIP3   OH2 2953   3.975   3.292   0.310
  999TIP3    H1 2954   3.981   3.195   0.303
  999TIP3    H2 2955   3.960   3.304   0.407
 1000TIP3   OH2 2956   2.601   3.363   1.059
 1000TIP3    H1 2957   2.598   3.330   0.967
 1000TIP3    H2 2958   2.698   3.365   1.075
 1001TIP3   OH2 2959   4.266   3.716   1.168
 1001TIP3    H1 2960   4.337   3.650   1.157
 1001TIP3    H2 2961   4.293   3.787   1.107
 1002TIP3   OH2 2962   4.447   3.515   1.175
 1002TIP3    H1 2963   4.374   3.466   1.218
 1002TIP3    H2 2964   4.522   3.455   1.192
 1003TIP3   OH2 2965   3.911   2.755  -0.230
 1003TIP3    H1 2966   3.997   2.721  -0.199
 1003TIP3    H2 2967   3.848   2.712  -0.172
 1004TIP3   OH2 2968   3.973   3.007   0.202
 1004TIP3    H1 2969   4.013   2.918   0.217
 1004TIP3    H2 2970   4.029   3.039   0.130
 1005TIP3   OH2 2971   4.132   3.178   0.700
 1005TIP3    H1 2972   4.218   3.202   0.658
 1005TIP3    H2 2973   4.146   3.216   0.789
 1006TIP3   OH2 2974   4.203   3.324   0.929
 1006TIP3    H1 2975   4.127   3.359   0.979
 1006TIP3    H2 2976   4.237   3.405   0.885
 1007TIP3   OH2 2977   2.824   3.056   1.744
 1007TIP3    H1 2978   2.921   3.043   1.740
 1007TIP3    H2 2979   2.797   2.969   1.779
 1008TIP3   OH2 2980   4.650   2.915   1.485
 1008TIP3    H1 2981   4.714   2.852   1.446
 1008TIP3    H2 2982   4.624   2.969   1.408
 1009TIP3   OH2 2983   4.082   2.758   0.241
 1009TIP3    H1 2984   4.130   2.742   0.325
 1009TIP3    H2 2985   4.021   2.681   0.240
 1010TIP3   OH2 2986   2.780   2.746   1.061
 1010TIP3    H1 2987   2.840   2.669   1.071
 1010TIP3    H2 2988   2.845   2.818   1.052
 1011TIP3   OH2 2989   2.582   3.014   1.132
 1011TIP3    H1 2990   2.632   3.015   1.048
 1011TIP3    H2 2991   2.609   3.097   1.172
 1012TIP3   OH2 2992   4.524   3.054   1.288
 1012TIP3    H1 2993   4.439   3.097   1.312
 1012TIP3    H2 2994   4.490   2.981   1.233
 1013TIP3   OH2 2995   4.169   2.688  -0.139
 1013TIP3    H1 2996   4.220   2.643  -0.208
 1013TIP3    H2 2997   4.224   2.768  -0.126
 1014TIP3   OH2 2998   2.556   2.520   0.630
 1014TIP3    H1 2999   2.479   2.552   0.680
 1014TIP3    H2 3000   2.570   2.592   0.565
 1015TIP3   OH2 3001   3.740   4.220   0.147
 1015TIP3    H1 3002   3.777   4.214   0.057
 1015TIP3    H2 3003   3.779   4.303   0.179
 1016TIP3   OH2 3004   2.778   2.600   1.467
 1016TIP3    H1 3005   2.719   2.536   1.510
 1016TIP3    H2 3006   2.717   2.643   1.404
 1017TIP3   OH2 3007   2.826   4.032   1.521
 1017TIP3    H1 3008   2.734   4.004   1.507
 1017TIP3    H2 3009   2.839   4.013   1.614
 1018TIP3   OH2 3010   3.008   4.065   1.075
 1018TIP3    H1 3011   2.962   4.141   1.034
 1018TIP3    H2 3012   3.094   4.076   1.030
 1019TIP3   OH2 3013   3.447   4.305   1.212
 1019TIP3    H1 3014   3.490   4.305   1.300
 1019TIP3    H2 3015   3.513   4.356   1.160
 1020TIP3   OH2 3016   3.628   4.458   1.075
 1020TIP3    H1 3017   3.699   4.411   1.029
 1020TIP3    H2 3018   3.680   4.515   1.135
 1021TIP3   OH2 3019   4.425   2.816   1.171
 1021TIP3    H1 3020   4.335   2.806   1.136
 1021TIP3    H2 3021   4.459   2.724   1.163
 1022TIP3   OH2 3022   2.680   4.316   1.100
 1022TIP3    H1 3023   2.590   4.349   1.077
 1022TIP3    H2 3024   2.694   4.364   1.183
 1023TIP3   OH2 3025   2.918   4.296   0.958
 1023TIP3    H1 3026   2.829   4.308   1.000
 1023TIP3    H2 3027   2.901   4.327   0.867
 1024TIP3   OH2 3028   3.343   4.322   0.757
 1024TIP3    H1 3029   3.276   4.340   0.688
 1024TIP3    H2 3030   3.356   4.410   0.796
 1025TIP3   OH2 3031   3.613   4.260   0.808
 1025TIP3    H1 3032   3.520   4.281   0.788
 1025TIP3    H2 3033   3.660   4.332   0.763
 1026TIP3   OH2 3034   3.813   4.451   0.718
 1026TIP3    H1 3035   3.802   4.537   0.673
 1026TIP3    H2 3036   3.844   4.394   0.644
 1027TIP3   OH2 3037   2.592   4.110   0.843
 1027TIP3    H1 3038   2.620   4.083   0.933
 1027TIP3    H2 3039   2.664   4.067   0.791
 1028TIP3   OH2 3040   2.788   3.983   0.703
 1028TIP3    H1 3041   2.804   3.899   0.753
 1028TIP3    H2 3042   2.879   4.019   0.698
 1029TIP3   OH2 3043   3.054   4.075   0.709
 1029TIP3    H1 3044   3.086   3.984   0.696
 1029TIP3    H2 3045   3.104   4.098   0.789
 1030TIP3   OH2 3046   3.626   2.731   0.788
 1030TIP3    H1 3047   3.586   2.660   0.841
 1030TIP3    H2 3048   3.703   2.687   0.748
 1031TIP3   OH2 3049   4.149   2.611   0.693
 1031TIP3    H1 3050   4.186   2.665   0.619
 1031TIP3    H2 3051   4.054   2.634   0.689
 1032TIP3   OH2 3052   4.246   2.713   0.458
 1032TIP3    H1 3053   4.321   2.662   0.421
 1032TIP3    H2 3054   4.280   2.805   0.444
 1033TIP3   OH2 3055   2.874   2.448   0.812
 1033TIP3    H1 3056   2.787   2.407   0.794
 1033TIP3    H2 3057   2.931   2.368   0.803
 1034TIP3   OH2 3058   2.780   2.379   0.534
 1034TIP3    H1 3059   2.758   2.398   0.442
 1034TIP3    H2 3060   2.705   2.421   0.581
 1035TIP3   OH2 3061   3.326   2.470   0.687
 1035TIP3    H1 3062   3.382   2.520   0.625
 1035TIP3    H2 3063   3.348   2.512   0.771
 1036TIP3   OH2 3064   3.863   2.621   0.670
 1036TIP3    H1 3065   3.868   2.580   0.583
 1036TIP3    H2 3066   3.852   2.542   0.728
 1037TIP3   OH2 3067   3.901   2.544   0.234
 1037TIP3    H1 3068   3.812   2.584   0.242
 1037TIP3    H2 3069   3.886   2.459   0.281
 1038TIP3   OH2 3070   2.379   3.887   0.236
 1038TIP3    H1 3071   2.300   3.846   0.196
 1038TIP3    H2 3072   2.363   3.980   0.214
 1039TIP3   OH2 3073   2.798   2.501   0.269
 1039TIP3    H1 3074   2.849   2.428   0.232
 1039TIP3    H2 3075   2.870   2.564   0.291
 1040TIP3   OH2 3076   3.302   2.646   0.317
 1040TIP3    H1 3077   3.364   2.603   0.379
 1040TIP3    H2 3078   3.320   2.739   0.341
 1041TIP3   OH2 3079   3.147   4.079  -0.191
 1041TIP3    H1 3080   3.241   4.093  -0.214
 1041TIP3    H2 3081   3.130   3.999  -0.245
 1042TIP3   OH2 3082   3.871   4.186  -0.096
 1042TIP3    H1 3083   3.866   4.091  -0.118
 1042TIP3    H2 3084   3.865   4.228  -0.184
 1043TIP3   OH2 3085   3.084   2.724   1.701
 1043TIP3    H1 3086   3.049   2.650   1.754
 1043TIP3    H2 3087   3.178   2.722   1.728
 1044TIP3   OH2 3088   3.335   2.720   1.818
 1044TIP3    H1 3089   3.421   2.696   1.778
 1044TIP3    H2 3090   3.324   2.648   1.884
 1045TIP3   OH2 3091   2.449   3.906  -0.099
 1045TIP3    H1 3092   2.450   3.960  -0.019
 1045TIP3    H2 3093   2.542   3.885  -0.113
 1046TIP3   OH2 3094   4.162   2.783   1.604
 1046TIP3    H1 3095   4.179   2.751   1.696
 1046TIP3    H2 3096   4.252   2.778   1.565
 1047TIP3   OH2 3097   4.094   4.333   1.097
 1047TIP3    H1 3098   4.016   4.306   1.044
 1047TIP3    H2 3099   4.078   4.430   1.102
 1048TIP3   OH2 3100   5.359   3.700   0.246
 1048TIP3    H1 3101   5.398   3.690   0.335
 1048TIP3    H2 3102   5.314   3.615   0.235
 1049TIP3   OH2 3103   4.664   3.599   0.608
 1049TIP3    H1 3104   4.692   3.529   0.670
 1049TIP3    H2 3105   4.735   3.663   0.621
 1050TIP3   OH2 3106   4.633   4.005   0.330
 1050TIP3    H1 3107   4.626   3.908   0.336
 1050TIP3    H2 3108   4.731   4.016   0.332
 1051TIP3   OH2 3109   4.344   3.216   0.106
 1051TIP3    H1 3110   4.295   3.296   0.132
 1051TIP3    H2 3111   4.271   3.160   0.074
 1052TIP3   OH2 3112   4.400   3.501   0.293
 1052TIP3    H1 3113   4.448   3.423   0.328
 1052TIP3    H2 3114   4.471   3.551   0.251
 1053TIP3   OH2 3115   5.169   3.929   0.282
 1053TIP3    H1 3116   5.214   3.850   0.250
 1053TIP3    H2 3117   5.248   3.977   0.316
 1054TIP3   OH2 3118   6.181   3.255   0.288
 1054TIP3    H1 3119   6.201   3.330   0.349
 1054TIP3    H2 3120   6.261   3.254   0.235
 1055TIP3   OH2 3121   5.586   3.433   0.351
 1055TIP3    H1 3122   5.624   3.346   0.373
 1055TIP3    H2 3123   5.543   3.413   0.266
 1056TIP3   OH2 3124   4.920   3.087   0.292
 1056TIP3    H1 3125   4.890   3.167   0.244
 1056TIP3    H2 3126   4.868   3.018   0.246
 1057TIP3   OH2 3127   5.591   3.168  -0.036
 1057TIP3    H1 3128   5.673   3.157   0.018
 1057TIP3    H2 3129   5.631   3.174  -0.125
 1058TIP3   OH2 3130   4.547   3.295   0.395
 1058TIP3    H1 3131   4.629   3.277   0.445
 1058TIP3    H2 3132   4.558   3.234   0.320
 1059TIP3   OH2 3133   4.995   3.502   0.192
 1059TIP3    H1 3134   5.089   3.474   0.206
 1059TIP3    H2 3135   4.951   3.416   0.177
 1060TIP3   OH2 3136   6.246   3.459   0.461
 1060TIP3    H1 3137   6.161   3.505   0.448
 1060TIP3    H2 3138   6.269   3.489   0.550
 1061TIP3   OH2 3139   4.910   3.076   0.723
 1061TIP3    H1 3140   4.849   3.115   0.658
 1061TIP3    H2 3141   4.859   3.091   0.805
 1062TIP3   OH2 3142   5.016   3.854   0.515
 1062TIP3    H1 3143   4.954   3.920   0.555
 1062TIP3    H2 3144   5.055   3.906   0.443
 1063TIP3   OH2 3145   5.831   3.188   0.092
 1063TIP3    H1 3146   5.828   3.129   0.169
 1063TIP3    H2 3147   5.869   3.269   0.131
 1064TIP3   OH2 3148   4.781   3.192   0.506
 1064TIP3    H1 3149   4.842   3.265   0.532
 1064TIP3    H2 3150   4.836   3.147   0.438
 1065TIP3   OH2 3151   4.844   4.048   0.613
 1065TIP3    H1 3152   4.822   4.137   0.578
 1065TIP3    H2 3153   4.766   4.034   0.671
 1066TIP3   OH2 3154   4.227   3.736  -0.125
 1066TIP3    H1 3155   4.167   3.764  -0.195
 1066TIP3    H2 3156   4.233   3.817  -0.069
 1067TIP3   OH2 3157   5.969   3.154   0.459
 1067TIP3    H1 3158   5.880   3.179   0.430
 1067TIP3    H2 3159   6.025   3.183   0.384
 1068TIP3   OH2 3160   5.260   2.791   0.437
 1068TIP3    H1 3161   5.248   2.697   0.461
 1068TIP3    H2 3162   5.185   2.831   0.486
 1069TIP3   OH2 3163   5.902   4.172   0.447
 1069TIP3    H1 3164   5.896   4.096   0.386
 1069TIP3    H2 3165   5.878   4.247   0.388
 1070TIP3   OH2 3166   6.095   3.800   0.322
 1070TIP3    H1 3167   6.021   3.861   0.303
 1070TIP3    H2 3168   6.130   3.780   0.233
 1071TIP3   OH2 3169   5.775   3.679   0.581
 1071TIP3    H1 3170   5.777   3.760   0.636
 1071TIP3    H2 3171   5.688   3.690   0.537
 1072TIP3   OH2 3172   4.772   3.618   0.089
 1072TIP3    H1 3173   4.736   3.546   0.034
 1072TIP3    H2 3174   4.853   3.577   0.126
 1073TIP3   OH2 3175   4.901   4.024   0.255
 1073TIP3    H1 3176   4.878   4.009   0.162
 1073TIP3    H2 3177   4.996   4.000   0.258
 1074TIP3   OH2 3178   4.913   3.612   0.435
 1074TIP3    H1 3179   4.952   3.592   0.347
 1074TIP3    H2 3180   4.954   3.698   0.458
 1075TIP3   OH2 3181   5.452   4.227   0.208
 1075TIP3    H1 3182   5.433   4.309   0.256
 1075TIP3    H2 3183   5.424   4.159   0.272
 1076TIP3   OH2 3184   5.056   4.157   0.759
 1076TIP3    H1 3185   4.995   4.219   0.806
 1076TIP3    H2 3186   4.989   4.107   0.709
 1077TIP3   OH2 3187   4.805   3.720   0.862
 1077TIP3    H1 3188   4.812   3.808   0.903
 1077TIP3    H2 3189   4.711   3.700   0.881
 1078TIP3   OH2 3190   4.840   4.299   0.838
 1078TIP3    H1 3191   4.797   4.327   0.756
 1078TIP3    H2 3192   4.768   4.309   0.904
 1079TIP3   OH2 3193   4.598   3.464  -0.086
 1079TIP3    H1 3194   4.517   3.511  -0.065
 1079TIP3    H2 3195   4.572   3.373  -0.068
 1080TIP3   OH2 3196   4.420   3.863   0.797
 1080TIP3    H1 3197   4.354   3.843   0.727
 1080TIP3    H2 3198   4.459   3.776   0.817
 1081TIP3   OH2 3199   4.277   4.060   0.425
 1081TIP3    H1 3200   4.374   4.057   0.423
 1081TIP3    H2 3201   4.263   4.138   0.482
 1082TIP3   OH2 3202   6.145   4.504   0.506
 1082TIP3    H1 3203   6.146   4.408   0.519
 1082TIP3    H2 3204   6.064   4.528   0.556
 1083TIP3   OH2 3205   5.247   4.292   0.617
 1083TIP3    H1 3206   5.245   4.385   0.650
 1083TIP3    H2 3207   5.177   4.252   0.674
 1084TIP3   OH2 3208   4.426   4.248  -0.030
 1084TIP3    H1 3209   4.501   4.254   0.034
 1084TIP3    H2 3210   4.353   4.233   0.033
 1085TIP3   OH2 3211   6.030   3.637   0.761
 1085TIP3    H1 3212   5.944   3.648   0.718
 1085TIP3    H2 3213   6.045   3.541   0.751
 1086TIP3   OH2 3214   4.625   4.045   0.776
 1086TIP3    H1 3215   4.676   4.037   0.859
 1086TIP3    H2 3216   4.551   3.983   0.790
 1087TIP3   OH2 3217   5.026   2.872   0.568
 1087TIP3    H1 3218   4.937   2.841   0.539
 1087TIP3    H2 3219   4.999   2.950   0.619
 1088TIP3   OH2 3220   5.562   2.983   0.763
 1088TIP3    H1 3221   5.632   2.957   0.827
 1088TIP3    H2 3222   5.480   2.965   0.813
 1089TIP3   OH2 3223   5.795   3.417   0.681
 1089TIP3    H1 3224   5.745   3.411   0.765
 1089TIP3    H2 3225   5.770   3.505   0.647
 1090TIP3   OH2 3226   4.957   3.389   0.584
 1090TIP3    H1 3227   4.910   3.410   0.667
 1090TIP3    H2 3228   4.942   3.471   0.533
 1091TIP3   OH2 3229   4.829   3.289   0.136
 1091TIP3    H1 3230   4.736   3.265   0.155
 1091TIP3    H2 3231   4.845   3.227   0.063
 1092TIP3   OH2 3232   5.507   3.632   0.909
 1092TIP3    H1 3233   5.486   3.561   0.973
 1092TIP3    H2 3234   5.599   3.652   0.934
 1093TIP3   OH2 3235   5.492   3.387   0.101
 1093TIP3    H1 3236   5.458   3.423   0.017
 1093TIP3    H2 3237   5.530   3.302   0.069
 1094TIP3   OH2 3238   4.778   3.414   0.793
 1094TIP3    H1 3239   4.807   3.479   0.858
 1094TIP3    H2 3240   4.768   3.333   0.848
 1095TIP3   OH2 3241   4.371   2.937   0.372
 1095TIP3    H1 3242   4.445   2.967   0.428
 1095TIP3    H2 3243   4.414   2.899   0.294
 1096TIP3   OH2 3244   4.333   2.918  -0.097
 1096TIP3    H1 3245   4.378   2.949  -0.178
 1096TIP3    H2 3246   4.272   2.993  -0.082
 1097TIP3   OH2 3247   5.487   3.638   0.491
 1097TIP3    H1 3248   5.530   3.567   0.439
 1097TIP3    H2 3249   5.460   3.585   0.569
 1098TIP3   OH2 3250   5.172   3.098   0.165
 1098TIP3    H1 3251   5.091   3.092   0.220
 1098TIP3    H2 3252   5.242   3.091   0.232
 1099TIP3   OH2 3253   4.600   3.148   0.169
 1099TIP3    H1 3254   4.507   3.156   0.139
 1099TIP3    H2 3255   4.624   3.057   0.145
 1100TIP3   OH2 3256   4.867   3.134  -0.080
 1100TIP3    H1 3257   4.962   3.115  -0.088
 1100TIP3    H2 3258   4.861   3.212  -0.137
 1101TIP3   OH2 3259   5.663   3.166   0.359
 1101TIP3    H1 3260   5.637   3.176   0.453
 1101TIP3    H2 3261   5.595   3.106   0.327
 1102TIP3   OH2 3262   5.844   4.856   0.597
 1102TIP3    H1 3263   5.830   4.872   0.502
 1102TIP3    H2 3264   5.927   4.905   0.615
 1103TIP3   OH2 3265   4.790   3.965   1.002
 1103TIP3    H1 3266   4.870   3.999   1.048
 1103TIP3    H2 3267   4.726   3.970   1.076
 1104TIP3   OH2 3268   5.251   3.426   0.265
 1104TIP3    H1 3269   5.332   3.390   0.224
 1104TIP3    H2 3270   5.251   3.382   0.352
 1105TIP3   OH2 3271   4.773   2.908   0.144
 1105TIP3    H1 3272   4.732   2.833   0.193
 1105TIP3    H2 3273   4.835   2.862   0.086
 1106TIP3   OH2 3274   5.229   3.330   0.540
 1106TIP3    H1 3275   5.139   3.363   0.561
 1106TIP3    H2 3276   5.286   3.387   0.595
 1107TIP3   OH2 3277   5.864   3.956   0.280
 1107TIP3    H1 3278   5.827   4.000   0.202
 1107TIP3    H2 3279   5.786   3.901   0.303
 1108TIP3   OH2 3280   5.362   4.029   0.642
 1108TIP3    H1 3281   5.393   4.016   0.732
 1108TIP3    H2 3282   5.323   4.119   0.646
 1109TIP3   OH2 3283   4.649   3.721   0.320
 1109TIP3    H1 3284   4.696   3.694   0.239
 1109TIP3    H2 3285   4.700   3.676   0.389
 1110TIP3   OH2 3286   4.543   3.651   0.932
 1110TIP3    H1 3287   4.563   3.641   1.027
 1110TIP3    H2 3288   4.473   3.585   0.921
 1111TIP3   OH2 3289   5.268   3.768   0.949
 1111TIP3    H1 3290   5.208   3.705   0.907
 1111TIP3    H2 3291   5.355   3.734   0.922
 1112TIP3   OH2 3292   5.524   4.282   0.537
 1112TIP3    H1 3293   5.427   4.288   0.549
 1112TIP3    H2 3294   5.555   4.334   0.614
 1113TIP3   OH2 3295   6.153   4.222   0.535
 1113TIP3    H1 3296   6.054   4.221   0.533
 1113TIP3    H2 3297   6.172   4.187   0.445
 1114TIP3   OH2 3298   5.634   3.801   0.235
 1114TIP3    H1 3299   5.538   3.800   0.221
 1114TIP3    H2 3300   5.659   3.715   0.196
 1115TIP3   OH2 3301   4.747   4.021   0.000
 1115TIP3    H1 3302   4.795   4.104  -0.021
 1115TIP3    H2 3303   4.668   4.056   0.043
 1116TIP3   OH2 3304   4.340   3.325  -0.308
 1116TIP3    H1 3305   4.342   3.409  -0.357
 1116TIP3    H2 3306   4.255   3.332  -0.260
 1117TIP3   OH2 3307   4.878   3.800  -0.090
 1117TIP3    H1 3308   4.826   3.872  -0.050
 1117TIP3    H2 3309   4.857   3.727  -0.029
 1118TIP3   OH2 3310   5.034   4.372   0.414
 1118TIP3    H1 3311   5.072   4.450   0.369
 1118TIP3    H2 3312   5.109   4.343   0.468
 1119TIP3   OH2 3313   5.416   4.003   0.377
 1119TIP3    H1 3314   5.399   4.009   0.474
 1119TIP3    H2 3315   5.505   3.964   0.378
 1120TIP3   OH2 3316   5.657   4.553   0.424
 1120TIP3    H1 3317   5.581   4.491   0.425
 1120TIP3    H2 3318   5.635   4.607   0.347
 1121TIP3   OH2 3319   4.750   3.156   0.938
 1121TIP3    H1 3320   4.654   3.159   0.953
 1121TIP3    H2 3321   4.780   3.103   1.013
 1122TIP3   OH2 3322   4.468   4.240   0.571
 1122TIP3    H1 3323   4.526   4.174   0.615
 1122TIP3    H2 3324   4.492   4.320   0.619
 1123TIP3   OH2 3325   5.598   3.212   0.616
 1123TIP3    H1 3326   5.668   3.260   0.664
 1123TIP3    H2 3327   5.581   3.136   0.675
 1124TIP3   OH2 3328   5.142   3.140  -0.101
 1124TIP3    H1 3329   5.182   3.223  -0.128
 1124TIP3    H2 3330   5.163   3.136  -0.004
 1125TIP3   OH2 3331   5.428   3.470   0.697
 1125TIP3    H1 3332   5.448   3.528   0.774
 1125TIP3    H2 3333   5.480   3.392   0.718
 1126TIP3   OH2 3334   5.313   2.884   0.004
 1126TIP3    H1 3335   5.303   2.945   0.080
 1126TIP3    H2 3336   5.379   2.932  -0.047
 1127TIP3   OH2 3337   4.805   2.888  -0.224
 1127TIP3    H1 3338   4.792   2.957  -0.157
 1127TIP3    H2 3339   4.895   2.859  -0.197
 1128TIP3   OH2 3340   6.061   3.369   0.678
 1128TIP3    H1 3341   5.963   3.372   0.688
 1128TIP3    H2 3342   6.068   3.316   0.598
 1129TIP3   OH2 3343   5.713   3.567   0.107
 1129TIP3    H1 3344   5.637   3.509   0.124
 1129TIP3    H2 3345   5.785   3.516   0.150
 1130TIP3   OH2 3346   4.383   3.057  -0.330
 1130TIP3    H1 3347   4.370   3.153  -0.317
 1130TIP3    H2 3348   4.310   3.036  -0.389
 1131TIP3   OH2 3349   4.762   2.790   0.540
 1131TIP3    H1 3350   4.731   2.753   0.454
 1131TIP3    H2 3351   4.752   2.713   0.599
 1132TIP3   OH2 3352   4.263   3.989  -0.027
 1132TIP3    H1 3353   4.227   4.044   0.044
 1132TIP3    H2 3354   4.312   4.056  -0.078
 1133TIP3   OH2 3355   4.455   4.549   0.994
 1133TIP3    H1 3356   4.546   4.535   1.026
 1133TIP3    H2 3357   4.424   4.457   0.991
 1134TIP3   OH2 3358   5.587   4.417   0.765
 1134TIP3    H1 3359   5.577   4.351   0.838
 1134TIP3    H2 3360   5.656   4.475   0.802
 1135TIP3   OH2 3361   4.587   3.958   1.194
 1135TIP3    H1 3362   4.603   3.862   1.200
 1135TIP3    H2 3363   4.500   3.961   1.148
 1136TIP3   OH2 3364   5.194   4.043   0.968
 1136TIP3    H1 3365   5.153   4.068   0.883
 1136TIP3    H2 3366   5.224   3.951   0.954
 1137TIP3   OH2 3367   5.684   4.052   0.569
 1137TIP3    H1 3368   5.762   4.102   0.536
 1137TIP3    H2 3369   5.615   4.120   0.561
 1138TIP3   OH2 3370   4.708   3.690   1.178
 1138TIP3    H1 3371   4.789   3.645   1.152
 1138TIP3    H2 3372   4.734   3.727   1.265
 1139TIP3   OH2 3373   5.041   3.574   0.834
 1139TIP3    H1 3374   4.965   3.635   0.837
 1139TIP3    H2 3375   5.093   3.610   0.759
 1140TIP3   OH2 3376   5.555   3.975   0.969
 1140TIP3    H1 3377   5.640   3.953   0.931
 1140TIP3    H2 3378   5.550   3.913   1.045
 1141TIP3   OH2 3379   5.166   3.368   0.962
 1141TIP3    H1 3380   5.167   3.288   0.905
 1141TIP3    H2 3381   5.121   3.434   0.905
 1142TIP3   OH2 3382   5.169   3.154   0.770
 1142TIP3    H1 3383   5.196   3.194   0.685
 1142TIP3    H2 3384   5.075   3.131   0.752
 1143TIP3   OH2 3385   5.191   3.683   0.639
 1143TIP3    H1 3386   5.278   3.706   0.605
 1143TIP3    H2 3387   5.134   3.751   0.597
 1144TIP3   OH2 3388   5.772   3.652   1.021
 1144TIP3    H1 3389   5.823   3.573   1.046
 1144TIP3    H2 3390   5.842   3.712   0.991
 1145TIP3   OH2 3391   5.817   3.904   0.754
 1145TIP3    H1 3392   5.757   3.959   0.698
 1145TIP3    H2 3393   5.904   3.929   0.717
 1146TIP3   OH2 3394   5.042   3.473   1.195
 1146TIP3    H1 3395   4.975   3.404   1.212
 1146TIP3    H2 3396   5.077   3.446   1.108
 1147TIP3   OH2 3397   5.299   2.913   0.838
 1147TIP3    H1 3398   5.249   2.994   0.818
 1147TIP3    H2 3399   5.230   2.844   0.830
 1148TIP3   OH2 3400   5.428   3.416   1.055
 1148TIP3    H1 3401   5.417   3.403   1.151
 1148TIP3    H2 3402   5.337   3.394   1.026
 1149TIP3   OH2 3403   5.661   3.360   0.906
 1149TIP3    H1 3404   5.589   3.368   0.972
 1149TIP3    H2 3405   5.737   3.335   0.962
 1150TIP3   OH2 3406   5.893   3.309   1.054
 1150TIP3    H1 3407   5.906   3.213   1.074
 1150TIP3    H2 3408   5.888   3.348   1.144
 1151TIP3   OH2 3409   4.882   3.253   1.251
 1151TIP3    H1 3410   4.887   3.161   1.220
 1151TIP3    H2 3411   4.921   3.244   1.340
 1152TIP3   OH2 3412   5.394   2.925   1.097
 1152TIP3    H1 3413   5.460   2.854   1.093
 1152TIP3    H2 3414   5.354   2.918   1.008
 1153TIP3   OH2 3415   5.461   3.141   1.255
 1153TIP3    H1 3416   5.440   3.069   1.192
 1153TIP3    H2 3417   5.382   3.198   1.250
 1154TIP3   OH2 3418   4.072   4.352  -0.011
 1154TIP3    H1 3419   4.003   4.296  -0.052
 1154TIP3    H2 3420   4.111   4.290   0.053
 1155TIP3   OH2 3421   4.227   4.201   0.167
 1155TIP3    H1 3422   4.203   4.141   0.240
 1155TIP3    H2 3423   4.268   4.273   0.220
 1156TIP3   OH2 3424   5.973   4.632   0.315
 1156TIP3    H1 3425   5.931   4.545   0.329
 1156TIP3    H2 3426   6.050   4.623   0.373
 1157TIP3   OH2 3427   6.015   4.308   0.828
 1157TIP3    H1 3428   5.943   4.318   0.894
 1157TIP3    H2 3429   6.057   4.397   0.833
 1158TIP3   OH2 3430   5.831   4.389   0.291
 1158TIP3    H1 3431   5.761   4.433   0.343
 1158TIP3    H2 3432   5.790   4.390   0.203
 1159TIP3   OH2 3433   4.398   3.620   0.546
 1159TIP3    H1 3434   4.395   3.588   0.454
 1159TIP3    H2 3435   4.496   3.621   0.562
 1160TIP3   OH2 3436   6.062   3.973   0.654
 1160TIP3    H1 3437   6.133   3.906   0.643
 1160TIP3    H2 3438   6.090   4.043   0.594
 1161TIP3   OH2 3439   6.243   3.772   0.665
 1161TIP3    H1 3440   6.169   3.723   0.707
 1161TIP3    H2 3441   6.317   3.709   0.681
 1162TIP3   OH2 3442   5.933   3.429   0.193
 1162TIP3    H1 3443   6.011   3.454   0.141
 1162TIP3    H2 3444   5.955   3.467   0.281
 1163TIP3   OH2 3445   5.991   3.571   0.421
 1163TIP3    H1 3446   5.914   3.600   0.473
 1163TIP3    H2 3447   6.028   3.659   0.395
 1164TIP3   OH2 3448   4.616   3.304   1.213
 1164TIP3    H1 3449   4.714   3.301   1.221
 1164TIP3    H2 3450   4.593   3.219   1.254
 1165TIP3   OH2 3451   6.451   3.175   0.972
 1165TIP3    H1 3452   6.512   3.110   0.931
 1165TIP3    H2 3453   6.421   3.227   0.895
 1166TIP3   OH2 3454   4.577   2.998   0.544
 1166TIP3    H1 3455   4.638   2.923   0.556
 1166TIP3    H2 3456   4.640   3.073   0.540
 1167TIP3   OH2 3457   4.377   3.271   0.620
 1167TIP3    H1 3458   4.429   3.273   0.537
 1167TIP3    H2 3459   4.403   3.354   0.661
 1168TIP3   OH2 3460   6.319   3.310   0.776
 1168TIP3    H1 3461   6.237   3.354   0.806
 1168TIP3    H2 3462   6.282   3.239   0.721
 1169TIP3   OH2 3463   4.366   2.771   0.127
 1169TIP3    H1 3464   4.273   2.766   0.156
 1169TIP3    H2 3465   4.360   2.831   0.050
 1170TIP3   OH2 3466   4.584   2.855   0.935
 1170TIP3    H1 3467   4.534   2.852   1.019
 1170TIP3    H2 3468   4.517   2.893   0.875
 1171TIP3   OH2 3469   4.618   4.293   1.012
 1171TIP3    H1 3470   4.526   4.263   1.005
 1171TIP3    H2 3471   4.640   4.275   1.104
 1172TIP3   OH2 3472   4.798   4.315   0.549
 1172TIP3    H1 3473   4.755   4.395   0.513
 1172TIP3    H2 3474   4.888   4.330   0.513
 1173TIP3   OH2 3475   5.242   4.557   0.696
 1173TIP3    H1 3476   5.280   4.558   0.787
 1173TIP3    H2 3477   5.302   4.620   0.651
 1174TIP3   OH2 3478   5.415   4.727   0.567
 1174TIP3    H1 3479   5.480   4.668   0.528
 1174TIP3    H2 3480   5.471   4.780   0.627
 1175TIP3   OH2 3481   6.220   3.070   0.659
 1175TIP3    H1 3482   6.128   3.057   0.628
 1175TIP3    H2 3483   6.254   2.978   0.652
 1176TIP3   OH2 3484   4.475   4.568   0.590
 1176TIP3    H1 3485   4.385   4.601   0.568
 1176TIP3    H2 3486   4.496   4.624   0.666
 1177TIP3   OH2 3487   4.711   4.554   0.446
 1177TIP3    H1 3488   4.625   4.565   0.492
 1177TIP3    H2 3489   4.691   4.592   0.358
 1178TIP3   OH2 3490   5.136   4.577   0.257
 1178TIP3    H1 3491   5.054   4.589   0.205
 1178TIP3    H2 3492   5.151   4.667   0.292
 1179TIP3   OH2 3493   5.396   4.518   0.324
 1179TIP3    H1 3494   5.300   4.524   0.308
 1179TIP3    H2 3495   5.425   4.597   0.278
 1180TIP3   OH2 3496   4.389   4.361   0.328
 1180TIP3    H1 3497   4.412   4.336   0.420
 1180TIP3    H2 3498   4.465   4.319   0.281
 1181TIP3   OH2 3499   4.588   4.231   0.189
 1181TIP3    H1 3500   4.600   4.153   0.248
 1181TIP3    H2 3501   4.673   4.278   0.204
 1182TIP3   OH2 3502   4.835   4.340   0.216
 1182TIP3    H1 3503   4.880   4.297   0.142
 1182TIP3    H2 3504   4.899   4.331   0.289
 1183TIP3   OH2 3505   5.417   2.979   0.266
 1183TIP3    H1 3506   5.380   2.912   0.327
 1183TIP3    H2 3507   5.498   2.936   0.233
 1184TIP3   OH2 3508   5.941   2.891   0.188
 1184TIP3    H1 3509   5.973   2.899   0.096
 1184TIP3    H2 3510   5.845   2.892   0.177
 1185TIP3   OH2 3511   4.673   2.695   0.291
 1185TIP3    H1 3512   4.581   2.663   0.296
 1185TIP3    H2 3513   4.721   2.610   0.289
 1186TIP3   OH2 3514   4.447   2.562  -0.062
 1186TIP3    H1 3515   4.493   2.618  -0.127
 1186TIP3    H2 3516   4.426   2.627   0.007
 1187TIP3   OH2 3517   5.116   2.730   0.181
 1187TIP3    H1 3518   5.179   2.778   0.126
 1187TIP3    H2 3519   5.140   2.761   0.269
 1188TIP3   OH2 3520   5.661   2.872   0.153
 1188TIP3    H1 3521   5.671   2.823   0.071
 1188TIP3    H2 3522   5.651   2.798   0.217
 1189TIP3   OH2 3523   4.587   2.708  -0.245
 1189TIP3    H1 3524   4.587   2.683  -0.337
 1189TIP3    H2 3525   4.659   2.773  -0.239
 1190TIP3   OH2 3526   5.059   2.877  -0.132
 1190TIP3    H1 3527   5.130   2.828  -0.089
 1190TIP3    H2 3528   5.101   2.965  -0.139
 1191TIP3   OH2 3529   4.882   2.977   1.182
 1191TIP3    H1 3530   4.845   2.908   1.240
 1191TIP3    H2 3531   4.975   2.976   1.212
 1192TIP3   OH2 3532   5.131   2.974   1.303
 1192TIP3    H1 3533   5.217   2.949   1.267
 1192TIP3    H2 3534   5.118   2.906   1.372
 1193TIP3   OH2 3535   5.958   3.038   1.090
 1193TIP3    H1 3536   5.974   3.008   1.183
 1193TIP3    H2 3537   6.048   3.033   1.053
 1194TIP3   OH2 3538   5.891   4.582   0.596
 1194TIP3    H1 3539   5.809   4.559   0.548
 1194TIP3    H2 3540   5.880   4.680   0.602
 1195TIP3   OH2 3541   6.724   3.294   0.255
 1195TIP3    H1 3542   6.672   3.299   0.173
 1195TIP3    H2 3543   6.661   3.334   0.319
 1196TIP3   OH2 3544   6.615   3.965   0.386
 1196TIP3    H1 3545   6.619   4.054   0.428
 1196TIP3    H2 3546   6.519   3.959   0.371
 1197TIP3   OH2 3547   6.224   4.111   0.295
 1197TIP3    H1 3548   6.264   4.138   0.212
 1197TIP3    H2 3549   6.275   4.031   0.319
 1198TIP3   OH2 3550   6.449   4.282   0.295
 1198TIP3    H1 3551   6.520   4.292   0.360
 1198TIP3    H2 3552   6.381   4.238   0.348
 1199TIP3   OH2 3553   7.331   3.257   0.265
 1199TIP3    H1 3554   7.396   3.190   0.291
 1199TIP3    H2 3555   7.248   3.217   0.297
 1200TIP3   OH2 3556   7.302   3.906   0.397
 1200TIP3    H1 3557   7.268   3.825   0.442
 1200TIP3    H2 3558   7.396   3.885   0.403
 1201TIP3   OH2 3559   6.568   3.671   0.298
 1201TIP3    H1 3560   6.572   3.746   0.359
 1201TIP3    H2 3561   6.558   3.595   0.358
 1202TIP3   OH2 3562   6.607   4.208   0.520
 1202TIP3    H1 3563   6.680   4.252   0.567
 1202TIP3    H2 3564   6.534   4.220   0.584
 1203TIP3   OH2 3565   6.344   3.901   0.430
 1203TIP3    H1 3566   6.364   3.892   0.525
 1203TIP3    H2 3567   6.262   3.848   0.424
 1204TIP3   OH2 3568   7.059   4.027   0.449
 1204TIP3    H1 3569   6.991   3.961   0.425
 1204TIP3    H2 3570   7.142   3.981   0.426
 1205TIP3   OH2 3571   6.540   3.422   0.435
 1205TIP3    H1 3572   6.444   3.423   0.449
 1205TIP3    H2 3573   6.570   3.366   0.508
 1206TIP3   OH2 3574   6.235   4.784   0.508
 1206TIP3    H1 3575   6.327   4.803   0.537
 1206TIP3    H2 3576   6.237   4.688   0.496
 1207TIP3   OH2 3577   6.729   4.757   0.554
 1207TIP3    H1 3578   6.805   4.723   0.603
 1207TIP3    H2 3579   6.705   4.680   0.500
 1208TIP3   OH2 3580   6.384   4.212   0.690
 1208TIP3    H1 3581   6.393   4.115   0.694
 1208TIP3    H2 3582   6.297   4.221   0.645
 1209TIP3   OH2 3583   6.985   4.305   0.451
 1209TIP3    H1 3584   6.949   4.305   0.362
 1209TIP3    H2 3585   7.025   4.216   0.456
 1210TIP3   OH2 3586   6.502   3.941   0.673
 1210TIP3    H1 3587   6.584   3.900   0.643
 1210TIP3    H2 3588   6.529   3.981   0.758
 1211TIP3   OH2 3589   6.862   3.864   0.351
 1211TIP3    H1 3590   6.775   3.896   0.383
 1211TIP3    H2 3591   6.860   3.901   0.261
 1212TIP3   OH2 3592   7.288   4.230   0.486
 1212TIP3    H1 3593   7.373   4.270   0.470
 1212TIP3    H2 3594   7.307   4.170   0.562
 1213TIP3   OH2 3595   6.956   3.620   0.460
 1213TIP3    H1 3596   6.963   3.538   0.406
 1213TIP3    H2 3597   6.929   3.688   0.396
 1214TIP3   OH2 3598   6.972   3.401   0.294
 1214TIP3    H1 3599   7.008   3.433   0.209
 1214TIP3    H2 3600   6.883   3.366   0.269
 1215TIP3   OH2 3601   7.564   3.893   0.553
 1215TIP3    H1 3602   7.567   3.816   0.493
 1215TIP3    H2 3603   7.644   3.942   0.528
 1216TIP3   OH2 3604   6.838   3.731   0.683
 1216TIP3    H1 3605   6.769   3.664   0.703
 1216TIP3    H2 3606   6.873   3.697   0.598
 1217TIP3   OH2 3607   7.086   3.154   0.342
 1217TIP3    H1 3608   7.036   3.237   0.328
 1217TIP3    H2 3609   7.020   3.086   0.318
 1218TIP3   OH2 3610   7.210   3.689   0.539
 1218TIP3    H1 3611   7.205   3.671   0.635
 1218TIP3    H2 3612   7.122   3.655   0.512
 1219TIP3   OH2 3613   7.472   3.668   0.416
 1219TIP3    H1 3614   7.387   3.634   0.451
 1219TIP3    H2 3615   7.535   3.602   0.448
 1220TIP3   OH2 3616   7.679   3.541   0.554
 1220TIP3    H1 3617   7.705   3.454   0.586
 1220TIP3    H2 3618   7.678   3.594   0.636
 1221TIP3   OH2 3619   6.678   3.511   0.739
 1221TIP3    H1 3620   6.683   3.419   0.706
 1221TIP3    H2 3621   6.717   3.501   0.828
 1222TIP3   OH2 3622   7.186   3.177   0.595
 1222TIP3    H1 3623   7.251   3.105   0.585
 1222TIP3    H2 3624   7.144   3.173   0.506
 1223TIP3   OH2 3625   7.260   3.399   0.742
 1223TIP3    H1 3626   7.237   3.326   0.680
 1223TIP3    H2 3627   7.180   3.456   0.736
 1224TIP3   OH2 3628   6.412   3.559   0.697
 1224TIP3    H1 3629   6.509   3.557   0.707
 1224TIP3    H2 3630   6.389   3.474   0.741
 1225TIP3   OH2 3631   6.381   3.121   0.434
 1225TIP3    H1 3632   6.338   3.107   0.520
 1225TIP3    H2 3633   6.304   3.133   0.377
 1226TIP3   OH2 3634   6.424   4.511   0.533
 1226TIP3    H1 3635   6.335   4.498   0.497
 1226TIP3    H2 3636   6.406   4.533   0.625
 1227TIP3   OH2 3637   6.676   3.236   0.672
 1227TIP3    H1 3638   6.641   3.166   0.730
 1227TIP3    H2 3639   6.770   3.235   0.699
 1228TIP3   OH2 3640   6.927   3.232   0.789
 1228TIP3    H1 3641   7.013   3.207   0.750
 1228TIP3    H2 3642   6.915   3.163   0.857
 1229TIP3   OH2 3643   0.432   4.292   1.466
 1229TIP3    H1 3644   0.459   4.377   1.507
 1229TIP3    H2 3645   0.457   4.308   1.373
 1230TIP3   OH2 3646  -0.109   4.490   1.497
 1230TIP3    H1 3647  -0.091   4.396   1.517
 1230TIP3    H2 3648  -0.043   4.508   1.430
 1231TIP3   OH2 3649   0.502   4.504   1.636
 1231TIP3    H1 3650   0.417   4.546   1.612
 1231TIP3    H2 3651   0.508   4.530   1.729
 1232TIP3   OH2 3652   0.054   4.245   1.255
 1232TIP3    H1 3653   0.088   4.184   1.323
 1232TIP3    H2 3654   0.093   4.330   1.284
 1233TIP3   OH2 3655   0.224   4.214   1.639
 1233TIP3    H1 3656   0.139   4.227   1.595
 1233TIP3    H2 3657   0.287   4.232   1.566
 1234TIP3   OH2 3658   0.157   5.244   1.604
 1234TIP3    H1 3659   0.168   5.155   1.565
 1234TIP3    H2 3660   0.116   5.292   1.531
 1235TIP3   OH2 3661   0.358   4.839   1.473
 1235TIP3    H1 3662   0.281   4.901   1.478
 1235TIP3    H2 3663   0.388   4.858   1.382
 1236TIP3   OH2 3664   0.050   4.728   1.766
 1236TIP3    H1 3665   0.043   4.817   1.805
 1236TIP3    H2 3666  -0.041   4.720   1.729
 1237TIP3   OH2 3667   0.415   5.536   1.677
 1237TIP3    H1 3668   0.419   5.438   1.682
 1237TIP3    H2 3669   0.321   5.549   1.703
 1238TIP3   OH2 3670   0.277   4.683   1.934
 1238TIP3    H1 3671   0.195   4.694   1.882
 1238TIP3    H2 3672   0.294   4.588   1.923
 1239TIP3   OH2 3673  -0.182   4.033   1.936
 1239TIP3    H1 3674  -0.121   4.000   2.004
 1239TIP3    H2 3675  -0.269   3.999   1.966
 1240TIP3   OH2 3676   0.050   4.459   1.861
 1240TIP3    H1 3677  -0.002   4.456   1.944
 1240TIP3    H2 3678   0.028   4.546   1.824
 1241TIP3   OH2 3679  -0.218   4.685   2.103
 1241TIP3    H1 3680  -0.246   4.608   2.157
 1241TIP3    H2 3681  -0.122   4.687   2.124
 1242TIP3   OH2 3682  -0.202   4.678   1.677
 1242TIP3    H1 3683  -0.179   4.597   1.628
 1242TIP3    H2 3684  -0.258   4.642   1.749
 1243TIP3   OH2 3685  -0.104   4.220   1.545
 1243TIP3    H1 3686  -0.133   4.242   1.636
 1243TIP3    H2 3687  -0.149   4.137   1.531
 1244TIP3   OH2 3688  -0.473   4.348   1.797
 1244TIP3    H1 3689  -0.491   4.424   1.740
 1244TIP3    H2 3690  -0.382   4.367   1.822
 1245TIP3   OH2 3691   0.149   5.014   1.462
 1245TIP3    H1 3692   0.130   5.059   1.378
 1245TIP3    H2 3693   0.060   4.994   1.497
 1246TIP3   OH2 3694  -0.448   4.792   2.199
 1246TIP3    H1 3695  -0.506   4.763   2.126
 1246TIP3    H2 3696  -0.360   4.771   2.161
 1247TIP3   OH2 3697   0.409   5.256   1.701
 1247TIP3    H1 3698   0.311   5.268   1.694
 1247TIP3    H2 3699   0.429   5.227   1.610
 1248TIP3   OH2 3700  -0.161   4.271   1.805
 1248TIP3    H1 3701  -0.077   4.305   1.841
 1248TIP3    H2 3702  -0.173   4.188   1.855
 1249TIP3   OH2 3703  -0.283   4.532   1.890
 1249TIP3    H1 3704  -0.272   4.595   1.963
 1249TIP3    H2 3705  -0.234   4.455   1.924
 1250TIP3   OH2 3706   0.316   4.417   1.853
 1250TIP3    H1 3707   0.218   4.417   1.864
 1250TIP3    H2 3708   0.322   4.365   1.771
 1251TIP3   OH2 3709  -0.182   5.549   2.093
 1251TIP3    H1 3710  -0.163   5.454   2.108
 1251TIP3    H2 3711  -0.104   5.578   2.042
 1252TIP3   OH2 3712  -0.015   5.057   1.727
 1252TIP3    H1 3713   0.031   5.143   1.718
 1252TIP3    H2 3714  -0.109   5.084   1.715
 1253TIP3   OH2 3715  -0.189   5.012   2.161
 1253TIP3    H1 3716  -0.121   4.977   2.103
 1253TIP3    H2 3717  -0.194   4.944   2.230
 1254TIP3   OH2 3718  -0.608   4.139   1.898
 1254TIP3    H1 3719  -0.550   4.209   1.866
 1254TIP3    H2 3720  -0.679   4.187   1.939
 1255TIP3   OH2 3721   0.036   4.693   2.200
 1255TIP3    H1 3722   0.084   4.610   2.215
 1255TIP3    H2 3723   0.102   4.747   2.156
 1256TIP3   OH2 3724   0.079   4.951   1.956
 1256TIP3    H1 3725   0.025   4.996   1.887
 1256TIP3    H2 3726   0.168   4.965   1.916
 1257TIP3   OH2 3727  -0.441   3.950   2.015
 1257TIP3    H1 3728  -0.493   4.024   1.980
 1257TIP3    H2 3729  -0.508   3.881   2.015
 1258TIP3   OH2 3730  -0.316   4.465   2.237
 1258TIP3    H1 3731  -0.295   4.459   2.332
 1258TIP3    H2 3732  -0.403   4.422   2.234
 1259TIP3   OH2 3733  -0.085   4.411   2.088
 1259TIP3    H1 3734  -0.159   4.409   2.153
 1259TIP3    H2 3735  -0.010   4.381   2.143
 1260TIP3   OH2 3736   0.147   4.356   2.236
 1260TIP3    H1 3737   0.158   4.260   2.252
 1260TIP3    H2 3738   0.140   4.392   2.327
 1261TIP3   OH2 3739  -0.349   3.970   2.276
 1261TIP3    H1 3740  -0.283   3.899   2.259
 1261TIP3    H2 3741  -0.399   3.970   2.192
 1262TIP3   OH2 3742  -0.275   4.183   2.423
 1262TIP3    H1 3743  -0.295   4.104   2.367
 1262TIP3    H2 3744  -0.362   4.226   2.423
 1263TIP3   OH2 3745   0.270   5.352   2.003
 1263TIP3    H1 3746   0.196   5.364   2.067
 1263TIP3    H2 3747   0.312   5.440   2.006
 1264TIP3   OH2 3748   0.315   5.018   1.831
 1264TIP3    H1 3749   0.384   4.949   1.821
 1264TIP3    H2 3750   0.348   5.088   1.771
 1265TIP3   OH2 3751   0.494   4.818   1.845
 1265TIP3    H1 3752   0.419   4.768   1.882
 1265TIP3    H2 3753   0.567   4.755   1.863
 1266TIP3   OH2 3754   0.175   4.465   1.372
 1266TIP3    H1 3755   0.254   4.494   1.322
 1266TIP3    H2 3756   0.194   4.508   1.457
 1267TIP3   OH2 3757   0.251   4.618   1.592
 1267TIP3    H1 3758   0.180   4.657   1.647
 1267TIP3    H2 3759   0.289   4.698   1.550
 1268TIP3   OH2 3760   0.704   4.221   2.148
 1268TIP3    H1 3761   0.763   4.154   2.108
 1268TIP3    H2 3762   0.672   4.271   2.070
 1269TIP3   OH2 3763   0.568   4.355   1.953
 1269TIP3    H1 3764   0.482   4.398   1.969
 1269TIP3    H2 3765   0.538   4.281   1.896
 1270TIP3   OH2 3766   0.469   4.121   1.837
 1270TIP3    H1 3767   0.378   4.106   1.806
 1270TIP3    H2 3768   0.507   4.030   1.826
 1271TIP3   OH2 3769   0.147   4.019   1.391
 1271TIP3    H1 3770   0.223   4.033   1.331
 1271TIP3    H2 3771   0.096   3.955   1.339
 1272TIP3   OH2 3772   0.319   4.034   1.176
 1272TIP3    H1 3773   0.295   4.012   1.084
 1272TIP3    H2 3774   0.353   4.124   1.159
 1273TIP3   OH2 3775   0.205   4.084   2.266
 1273TIP3    H1 3776   0.223   4.053   2.358
 1273TIP3    H2 3777   0.294   4.078   2.226
 1274TIP3   OH2 3778   0.150   5.562   1.732
 1274TIP3    H1 3779   0.062   5.526   1.753
 1274TIP3    H2 3780   0.132   5.657   1.746
 1275TIP3   OH2 3781   1.400   5.016   0.557
 1275TIP3    H1 3782   1.371   5.096   0.509
 1275TIP3    H2 3783   1.350   4.948   0.512
 1276TIP3   OH2 3784   1.410   5.009   0.914
 1276TIP3    H1 3785   1.444   4.976   0.999
 1276TIP3    H2 3786   1.371   4.928   0.877
 1277TIP3   OH2 3787   0.717   4.907   1.278
 1277TIP3    H1 3788   0.747   4.836   1.338
 1277TIP3    H2 3789   0.802   4.939   1.243
 1278TIP3   OH2 3790   1.665   5.308   0.595
 1278TIP3    H1 3791   1.635   5.235   0.651
 1278TIP3    H2 3792   1.672   5.382   0.658
 1279TIP3   OH2 3793   0.698   5.298   1.074
 1279TIP3    H1 3794   0.691   5.201   1.062
 1279TIP3    H2 3795   0.792   5.308   1.052
 1280TIP3   OH2 3796   0.553   4.805   0.939
 1280TIP3    H1 3797   0.572   4.728   0.995
 1280TIP3    H2 3798   0.509   4.765   0.864
 1281TIP3   OH2 3799   1.351   5.743   0.668
 1281TIP3    H1 3800   1.427   5.712   0.615
 1281TIP3    H2 3801   1.363   5.692   0.748
 1282TIP3   OH2 3802   1.219   5.231   0.955
 1282TIP3    H1 3803   1.260   5.149   0.920
 1282TIP3    H2 3804   1.301   5.279   0.977
 1283TIP3   OH2 3805   2.224   4.551   0.954
 1283TIP3    H1 3806   2.256   4.635   0.992
 1283TIP3    H2 3807   2.251   4.561   0.860
 1284TIP3   OH2 3808   1.626   4.734   0.986
 1284TIP3    H1 3809   1.666   4.648   1.008
 1284TIP3    H2 3810   1.583   4.713   0.901
 1285TIP3   OH2 3811   0.957   4.400   0.952
 1285TIP3    H1 3812   0.935   4.471   0.889
 1285TIP3    H2 3813   0.912   4.323   0.909
 1286TIP3   OH2 3814   1.641   4.470   0.579
 1286TIP3    H1 3815   1.716   4.454   0.643
 1286TIP3    H2 3816   1.681   4.529   0.519
 1287TIP3   OH2 3817   0.600   4.581   1.083
 1287TIP3    H1 3818   0.686   4.564   1.127
 1287TIP3    H2 3819   0.609   4.522   1.005
 1288TIP3   OH2 3820   1.032   4.800   0.858
 1288TIP3    H1 3821   1.126   4.775   0.870
 1288TIP3    H2 3822   0.993   4.716   0.826
 1289TIP3   OH2 3823   2.299   4.764   1.121
 1289TIP3    H1 3824   2.212   4.806   1.103
 1289TIP3    H2 3825   2.310   4.787   1.214
 1290TIP3   OH2 3826   0.958   4.378   1.413
 1290TIP3    H1 3827   0.911   4.383   1.328
 1290TIP3    H2 3828   0.890   4.408   1.475
 1291TIP3   OH2 3829   1.317   5.207   0.387
 1291TIP3    H1 3830   1.275   5.182   0.304
 1291TIP3    H2 3831   1.295   5.301   0.395
 1292TIP3   OH2 3832   1.068   5.152   1.182
 1292TIP3    H1 3833   1.005   5.217   1.220
 1292TIP3    H2 3834   1.096   5.198   1.100
 1293TIP3   OH2 3835   1.856   4.493   0.745
 1293TIP3    H1 3836   1.845   4.440   0.825
 1293TIP3    H2 3837   1.911   4.568   0.779
 1294TIP3   OH2 3838   0.838   4.481   1.181
 1294TIP3    H1 3839   0.903   4.550   1.208
 1294TIP3    H2 3840   0.884   4.444   1.103
 1295TIP3   OH2 3841   0.900   5.343   1.293
 1295TIP3    H1 3842   0.873   5.425   1.249
 1295TIP3    H2 3843   0.818   5.323   1.342
 1296TIP3   OH2 3844   1.728   5.551   0.761
 1296TIP3    H1 3845   1.638   5.543   0.801
 1296TIP3    H2 3846   1.717   5.635   0.712
 1297TIP3   OH2 3847   2.013   4.457   1.122
 1297TIP3    H1 3848   1.925   4.474   1.086
 1297TIP3    H2 3849   2.073   4.485   1.050
 1298TIP3   OH2 3850   1.529   5.639   0.487
 1298TIP3    H1 3851   1.561   5.556   0.446
 1298TIP3    H2 3852   1.525   5.699   0.412
 1299TIP3   OH2 3853   1.562   5.405   0.359
 1299TIP3    H1 3854   1.582   5.335   0.288
 1299TIP3    H2 3855   1.593   5.353   0.436
 1300TIP3   OH2 3856   1.955   5.460   1.095
 1300TIP3    H1 3857   1.934   5.378   1.045
 1300TIP3    H2 3858   1.912   5.529   1.041
 1301TIP3   OH2 3859   1.239   4.859   0.336
 1301TIP3    H1 3860   1.149   4.892   0.321
 1301TIP3    H2 3861   1.280   4.899   0.257
 1302TIP3   OH2 3862   1.146   4.593   0.195
 1302TIP3    H1 3863   1.205   4.646   0.248
 1302TIP3    H2 3864   1.206   4.555   0.129
 1303TIP3   OH2 3865   2.143   5.111   0.950
 1303TIP3    H1 3866   2.056   5.156   0.948
 1303TIP3    H2 3867   2.169   5.119   0.856
 1304TIP3   OH2 3868   1.561   4.934   0.340
 1304TIP3    H1 3869   1.539   5.016   0.388
 1304TIP3    H2 3870   1.642   4.907   0.382
 1305TIP3   OH2 3871   1.822   4.982   1.240
 1305TIP3    H1 3872   1.813   5.063   1.292
 1305TIP3    H2 3873   1.733   4.978   1.198
 1306TIP3   OH2 3874   0.806   4.923   0.754
 1306TIP3    H1 3875   0.796   4.867   0.677
 1306TIP3    H2 3876   0.890   4.889   0.792
 1307TIP3   OH2 3877   0.942   5.290   0.944
 1307TIP3    H1 3878   0.920   5.329   0.859
 1307TIP3    H2 3879   1.039   5.284   0.938
 1308TIP3   OH2 3880   0.960   4.908   1.110
 1308TIP3    H1 3881   0.983   4.883   1.018
 1308TIP3    H2 3882   0.998   4.997   1.118
 1309TIP3   OH2 3883   1.483   5.552   0.876
 1309TIP3    H1 3884   1.479   5.627   0.939
 1309TIP3    H2 3885   1.468   5.475   0.934
 1310TIP3   OH2 3886   1.099   5.469   1.428
 1310TIP3    H1 3887   1.036   5.531   1.469
 1310TIP3    H2 3888   1.037   5.414   1.376
 1311TIP3   OH2 3889   1.461   4.817   0.131
 1311TIP3    H1 3890   1.488   4.858   0.213
 1311TIP3    H2 3891   1.429   4.892   0.081
 1312TIP3   OH2 3892   0.856   5.021   1.537
 1312TIP3    H1 3893   0.855   5.111   1.576
 1312TIP3    H2 3894   0.760   5.000   1.536
 1313TIP3   OH2 3895   0.895   5.638   1.513
 1313TIP3    H1 3896   0.860   5.640   1.422
 1313TIP3    H2 3897   0.816   5.611   1.565
 1314TIP3   OH2 3898   1.952   4.041   0.197
 1314TIP3    H1 3899   1.872   4.056   0.252
 1314TIP3    H2 3900   1.959   4.126   0.150
 1315TIP3   OH2 3901   0.471   5.158   1.456
 1315TIP3    H1 3902   0.444   5.126   1.369
 1315TIP3    H2 3903   0.514   5.078   1.494
 1316TIP3   OH2 3904   2.162   5.772   1.116
 1316TIP3    H1 3905   2.180   5.698   1.177
 1316TIP3    H2 3906   2.094   5.820   1.169
 1317TIP3   OH2 3907   1.295   5.593   1.283
 1317TIP3    H1 3908   1.290   5.686   1.313
 1317TIP3    H2 3909   1.220   5.554   1.334
 1318TIP3   OH2 3910   2.071   4.939   1.420
 1318TIP3    H1 3911   1.988   4.945   1.370
 1318TIP3    H2 3912   2.091   4.843   1.412
 1319TIP3   OH2 3913   0.674   5.346   1.454
 1319TIP3    H1 3914   0.726   5.325   1.534
 1319TIP3    H2 3915   0.601   5.282   1.458
 1320TIP3   OH2 3916   1.605   4.292   1.426
 1320TIP3    H1 3917   1.671   4.255   1.488
 1320TIP3    H2 3918   1.520   4.268   1.468
 1321TIP3   OH2 3919   1.848   4.720   1.349
 1321TIP3    H1 3920   1.792   4.715   1.429
 1321TIP3    H2 3921   1.816   4.801   1.305
 1322TIP3   OH2 3922   1.217   4.283   0.217
 1322TIP3    H1 3923   1.213   4.249   0.309
 1322TIP3    H2 3924   1.195   4.204   0.164
 1323TIP3   OH2 3925   1.008   4.686   1.256
 1323TIP3    H1 3926   0.952   4.707   1.334
 1323TIP3    H2 3927   0.994   4.766   1.201
 1324TIP3   OH2 3928   0.882   4.586   0.768
 1324TIP3    H1 3929   0.790   4.559   0.788
 1324TIP3    H2 3930   0.899   4.535   0.686
 1325TIP3   OH2 3931   1.390   4.683   0.491
 1325TIP3    H1 3932   1.337   4.750   0.441
 1325TIP3    H2 3933   1.443   4.644   0.420
 1326TIP3   OH2 3934   1.555   4.939   1.584
 1326TIP3    H1 3935   1.531   4.864   1.642
 1326TIP3    H2 3936   1.651   4.945   1.602
 1327TIP3   OH2 3937   1.539   4.685   0.731
 1327TIP3    H1 3938   1.482   4.715   0.657
 1327TIP3    H2 3939   1.565   4.598   0.697
 1328TIP3   OH2 3940   0.821   4.718   1.458
 1328TIP3    H1 3941   0.855   4.776   1.528
 1328TIP3    H2 3942   0.808   4.634   1.506
 1329TIP3   OH2 3943   0.420   4.255   1.051
 1329TIP3    H1 3944   0.487   4.286   1.116
 1329TIP3    H2 3945   0.474   4.238   0.974
 1330TIP3   OH2 3946   1.554   4.932   1.151
 1330TIP3    H1 3947   1.583   4.860   1.091
 1330TIP3    H2 3948   1.518   4.879   1.225
 1331TIP3   OH2 3949   1.214   4.406   0.844
 1331TIP3    H1 3950   1.124   4.397   0.882
 1331TIP3    H2 3951   1.266   4.380   0.922
 1332TIP3   OH2 3952   0.657   4.437   0.857
 1332TIP3    H1 3953   0.589   4.448   0.788
 1332TIP3    H2 3954   0.703   4.355   0.830
 1333TIP3   OH2 3955   0.934   4.446   0.545
 1333TIP3    H1 3956   1.030   4.462   0.533
 1333TIP3    H2 3957   0.904   4.426   0.455
 1334TIP3   OH2 3958   1.709   4.474   1.033
 1334TIP3    H1 3959   1.667   4.484   1.121
 1334TIP3    H2 3960   1.642   4.417   0.988
 1335TIP3   OH2 3961   1.880   6.159   1.248
 1335TIP3    H1 3962   1.877   6.187   1.155
 1335TIP3    H2 3963   1.961   6.206   1.279
 1336TIP3   OH2 3964   0.834   5.270   1.668
 1336TIP3    H1 3965   0.913   5.304   1.715
 1336TIP3    H2 3966   0.769   5.270   1.742
 1337TIP3   OH2 3967   1.295   4.734   0.919
 1337TIP3    H1 3968   1.357   4.671   0.881
 1337TIP3    H2 3969   1.288   4.699   1.012
 1338TIP3   OH2 3970   0.823   4.216   0.803
 1338TIP3    H1 3971   0.788   4.137   0.851
 1338TIP3    H2 3972   0.883   4.175   0.740
 1339TIP3   OH2 3973   1.276   4.660   1.180
 1339TIP3    H1 3974   1.186   4.660   1.217
 1339TIP3    H2 3975   1.330   4.692   1.255
 1340TIP3   OH2 3976   1.906   5.252   0.923
 1340TIP3    H1 3977   1.901   5.294   0.836
 1340TIP3    H2 3978   1.823   5.198   0.920
 1341TIP3   OH2 3979   1.478   4.334   0.139
 1341TIP3    H1 3980   1.381   4.323   0.149
 1341TIP3    H2 3981   1.490   4.425   0.167
 1342TIP3   OH2 3982   1.427   5.342   1.298
 1342TIP3    H1 3983   1.427   5.300   1.385
 1342TIP3    H2 3984   1.373   5.422   1.311
 1343TIP3   OH2 3985   1.538   4.580   0.261
 1343TIP3    H1 3986   1.632   4.583   0.258
 1343TIP3    H2 3987   1.513   4.659   0.206
 1344TIP3   OH2 3988   0.708   5.046   0.982
 1344TIP3    H1 3989   0.743   5.011   0.898
 1344TIP3    H2 3990   0.698   4.964   1.031
 1345TIP3   OH2 3991   0.586   4.956   1.598
 1345TIP3    H1 3992   0.602   4.938   1.693
 1345TIP3    H2 3993   0.520   4.887   1.577
 1346TIP3   OH2 3994   1.311   5.071   1.615
 1346TIP3    H1 3995   1.248   5.015   1.567
 1346TIP3    H2 3996   1.396   5.032   1.585
 1347TIP3   OH2 3997   1.572   5.603   1.193
 1347TIP3    H1 3998   1.478   5.586   1.210
 1347TIP3    H2 3999   1.597   5.648   1.277
 1348TIP3   OH2 4000   1.997   4.668   0.088
 1348TIP3    H1 4001   1.929   4.625   0.035
 1348TIP3    H2 4002   1.991   4.759   0.049
 1349TIP3   OH2 4003   2.200   5.512   1.199
 1349TIP3    H1 4004   2.101   5.507   1.194
 1349TIP3    H2 4005   2.225   5.465   1.117
 1350TIP3   OH2 4006   1.674   5.113   0.858
 1350TIP3    H1 4007   1.580   5.090   0.868
 1350TIP3    H2 4008   1.707   5.032   0.815
 1351TIP3   OH2 4009   1.076   5.706   1.108
 1351TIP3    H1 4010   1.083   5.703   1.012
 1351TIP3    H2 4011   1.156   5.660   1.136
 1352TIP3   OH2 4012   1.471   5.319   1.032
 1352TIP3    H1 4013   1.455   5.320   1.129
 1352TIP3    H2 4014   1.538   5.250   1.024
 1353TIP3   OH2 4015   1.730   5.830   1.073
 1353TIP3    H1 4016   1.647   5.778   1.082
 1353TIP3    H2 4017   1.702   5.899   1.009
 1354TIP3   OH2 4018   0.781   4.472   1.604
 1354TIP3    H1 4019   0.684   4.470   1.613
 1354TIP3    H2 4020   0.809   4.405   1.669
 1355TIP3   OH2 4021   1.638   5.191   0.202
 1355TIP3    H1 4022   1.570   5.152   0.145
 1355TIP3    H2 4023   1.719   5.178   0.156
 1356TIP3   OH2 4024   0.566   5.539   1.285
 1356TIP3    H1 4025   0.566   5.454   1.240
 1356TIP3    H2 4026   0.616   5.513   1.365
 1357TIP3   OH2 4027   1.628   4.533   1.297
 1357TIP3    H1 4028   1.718   4.555   1.327
 1357TIP3    H2 4029   1.612   4.448   1.342
 1358TIP3   OH2 4030   1.529   4.240   0.396
 1358TIP3    H1 4031   1.509   4.263   0.300
 1358TIP3    H2 4032   1.547   4.330   0.434
 1359TIP3   OH2 4033   1.204   4.491   0.575
 1359TIP3    H1 4034   1.273   4.556   0.556
 1359TIP3    H2 4035   1.217   4.474   0.670
 1360TIP3   OH2 4036   1.475   4.775   1.358
 1360TIP3    H1 4037   1.502   4.818   1.442
 1360TIP3    H2 4038   1.524   4.691   1.360
 1361TIP3   OH2 4039   1.373   4.197   0.679
 1361TIP3    H1 4040   1.357   4.259   0.751
 1361TIP3    H2 4041   1.458   4.227   0.647
 1362TIP3   OH2 4042   0.893   4.144   0.464
 1362TIP3    H1 4043   0.887   4.234   0.429
 1362TIP3    H2 4044   0.988   4.129   0.464
 1363TIP3   OH2 4045   2.113   4.672   1.340
 1363TIP3    H1 4046   2.015   4.675   1.350
 1363TIP3    H2 4047   2.118   4.619   1.259
 1364TIP3   OH2 4048   1.755   4.867   0.745
 1364TIP3    H1 4049   1.686   4.813   0.765
 1364TIP3    H2 4050   1.833   4.824   0.793
 1365TIP3   OH2 4051   1.744   5.815   0.686
 1365TIP3    H1 4052   1.705   5.862   0.609
 1365TIP3    H2 4053   1.838   5.836   0.669
 1366TIP3   OH2 4054   0.770   4.095   1.216
 1366TIP3    H1 4055   0.780   4.062   1.125
 1366TIP3    H2 4056   0.800   4.020   1.270
 1367TIP3   OH2 4057   0.491   5.822   1.667
 1367TIP3    H1 4058   0.580   5.826   1.708
 1367TIP3    H2 4059   0.475   5.726   1.663
 1368TIP3   OH2 4060   0.984   5.809   1.711
 1368TIP3    H1 4061   1.079   5.796   1.702
 1368TIP3    H2 4062   0.952   5.752   1.638
 1369TIP3   OH2 4063   1.623   5.724   1.435
 1369TIP3    H1 4064   1.615   5.655   1.505
 1369TIP3    H2 4065   1.700   5.775   1.466
 1370TIP3   OH2 4066   0.634   5.259   1.862
 1370TIP3    H1 4067   0.652   5.163   1.865
 1370TIP3    H2 4068   0.548   5.260   1.814
 1371TIP3   OH2 4069   1.238   5.345   1.632
 1371TIP3    H1 4070   1.196   5.366   1.546
 1371TIP3    H2 4071   1.267   5.252   1.620
 1372TIP3   OH2 4072   1.734   5.352   1.241
 1372TIP3    H1 4073   1.803   5.408   1.202
 1372TIP3    H2 4074   1.655   5.406   1.228
 1373TIP3   OH2 4075   0.751   5.000   1.842
 1373TIP3    H1 4076   0.824   4.946   1.810
 1373TIP3    H2 4077   0.783   5.028   1.931
 1374TIP3   OH2 4078   1.089   4.880   1.509
 1374TIP3    H1 4079   1.009   4.937   1.507
 1374TIP3    H2 4080   1.139   4.914   1.432
 1375TIP3   OH2 4081   1.610   5.283   1.638
 1375TIP3    H1 4082   1.681   5.247   1.582
 1375TIP3    H2 4083   1.598   5.212   1.703
 1376TIP3   OH2 4084   1.212   4.664   1.620
 1376TIP3    H1 4085   1.213   4.589   1.557
 1376TIP3    H2 4086   1.167   4.733   1.567
 1377TIP3   OH2 4087   1.217   4.456   1.421
 1377TIP3    H1 4088   1.241   4.449   1.327
 1377TIP3    H2 4089   1.123   4.427   1.418
 1378TIP3   OH2 4090   1.241   4.999   1.323
 1378TIP3    H1 4091   1.315   4.982   1.264
 1378TIP3    H2 4092   1.183   5.057   1.268
 1379TIP3   OH2 4093   1.822   4.954   1.689
 1379TIP3    H1 4094   1.864   4.867   1.694
 1379TIP3    H2 4095   1.891   5.008   1.649
 1380TIP3   OH2 4096   1.861   5.211   1.432
 1380TIP3    H1 4097   1.804   5.263   1.370
 1380TIP3    H2 4098   1.949   5.227   1.391
 1381TIP3   OH2 4099   1.094   4.773   1.861
 1381TIP3    H1 4100   1.025   4.705   1.876
 1381TIP3    H2 4101   1.121   4.752   1.769
 1382TIP3   OH2 4102   1.345   4.222   1.510
 1382TIP3    H1 4103   1.298   4.300   1.474
 1382TIP3    H2 4104   1.285   4.150   1.482
 1383TIP3   OH2 4105   1.468   4.717   1.718
 1383TIP3    H1 4106   1.447   4.702   1.812
 1383TIP3    H2 4107   1.381   4.693   1.678
 1384TIP3   OH2 4108   1.712   4.680   1.579
 1384TIP3    H1 4109   1.635   4.672   1.639
 1384TIP3    H2 4110   1.785   4.644   1.632
 1385TIP3   OH2 4111   1.940   4.612   1.725
 1385TIP3    H1 4112   1.954   4.516   1.738
 1385TIP3    H2 4113   1.938   4.647   1.816
 1386TIP3   OH2 4114   0.928   4.557   1.913
 1386TIP3    H1 4115   0.927   4.466   1.877
 1386TIP3    H2 4116   0.964   4.540   2.003
 1387TIP3   OH2 4117   1.428   4.222   1.769
 1387TIP3    H1 4118   1.498   4.154   1.757
 1387TIP3    H2 4119   1.391   4.223   1.678
 1388TIP3   OH2 4120   1.505   4.440   1.921
 1388TIP3    H1 4121   1.483   4.369   1.856
 1388TIP3    H2 4122   1.428   4.500   1.913
 1389TIP3   OH2 4123   1.994   5.906   0.644
 1389TIP3    H1 4124   2.017   5.955   0.725
 1389TIP3    H2 4125   2.041   5.956   0.577
 1390TIP3   OH2 4126   2.011   5.945   0.927
 1390TIP3    H1 4127   1.968   5.858   0.919
 1390TIP3    H2 4128   2.082   5.924   0.989
 1391TIP3   OH2 4129   2.058   5.614   1.486
 1391TIP3    H1 4130   1.988   5.621   1.554
 1391TIP3    H2 4131   2.104   5.700   1.495
 1392TIP3   OH2 4132   1.884   5.121   0.103
 1392TIP3    H1 4133   1.960   5.182   0.074
 1392TIP3    H2 4134   1.926   5.082   0.186
 1393TIP3   OH2 4135   2.003   5.004   0.324
 1393TIP3    H1 4136   1.951   4.960   0.394
 1393TIP3    H2 4137   2.085   5.032   0.375
 1394TIP3   OH2 4138   2.071   5.421   0.724
 1394TIP3    H1 4139   2.123   5.344   0.693
 1394TIP3    H2 4140   1.998   5.421   0.662
 1395TIP3   OH2 4141   1.913   5.677   0.929
 1395TIP3    H1 4142   1.847   5.724   0.985
 1395TIP3    H2 4143   1.853   5.641   0.859
 1396TIP3   OH2 4144   1.942   4.897  -0.046
 1396TIP3    H1 4145   1.863   4.867  -0.091
 1396TIP3    H2 4146   1.912   4.977   0.002
 1397TIP3   OH2 4147   1.811   4.587  -0.084
 1397TIP3    H1 4148   1.740   4.638  -0.129
 1397TIP3    H2 4149   1.782   4.494  -0.094
 1398TIP3   OH2 4150   1.768   4.790   0.475
 1398TIP3    H1 4151   1.851   4.746   0.485
 1398TIP3    H2 4152   1.749   4.823   0.566
 1399TIP3   OH2 4153   0.454   4.904   1.227
 1399TIP3    H1 4154   0.453   4.884   1.132
 1399TIP3    H2 4155   0.551   4.908   1.243
 1400TIP3   OH2 4156   2.106   5.271   1.321
 1400TIP3    H1 4157   2.175   5.200   1.314
 1400TIP3    H2 4158   2.140   5.337   1.258
 1401TIP3   OH2 4159   2.288   5.075   1.332
 1401TIP3    H1 4160   2.214   5.022   1.368
 1401TIP3    H2 4161   2.363   5.012   1.347
 1402TIP3   OH2 4162   1.749   4.321  -0.083
 1402TIP3    H1 4163   1.837   4.287  -0.056
 1402TIP3    H2 4164   1.688   4.266  -0.033
 1403TIP3   OH2 4165   1.955   4.619   0.395
 1403TIP3    H1 4166   1.973   4.547   0.428
 1403TIP3    H2 4167   1.895   4.638   0.355
 1404TIP3   OH2 4168   1.976   4.736   0.857
 1404TIP3    H1 4169   2.059   4.760   0.810
 1404TIP3    H2 4170   1.996   4.768   0.945
 1405TIP3   OH2 4171   2.049   4.883   1.084
 1405TIP3    H1 4172   1.969   4.915   1.130
 1405TIP3    H2 4173   2.081   4.964   1.040
 1406TIP3   OH2 4174   0.661   4.611   1.892
 1406TIP3    H1 4175   0.759   4.602   1.887
 1406TIP3    H2 4176   0.637   4.522   1.925
 1407TIP3   OH2 4177   2.494   4.475   1.636
 1407TIP3    H1 4178   2.556   4.411   1.595
 1407TIP3    H2 4179   2.465   4.527   1.559
 1408TIP3   OH2 4180   1.935   4.316   0.390
 1408TIP3    H1 4181   1.979   4.296   0.478
 1408TIP3    H2 4182   1.871   4.239   0.388
 1409TIP3   OH2 4183   0.615   4.313   1.227
 1409TIP3    H1 4184   0.667   4.230   1.229
 1409TIP3    H2 4185   0.688   4.377   1.213
 1410TIP3   OH2 4186   0.415   4.575   1.287
 1410TIP3    H1 4187   0.475   4.564   1.210
 1410TIP3    H2 4188   0.443   4.661   1.320
 1411TIP3   OH2 4189   2.364   4.611   1.439
 1411TIP3    H1 4190   2.277   4.654   1.452
 1411TIP3    H2 4191   2.336   4.536   1.382
 1412TIP3   OH2 4192   2.010   4.250   0.008
 1412TIP3    H1 4193   2.079   4.189  -0.024
 1412TIP3    H2 4194   2.064   4.331   0.020
 1413TIP3   OH2 4195   0.633   4.161   1.604
 1413TIP3    H1 4196   0.577   4.156   1.683
 1413TIP3    H2 4197   0.569   4.197   1.539
 1414TIP3   OH2 4198   0.683   5.580   1.677
 1414TIP3    H1 4199   0.590   5.555   1.659
 1414TIP3    H2 4200   0.686   5.577   1.773
 1415TIP3   OH2 4201   0.852   5.611   1.233
 1415TIP3    H1 4202   0.782   5.634   1.170
 1415TIP3    H2 4203   0.931   5.650   1.191
 1416TIP3   OH2 4204   1.291   5.860   1.363
 1416TIP3    H1 4205   1.334   5.860   1.452
 1416TIP3    H2 4206   1.356   5.913   1.312
 1417TIP3   OH2 4207   1.466   6.019   1.225
 1417TIP3    H1 4208   1.532   5.967   1.177
 1417TIP3    H2 4209   1.523   6.074   1.284
 1418TIP3   OH2 4210   2.264   4.373   1.323
 1418TIP3    H1 4211   2.174   4.362   1.286
 1418TIP3    H2 4212   2.299   4.282   1.314
 1419TIP3   OH2 4213   1.213   5.895   0.892
 1419TIP3    H1 4214   1.118   5.875   0.879
 1419TIP3    H2 4215   1.209   5.973   0.951
 1420TIP3   OH2 4216   1.465   5.821   0.964
 1420TIP3    H1 4217   1.373   5.840   0.937
 1420TIP3    H2 4218   1.514   5.890   0.915
 1421TIP3   OH2 4219   1.661   6.002   0.872
 1421TIP3    H1 4220   1.654   6.090   0.828
 1421TIP3    H2 4221   1.690   5.945   0.798
 1422TIP3   OH2 4222   1.502   4.320   0.933
 1422TIP3    H1 4223   1.435   4.293   1.000
 1422TIP3    H2 4224   1.544   4.235   0.915
 1423TIP3   OH2 4225   1.998   4.177   0.853
 1423TIP3    H1 4226   2.033   4.224   0.774
 1423TIP3    H2 4227   1.902   4.184   0.840
 1424TIP3   OH2 4228   2.089   4.265   0.614
 1424TIP3    H1 4229   2.163   4.215   0.573
 1424TIP3    H2 4230   2.125   4.358   0.599
 1425TIP3   OH2 4231   0.723   4.004   0.947
 1425TIP3    H1 4232   0.636   3.963   0.938
 1425TIP3    H2 4233   0.780   3.924   0.948
 1426TIP3   OH2 4234   1.153   4.045   0.855
 1426TIP3    H1 4235   1.224   4.082   0.801
 1426TIP3    H2 4236   1.173   4.086   0.941
 1427TIP3   OH2 4237   1.729   4.170   0.809
 1427TIP3    H1 4238   1.719   4.125   0.724
 1427TIP3    H2 4239   1.706   4.098   0.872
 1428TIP3   OH2 4240   1.759   4.090   0.386
 1428TIP3    H1 4241   1.668   4.131   0.386
 1428TIP3    H2 4242   1.738   4.006   0.435
 1429TIP3   OH2 4243   1.169   4.206   0.482
 1429TIP3    H1 4244   1.246   4.176   0.532
 1429TIP3    H2 4245   1.155   4.292   0.523
 1430TIP3   OH2 4246   0.925   4.283   1.853
 1430TIP3    H1 4247   0.887   4.210   1.905
 1430TIP3    H2 4248   1.019   4.278   1.879
 1431TIP3   OH2 4249   1.185   4.270   1.967
 1431TIP3    H1 4250   1.257   4.273   1.901
 1431TIP3    H2 4251   1.210   4.194   2.019
 1432TIP3   OH2 4252   2.004   4.342   1.754
 1432TIP3    H1 4253   2.023   4.310   1.844
 1432TIP3    H2 4254   2.093   4.336   1.712
 1433TIP3   OH2 4255   1.946   5.892   1.239
 1433TIP3    H1 4256   1.864   5.863   1.193
 1433TIP3    H2 4257   1.926   5.987   1.251
 1434TIP3   OH2 4258   3.207   5.292   0.098
 1434TIP3    H1 4259   3.172   5.369   0.049
 1434TIP3    H2 4260   3.157   5.219   0.057
 1435TIP3   OH2 4261   3.185   5.279   0.410
 1435TIP3    H1 4262   3.230   5.235   0.483
 1435TIP3    H2 4263   3.179   5.210   0.342
 1436TIP3   OH2 4264   2.494   5.164   0.773
 1436TIP3    H1 4265   2.527   5.092   0.830
 1436TIP3    H2 4266   2.577   5.196   0.735
 1437TIP3   OH2 4267   3.459   5.564   0.064
 1437TIP3    H1 4268   3.433   5.490   0.122
 1437TIP3    H2 4269   3.486   5.632   0.129
 1438TIP3   OH2 4270   2.483   5.567   0.478
 1438TIP3    H1 4271   2.474   5.469   0.481
 1438TIP3    H2 4272   2.579   5.576   0.467
 1439TIP3   OH2 4273   2.194   4.783   0.241
 1439TIP3    H1 4274   2.135   4.852   0.275
 1439TIP3    H2 4275   2.126   4.722   0.205
 1440TIP3   OH2 4276   2.242   5.061   0.447
 1440TIP3    H1 4277   2.288   4.979   0.479
 1440TIP3    H2 4278   2.305   5.094   0.383
 1441TIP3   OH2 4279   3.062   5.989   0.130
 1441TIP3    H1 4280   3.126   5.995   0.057
 1441TIP3    H2 4281   3.118   5.974   0.207
 1442TIP3   OH2 4282   3.002   5.492   0.445
 1442TIP3    H1 4283   3.045   5.410   0.413
 1442TIP3    H2 4284   3.084   5.541   0.467
 1443TIP3   OH2 4285   4.017   4.804   0.445
 1443TIP3    H1 4286   4.045   4.892   0.478
 1443TIP3    H2 4287   4.055   4.806   0.355
 1444TIP3   OH2 4288   3.420   4.990   0.491
 1444TIP3    H1 4289   3.471   4.909   0.507
 1444TIP3    H2 4290   3.385   4.971   0.402
 1445TIP3   OH2 4291   2.754   4.651   0.441
 1445TIP3    H1 4292   2.739   4.723   0.376
 1445TIP3    H2 4293   2.708   4.577   0.395
 1446TIP3   OH2 4294   3.440   4.710   0.078
 1446TIP3    H1 4295   3.528   4.710   0.121
 1446TIP3    H2 4296   3.445   4.795   0.028
 1447TIP3   OH2 4297   2.389   4.852   0.546
 1447TIP3    H1 4298   2.472   4.832   0.591
 1447TIP3    H2 4299   2.402   4.797   0.464
 1448TIP3   OH2 4300   2.823   5.049   0.352
 1448TIP3    H1 4301   2.919   5.028   0.361
 1448TIP3    H2 4302   2.789   4.966   0.313
 1449TIP3   OH2 4303   4.094   5.017   0.615
 1449TIP3    H1 4304   4.011   5.063   0.591
 1449TIP3    H2 4305   4.116   5.060   0.699
 1450TIP3   OH2 4306   2.751   4.635   0.873
 1450TIP3    H1 4307   2.692   4.671   0.804
 1450TIP3    H2 4308   2.697   4.653   0.953
 1451TIP3   OH2 4309   3.110   5.476  -0.077
 1451TIP3    H1 4310   3.065   5.463  -0.161
 1451TIP3    H2 4311   3.073   5.561  -0.049
 1452TIP3   OH2 4312   2.855   5.411   0.665
 1452TIP3    H1 4313   2.799   5.482   0.701
 1452TIP3    H2 4314   2.902   5.456   0.592
 1453TIP3   OH2 4315   3.660   4.744   0.239
 1453TIP3    H1 4316   3.649   4.706   0.326
 1453TIP3    H2 4317   3.705   4.829   0.260
 1454TIP3   OH2 4318   2.622   4.750   0.658
 1454TIP3    H1 4319   2.685   4.821   0.681
 1454TIP3    H2 4320   2.670   4.709   0.582
 1455TIP3   OH2 4321   2.678   5.610   0.773
 1455TIP3    H1 4322   2.661   5.696   0.731
 1455TIP3    H2 4323   2.595   5.597   0.820
 1456TIP3   OH2 4324   2.082   5.291   0.002
 1456TIP3    H1 4325   2.046   5.310  -0.087
 1456TIP3    H2 4326   2.098   5.382   0.035
 1457TIP3   OH2 4327   3.516   5.801   0.245
 1457TIP3    H1 4328   3.428   5.784   0.285
 1457TIP3    H2 4329   3.504   5.894   0.217
 1458TIP3   OH2 4330   3.810   4.705   0.606
 1458TIP3    H1 4331   3.724   4.733   0.571
 1458TIP3    H2 4332   3.873   4.740   0.539
 1459TIP3   OH2 4333   3.103   4.348   0.589
 1459TIP3    H1 4334   3.087   4.253   0.607
 1459TIP3    H2 4335   3.027   4.388   0.635
 1460TIP3   OH2 4336   3.741   5.720   0.592
 1460TIP3    H1 4337   3.739   5.643   0.532
 1460TIP3    H2 4338   3.737   5.795   0.528
 1461TIP3   OH2 4339   3.051   5.144  -0.106
 1461TIP3    H1 4340   2.977   5.199  -0.137
 1461TIP3    H2 4341   3.128   5.187  -0.148
 1462TIP3   OH2 4342   3.938   5.359   0.438
 1462TIP3    H1 4343   3.857   5.413   0.445
 1462TIP3    H2 4344   3.968   5.381   0.347
 1463TIP3   OH2 4345   3.288   5.243  -0.190
 1463TIP3    H1 4346   3.294   5.307  -0.118
 1463TIP3    H2 4347   3.336   5.167  -0.150
 1464TIP3   OH2 4348   3.618   5.235   0.733
 1464TIP3    H1 4349   3.617   5.319   0.783
 1464TIP3    H2 4350   3.534   5.242   0.684
 1465TIP3   OH2 4351   2.615   5.196   0.236
 1465TIP3    H1 4352   2.574   5.136   0.169
 1465TIP3    H2 4353   2.691   5.143   0.266
 1466TIP3   OH2 4354   2.745   5.601   0.383
 1466TIP3    H1 4355   2.727   5.571   0.292
 1466TIP3    H2 4356   2.834   5.564   0.400
 1467TIP3   OH2 4357   2.735   5.173   0.588
 1467TIP3    H1 4358   2.774   5.139   0.504
 1467TIP3    H2 4359   2.789   5.253   0.605
 1468TIP3   OH2 4360   3.273   5.803   0.360
 1468TIP3    H1 4361   3.264   5.884   0.414
 1468TIP3    H2 4362   3.261   5.732   0.426
 1469TIP3   OH2 4363   2.893   5.725   0.910
 1469TIP3    H1 4364   2.831   5.786   0.957
 1469TIP3    H2 4365   2.829   5.670   0.861
 1470TIP3   OH2 4366   2.650   5.283   1.021
 1470TIP3    H1 4367   2.653   5.370   1.064
 1470TIP3    H2 4368   2.556   5.262   1.025
 1471TIP3   OH2 4369   2.979   5.734  -0.050
 1471TIP3    H1 4370   3.034   5.778   0.015
 1471TIP3    H2 4371   2.898   5.786  -0.046
 1472TIP3   OH2 4372   2.681   5.887   0.996
 1472TIP3    H1 4373   2.650   5.895   0.904
 1472TIP3    H2 4374   2.597   5.876   1.046
 1473TIP3   OH2 4375   2.477   5.035   0.048
 1473TIP3    H1 4376   2.408   5.068  -0.012
 1473TIP3    H2 4377   2.460   4.941   0.048
 1474TIP3   OH2 4378   2.237   5.423   0.940
 1474TIP3    H1 4379   2.200   5.373   0.863
 1474TIP3    H2 4380   2.290   5.351   0.981
 1475TIP3   OH2 4381   3.980   6.066   0.627
 1475TIP3    H1 4382   3.983   5.970   0.645
 1475TIP3    H2 4383   3.899   6.091   0.676
 1476TIP3   OH2 4384   3.087   5.855   0.767
 1476TIP3    H1 4385   3.084   5.947   0.800
 1476TIP3    H2 4386   3.018   5.812   0.822
 1477TIP3   OH2 4387   2.277   5.808   0.116
 1477TIP3    H1 4388   2.352   5.813   0.178
 1477TIP3    H2 4389   2.213   5.765   0.174
 1478TIP3   OH2 4390   3.868   5.194   0.911
 1478TIP3    H1 4391   3.790   5.205   0.855
 1478TIP3    H2 4392   3.886   5.098   0.901
 1479TIP3   OH2 4393   2.447   5.607   0.953
 1479TIP3    H1 4394   2.519   5.608   1.019
 1479TIP3    H2 4395   2.427   5.513   0.948
 1480TIP3   OH2 4396   2.867   4.426   0.720
 1480TIP3    H1 4397   2.778   4.398   0.690
 1480TIP3    H2 4398   2.842   4.509   0.766
 1481TIP3   OH2 4399   3.405   4.542   0.912
 1481TIP3    H1 4400   3.475   4.515   0.975
 1481TIP3    H2 4401   3.323   4.523   0.961
 1482TIP3   OH2 4402   3.633   4.969   0.826
 1482TIP3    H1 4403   3.586   4.970   0.912
 1482TIP3    H2 4404   3.617   5.058   0.791
 1483TIP3   OH2 4405   3.017   4.508  -0.296
 1483TIP3    H1 4406   2.980   4.472  -0.213
 1483TIP3    H2 4407   2.988   4.444  -0.361
 1484TIP3   OH2 4408   2.795   4.949   0.734
 1484TIP3    H1 4409   2.754   4.974   0.818
 1484TIP3    H2 4410   2.780   5.029   0.680
 1485TIP3   OH2 4411   2.682   4.831   0.251
 1485TIP3    H1 4412   2.590   4.803   0.269
 1485TIP3    H2 4413   2.694   4.791   0.162
 1486TIP3   OH2 4414   3.122   4.880  -0.103
 1486TIP3    H1 4415   3.089   4.972  -0.093
 1486TIP3    H2 4416   3.217   4.900  -0.084
 1487TIP3   OH2 4417   3.349   5.193   1.064
 1487TIP3    H1 4418   3.330   5.119   1.125
 1487TIP3    H2 4419   3.444   5.206   1.083
 1488TIP3   OH2 4420   3.303   4.911   0.255
 1488TIP3    H1 4421   3.312   4.962   0.171
 1488TIP3    H2 4422   3.339   4.827   0.224
 1489TIP3   OH2 4423   2.612   4.977   0.949
 1489TIP3    H1 4424   2.671   5.028   1.006
 1489TIP3    H2 4425   2.605   4.892   0.996
 1490TIP3   OH2 4426   2.679   4.379  -0.326
 1490TIP3    H1 4427   2.666   4.419  -0.239
 1490TIP3    H2 4428   2.657   4.449  -0.387
 1491TIP3   OH2 4429   2.219   4.483   0.531
 1491TIP3    H1 4430   2.292   4.525   0.576
 1491TIP3    H2 4431   2.251   4.467   0.442
 1492TIP3   OH2 4432   2.179   4.470   0.038
 1492TIP3    H1 4433   2.239   4.503  -0.033
 1492TIP3    H2 4434   2.125   4.550   0.054
 1493TIP3   OH2 4435   3.334   5.191   0.643
 1493TIP3    H1 4436   3.373   5.121   0.585
 1493TIP3    H2 4437   3.306   5.135   0.718
 1494TIP3   OH2 4438   3.016   4.648   0.316
 1494TIP3    H1 4439   2.939   4.650   0.375
 1494TIP3    H2 4440   3.090   4.649   0.378
 1495TIP3   OH2 4441   2.444   4.707   0.321
 1495TIP3    H1 4442   2.352   4.716   0.283
 1495TIP3    H2 4443   2.469   4.617   0.296
 1496TIP3   OH2 4444   2.706   4.708   0.010
 1496TIP3    H1 4445   2.803   4.712   0.001
 1496TIP3    H2 4446   2.673   4.742  -0.076
 1497TIP3   OH2 4447   3.509   4.727   0.521
 1497TIP3    H1 4448   3.467   4.740   0.609
 1497TIP3    H2 4449   3.442   4.671   0.477
 1498TIP3   OH2 4450   2.538   4.759  -0.203
 1498TIP3    H1 4451   2.460   4.702  -0.211
 1498TIP3    H2 4452   2.595   4.731  -0.277
 1499TIP3   OH2 4453   3.677   6.419   0.737
 1499TIP3    H1 4454   3.677   6.442   0.642
 1499TIP3    H2 4455   3.759   6.464   0.767
 1500TIP3   OH2 4456   2.629   5.535   1.151
 1500TIP3    H1 4457   2.713   5.559   1.195
 1500TIP3    H2 4458   2.570   5.528   1.229
 1501TIP3   OH2 4459   3.082   4.973   0.411
 1501TIP3    H1 4460   3.158   4.949   0.354
 1501TIP3    H2 4461   3.105   4.928   0.494
 1502TIP3   OH2 4462   2.612   4.470   0.289
 1502TIP3    H1 4463   2.577   4.392   0.337
 1502TIP3    H2 4464   2.656   4.430   0.214
 1503TIP3   OH2 4465   3.069   4.873   0.709
 1503TIP3    H1 4466   2.982   4.917   0.712
 1503TIP3    H2 4467   3.129   4.938   0.750
 1504TIP3   OH2 4468   2.827   5.265  -0.195
 1504TIP3    H1 4469   2.748   5.213  -0.216
 1504TIP3    H2 4470   2.797   5.311  -0.114
 1505TIP3   OH2 4471   3.704   5.505   0.424
 1505TIP3    H1 4472   3.731   5.550   0.341
 1505TIP3    H2 4473   3.621   5.461   0.398
 1506TIP3   OH2 4474   3.195   5.582   0.792
 1506TIP3    H1 4475   3.246   5.570   0.873
 1506TIP3    H2 4476   3.169   5.676   0.796
 1507TIP3   OH2 4477   2.497   5.287   0.467
 1507TIP3    H1 4478   2.531   5.264   0.378
 1507TIP3    H2 4479   2.559   5.237   0.522
 1508TIP3   OH2 4480   2.367   5.242   1.089
 1508TIP3    H1 4481   2.402   5.217   1.177
 1508TIP3    H2 4482   2.315   5.162   1.066
 1509TIP3   OH2 4483   3.110   5.326   1.101
 1509TIP3    H1 4484   3.055   5.271   1.044
 1509TIP3    H2 4485   3.199   5.292   1.077
 1510TIP3   OH2 4486   3.361   5.850   0.687
 1510TIP3    H1 4487   3.265   5.849   0.702
 1510TIP3    H2 4488   3.392   5.900   0.765
 1511TIP3   OH2 4489   3.993   5.785   0.680
 1511TIP3    H1 4490   3.895   5.777   0.676
 1511TIP3    H2 4491   4.015   5.749   0.590
 1512TIP3   OH2 4492   3.468   5.374   0.345
 1512TIP3    H1 4493   3.373   5.353   0.346
 1512TIP3    H2 4494   3.504   5.292   0.305
 1513TIP3   OH2 4495   2.609   5.592   0.112
 1513TIP3    H1 4496   2.603   5.668   0.050
 1513TIP3    H2 4497   2.518   5.562   0.110
 1514TIP3   OH2 4498   2.167   4.897  -0.204
 1514TIP3    H1 4499   2.212   4.980  -0.182
 1514TIP3    H2 4500   2.089   4.901  -0.146
 1515TIP3   OH2 4501   2.736   5.361   0.040
 1515TIP3    H1 4502   2.701   5.449   0.062
 1515TIP3    H2 4503   2.704   5.307   0.114
 1516TIP3   OH2 4504   2.871   5.936   0.562
 1516TIP3    H1 4505   2.912   6.010   0.512
 1516TIP3    H2 4506   2.948   5.900   0.607
 1517TIP3   OH2 4507   2.521   5.805  -0.031
 1517TIP3    H1 4508   2.428   5.822  -0.013
 1517TIP3    H2 4509   2.557   5.895  -0.029
 1518TIP3   OH2 4510   3.256   5.576   0.522
 1518TIP3    H1 4511   3.244   5.567   0.619
 1518TIP3    H2 4512   3.330   5.517   0.505
 1519TIP3   OH2 4513   3.504   6.096   0.584
 1519TIP3    H1 4514   3.427   6.037   0.575
 1519TIP3    H2 4515   3.488   6.161   0.512
 1520TIP3   OH2 4516   2.589   4.719   1.087
 1520TIP3    H1 4517   2.492   4.719   1.098
 1520TIP3    H2 4518   2.617   4.660   1.159
 1521TIP3   OH2 4519   2.279   5.137  -0.118
 1521TIP3    H1 4520   2.212   5.189  -0.069
 1521TIP3    H2 4521   2.335   5.205  -0.157
 1522TIP3   OH2 4522   3.422   4.786   0.780
 1522TIP3    H1 4523   3.509   4.823   0.805
 1522TIP3    H2 4524   3.418   4.703   0.832
 1523TIP3   OH2 4525   3.301   4.532  -0.072
 1523TIP3    H1 4526   3.286   4.582  -0.154
 1523TIP3    H2 4527   3.358   4.595  -0.023
 1524TIP3   OH2 4528   2.975   4.697   0.042
 1524TIP3    H1 4529   3.035   4.763   0.001
 1524TIP3    H2 4530   3.000   4.700   0.137
 1525TIP3   OH2 4531   3.265   5.026   0.848
 1525TIP3    H1 4532   3.296   5.074   0.926
 1525TIP3    H2 4533   3.320   4.945   0.848
 1526TIP3   OH2 4534   3.143   4.432   0.135
 1526TIP3    H1 4535   3.140   4.508   0.197
 1526TIP3    H2 4536   3.201   4.469   0.064
 1527TIP3   OH2 4537   2.650   4.446  -0.054
 1527TIP3    H1 4538   2.655   4.539  -0.022
 1527TIP3    H2 4539   2.745   4.422  -0.051
 1528TIP3   OH2 4540   3.903   4.930   0.833
 1528TIP3    H1 4541   3.805   4.924   0.832
 1528TIP3    H2 4542   3.923   4.898   0.744
 1529TIP3   OH2 4543   3.558   5.139   0.229
 1529TIP3    H1 4544   3.502   5.082   0.173
 1529TIP3    H2 4545   3.621   5.076   0.270
 1530TIP3   OH2 4546   2.236   4.636  -0.191
 1530TIP3    H1 4547   2.222   4.733  -0.196
 1530TIP3    H2 4548   2.153   4.603  -0.227
 1531TIP3   OH2 4549   3.534   6.072   0.185
 1531TIP3    H1 4550   3.493   6.076   0.096
 1531TIP3    H2 4551   3.627   6.059   0.165
 1532TIP3   OH2 4552   2.599   4.350   0.691
 1532TIP3    H1 4553   2.571   4.316   0.603
 1532TIP3    H2 4554   2.590   4.271   0.748
 1533TIP3   OH2 4555   2.115   5.558   0.056
 1533TIP3    H1 4556   2.065   5.618   0.111
 1533TIP3    H2 4557   2.175   5.616   0.008
 1534TIP3   OH2 4558   2.307   6.117   1.148
 1534TIP3    H1 4559   2.390   6.132   1.199
 1534TIP3    H2 4560   2.313   6.021   1.138
 1535TIP3   OH2 4561   2.772   6.069   1.190
 1535TIP3    H1 4562   2.868   6.060   1.199
 1535TIP3    H2 4563   2.755   6.007   1.116
 1536TIP3   OH2 4564   3.413   5.981   0.926
 1536TIP3    H1 4565   3.409   5.911   0.994
 1536TIP3    H2 4566   3.494   6.031   0.952
 1537TIP3   OH2 4567   2.432   5.516   1.348
 1537TIP3    H1 4568   2.452   5.421   1.358
 1537TIP3    H2 4569   2.343   5.514   1.307
 1538TIP3   OH2 4570   3.031   5.600   1.120
 1538TIP3    H1 4571   3.001   5.623   1.030
 1538TIP3    H2 4572   3.068   5.510   1.108
 1539TIP3   OH2 4573   3.525   5.617   0.728
 1539TIP3    H1 4574   3.605   5.651   0.683
 1539TIP3    H2 4575   3.461   5.688   0.705
 1540TIP3   OH2 4576   2.549   5.255   1.323
 1540TIP3    H1 4577   2.626   5.203   1.295
 1540TIP3    H2 4578   2.578   5.283   1.412
 1541TIP3   OH2 4579   2.619   5.071  -0.238
 1541TIP3    H1 4580   2.588   5.020  -0.162
 1541TIP3    H2 4581   2.700   5.020  -0.262
 1542TIP3   OH2 4582   2.873   5.124   0.979
 1542TIP3    H1 4583   2.804   5.194   0.985
 1542TIP3    H2 4584   2.933   5.162   0.911
 1543TIP3   OH2 4585   3.401   5.536   1.120
 1543TIP3    H1 4586   3.480   5.509   1.071
 1543TIP3    H2 4587   3.399   5.470   1.192
 1544TIP3   OH2 4588   3.004   4.924   1.114
 1544TIP3    H1 4589   3.009   4.844   1.058
 1544TIP3    H2 4590   2.962   4.989   1.054
 1545TIP3   OH2 4591   3.009   4.710   0.928
 1545TIP3    H1 4592   3.040   4.753   0.846
 1545TIP3    H2 4593   2.916   4.687   0.904
 1546TIP3   OH2 4594   3.032   5.244   0.800
 1546TIP3    H1 4595   3.118   5.251   0.758
 1546TIP3    H2 4596   2.980   5.311   0.749
 1547TIP3   OH2 4597   3.618   5.212   1.174
 1547TIP3    H1 4598   3.665   5.128   1.179
 1547TIP3    H2 4599   3.685   5.270   1.135
 1548TIP3   OH2 4600   3.657   5.467   0.911
 1548TIP3    H1 4601   3.601   5.523   0.852
 1548TIP3    H2 4602   3.746   5.488   0.873
 1549TIP3   OH2 4603   2.882   5.032   1.346
 1549TIP3    H1 4604   2.817   4.961   1.361
 1549TIP3    H2 4605   2.918   5.007   1.259
 1550TIP3   OH2 4606   3.142   4.472   0.993
 1550TIP3    H1 4607   3.092   4.553   0.969
 1550TIP3    H2 4608   3.074   4.403   0.979
 1551TIP3   OH2 4609   3.267   4.974   1.207
 1551TIP3    H1 4610   3.255   4.960   1.302
 1551TIP3    H2 4611   3.177   4.951   1.175
 1552TIP3   OH2 4612   3.506   4.933   1.062
 1552TIP3    H1 4613   3.433   4.929   1.126
 1552TIP3    H2 4614   3.582   4.901   1.116
 1553TIP3   OH2 4615   3.727   4.866   1.212
 1553TIP3    H1 4616   3.746   4.771   1.226
 1553TIP3    H2 4617   3.731   4.903   1.303
 1554TIP3   OH2 4618   2.723   4.811   1.402
 1554TIP3    H1 4619   2.728   4.720   1.367
 1554TIP3    H2 4620   2.762   4.799   1.491
 1555TIP3   OH2 4621   3.231   4.480   1.252
 1555TIP3    H1 4622   3.300   4.411   1.244
 1555TIP3    H2 4623   3.194   4.477   1.161
 1556TIP3   OH2 4624   3.300   4.695   1.410
 1556TIP3    H1 4625   3.280   4.625   1.345
 1556TIP3    H2 4626   3.222   4.754   1.400
 1557TIP3   OH2 4627   2.015   5.308  -0.265
 1557TIP3    H1 4628   2.075   5.304  -0.339
 1557TIP3    H2 4629   1.958   5.232  -0.280
 1558TIP3   OH2 4630   1.918   5.901   0.119
 1558TIP3    H1 4631   1.835   5.941   0.148
 1558TIP3    H2 4632   1.952   5.858   0.200
 1559TIP3   OH2 4633   2.065   5.770   0.316
 1559TIP3    H1 4634   2.041   5.701   0.379
 1559TIP3    H2 4635   2.115   5.831   0.375
 1560TIP3   OH2 4636   3.797   6.194   0.404
 1560TIP3    H1 4637   3.771   6.099   0.404
 1560TIP3    H2 4638   3.885   6.187   0.443
 1561TIP3   OH2 4639   3.853   5.868   0.981
 1561TIP3    H1 4640   3.783   5.880   1.048
 1561TIP3    H2 4641   3.898   5.955   0.982
 1562TIP3   OH2 4642   3.843   5.625   0.221
 1562TIP3    H1 4643   3.894   5.564   0.165
 1562TIP3    H2 4644   3.821   5.697   0.160
 1563TIP3   OH2 4645   3.684   5.937   0.428
 1563TIP3    H1 4646   3.617   5.978   0.486
 1563TIP3    H2 4647   3.630   5.883   0.368
 1564TIP3   OH2 4648   3.685   5.090  -0.037
 1564TIP3    H1 4649   3.611   5.031  -0.059
 1564TIP3    H2 4650   3.657   5.121   0.050
 1565TIP3   OH2 4651   2.232   5.199   0.695
 1565TIP3    H1 4652   2.230   5.155   0.606
 1565TIP3    H2 4653   2.329   5.192   0.713
 1566TIP3   OH2 4654   3.903   5.532   0.805
 1566TIP3    H1 4655   3.975   5.465   0.795
 1566TIP3    H2 4656   3.932   5.601   0.742
 1567TIP3   OH2 4657   4.083   5.331   0.817
 1567TIP3    H1 4658   4.010   5.280   0.858
 1567TIP3    H2 4659   4.158   5.270   0.833
 1568TIP3   OH2 4660   3.621   4.794  -0.213
 1568TIP3    H1 4661   3.652   4.710  -0.171
 1568TIP3    H2 4662   3.700   4.849  -0.206
 1569TIP3   OH2 4663   3.759   4.985   0.345
 1569TIP3    H1 4664   3.844   5.012   0.303
 1569TIP3    H2 4665   3.774   5.021   0.433
 1570TIP3   OH2 4666   3.842   5.137   0.572
 1570TIP3    H1 4667   3.763   5.175   0.615
 1570TIP3    H2 4668   3.876   5.214   0.522
 1571TIP3   OH2 4669   2.457   4.866   1.374
 1571TIP3    H1 4670   2.555   4.859   1.375
 1571TIP3    H2 4671   2.434   4.778   1.410
 1572TIP3   OH2 4672   4.280   4.725   1.121
 1572TIP3    H1 4673   4.349   4.666   1.085
 1572TIP3    H2 4674   4.259   4.782   1.045
 1573TIP3   OH2 4675   3.712   4.561  -0.114
 1573TIP3    H1 4676   3.764   4.544  -0.033
 1573TIP3    H2 4677   3.654   4.482  -0.116
 1574TIP3   OH2 4678   2.418   4.561   0.708
 1574TIP3    H1 4679   2.476   4.483   0.711
 1574TIP3    H2 4680   2.483   4.632   0.692
 1575TIP3   OH2 4681   2.219   4.838   0.770
 1575TIP3    H1 4682   2.263   4.822   0.684
 1575TIP3    H2 4683   2.274   4.904   0.808
 1576TIP3   OH2 4684   4.160   4.870   0.923
 1576TIP3    H1 4685   4.073   4.913   0.940
 1576TIP3    H2 4686   4.130   4.794   0.869
 1577TIP3   OH2 4687   2.206   4.335   0.272
 1577TIP3    H1 4688   2.115   4.329   0.304
 1577TIP3    H2 4689   2.198   4.393   0.195
 1578TIP3   OH2 4690   2.426   4.416   1.090
 1578TIP3    H1 4691   2.372   4.409   1.170
 1578TIP3    H2 4692   2.360   4.451   1.026
 1579TIP3   OH2 4693   2.451   5.855   1.163
 1579TIP3    H1 4694   2.376   5.796   1.147
 1579TIP3    H2 4695   2.480   5.831   1.252
 1580TIP3   OH2 4696   2.646   5.878   0.710
 1580TIP3    H1 4697   2.601   5.956   0.671
 1580TIP3    H2 4698   2.733   5.889   0.665
 1581TIP3   OH2 4699   3.084   6.122   0.849
 1581TIP3    H1 4700   3.128   6.120   0.937
 1581TIP3    H2 4701   3.151   6.171   0.797
 1582TIP3   OH2 4702   3.268   6.271   0.710
 1582TIP3    H1 4703   3.342   6.220   0.672
 1582TIP3    H2 4704   3.317   6.330   0.770
 1583TIP3   OH2 4705   4.061   4.632   0.809
 1583TIP3    H1 4706   3.972   4.627   0.769
 1583TIP3    H2 4707   4.093   4.540   0.798
 1584TIP3   OH2 4708   2.307   6.120   0.721
 1584TIP3    H1 4709   2.217   6.159   0.714
 1584TIP3    H2 4710   2.337   6.162   0.803
 1585TIP3   OH2 4711   2.553   6.109   0.595
 1585TIP3    H1 4712   2.464   6.123   0.633
 1585TIP3    H2 4713   2.540   6.144   0.504
 1586TIP3   OH2 4714   2.978   6.137   0.404
 1586TIP3    H1 4715   2.929   6.153   0.322
 1586TIP3    H2 4716   2.987   6.227   0.440
 1587TIP3   OH2 4717   3.245   6.071   0.438
 1587TIP3    H1 4718   3.152   6.098   0.428
 1587TIP3    H2 4719   3.294   6.151   0.413
 1588TIP3   OH2 4720   3.449   6.259   0.374
 1588TIP3    H1 4721   3.433   6.341   0.323
 1588TIP3    H2 4722   3.487   6.199   0.307
 1589TIP3   OH2 4723   2.234   5.930   0.473
 1589TIP3    H1 4724   2.276   5.958   0.556
 1589TIP3    H2 4725   2.307   5.878   0.432
 1590TIP3   OH2 4726   2.429   5.796   0.340
 1590TIP3    H1 4727   2.447   5.711   0.386
 1590TIP3    H2 4728   2.520   5.833   0.334
 1591TIP3   OH2 4729   2.691   5.890   0.347
 1591TIP3    H1 4730   2.725   5.800   0.331
 1591TIP3    H2 4731   2.742   5.912   0.428
 1592TIP3   OH2 4732   3.265   4.547   0.428
 1592TIP3    H1 4733   3.225   4.473   0.477
 1592TIP3    H2 4734   3.343   4.506   0.386
 1593TIP3   OH2 4735   3.780   4.430   0.347
 1593TIP3    H1 4736   3.819   4.477   0.270
 1593TIP3    H2 4737   3.685   4.451   0.338
 1594TIP3   OH2 4738   3.880   4.510   0.105
 1594TIP3    H1 4739   3.951   4.461   0.059
 1594TIP3    H2 4740   3.911   4.602   0.088
 1595TIP3   OH2 4741   2.514   4.255   0.443
 1595TIP3    H1 4742   2.421   4.224   0.447
 1595TIP3    H2 4743   2.561   4.170   0.439
 1596TIP3   OH2 4744   2.286   4.124   0.090
 1596TIP3    H1 4745   2.336   4.175   0.022
 1596TIP3    H2 4746   2.272   4.194   0.158
 1597TIP3   OH2 4747   2.962   4.286   0.327
 1597TIP3    H1 4748   3.013   4.334   0.260
 1597TIP3    H2 4749   2.993   4.328   0.409
 1598TIP3   OH2 4750   3.496   4.438   0.313
 1598TIP3    H1 4751   3.503   4.411   0.220
 1598TIP3    H2 4752   3.484   4.352   0.360
 1599TIP3   OH2 4753   3.533   4.359  -0.091
 1599TIP3    H1 4754   3.446   4.399  -0.104
 1599TIP3    H2 4755   3.513   4.270  -0.057
 1600TIP3   OH2 4756   2.431   4.267  -0.094
 1600TIP3    H1 4757   2.449   4.241  -0.185
 1600TIP3    H2 4758   2.503   4.331  -0.077
 1601TIP3   OH2 4759   2.925   4.443  -0.041
 1601TIP3    H1 4760   2.993   4.401   0.014
 1601TIP3    H2 4761   2.942   4.537  -0.016
 1602TIP3   OH2 4762   2.721   4.537   1.335
 1602TIP3    H1 4763   2.686   4.465   1.391
 1602TIP3    H2 4764   2.816   4.535   1.363
 1603TIP3   OH2 4765   2.972   4.534   1.453
 1603TIP3    H1 4766   3.057   4.514   1.410
 1603TIP3    H2 4767   2.965   4.460   1.517
 1604TIP3   OH2 4768   3.799   4.597   1.241
 1604TIP3    H1 4769   3.819   4.566   1.331
 1604TIP3    H2 4770   3.888   4.594   1.199
 1605TIP3   OH2 4771   3.732   6.147   0.740
 1605TIP3    H1 4772   3.654   6.119   0.688
 1605TIP3    H2 4773   3.719   6.244   0.741
 1606TIP3   OH2 4774   4.319   5.418   0.236
 1606TIP3    H1 4775   4.342   5.352   0.305
 1606TIP3    H2 4776   4.349   5.500   0.279
 1607TIP3   OH2 4777   4.186   5.049   0.093
 1607TIP3    H1 4778   4.284   5.041   0.095
 1607TIP3    H2 4779   4.172   5.117   0.026
 1608TIP3   OH2 4780   4.547   4.890   0.374
 1608TIP3    H1 4781   4.496   4.924   0.298
 1608TIP3    H2 4782   4.487   4.912   0.448
 1609TIP3   OH2 4783   4.452   4.982   0.133
 1609TIP3    H1 4784   4.502   5.066   0.135
 1609TIP3    H2 4785   4.482   4.944   0.049
 1610TIP3   OH2 4786   4.891   4.592   0.131
 1610TIP3    H1 4787   4.858   4.507   0.165
 1610TIP3    H2 4788   4.814   4.649   0.154
 1611TIP3   OH2 4789   4.627   5.925   0.479
 1611TIP3    H1 4790   4.607   6.020   0.481
 1611TIP3    H2 4791   4.541   5.891   0.445
 1612TIP3   OH2 4792   4.435   5.545   0.480
 1612TIP3    H1 4793   4.428   5.642   0.470
 1612TIP3    H2 4794   4.349   5.524   0.522
 1613TIP3   OH2 4795   4.455   6.161   0.472
 1613TIP3    H1 4796   4.427   6.086   0.416
 1613TIP3    H2 4797   4.391   6.150   0.546
 1614TIP3   OH2 4798   4.022   5.661   0.446
 1614TIP3    H1 4799   3.978   5.638   0.362
 1614TIP3    H2 4800   4.092   5.594   0.454
 1615TIP3   OH2 4801   5.622   5.472   0.438
 1615TIP3    H1 4802   5.677   5.492   0.361
 1615TIP3    H2 4803   5.614   5.376   0.433
 1616TIP3   OH2 4804   4.656   4.696   0.217
 1616TIP3    H1 4805   4.567   4.665   0.188
 1616TIP3    H2 4806   4.628   4.773   0.271
 1617TIP3   OH2 4807   5.201   4.802   0.397
 1617TIP3    H1 4808   5.270   4.781   0.464
 1617TIP3    H2 4809   5.118   4.784   0.446
 1618TIP3   OH2 4810   5.459   5.236   0.346
 1618TIP3    H1 4811   5.403   5.214   0.423
 1618TIP3    H2 4812   5.394   5.247   0.276
 1619TIP3   OH2 4813   4.607   5.221   0.214
 1619TIP3    H1 4814   4.556   5.233   0.296
 1619TIP3    H2 4815   4.545   5.255   0.147
 1620TIP3   OH2 4816   5.144   5.450   0.550
 1620TIP3    H1 4817   5.121   5.374   0.609
 1620TIP3    H2 4818   5.238   5.459   0.569
 1621TIP3   OH2 4819   4.413   5.226   0.423
 1621TIP3    H1 4820   4.452   5.286   0.489
 1621TIP3    H2 4821   4.401   5.145   0.476
 1622TIP3   OH2 4822   4.013   4.733   0.027
 1622TIP3    H1 4823   4.080   4.764   0.090
 1622TIP3    H2 4824   4.023   4.795  -0.047
 1623TIP3   OH2 4825   4.861   5.094   0.204
 1623TIP3    H1 4826   4.780   5.146   0.192
 1623TIP3    H2 4827   4.927   5.164   0.223
 1624TIP3   OH2 4828   4.999   5.828   0.332
 1624TIP3    H1 4829   5.012   5.819   0.428
 1624TIP3    H2 4830   4.914   5.875   0.329
 1625TIP3   OH2 4831   4.186   5.463   0.565
 1625TIP3    H1 4832   4.204   5.454   0.661
 1625TIP3    H2 4833   4.109   5.405   0.554
 1626TIP3   OH2 4834   4.906   5.582   0.595
 1626TIP3    H1 4835   4.844   5.531   0.541
 1626TIP3    H2 4836   4.992   5.543   0.569
 1627TIP3   OH2 4837   4.382   4.975   0.578
 1627TIP3    H1 4838   4.285   4.975   0.590
 1627TIP3    H2 4839   4.412   4.921   0.653
 1628TIP3   OH2 4840   4.090   6.019   0.279
 1628TIP3    H1 4841   4.150   5.943   0.297
 1628TIP3    H2 4842   4.117   6.076   0.352
 1629TIP3   OH2 4843   5.204   5.058   0.292
 1629TIP3    H1 4844   5.297   5.061   0.270
 1629TIP3    H2 4845   5.195   4.968   0.328
 1630TIP3   OH2 4846   5.044   5.289   0.330
 1630TIP3    H1 4847   5.090   5.335   0.402
 1630TIP3    H2 4848   5.100   5.210   0.319
 1631TIP3   OH2 4849   4.400   4.609   0.201
 1631TIP3    H1 4850   4.364   4.577   0.115
 1631TIP3    H2 4851   4.390   4.530   0.256
 1632TIP3   OH2 4852   4.082   6.349   0.680
 1632TIP3    H1 4853   4.177   6.354   0.698
 1632TIP3    H2 4854   4.074   6.256   0.650
 1633TIP3   OH2 4855   4.574   6.325   0.674
 1633TIP3    H1 4856   4.667   6.299   0.673
 1633TIP3    H2 4857   4.542   6.278   0.595
 1634TIP3   OH2 4858   4.217   5.782   0.844
 1634TIP3    H1 4859   4.261   5.700   0.816
 1634TIP3    H2 4860   4.137   5.781   0.787
 1635TIP3   OH2 4861   4.853   5.860   0.600
 1635TIP3    H1 4862   4.773   5.874   0.544
 1635TIP3    H2 4863   4.864   5.763   0.597
 1636TIP3   OH2 4864   4.349   5.507   0.809
 1636TIP3    H1 4865   4.431   5.461   0.789
 1636TIP3    H2 4866   4.368   5.543   0.898
 1637TIP3   OH2 4867   4.654   5.381   0.494
 1637TIP3    H1 4868   4.581   5.447   0.495
 1637TIP3    H2 4869   4.711   5.421   0.425
 1638TIP3   OH2 4870   5.198   5.797   0.609
 1638TIP3    H1 4871   5.294   5.797   0.608
 1638TIP3    H2 4872   5.179   5.726   0.673
 1639TIP3   OH2 4873   4.803   5.179   0.605
 1639TIP3    H1 4874   4.806   5.097   0.551
 1639TIP3    H2 4875   4.751   5.239   0.549
 1640TIP3   OH2 4876   4.804   4.956   0.434
 1640TIP3    H1 4877   4.832   4.999   0.350
 1640TIP3    H2 4878   4.711   4.935   0.414
 1641TIP3   OH2 4879   4.818   5.511   0.323
 1641TIP3    H1 4880   4.909   5.478   0.320
 1641TIP3    H2 4881   4.822   5.583   0.259
 1642TIP3   OH2 4882   5.420   5.467   0.661
 1642TIP3    H1 4883   5.438   5.372   0.665
 1642TIP3    H2 4884   5.500   5.499   0.616
 1643TIP3   OH2 4885   4.681   5.288   0.837
 1643TIP3    H1 4886   4.614   5.218   0.851
 1643TIP3    H2 4887   4.714   5.265   0.748
 1644TIP3   OH2 4888   4.941   4.721   0.477
 1644TIP3    H1 4889   4.890   4.805   0.464
 1644TIP3    H2 4890   4.870   4.654   0.468
 1645TIP3   OH2 4891   5.059   5.236   0.694
 1645TIP3    H1 4892   5.046   5.210   0.787
 1645TIP3    H2 4893   4.971   5.211   0.659
 1646TIP3   OH2 4894   5.307   5.191   0.567
 1646TIP3    H1 4895   5.224   5.181   0.617
 1646TIP3    H2 4896   5.373   5.145   0.622
 1647TIP3   OH2 4897   5.544   5.123   0.701
 1647TIP3    H1 4898   5.550   5.026   0.718
 1647TIP3    H2 4899   5.532   5.160   0.791
 1648TIP3   OH2 4900   4.519   5.067   0.888
 1648TIP3    H1 4901   4.528   4.976   0.854
 1648TIP3    H2 4902   4.562   5.056   0.976
 1649TIP3   OH2 4903   5.030   4.740   0.738
 1649TIP3    H1 4904   5.091   4.664   0.737
 1649TIP3    H2 4905   4.992   4.733   0.648
 1650TIP3   OH2 4906   5.118   4.976   0.855
 1650TIP3    H1 4907   5.092   4.890   0.818
 1650TIP3    H2 4908   5.031   5.015   0.878
 1651TIP3   OH2 4909   4.046   5.419   0.187
 1651TIP3    H1 4910   4.049   5.420   0.091
 1651TIP3    H2 4911   4.142   5.429   0.206
 1652TIP3   OH2 4912   4.253   5.121   0.854
 1652TIP3    H1 4913   4.351   5.116   0.859
 1652TIP3    H2 4914   4.230   5.034   0.892
 1653TIP3   OH2 4915   6.094   4.990   0.610
 1653TIP3    H1 4916   6.149   4.918   0.570
 1653TIP3    H2 4917   6.097   5.056   0.538
 1654TIP3   OH2 4918   4.199   4.796   0.231
 1654TIP3    H1 4919   4.276   4.735   0.225
 1654TIP3    H2 4920   4.233   4.875   0.187
 1655TIP3   OH2 4921   4.003   5.090   0.288
 1655TIP3    H1 4922   4.065   5.067   0.217
 1655TIP3    H2 4923   4.031   5.180   0.310
 1656TIP3   OH2 4924   5.913   5.138   0.445
 1656TIP3    H1 4925   5.832   5.127   0.496
 1656TIP3    H2 4926   5.918   5.060   0.389
 1657TIP3   OH2 4927   4.220   4.664   0.572
 1657TIP3    H1 4928   4.170   4.669   0.655
 1657TIP3    H2 4929   4.159   4.707   0.510
 1658TIP3   OH2 4930   4.263   6.112   0.656
 1658TIP3    H1 4931   4.182   6.066   0.627
 1658TIP3    H2 4932   4.281   6.068   0.740
 1659TIP3   OH2 4933   5.818   4.870   0.319
 1659TIP3    H1 4934   5.739   4.834   0.276
 1659TIP3    H2 4935   5.880   4.795   0.313
 1660TIP3   OH2 4936   4.045   6.397   0.351
 1660TIP3    H1 4937   4.034   6.461   0.280
 1660TIP3    H2 4938   4.101   6.331   0.310
 1661TIP3   OH2 4939   4.301   4.497  -0.020
 1661TIP3    H1 4940   4.207   4.471  -0.026
 1661TIP3    H2 4941   4.345   4.416  -0.050
 1662TIP3   OH2 4942   4.527   4.788   0.822
 1662TIP3    H1 4943   4.484   4.723   0.879
 1662TIP3    H2 4944   4.619   4.784   0.858
 1663TIP3   OH2 4945   4.776   4.776   0.957
 1663TIP3    H1 4946   4.854   4.765   0.901
 1663TIP3    H2 4947   4.806   4.728   1.038
 1664TIP3   OH2 4948   5.599   4.853   0.729
 1664TIP3    H1 4949   5.613   4.825   0.822
 1664TIP3    H2 4950   5.691   4.848   0.694
 1665TIP3   OH2 4951   0.385   6.035   1.814
 1665TIP3    H1 4952   0.413   5.951   1.771
 1665TIP3    H2 4953   0.289   6.027   1.824
 1666TIP3   OH2 4954   1.852   6.364   0.589
 1666TIP3    H1 4955   1.890   6.447   0.624
 1666TIP3    H2 4956   1.876   6.369   0.494
 1667TIP3   OH2 4957   1.939   6.577   0.753
 1667TIP3    H1 4958   1.873   6.637   0.712
 1667TIP3    H2 4959   1.953   6.618   0.840
 1668TIP3   OH2 4960   1.676   6.260   0.777
 1668TIP3    H1 4961   1.585   6.292   0.763
 1668TIP3    H2 4962   1.724   6.294   0.699
 1669TIP3   OH2 4963   1.712   6.750   1.068
 1669TIP3    H1 4964   1.627   6.759   1.024
 1669TIP3    H2 4965   1.729   6.654   1.059
 1670TIP3   OH2 4966   1.240   6.086   1.085
 1670TIP3    H1 4967   1.317   6.059   1.140
 1670TIP3    H2 4968   1.166   6.073   1.146
 1671TIP3   OH2 4969   1.490   6.543   0.982
 1671TIP3    H1 4970   1.446   6.509   1.063
 1671TIP3    H2 4971   1.430   6.618   0.965
 1672TIP3   OH2 4972   1.189   6.782   1.244
 1672TIP3    H1 4973   1.160   6.691   1.264
 1672TIP3    H2 4974   1.279   6.781   1.281
 1673TIP3   OH2 4975   1.354   6.283   0.932
 1673TIP3    H1 4976   1.393   6.327   1.008
 1673TIP3    H2 4977   1.314   6.205   0.976
 1674TIP3   OH2 4978   1.752   6.489   0.981
 1674TIP3    H1 4979   1.654   6.493   0.980
 1674TIP3    H2 4980   1.770   6.442   0.898
 1675TIP3   OH2 4981   1.236   7.093   1.315
 1675TIP3    H1 4982   1.323   7.123   1.286
 1675TIP3    H2 4983   1.257   7.033   1.388
 1676TIP3   OH2 4984   1.463   6.768   1.320
 1676TIP3    H1 4985   1.518   6.690   1.338
 1676TIP3    H2 4986   1.530   6.834   1.295
 1677TIP3   OH2 4987   1.510   7.021   1.054
 1677TIP3    H1 4988   1.454   7.093   1.018
 1677TIP3    H2 4989   1.592   7.041   1.006
 1678TIP3   OH2 4990   0.970   6.003   1.149
 1678TIP3    H1 4991   0.960   6.053   1.065
 1678TIP3    H2 4992   0.979   5.912   1.118
 1679TIP3   OH2 4993   1.110   6.542   1.360
 1679TIP3    H1 4994   1.136   6.548   1.454
 1679TIP3    H2 4995   1.041   6.474   1.367
 1680TIP3   OH2 4996   1.354   6.463   1.200
 1680TIP3    H1 4997   1.279   6.478   1.259
 1680TIP3    H2 4998   1.428   6.446   1.263
 1681TIP3   OH2 4999   1.572   6.421   1.358
 1681TIP3    H1 5000   1.588   6.327   1.378
 1681TIP3    H2 5001   1.569   6.462   1.448
 1682TIP3   OH2 5002   1.083   6.041   1.404
 1682TIP3    H1 5003   1.145   5.966   1.395
 1682TIP3    H2 5004   1.025   6.027   1.326
 1683TIP3   OH2 5005   1.146   6.258   1.558
 1683TIP3    H1 5006   1.130   6.181   1.499
 1683TIP3    H2 5007   1.061   6.304   1.554
 1684TIP3   OH2 5008   1.706   7.442   1.136
 1684TIP3    H1 5009   1.632   7.438   1.201
 1684TIP3    H2 5010   1.743   7.530   1.155
 1685TIP3   OH2 5011   1.775   7.101   0.936
 1685TIP3    H1 5012   1.832   7.023   0.954
 1685TIP3    H2 5013   1.795   7.115   0.843
 1686TIP3   OH2 5014   1.927   6.886   0.982
 1686TIP3    H1 5015   1.855   6.832   1.020
 1686TIP3    H2 5016   2.002   6.823   0.988
 1687TIP3   OH2 5017   2.128   6.285   1.275
 1687TIP3    H1 5018   2.193   6.224   1.235
 1687TIP3    H2 5019   2.101   6.340   1.198
 1688TIP3   OH2 5020   2.004   6.426   1.080
 1688TIP3    H1 5021   1.920   6.471   1.102
 1688TIP3    H2 5022   1.969   6.354   1.024
 1689TIP3   OH2 5023   1.900   6.195   0.961
 1689TIP3    H1 5024   1.812   6.190   0.919
 1689TIP3    H2 5025   1.933   6.103   0.950
 1690TIP3   OH2 5026   1.693   5.990   0.489
 1690TIP3    H1 5027   1.716   6.068   0.439
 1690TIP3    H2 5028   1.600   5.975   0.462
 1691TIP3   OH2 5029   6.898   2.806   8.075
 1691TIP3    H1 5030   6.911   2.775   8.166
 1691TIP3    H2 5031   6.953   2.885   8.080
 1692TIP3   OH2 5032   0.813   6.093   1.644
 1692TIP3    H1 5033   0.889   6.053   1.599
 1692TIP3    H2 5034   0.776   6.016   1.692
 1693TIP3   OH2 5035   1.641   6.153   1.391
 1693TIP3    H1 5036   1.658   6.122   1.482
 1693TIP3    H2 5037   1.731   6.150   1.352
 1694TIP3   OH2 5038   2.162   6.982   0.424
 1694TIP3    H1 5039   2.190   6.910   0.482
 1694TIP3    H2 5040   2.243   7.009   0.381
 1695TIP3   OH2 5041   2.407   6.479   0.080
 1695TIP3    H1 5042   2.343   6.526   0.024
 1695TIP3    H2 5043   2.389   6.387   0.053
 1696TIP3   OH2 5044   3.716   6.830   0.253
 1696TIP3    H1 5045   3.679   6.916   0.227
 1696TIP3    H2 5046   3.779   6.856   0.322
 1697TIP3   OH2 5047   2.389   6.441   0.518
 1697TIP3    H1 5048   2.335   6.480   0.445
 1697TIP3    H2 5049   2.333   6.465   0.595
 1698TIP3   OH2 5050   2.537   7.232   0.293
 1698TIP3    H1 5051   2.446   7.259   0.315
 1698TIP3    H2 5052   2.574   7.315   0.261
 1699TIP3   OH2 5053   2.261   6.547   0.304
 1699TIP3    H1 5054   2.300   6.635   0.323
 1699TIP3    H2 5055   2.313   6.523   0.224
 1700TIP3   OH2 5056   3.409   6.489   0.233
 1700TIP3    H1 5057   3.312   6.495   0.220
 1700TIP3    H2 5058   3.435   6.578   0.201
 1701TIP3   OH2 5059   2.742   6.172   0.223
 1701TIP3    H1 5060   2.740   6.077   0.245
 1701TIP3    H2 5061   2.665   6.205   0.275
 1702TIP3   OH2 5062   3.256   7.054   0.384
 1702TIP3    H1 5063   3.245   7.122   0.453
 1702TIP3    H2 5064   3.164   7.048   0.349
 1703TIP3   OH2 5065   2.422   6.984   0.235
 1703TIP3    H1 5066   2.429   6.966   0.140
 1703TIP3    H2 5067   2.476   7.065   0.245
 1704TIP3   OH2 5068   2.561   7.454   0.547
 1704TIP3    H1 5069   2.526   7.540   0.578
 1704TIP3    H2 5070   2.481   7.414   0.513
 1705TIP3   OH2 5071   2.296   7.103   0.666
 1705TIP3    H1 5072   2.296   7.190   0.711
 1705TIP3    H2 5073   2.201   7.088   0.652
 1706TIP3   OH2 5074   3.500   7.004   0.533
 1706TIP3    H1 5075   3.423   7.015   0.475
 1706TIP3    H2 5076   3.513   6.907   0.533
 1707TIP3   OH2 5077   2.085   7.413   0.602
 1707TIP3    H1 5078   2.164   7.403   0.659
 1707TIP3    H2 5079   2.037   7.331   0.620
 1708TIP3   OH2 5080   2.506   6.241   0.357
 1708TIP3    H1 5081   2.417   6.214   0.328
 1708TIP3    H2 5082   2.483   6.324   0.404
 1709TIP3   OH2 5083   3.043   6.360   0.551
 1709TIP3    H1 5084   3.114   6.332   0.612
 1709TIP3    H2 5085   2.962   6.339   0.601
 1710TIP3   OH2 5086   3.270   6.786   0.461
 1710TIP3    H1 5087   3.224   6.790   0.548
 1710TIP3    H2 5088   3.257   6.876   0.426
 1711TIP3   OH2 5089   2.429   6.756   0.379
 1711TIP3    H1 5090   2.387   6.787   0.462
 1711TIP3    H2 5091   2.428   6.838   0.325
 1712TIP3   OH2 5092   2.990   6.999   0.692
 1712TIP3    H1 5093   2.973   6.930   0.759
 1712TIP3    H2 5094   3.080   7.027   0.718
 1713TIP3   OH2 5095   2.261   6.787   0.605
 1713TIP3    H1 5096   2.327   6.832   0.659
 1713TIP3    H2 5097   2.254   6.700   0.648
 1714TIP3   OH2 5098   2.994   7.006   0.311
 1714TIP3    H1 5099   2.977   6.988   0.217
 1714TIP3    H2 5100   2.954   6.930   0.356
 1715TIP3   OH2 5101   2.667   6.471  -0.025
 1715TIP3    H1 5102   2.586   6.496   0.023
 1715TIP3    H2 5103   2.732   6.461   0.046
 1716TIP3   OH2 5104   3.134   6.509   0.189
 1716TIP3    H1 5105   3.106   6.562   0.266
 1716TIP3    H2 5106   3.051   6.463   0.167
 1717TIP3   OH2 5107   2.279   7.348   0.793
 1717TIP3    H1 5108   2.359   7.373   0.844
 1717TIP3    H2 5109   2.213   7.339   0.864
 1718TIP3   OH2 5110   2.829   6.769   0.126
 1718TIP3    H1 5111   2.792   6.705   0.065
 1718TIP3    H2 5112   2.804   6.732   0.213
 1719TIP3   OH2 5113   2.326   6.247  -0.044
 1719TIP3    H1 5114   2.302   6.159  -0.012
 1719TIP3    H2 5115   2.411   6.230  -0.089
 1720TIP3   OH2 5116   2.700   6.686   0.357
 1720TIP3    H1 5117   2.610   6.724   0.361
 1720TIP3    H2 5118   2.753   6.749   0.411
 1721TIP3   OH2 5119   2.856   7.439   0.434
 1721TIP3    H1 5120   2.892   7.376   0.498
 1721TIP3    H2 5121   2.769   7.457   0.469
 1722TIP3   OH2 5122   2.000   7.056   0.745
 1722TIP3    H1 5123   2.048   7.035   0.828
 1722TIP3    H2 5124   1.990   6.969   0.706
 1723TIP3   OH2 5125   2.752   7.119   0.741
 1723TIP3    H1 5126   2.700   7.075   0.672
 1723TIP3    H2 5127   2.843   7.091   0.716
 1724TIP3   OH2 5128   2.231   6.527   0.731
 1724TIP3    H1 5129   2.135   6.531   0.746
 1724TIP3    H2 5130   2.262   6.473   0.807
 1725TIP3   OH2 5131   3.053   6.610   0.433
 1725TIP3    H1 5132   3.138   6.648   0.461
 1725TIP3    H2 5133   3.051   6.525   0.482
 1726TIP3   OH2 5134   2.889   6.828   0.493
 1726TIP3    H1 5135   2.927   6.884   0.565
 1726TIP3    H2 5136   2.950   6.752   0.492
 1727TIP3   OH2 5137   3.537   6.736   0.480
 1727TIP3    H1 5138   3.439   6.731   0.472
 1727TIP3    H2 5139   3.564   6.734   0.387
 1728TIP3   OH2 5140   2.241   6.163   0.323
 1728TIP3    H1 5141   2.213   6.126   0.237
 1728TIP3    H2 5142   2.233   6.085   0.382
 1729TIP3   OH2 5143   2.060   7.296   0.962
 1729TIP3    H1 5144   2.099   7.206   0.962
 1729TIP3    H2 5145   1.968   7.276   0.982
 1730TIP3   OH2 5146   2.680   7.378   0.778
 1730TIP3    H1 5147   2.651   7.400   0.688
 1730TIP3    H2 5148   2.718   7.289   0.766
 1731TIP3   OH2 5149   3.146   7.433   0.380
 1731TIP3    H1 5150   3.184   7.502   0.325
 1731TIP3    H2 5151   3.057   7.470   0.397
 1732TIP3   OH2 5152   2.192   7.057   0.963
 1732TIP3    H1 5153   2.275   7.017   0.933
 1732TIP3    H2 5154   2.217   7.089   1.052
 1733TIP3   OH2 5155   2.509   6.936   0.617
 1733TIP3    H1 5156   2.444   7.009   0.629
 1733TIP3    H2 5157   2.571   6.975   0.552
 1734TIP3   OH2 5158   3.041   7.337   0.749
 1734TIP3    H1 5159   3.126   7.316   0.708
 1734TIP3    H2 5160   3.047   7.287   0.832
 1735TIP3   OH2 5161   2.639   6.738   0.754
 1735TIP3    H1 5162   2.646   6.658   0.697
 1735TIP3    H2 5163   2.599   6.803   0.693
 1736TIP3   OH2 5164   2.644   6.520   0.570
 1736TIP3    H1 5165   2.673   6.565   0.488
 1736TIP3    H2 5166   2.551   6.497   0.550
 1737TIP3   OH2 5167   2.681   7.057   0.450
 1737TIP3    H1 5168   2.771   7.053   0.416
 1737TIP3    H2 5169   2.638   7.121   0.390
 1738TIP3   OH2 5170   3.252   7.026   0.811
 1738TIP3    H1 5171   3.310   6.948   0.815
 1738TIP3    H2 5172   3.311   7.093   0.773
 1739TIP3   OH2 5173   3.260   7.261   0.562
 1739TIP3    H1 5174   3.217   7.327   0.504
 1739TIP3    H2 5175   3.353   7.289   0.557
 1740TIP3   OH2 5176   2.516   6.849   0.983
 1740TIP3    H1 5177   2.452   6.776   0.998
 1740TIP3    H2 5178   2.555   6.823   0.897
 1741TIP3   OH2 5179   2.780   6.285   0.630
 1741TIP3    H1 5180   2.730   6.367   0.609
 1741TIP3    H2 5181   2.713   6.216   0.616
 1742TIP3   OH2 5182   2.907   6.786   0.843
 1742TIP3    H1 5183   2.897   6.776   0.939
 1742TIP3    H2 5184   2.816   6.764   0.814
 1743TIP3   OH2 5185   3.145   6.740   0.698
 1743TIP3    H1 5186   3.071   6.744   0.761
 1743TIP3    H2 5187   3.220   6.715   0.755
 1744TIP3   OH2 5188   3.366   6.684   0.854
 1744TIP3    H1 5189   3.383   6.588   0.867
 1744TIP3    H2 5190   3.368   6.719   0.945
 1745TIP3   OH2 5191   2.359   6.626   1.039
 1745TIP3    H1 5192   2.372   6.536   1.004
 1745TIP3    H2 5193   2.397   6.617   1.128
 1746TIP3   OH2 5194   2.867   6.293   0.890
 1746TIP3    H1 5195   2.937   6.226   0.883
 1746TIP3    H2 5196   2.832   6.291   0.798
 1747TIP3   OH2 5197   2.936   6.510   1.047
 1747TIP3    H1 5198   2.916   6.439   0.982
 1747TIP3    H2 5199   2.859   6.569   1.037
 1748TIP3   OH2 5200   3.504   7.707   0.586
 1748TIP3    H1 5201   3.443   7.689   0.661
 1748TIP3    H2 5202   3.573   7.758   0.629
 1749TIP3   OH2 5203   3.524   7.331   0.499
 1749TIP3    H1 5204   3.598   7.267   0.507
 1749TIP3    H2 5205   3.546   7.367   0.411
 1750TIP3   OH2 5206   3.726   7.146   0.527
 1750TIP3    H1 5207   3.646   7.088   0.527
 1750TIP3    H2 5208   3.793   7.084   0.494
 1751TIP3   OH2 5209   2.093   6.673   0.996
 1751TIP3    H1 5210   2.191   6.671   1.004
 1751TIP3    H2 5211   2.071   6.588   1.038
 1752TIP3   OH2 5212   3.925   6.548   0.765
 1752TIP3    H1 5213   3.985   6.478   0.731
 1752TIP3    H2 5214   3.906   6.598   0.683
 1753TIP3   OH2 5215   2.052   6.370   0.349
 1753TIP3    H1 5216   2.123   6.303   0.356
 1753TIP3    H2 5217   2.106   6.449   0.329
 1754TIP3   OH2 5218   3.795   6.687   0.564
 1754TIP3    H1 5219   3.707   6.724   0.583
 1754TIP3    H2 5220   3.770   6.608   0.514
 1755TIP3   OH2 5221   2.053   6.219   0.720
 1755TIP3    H1 5222   2.008   6.230   0.805
 1755TIP3    H2 5223   1.990   6.264   0.660
 1756TIP3   OH2 5224   3.698   6.443   0.455
 1756TIP3    H1 5225   3.607   6.426   0.426
 1756TIP3    H2 5226   3.738   6.353   0.444
 1757TIP3   OH2 5227   2.924   6.345   0.082
 1757TIP3    H1 5228   2.863   6.288   0.132
 1757TIP3    H2 5229   2.943   6.289   0.006
 1758TIP3   OH2 5230   2.148   6.047   0.092
 1758TIP3    H1 5231   2.060   6.005   0.092
 1758TIP3    H2 5232   2.203   5.966   0.083
 1759TIP3   OH2 5233   2.599   6.064   0.009
 1759TIP3    H1 5234   2.680   6.044  -0.043
 1759TIP3    H2 5235   2.639   6.118   0.080
 1760TIP3   OH2 5236   2.359   6.346   0.965
 1760TIP3    H1 5237   2.324   6.278   1.024
 1760TIP3    H2 5238   2.453   6.347   0.994
 1761TIP3   OH2 5239   2.608   6.347   1.087
 1761TIP3    H1 5240   2.695   6.331   1.047
 1761TIP3    H2 5241   2.603   6.276   1.154
 1762TIP3   OH2 5242   3.436   6.413   0.877
 1762TIP3    H1 5243   3.455   6.380   0.968
 1762TIP3    H2 5244   3.526   6.410   0.836
 1763TIP3   OH2 5245   3.884   7.563   0.478
 1763TIP3    H1 5246   3.918   7.471   0.468
 1763TIP3    H2 5247   3.800   7.555   0.432
 1764TIP3   OH2 5248   3.998   7.317   0.458
 1764TIP3    H1 5249   4.018   7.223   0.457
 1764TIP3    H2 5250   4.022   7.343   0.549
 1765TIP3   OH2 5251   4.321   7.096   0.454
 1765TIP3    H1 5252   4.256   7.034   0.493
 1765TIP3    H2 5253   4.370   7.035   0.394
 1766TIP3   OH2 5254   4.151   6.897   0.534
 1766TIP3    H1 5255   4.151   6.804   0.502
 1766TIP3    H2 5256   4.190   6.883   0.623
 1767TIP3   OH2 5257   4.731   6.764   0.523
 1767TIP3    H1 5258   4.698   6.703   0.455
 1767TIP3    H2 5259   4.655   6.827   0.533
 1768TIP3   OH2 5260   3.889   6.928   0.465
 1768TIP3    H1 5261   3.985   6.926   0.486
 1768TIP3    H2 5262   3.861   6.848   0.515
 1769TIP3   OH2 5263   3.806   6.513   0.198
 1769TIP3    H1 5264   3.793   6.479   0.288
 1769TIP3    H2 5265   3.787   6.606   0.210
 1770TIP3   OH2 5266   4.154   6.632   0.480
 1770TIP3    H1 5267   4.123   6.544   0.455
 1770TIP3    H2 5268   4.244   6.614   0.512
 1771TIP3   OH2 5269   4.408   6.607   0.592
 1771TIP3    H1 5270   4.495   6.577   0.562
 1771TIP3    H2 5271   4.387   6.537   0.658
 1772TIP3   OH2 5272   1.390   0.037   3.993
 1772TIP3    H1 5273   1.390  -0.004   4.080
 1772TIP3    H2 5274   1.417   0.127   4.012
 1773TIP3   OH2 5275   1.048   0.504   3.978
 1773TIP3    H1 5276   1.096   0.425   3.950
 1773TIP3    H2 5277   1.032   0.486   4.072
 1774TIP3   OH2 5278   1.993  -0.507   4.526
 1774TIP3    H1 5279   1.918  -0.449   4.502
 1774TIP3    H2 5280   2.054  -0.446   4.568
 1775TIP3   OH2 5281   1.458   0.298   4.132
 1775TIP3    H1 5282   1.365   0.296   4.162
 1775TIP3    H2 5283   1.461   0.385   4.088
 1776TIP3   OH2 5284   1.684   0.208   4.480
 1776TIP3    H1 5285   1.677   0.135   4.415
 1776TIP3    H2 5286   1.668   0.287   4.424
 1777TIP3   OH2 5287   1.879  -0.154   4.323
 1777TIP3    H1 5288   1.797  -0.099   4.327
 1777TIP3    H2 5289   1.912  -0.129   4.234
 1778TIP3   OH2 5290   1.206   0.312   4.227
 1778TIP3    H1 5291   1.197   0.397   4.276
 1778TIP3    H2 5292   1.191   0.246   4.296
 1779TIP3   OH2 5293   1.931   0.558   4.527
 1779TIP3    H1 5294   1.928   0.463   4.549
 1779TIP3    H2 5295   1.845   0.587   4.565
 1780TIP3   OH2 5296   1.051   0.370   4.625
 1780TIP3    H1 5297   1.043   0.453   4.676
 1780TIP3    H2 5298   0.978   0.318   4.663
 1781TIP3   OH2 5299   1.815  -0.328   4.800
 1781TIP3    H1 5300   1.736  -0.272   4.802
 1781TIP3    H2 5301   1.780  -0.416   4.787
 1782TIP3   OH2 5302   1.615   0.911   4.622
 1782TIP3    H1 5303   1.627   0.928   4.528
 1782TIP3    H2 5304   1.694   0.951   4.662
 1783TIP3   OH2 5305   1.647  -0.003   4.304
 1783TIP3    H1 5306   1.684   0.051   4.230
 1783TIP3    H2 5307   1.565  -0.037   4.265
 1784TIP3   OH2 5308   1.318   0.325   4.600
 1784TIP3    H1 5309   1.223   0.348   4.600
 1784TIP3    H2 5310   1.350   0.385   4.670
 1785TIP3   OH2 5311   1.936   0.271   4.568
 1785TIP3    H1 5312   1.838   0.265   4.564
 1785TIP3    H2 5313   1.959   0.242   4.477
 1786TIP3   OH2 5314   1.426  -0.147   4.215
 1786TIP3    H1 5315   1.336  -0.164   4.250
 1786TIP3    H2 5316   1.437  -0.215   4.148
 1787TIP3   OH2 5317   0.832   0.441   4.468
 1787TIP3    H1 5318   0.857   0.512   4.407
 1787TIP3    H2 5319   0.915   0.427   4.517
 1788TIP3   OH2 5320   1.250   0.096   4.418
 1788TIP3    H1 5321   1.221   0.140   4.498
 1788TIP3    H2 5322   1.346   0.108   4.424
 1789TIP3   OH2 5323   1.438   0.589   4.458
 1789TIP3    H1 5324   1.353   0.545   4.440
 1789TIP3    H2 5325   1.435   0.660   4.390
 1790TIP3   OH2 5326   1.471   0.562   4.056
 1790TIP3    H1 5327   1.425   0.613   3.986
 1790TIP3    H2 5328   1.564   0.586   4.035
 1791TIP3   OH2 5329   1.381   0.467   4.838
 1791TIP3    H1 5330   1.417   0.405   4.903
 1791TIP3    H2 5331   1.431   0.547   4.860
 1792TIP3   OH2 5332   1.474   0.105   4.622
 1792TIP3    H1 5333   1.558   0.137   4.582
 1792TIP3    H2 5334   1.423   0.189   4.622
 1793TIP3   OH2 5335   1.631  -0.065   4.780
 1793TIP3    H1 5336   1.576  -0.008   4.723
 1793TIP3    H2 5337   1.720  -0.038   4.748
 1794TIP3   OH2 5338   1.723   0.655   4.018
 1794TIP3    H1 5339   1.750   0.689   4.105
 1794TIP3    H2 5340   1.786   0.697   3.958
 1795TIP3   OH2 5341   1.750   0.680   4.297
 1795TIP3    H1 5342   1.709   0.591   4.295
 1795TIP3    H2 5343   1.821   0.663   4.360
 1796TIP3   OH2 5344   1.791   0.354   4.875
 1796TIP3    H1 5345   1.715   0.367   4.936
 1796TIP3    H2 5346   1.829   0.445   4.875
 1797TIP3   OH2 5347   1.799   0.131   4.125
 1797TIP3    H1 5348   1.848   0.066   4.071
 1797TIP3    H2 5349   1.799   0.210   4.067
 1798TIP3   OH2 5350   1.623   0.428   4.324
 1798TIP3    H1 5351   1.554   0.476   4.375
 1798TIP3    H2 5352   1.571   0.388   4.252
 1799TIP3   OH2 5353   1.864   0.025   4.682
 1799TIP3    H1 5354   1.936  -0.041   4.677
 1799TIP3    H2 5355   1.900   0.101   4.631
 1800TIP3   OH2 5356   2.029  -0.185   4.701
 1800TIP3    H1 5357   1.957  -0.234   4.744
 1800TIP3    H2 5358   2.105  -0.243   4.722
 1801TIP3   OH2 5359   1.708  -0.522   4.247
 1801TIP3    H1 5360   1.787  -0.494   4.197
 1801TIP3    H2 5361   1.721  -0.470   4.329
 1802TIP3   OH2 5362   1.760  -0.358   4.463
 1802TIP3    H1 5363   1.679  -0.317   4.495
 1802TIP3    H2 5364   1.806  -0.282   4.420
 1803TIP3   OH2 5365   1.281   0.542   3.668
 1803TIP3    H1 5366   1.331   0.495   3.601
 1803TIP3    H2 5367   1.349   0.580   3.726
 1804TIP3   OH2 5368   1.028   0.616   4.749
 1804TIP3    H1 5369   1.068   0.604   4.838
 1804TIP3    H2 5370   1.097   0.668   4.702
 1805TIP3   OH2 5371   1.211   0.752   4.597
 1805TIP3    H1 5372   1.286   0.703   4.561
 1805TIP3    H2 5373   1.258   0.818   4.652
 1806TIP3   OH2 5374   0.931   0.631   4.281
 1806TIP3    H1 5375   0.854   0.649   4.224
 1806TIP3    H2 5376   0.946   0.719   4.320
 1807TIP3   OH2 5377   1.194   0.565   4.332
 1807TIP3    H1 5378   1.099   0.586   4.320
 1807TIP3    H2 5379   1.236   0.644   4.296
 1808TIP3   OH2 5380   1.397   0.757   4.248
 1808TIP3    H1 5381   1.382   0.842   4.202
 1808TIP3    H2 5382   1.424   0.699   4.174
 1809TIP3   OH2 5383   1.683   0.637   4.598
 1809TIP3    H1 5384   1.595   0.609   4.566
 1809TIP3    H2 5385   1.660   0.719   4.646
 1810TIP3   OH2 5386   2.943   0.005   3.393
 1810TIP3    H1 5387   2.917   0.097   3.378
 1810TIP3    H2 5388   2.868  -0.042   3.354
 1811TIP3   OH2 5389   2.947   0.006   3.773
 1811TIP3    H1 5390   2.978  -0.009   3.864
 1811TIP3    H2 5391   2.901  -0.077   3.753
 1812TIP3   OH2 5392   2.239  -0.096   4.140
 1812TIP3    H1 5393   2.272  -0.167   4.198
 1812TIP3    H2 5394   2.311  -0.031   4.150
 1813TIP3   OH2 5395   3.186   0.316   3.457
 1813TIP3    H1 5396   3.172   0.251   3.527
 1813TIP3    H2 5397   3.216   0.394   3.507
 1814TIP3   OH2 5398   2.208   0.307   3.864
 1814TIP3    H1 5399   2.196   0.212   3.869
 1814TIP3    H2 5400   2.305   0.312   3.849
 1815TIP3   OH2 5401   2.012  -0.186   3.765
 1815TIP3    H1 5402   2.030  -0.263   3.822
 1815TIP3    H2 5403   2.077  -0.121   3.795
 1816TIP3   OH2 5404   2.854   0.782   3.477
 1816TIP3    H1 5405   2.891   0.703   3.433
 1816TIP3    H2 5406   2.807   0.745   3.551
 1817TIP3   OH2 5407   2.746   0.229   3.825
 1817TIP3    H1 5408   2.791   0.158   3.778
 1817TIP3    H2 5409   2.825   0.280   3.853
 1818TIP3   OH2 5410   3.160  -0.266   3.869
 1818TIP3    H1 5411   3.177  -0.357   3.896
 1818TIP3    H2 5412   3.120  -0.277   3.780
 1819TIP3   OH2 5413   2.460  -0.661   3.788
 1819TIP3    H1 5414   2.440  -0.569   3.761
 1819TIP3    H2 5415   2.393  -0.711   3.741
 1820TIP3   OH2 5416   3.150  -0.488   3.490
 1820TIP3    H1 5417   3.213  -0.533   3.550
 1820TIP3    H2 5418   3.203  -0.482   3.409
 1821TIP3   OH2 5419   2.096  -0.405   3.915
 1821TIP3    H1 5420   2.187  -0.397   3.950
 1821TIP3    H2 5421   2.108  -0.479   3.855
 1822TIP3   OH2 5422   2.563  -0.211   3.711
 1822TIP3    H1 5423   2.658  -0.227   3.732
 1822TIP3    H2 5424   2.530  -0.303   3.706
 1823TIP3   OH2 5425   3.787  -0.254   4.024
 1823TIP3    H1 5426   3.714  -0.202   3.985
 1823TIP3    H2 5427   3.849  -0.186   4.052
 1824TIP3   OH2 5428   2.838   0.235   3.256
 1824TIP3    H1 5429   2.789   0.224   3.174
 1824TIP3    H2 5430   2.796   0.317   3.290
 1825TIP3   OH2 5431   2.593   0.153   4.046
 1825TIP3    H1 5432   2.534   0.223   4.083
 1825TIP3    H2 5433   2.634   0.200   3.970
 1826TIP3   OH2 5434   2.355  -0.437   3.979
 1826TIP3    H1 5435   2.420  -0.385   4.030
 1826TIP3    H2 5436   2.384  -0.527   4.003
 1827TIP3   OH2 5437   2.425   0.350   4.145
 1827TIP3    H1 5438   2.402   0.437   4.107
 1827TIP3    H2 5439   2.345   0.335   4.200
 1828TIP3   OH2 5440   3.255   0.553   3.614
 1828TIP3    H1 5441   3.167   0.546   3.658
 1828TIP3    H2 5442   3.247   0.643   3.574
 1829TIP3   OH2 5443   2.960   0.595   3.293
 1829TIP3    H1 5444   3.013   0.515   3.274
 1829TIP3    H2 5445   3.019   0.663   3.254
 1830TIP3   OH2 5446   3.107   0.376   3.201
 1830TIP3    H1 5447   3.043   0.306   3.188
 1830TIP3    H2 5448   3.147   0.351   3.287
 1831TIP3   OH2 5449   3.482   0.464   3.968
 1831TIP3    H1 5450   3.468   0.389   3.906
 1831TIP3    H2 5451   3.461   0.541   3.910
 1832TIP3   OH2 5452   2.779  -0.142   3.218
 1832TIP3    H1 5453   2.698  -0.093   3.195
 1832TIP3    H2 5454   2.821  -0.158   3.132
 1833TIP3   OH2 5455   3.678   0.108   3.812
 1833TIP3    H1 5456   3.594   0.158   3.815
 1833TIP3    H2 5457   3.709   0.131   3.722
 1834TIP3   OH2 5458   3.126  -0.046   3.195
 1834TIP3    H1 5459   3.070  -0.028   3.275
 1834TIP3    H2 5460   3.210  -0.070   3.239
 1835TIP3   OH2 5461   3.353  -0.018   4.113
 1835TIP3    H1 5462   3.350   0.064   4.166
 1835TIP3    H2 5463   3.266  -0.012   4.068
 1836TIP3   OH2 5464   2.357  -0.063   3.609
 1836TIP3    H1 5465   2.340  -0.106   3.524
 1836TIP3    H2 5466   2.435  -0.112   3.643
 1837TIP3   OH2 5467   2.466   0.305   3.773
 1837TIP3    H1 5468   2.463   0.322   3.679
 1837TIP3    H2 5469   2.562   0.303   3.791
 1838TIP3   OH2 5470   2.492  -0.089   3.966
 1838TIP3    H1 5471   2.527  -0.107   3.877
 1838TIP3    H2 5472   2.532  -0.002   3.988
 1839TIP3   OH2 5473   3.020   0.547   3.743
 1839TIP3    H1 5474   3.002   0.632   3.788
 1839TIP3    H2 5475   2.998   0.481   3.812
 1840TIP3   OH2 5476   2.630   0.465   4.293
 1840TIP3    H1 5477   2.569   0.528   4.336
 1840TIP3    H2 5478   2.566   0.414   4.239
 1841TIP3   OH2 5479   2.978  -0.195   3.021
 1841TIP3    H1 5480   3.033  -0.134   3.076
 1841TIP3    H2 5481   3.004  -0.170   2.930
 1842TIP3   OH2 5482   2.374   0.031   4.385
 1842TIP3    H1 5483   2.383   0.117   4.432
 1842TIP3    H2 5484   2.282   0.008   4.408
 1843TIP3   OH2 5485   2.705   0.477   3.289
 1843TIP3    H1 5486   2.782   0.533   3.309
 1843TIP3    H2 5487   2.632   0.542   3.294
 1844TIP3   OH2 5488   2.423   0.632   4.377
 1844TIP3    H1 5489   2.388   0.638   4.286
 1844TIP3    H2 5490   2.343   0.610   4.429
 1845TIP3   OH2 5491   3.276   0.403   2.619
 1845TIP3    H1 5492   3.280   0.500   2.602
 1845TIP3    H2 5493   3.370   0.378   2.606
 1846TIP3   OH2 5494   1.999   0.166   4.327
 1846TIP3    H1 5495   1.935   0.147   4.256
 1846TIP3    H2 5496   2.039   0.079   4.347
 1847TIP3   OH2 5497   1.859   0.355   3.963
 1847TIP3    H1 5498   1.955   0.362   3.951
 1847TIP3    H2 5499   1.841   0.437   4.011
 1848TIP3   OH2 5500   3.724   0.814   4.020
 1848TIP3    H1 5501   3.719   0.718   4.032
 1848TIP3    H2 5502   3.639   0.841   4.062
 1849TIP3   OH2 5503   2.831   0.594   4.154
 1849TIP3    H1 5504   2.827   0.687   4.184
 1849TIP3    H2 5505   2.755   0.555   4.203
 1850TIP3   OH2 5506   2.598   0.731   3.093
 1850TIP3    H1 5507   2.534   0.733   3.021
 1850TIP3    H2 5508   2.557   0.792   3.157
 1851TIP3   OH2 5509   2.014   0.592   3.489
 1851TIP3    H1 5510   2.083   0.587   3.558
 1851TIP3    H2 5511   1.980   0.501   3.490
 1852TIP3   OH2 5512   2.788   0.628   2.741
 1852TIP3    H1 5513   2.848   0.557   2.710
 1852TIP3    H2 5514   2.818   0.640   2.834
 1853TIP3   OH2 5515   2.843   0.671   3.005
 1853TIP3    H1 5516   2.754   0.687   3.045
 1853TIP3    H2 5517   2.891   0.640   3.084
 1854TIP3   OH2 5518   3.607  -0.075   4.294
 1854TIP3    H1 5519   3.530  -0.034   4.252
 1854TIP3    H2 5520   3.590  -0.168   4.275
 1855TIP3   OH2 5521   2.205   0.348   4.307
 1855TIP3    H1 5522   2.253   0.337   4.392
 1855TIP3    H2 5523   2.129   0.288   4.320
 1856TIP3   OH2 5524   3.384  -0.273   4.235
 1856TIP3    H1 5525   3.348  -0.240   4.318
 1856TIP3    H2 5526   3.363  -0.200   4.174
 1857TIP3   OH2 5527   3.042  -0.136   2.757
 1857TIP3    H1 5528   3.039  -0.157   2.663
 1857TIP3    H2 5529   3.124  -0.084   2.761
 1858TIP3   OH2 5530   2.552  -0.303   4.129
 1858TIP3    H1 5531   2.495  -0.283   4.206
 1858TIP3    H2 5532   2.539  -0.222   4.075
 1859TIP3   OH2 5533   2.413  -0.446   3.621
 1859TIP3    H1 5534   2.322  -0.417   3.606
 1859TIP3    H2 5535   2.450  -0.447   3.532
 1860TIP3   OH2 5536   2.909  -0.345   3.351
 1860TIP3    H1 5537   2.867  -0.269   3.306
 1860TIP3    H2 5538   2.968  -0.379   3.281
 1861TIP3   OH2 5539   3.094  -0.038   4.424
 1861TIP3    H1 5540   3.070  -0.117   4.477
 1861TIP3    H2 5541   3.188  -0.027   4.450
 1862TIP3   OH2 5542   3.045  -0.273   3.619
 1862TIP3    H1 5543   2.995  -0.222   3.553
 1862TIP3    H2 5544   3.067  -0.352   3.565
 1863TIP3   OH2 5545   2.356  -0.277   4.326
 1863TIP3    H1 5546   2.373  -0.209   4.393
 1863TIP3    H2 5547   2.338  -0.356   4.379
 1864TIP3   OH2 5548   3.070  -0.061   4.017
 1864TIP3    H1 5549   3.110  -0.132   3.961
 1864TIP3    H2 5550   3.045  -0.115   4.095
 1865TIP3   OH2 5551   3.446   1.152   4.099
 1865TIP3    H1 5552   3.389   1.192   4.031
 1865TIP3    H2 5553   3.430   1.217   4.169
 1866TIP3   OH2 5554   2.369   0.270   4.532
 1866TIP3    H1 5555   2.448   0.301   4.580
 1866TIP3    H2 5556   2.303   0.272   4.604
 1867TIP3   OH2 5557   2.816  -0.274   3.789
 1867TIP3    H1 5558   2.901  -0.297   3.751
 1867TIP3    H2 5559   2.823  -0.309   3.881
 1868TIP3   OH2 5560   2.826  -0.349   4.052
 1868TIP3    H1 5561   2.736  -0.347   4.089
 1868TIP3    H2 5562   2.879  -0.303   4.119
 1869TIP3   OH2 5563   2.539   0.004   3.176
 1869TIP3    H1 5564   2.442   0.008   3.174
 1869TIP3    H2 5565   2.550   0.043   3.266
 1870TIP3   OH2 5566   3.443   0.248   3.799
 1870TIP3    H1 5567   3.467   0.301   3.720
 1870TIP3    H2 5568   3.358   0.208   3.772
 1871TIP3   OH2 5569   2.938   0.330   4.173
 1871TIP3    H1 5570   2.971   0.321   4.262
 1871TIP3    H2 5571   2.903   0.422   4.173
 1872TIP3   OH2 5572   3.066  -0.428   3.139
 1872TIP3    H1 5573   3.162  -0.413   3.147
 1872TIP3    H2 5574   3.036  -0.351   3.088
 1873TIP3   OH2 5575   2.212  -0.007   3.845
 1873TIP3    H1 5576   2.265  -0.008   3.763
 1873TIP3    H2 5577   2.278  -0.031   3.912
 1874TIP3   OH2 5578   2.681   0.157   2.985
 1874TIP3    H1 5579   2.636   0.244   2.994
 1874TIP3    H2 5580   2.631   0.104   3.049
 1875TIP3   OH2 5581   2.121  -0.048   4.463
 1875TIP3    H1 5582   2.144  -0.058   4.557
 1875TIP3    H2 5583   2.047  -0.111   4.454
 1876TIP3   OH2 5584   2.845   0.072   4.485
 1876TIP3    H1 5585   2.783   0.019   4.432
 1876TIP3    H2 5586   2.931   0.044   4.449
 1877TIP3   OH2 5587   3.102   0.580   4.072
 1877TIP3    H1 5588   3.006   0.588   4.085
 1877TIP3    H2 5589   3.134   0.638   4.145
 1878TIP3   OH2 5590   3.511  -0.340   2.963
 1878TIP3    H1 5591   3.459  -0.393   2.900
 1878TIP3    H2 5592   3.496  -0.250   2.926
 1879TIP3   OH2 5593   3.732   0.520   4.056
 1879TIP3    H1 5594   3.634   0.518   4.047
 1879TIP3    H2 5595   3.758   0.492   3.966
 1880TIP3   OH2 5596   3.199   0.487   2.881
 1880TIP3    H1 5597   3.185   0.423   2.953
 1880TIP3    H2 5598   3.228   0.431   2.807
 1881TIP3   OH2 5599   3.209   0.115   3.715
 1881TIP3    H1 5600   3.116   0.091   3.730
 1881TIP3    H2 5601   3.242   0.035   3.669
 1882TIP3   OH2 5602   2.343   0.347   3.468
 1882TIP3    H1 5603   2.362   0.441   3.454
 1882TIP3    H2 5604   2.246   0.346   3.474
 1883TIP3   OH2 5605   2.471   0.109   3.415
 1883TIP3    H1 5606   2.436   0.199   3.427
 1883TIP3    H2 5607   2.444   0.068   3.498
 1884TIP3   OH2 5608   2.616   0.673   3.966
 1884TIP3    H1 5609   2.638   0.737   3.896
 1884TIP3    H2 5610   2.704   0.653   4.002
 1885TIP3   OH2 5611   2.993   0.313   3.906
 1885TIP3    H1 5612   2.980   0.315   4.003
 1885TIP3    H2 5613   3.080   0.272   3.899
 1886TIP3   OH2 5614   2.965   0.208   2.788
 1886TIP3    H1 5615   3.029   0.181   2.859
 1886TIP3    H2 5616   2.882   0.191   2.835
 1887TIP3   OH2 5617   3.244   0.841   3.944
 1887TIP3    H1 5618   3.160   0.793   3.936
 1887TIP3    H2 5619   3.231   0.912   3.878
 1888TIP3   OH2 5620   3.278   0.676   2.576
 1888TIP3    H1 5621   3.363   0.722   2.570
 1888TIP3    H2 5622   3.223   0.741   2.623
 1889TIP3   OH2 5623   3.135   0.129   2.984
 1889TIP3    H1 5624   3.122   0.078   3.066
 1889TIP3    H2 5625   3.232   0.136   2.983
 1890TIP3   OH2 5626   2.045   0.544   4.098
 1890TIP3    H1 5627   2.105   0.478   4.138
 1890TIP3    H2 5628   2.068   0.623   4.149
 1891TIP3   OH2 5629   2.294   0.204   3.033
 1891TIP3    H1 5630   2.302   0.185   3.127
 1891TIP3    H2 5631   2.287   0.302   3.036
 1892TIP3   OH2 5632   2.545   0.390   2.998
 1892TIP3    H1 5633   2.472   0.411   3.059
 1892TIP3    H2 5634   2.573   0.478   2.973
 1893TIP3   OH2 5635   2.716  -0.529   3.400
 1893TIP3    H1 5636   2.783  -0.457   3.390
 1893TIP3    H2 5637   2.759  -0.585   3.465
 1894TIP3   OH2 5638   3.017  -0.224   4.228
 1894TIP3    H1 5639   3.013  -0.157   4.298
 1894TIP3    H2 5640   3.065  -0.294   4.273
 1895TIP3   OH2 5641   2.288   0.473   3.077
 1895TIP3    H1 5642   2.261   0.537   3.007
 1895TIP3    H2 5643   2.266   0.522   3.157
 1896TIP3   OH2 5644   3.296  -0.131   3.596
 1896TIP3    H1 5645   3.216  -0.180   3.622
 1896TIP3    H2 5646   3.367  -0.177   3.645
 1897TIP3   OH2 5647   3.266   0.824   3.541
 1897TIP3    H1 5648   3.222   0.869   3.465
 1897TIP3    H2 5649   3.360   0.844   3.521
 1898TIP3   OH2 5650   1.912   0.339   3.464
 1898TIP3    H1 5651   1.816   0.336   3.469
 1898TIP3    H2 5652   1.928   0.305   3.374
 1899TIP3   OH2 5653   2.036   0.860   4.523
 1899TIP3    H1 5654   2.122   0.861   4.570
 1899TIP3    H2 5655   2.016   0.765   4.524
 1900TIP3   OH2 5656   2.513   0.813   4.571
 1900TIP3    H1 5657   2.609   0.802   4.573
 1900TIP3    H2 5658   2.488   0.752   4.498
 1901TIP3   OH2 5659   2.489   0.402   2.716
 1901TIP3    H1 5660   2.483   0.355   2.800
 1901TIP3    H2 5661   2.527   0.336   2.657
 1902TIP3   OH2 5662   3.157   0.723   4.300
 1902TIP3    H1 5663   3.151   0.657   4.373
 1902TIP3    H2 5664   3.229   0.781   4.330
 1903TIP3   OH2 5665   2.940   0.431   2.612
 1903TIP3    H1 5666   2.982   0.378   2.683
 1903TIP3    H2 5667   3.012   0.439   2.546
 1904TIP3   OH2 5668   2.168   0.264   4.722
 1904TIP3    H1 5669   2.176   0.168   4.737
 1904TIP3    H2 5670   2.079   0.271   4.682
 1905TIP3   OH2 5671   2.773   0.349   4.498
 1905TIP3    H1 5672   2.731   0.372   4.413
 1905TIP3    H2 5673   2.801   0.256   4.486
 1906TIP3   OH2 5674   2.644   0.099   2.722
 1906TIP3    H1 5675   2.653   0.120   2.818
 1906TIP3    H2 5676   2.636   0.002   2.726
 1907TIP3   OH2 5677   3.264   0.357   4.104
 1907TIP3    H1 5678   3.340   0.400   4.061
 1907TIP3    H2 5679   3.196   0.426   4.092
 1908TIP3   OH2 5680   2.293  -0.009   4.705
 1908TIP3    H1 5681   2.379  -0.048   4.687
 1908TIP3    H2 5682   2.310   0.030   4.794
 1909TIP3   OH2 5683   2.619  -0.090   4.364
 1909TIP3    H1 5684   2.536  -0.038   4.358
 1909TIP3    H2 5685   2.667  -0.062   4.283
 1910TIP3   OH2 5686   3.137   0.283   4.503
 1910TIP3    H1 5687   3.209   0.250   4.449
 1910TIP3    H2 5688   3.127   0.214   4.570
 1911TIP3   OH2 5689   3.282  -0.051   2.642
 1911TIP3    H1 5690   3.252  -0.095   2.560
 1911TIP3    H2 5691   3.247   0.039   2.624
 1912TIP3   OH2 5692   2.708  -0.311   4.487
 1912TIP3    H1 5693   2.657  -0.368   4.428
 1912TIP3    H2 5694   2.682  -0.223   4.450
 1913TIP3   OH2 5695   2.781  -0.005   4.166
 1913TIP3    H1 5696   2.865   0.014   4.122
 1913TIP3    H2 5697   2.721   0.060   4.123
 1914TIP3   OH2 5698   3.345  -0.042   4.532
 1914TIP3    H1 5699   3.379  -0.096   4.606
 1914TIP3    H2 5700   3.419   0.017   4.512
 1915TIP3   OH2 5701   3.395   0.209   4.286
 1915TIP3    H1 5702   3.335   0.263   4.230
 1915TIP3    H2 5703   3.482   0.236   4.247
 1916TIP3   OH2 5704   2.587  -0.187   4.718
 1916TIP3    H1 5705   2.544  -0.263   4.758
 1916TIP3    H2 5706   2.647  -0.227   4.653
 1917TIP3   OH2 5707   2.985  -0.263   4.523
 1917TIP3    H1 5708   3.006  -0.292   4.614
 1917TIP3    H2 5709   2.888  -0.270   4.523
 1918TIP3   OH2 5710   2.256   0.656   2.874
 1918TIP3    H1 5711   2.353   0.657   2.865
 1918TIP3    H2 5712   2.233   0.724   2.808
 1919TIP3   OH2 5713   1.653   0.649   3.501
 1919TIP3    H1 5714   1.578   0.590   3.490
 1919TIP3    H2 5715   1.702   0.605   3.574
 1920TIP3   OH2 5716   1.771   0.526   3.711
 1920TIP3    H1 5717   1.780   0.447   3.766
 1920TIP3    H2 5718   1.835   0.586   3.755
 1921TIP3   OH2 5719   3.521   0.912   3.504
 1921TIP3    H1 5720   3.537   0.941   3.596
 1921TIP3    H2 5721   3.581   0.969   3.454
 1922TIP3   OH2 5722   3.544   0.932   3.780
 1922TIP3    H1 5723   3.505   0.842   3.784
 1922TIP3    H2 5724   3.616   0.923   3.844
 1923TIP3   OH2 5725   3.597   0.608   4.362
 1923TIP3    H1 5726   3.522   0.620   4.423
 1923TIP3    H2 5727   3.635   0.699   4.360
 1924TIP3   OH2 5728   3.413   0.125   2.972
 1924TIP3    H1 5729   3.479   0.192   2.945
 1924TIP3    H2 5730   3.455   0.090   3.054
 1925TIP3   OH2 5731   3.535  -0.004   3.177
 1925TIP3    H1 5732   3.470  -0.041   3.240
 1925TIP3    H2 5733   3.602   0.036   3.237
 1926TIP3   OH2 5734   3.594   0.387   3.613
 1926TIP3    H1 5735   3.645   0.321   3.563
 1926TIP3    H2 5736   3.589   0.462   3.550
 1927TIP3   OH2 5737   3.421   0.681   3.808
 1927TIP3    H1 5738   3.352   0.729   3.859
 1927TIP3    H2 5739   3.369   0.640   3.736
 1928TIP3   OH2 5740   3.467  -0.105   2.829
 1928TIP3    H1 5741   3.403  -0.086   2.757
 1928TIP3    H2 5742   3.447  -0.029   2.888
 1929TIP3   OH2 5743   3.340  -0.444   2.770
 1929TIP3    H1 5744   3.326  -0.356   2.736
 1929TIP3    H2 5745   3.246  -0.473   2.785
 1930TIP3   OH2 5746   3.350  -0.137   3.326
 1930TIP3    H1 5747   3.347  -0.232   3.303
 1930TIP3    H2 5748   3.336  -0.136   3.423
 1931TIP3   OH2 5749   1.976  -0.085   4.073
 1931TIP3    H1 5750   1.977  -0.096   3.977
 1931TIP3    H2 5751   2.073  -0.082   4.092
 1932TIP3   OH2 5752   3.640   0.276   4.183
 1932TIP3    H1 5753   3.713   0.211   4.171
 1932TIP3    H2 5754   3.663   0.347   4.121
 1933TIP3   OH2 5755   3.819   0.072   4.196
 1933TIP3    H1 5756   3.747   0.020   4.235
 1933TIP3    H2 5757   3.895   0.014   4.217
 1934TIP3   OH2 5758   3.341  -0.393   3.189
 1934TIP3    H1 5759   3.370  -0.471   3.242
 1934TIP3    H2 5760   3.408  -0.389   3.119
 1935TIP3   OH2 5761   3.504  -0.258   3.724
 1935TIP3    H1 5762   3.589  -0.234   3.682
 1935TIP3    H2 5763   3.519  -0.219   3.813
 1936TIP3   OH2 5764   3.570  -0.106   3.948
 1936TIP3    H1 5765   3.493  -0.070   3.996
 1936TIP3    H2 5766   3.605  -0.026   3.902
 1937TIP3   OH2 5767   2.193  -0.398   4.736
 1937TIP3    H1 5768   2.288  -0.400   4.751
 1937TIP3    H2 5769   2.163  -0.478   4.782
 1938TIP3   OH2 5770   1.949  -0.425   4.153
 1938TIP3    H1 5771   1.998  -0.413   4.069
 1938TIP3    H2 5772   1.973  -0.344   4.200
 1939TIP3   OH2 5773   3.099   0.780   3.155
 1939TIP3    H1 5774   3.159   0.778   3.078
 1939TIP3    H2 5775   3.141   0.846   3.213
 1940TIP3   OH2 5776   2.205   0.583   4.543
 1940TIP3    H1 5777   2.111   0.564   4.526
 1940TIP3    H2 5778   2.210   0.572   4.639
 1941TIP3   OH2 5779   2.381   0.618   4.091
 1941TIP3    H1 5780   2.337   0.696   4.051
 1941TIP3    H2 5781   2.469   0.629   4.049
 1942TIP3   OH2 5782   2.821   0.862   4.228
 1942TIP3    H1 5783   2.864   0.866   4.316
 1942TIP3    H2 5784   2.885   0.914   4.174
 1943TIP3   OH2 5785   2.997   1.011   4.083
 1943TIP3    H1 5786   3.069   0.963   4.040
 1943TIP3    H2 5787   3.050   1.066   4.146
 1944TIP3   OH2 5788   2.051   0.871   4.118
 1944TIP3    H1 5789   1.963   0.906   4.095
 1944TIP3    H2 5790   2.068   0.920   4.200
 1945TIP3   OH2 5791   2.294   0.852   3.981
 1945TIP3    H1 5792   2.205   0.864   4.020
 1945TIP3    H2 5793   2.280   0.890   3.892
 1946TIP3   OH2 5794   2.719   0.877   3.769
 1946TIP3    H1 5795   2.641   0.888   3.713
 1946TIP3    H2 5796   2.728   0.965   3.810
 1947TIP3   OH2 5797   2.988   0.815   3.823
 1947TIP3    H1 5798   2.895   0.835   3.803
 1947TIP3    H2 5799   3.033   0.892   3.784
 1948TIP3   OH2 5800   3.189   1.010   3.737
 1948TIP3    H1 5801   3.179   1.097   3.692
 1948TIP3    H2 5802   3.219   0.952   3.664
 1949TIP3   OH2 5803   1.966   0.666   3.855
 1949TIP3    H1 5804   1.996   0.641   3.945
 1949TIP3    H2 5805   2.039   0.625   3.803
 1950TIP3   OH2 5806   2.168   0.543   3.717
 1950TIP3    H1 5807   2.187   0.463   3.770
 1950TIP3    H2 5808   2.256   0.578   3.697
 1951TIP3   OH2 5809   1.719   0.448   3.234
 1951TIP3    H1 5810   1.626   0.450   3.256
 1951TIP3    H2 5811   1.749   0.535   3.264
 1952TIP3   OH2 5812   2.523   0.652   2.826
 1952TIP3    H1 5813   2.614   0.675   2.800
 1952TIP3    H2 5814   2.510   0.570   2.773
 1953TIP3   OH2 5815   3.251   0.751   2.922
 1953TIP3    H1 5816   3.239   0.654   2.916
 1953TIP3    H2 5817   3.203   0.780   2.843
 1954TIP3   OH2 5818   3.474   0.884   4.114
 1954TIP3    H1 5819   3.391   0.862   4.066
 1954TIP3    H2 5820   3.469   0.983   4.113
 1955TIP3   OH2 5821   4.740   0.263   2.881
 1955TIP3    H1 5822   4.712   0.355   2.863
 1955TIP3    H2 5823   4.668   0.214   2.837
 1956TIP3   OH2 5824   4.740   0.267   3.262
 1956TIP3    H1 5825   4.771   0.243   3.351
 1956TIP3    H2 5826   4.698   0.186   3.231
 1957TIP3   OH2 5827   4.035   0.161   3.626
 1957TIP3    H1 5828   4.068   0.089   3.683
 1957TIP3    H2 5829   4.115   0.214   3.616
 1958TIP3   OH2 5830   4.983   0.571   2.944
 1958TIP3    H1 5831   4.968   0.503   3.011
 1958TIP3    H2 5832   5.014   0.647   2.997
 1959TIP3   OH2 5833   4.010   0.568   3.346
 1959TIP3    H1 5834   4.002   0.470   3.349
 1959TIP3    H2 5835   4.107   0.578   3.342
 1960TIP3   OH2 5836   3.703  -0.221   3.144
 1960TIP3    H1 5837   3.654  -0.138   3.160
 1960TIP3    H2 5838   3.638  -0.271   3.093
 1961TIP3   OH2 5839   3.767   0.069   3.303
 1961TIP3    H1 5840   3.808  -0.014   3.336
 1961TIP3    H2 5841   3.839   0.111   3.255
 1962TIP3   OH2 5842   4.632   1.029   2.959
 1962TIP3    H1 5843   4.677   0.957   2.910
 1962TIP3    H2 5844   4.625   0.992   3.047
 1963TIP3   OH2 5845   4.536   0.491   3.309
 1963TIP3    H1 5846   4.579   0.415   3.266
 1963TIP3    H2 5847   4.617   0.539   3.335
 1964TIP3   OH2 5848   4.955  -0.010   3.355
 1964TIP3    H1 5849   4.971  -0.101   3.381
 1964TIP3    H2 5850   4.917  -0.018   3.266
 1965TIP3   OH2 5851   4.266  -0.386   3.286
 1965TIP3    H1 5852   4.246  -0.300   3.244
 1965TIP3    H2 5853   4.197  -0.442   3.249
 1966TIP3   OH2 5854   4.948  -0.231   2.974
 1966TIP3    H1 5855   5.006  -0.279   3.035
 1966TIP3    H2 5856   4.998  -0.241   2.892
 1967TIP3   OH2 5857   3.896  -0.148   3.402
 1967TIP3    H1 5858   3.987  -0.143   3.440
 1967TIP3    H2 5859   3.914  -0.208   3.328
 1968TIP3   OH2 5860   4.357   0.053   3.210
 1968TIP3    H1 5861   4.452   0.029   3.225
 1968TIP3    H2 5862   4.320  -0.033   3.184
 1969TIP3   OH2 5863   5.592  -0.001   3.511
 1969TIP3    H1 5864   5.519   0.052   3.473
 1969TIP3    H2 5865   5.650   0.067   3.545
 1970TIP3   OH2 5866   4.632   0.487   2.749
 1970TIP3    H1 5867   4.585   0.467   2.667
 1970TIP3    H2 5868   4.588   0.570   2.775
 1971TIP3   OH2 5869   4.392   0.411   3.532
 1971TIP3    H1 5870   4.332   0.479   3.569
 1971TIP3    H2 5871   4.433   0.459   3.458
 1972TIP3   OH2 5872   4.152  -0.178   3.474
 1972TIP3    H1 5873   4.223  -0.138   3.527
 1972TIP3    H2 5874   4.186  -0.267   3.461
 1973TIP3   OH2 5875   4.222   0.607   3.631
 1973TIP3    H1 5876   4.197   0.695   3.596
 1973TIP3    H2 5877   4.142   0.589   3.685
 1974TIP3   OH2 5878   3.614   0.298   2.867
 1974TIP3    H1 5879   3.569   0.340   2.792
 1974TIP3    H2 5880   3.642   0.377   2.918
 1975TIP3   OH2 5881   5.050   0.812   3.106
 1975TIP3    H1 5882   4.961   0.804   3.146
 1975TIP3    H2 5883   5.043   0.899   3.062
 1976TIP3   OH2 5884   4.752   0.854   2.779
 1976TIP3    H1 5885   4.803   0.772   2.761
 1976TIP3    H2 5886   4.814   0.920   2.741
 1977TIP3   OH2 5887   4.899   0.639   2.691
 1977TIP3    H1 5888   4.852   0.560   2.661
 1977TIP3    H2 5889   4.937   0.608   2.776
 1978TIP3   OH2 5890   5.277   0.721   3.454
 1978TIP3    H1 5891   5.265   0.645   3.393
 1978TIP3    H2 5892   5.258   0.797   3.394
 1979TIP3   OH2 5893   4.576   0.122   2.709
 1979TIP3    H1 5894   4.494   0.172   2.689
 1979TIP3    H2 5895   4.607   0.100   2.619
 1980TIP3   OH2 5896   4.528  -0.078   2.444
 1980TIP3    H1 5897   4.618  -0.054   2.470
 1980TIP3    H2 5898   4.541  -0.166   2.406
 1981TIP3   OH2 5899   5.473   0.363   3.299
 1981TIP3    H1 5900   5.389   0.414   3.302
 1981TIP3    H2 5901   5.505   0.387   3.210
 1982TIP3   OH2 5902   4.918   0.207   2.679
 1982TIP3    H1 5903   4.863   0.227   2.759
 1982TIP3    H2 5904   5.003   0.184   2.722
 1983TIP3   OH2 5905   5.149   0.239   3.597
 1983TIP3    H1 5906   5.145   0.322   3.649
 1983TIP3    H2 5907   5.063   0.242   3.552
 1984TIP3   OH2 5908   4.151   0.197   3.098
 1984TIP3    H1 5909   4.113   0.137   3.030
 1984TIP3    H2 5910   4.227   0.144   3.131
 1985TIP3   OH2 5911   4.279   0.608   3.246
 1985TIP3    H1 5912   4.259   0.574   3.158
 1985TIP3    H2 5913   4.368   0.571   3.264
 1986TIP3   OH2 5914   4.286   0.166   3.459
 1986TIP3    H1 5915   4.316   0.139   3.370
 1986TIP3    H2 5916   4.330   0.252   3.472
 1987TIP3   OH2 5917   4.811   0.806   3.229
 1987TIP3    H1 5918   4.798   0.888   3.281
 1987TIP3    H2 5919   4.794   0.735   3.295
 1988TIP3   OH2 5920   4.425   0.723   3.779
 1988TIP3    H1 5921   4.363   0.785   3.824
 1988TIP3    H2 5922   4.361   0.671   3.726
 1989TIP3   OH2 5923   4.769   0.053   2.507
 1989TIP3    H1 5924   4.819   0.120   2.558
 1989TIP3    H2 5925   4.793   0.078   2.414
 1990TIP3   OH2 5926   4.172   0.287   3.879
 1990TIP3    H1 5927   4.176   0.374   3.923
 1990TIP3    H2 5928   4.077   0.265   3.892
 1991TIP3   OH2 5929   4.503   0.733   2.773
 1991TIP3    H1 5930   4.584   0.785   2.789
 1991TIP3    H2 5931   4.438   0.802   2.750
 1992TIP3   OH2 5932   4.219   0.888   3.865
 1992TIP3    H1 5933   4.182   0.895   3.775
 1992TIP3    H2 5934   4.139   0.864   3.918
 1993TIP3   OH2 5935   4.020   0.038   2.895
 1993TIP3    H1 5936   3.945   0.080   2.848
 1993TIP3    H2 5937   3.984  -0.049   2.916
 1994TIP3   OH2 5938   5.071   0.663   2.104
 1994TIP3    H1 5939   5.080   0.760   2.091
 1994TIP3    H2 5940   5.165   0.635   2.094
 1995TIP3   OH2 5941   3.795   0.424   3.812
 1995TIP3    H1 5942   3.728   0.406   3.744
 1995TIP3    H2 5943   3.834   0.336   3.828
 1996TIP3   OH2 5944   3.652   0.616   3.444
 1996TIP3    H1 5945   3.748   0.617   3.438
 1996TIP3    H2 5946   3.635   0.696   3.497
 1997TIP3   OH2 5947   5.513   1.071   3.504
 1997TIP3    H1 5948   5.511   0.975   3.516
 1997TIP3    H2 5949   5.430   1.098   3.548
 1998TIP3   OH2 5950   4.621   0.851   3.636
 1998TIP3    H1 5951   4.618   0.944   3.667
 1998TIP3    H2 5952   4.549   0.812   3.690
 1999TIP3   OH2 5953   4.385   0.982   2.586
 1999TIP3    H1 5954   4.333   0.975   2.503
 1999TIP3    H2 5955   4.356   1.069   2.620
 2000TIP3   OH2 5956   3.820   0.840   2.981
 2000TIP3    H1 5957   3.868   0.824   3.065
 2000TIP3    H2 5958   3.784   0.752   2.963
 2001TIP3   OH2 5959   4.582   0.880   2.224
 2001TIP3    H1 5960   4.645   0.814   2.189
 2001TIP3    H2 5961   4.617   0.895   2.315
 2002TIP3   OH2 5962   4.635   0.931   2.491
 2002TIP3    H1 5963   4.547   0.944   2.535
 2002TIP3    H2 5964   4.688   0.899   2.565
 2003TIP3   OH2 5965   5.401   0.180   3.781
 2003TIP3    H1 5966   5.327   0.223   3.737
 2003TIP3    H2 5967   5.381   0.087   3.762
 2004TIP3   OH2 5968   4.001   0.605   3.792
 2004TIP3    H1 5969   4.047   0.595   3.878
 2004TIP3    H2 5970   3.926   0.543   3.802
 2005TIP3   OH2 5971   5.192  -0.012   3.722
 2005TIP3    H1 5972   5.143   0.011   3.801
 2005TIP3    H2 5973   5.165   0.057   3.659
 2006TIP3   OH2 5974   4.832   0.098   2.249
 2006TIP3    H1 5975   4.791   0.077   2.163
 2006TIP3    H2 5976   4.915   0.142   2.220
 2007TIP3   OH2 5977   4.353  -0.048   3.619
 2007TIP3    H1 5978   4.290  -0.029   3.693
 2007TIP3    H2 5979   4.337   0.030   3.562
 2008TIP3   OH2 5980   4.217  -0.169   3.125
 2008TIP3    H1 5981   4.121  -0.187   3.135
 2008TIP3    H2 5982   4.232  -0.198   3.032
 2009TIP3   OH2 5983   4.700  -0.080   2.846
 2009TIP3    H1 5984   4.657  -0.006   2.799
 2009TIP3    H2 5985   4.767  -0.110   2.781
 2010TIP3   OH2 5986   4.890   0.223   3.915
 2010TIP3    H1 5987   4.866   0.142   3.966
 2010TIP3    H2 5988   4.984   0.231   3.939
 2011TIP3   OH2 5989   4.843  -0.015   3.103
 2011TIP3    H1 5990   4.788   0.030   3.037
 2011TIP3    H2 5991   4.869  -0.094   3.051
 2012TIP3   OH2 5992   4.153  -0.020   3.810
 2012TIP3    H1 5993   4.168   0.047   3.879
 2012TIP3    H2 5994   4.135  -0.100   3.861
 2013TIP3   OH2 5995   3.784  -0.419   2.950
 2013TIP3    H1 5996   3.799  -0.403   2.854
 2013TIP3    H2 5997   3.691  -0.391   2.956
 2014TIP3   OH2 5998   4.869   0.195   3.505
 2014TIP3    H1 5999   4.907   0.124   3.448
 2014TIP3    H2 6000   4.844   0.141   3.582
 2015TIP3   OH2 6001   3.963  -0.288   3.164
 2015TIP3    H1 6002   3.871  -0.256   3.151
 2015TIP3    H2 6003   3.958  -0.370   3.114
 2016TIP3   OH2 6004   4.252  -0.271   2.874
 2016TIP3    H1 6005   4.346  -0.285   2.854
 2016TIP3    H2 6006   4.209  -0.276   2.787
 2017TIP3   OH2 6007   4.102  -0.275   2.634
 2017TIP3    H1 6008   4.014  -0.292   2.593
 2017TIP3    H2 6009   4.158  -0.282   2.556
 2018TIP3   OH2 6010   5.210   1.418   3.600
 2018TIP3    H1 6011   5.206   1.444   3.506
 2018TIP3    H2 6012   5.289   1.466   3.631
 2019TIP3   OH2 6013   4.163   0.527   4.021
 2019TIP3    H1 6014   4.243   0.559   4.068
 2019TIP3    H2 6015   4.097   0.533   4.093
 2020TIP3   OH2 6016   4.613  -0.018   3.275
 2020TIP3    H1 6017   4.698  -0.042   3.236
 2020TIP3    H2 6018   4.621  -0.052   3.367
 2021TIP3   OH2 6019   4.625  -0.089   3.538
 2021TIP3    H1 6020   4.534  -0.092   3.575
 2021TIP3    H2 6021   4.674  -0.043   3.608
 2022TIP3   OH2 6022   4.344   0.266   2.655
 2022TIP3    H1 6023   4.269   0.205   2.644
 2022TIP3    H2 6024   4.323   0.304   2.744
 2023TIP3   OH2 6025   5.239   0.505   3.286
 2023TIP3    H1 6026   5.263   0.557   3.206
 2023TIP3    H2 6027   5.154   0.464   3.259
 2024TIP3   OH2 6028   4.761  -0.344   2.480
 2024TIP3    H1 6029   4.708  -0.396   2.542
 2024TIP3    H2 6030   4.806  -0.283   2.541
 2025TIP3   OH2 6031   4.735   0.588   3.657
 2025TIP3    H1 6032   4.767   0.574   3.747
 2025TIP3    H2 6033   4.699   0.678   3.660
 2026TIP3   OH2 6034   4.876  -0.157   2.645
 2026TIP3    H1 6035   4.973  -0.146   2.655
 2026TIP3    H2 6036   4.852  -0.079   2.592
 2027TIP3   OH2 6037   4.030   0.286   3.333
 2027TIP3    H1 6038   4.071   0.261   3.247
 2027TIP3    H2 6039   4.080   0.231   3.395
 2028TIP3   OH2 6040   4.487   0.414   2.464
 2028TIP3    H1 6041   4.436   0.498   2.460
 2028TIP3    H2 6042   4.433   0.363   2.528
 2029TIP3   OH2 6043   3.915   0.208   3.949
 2029TIP3    H1 6044   3.930   0.194   4.045
 2029TIP3    H2 6045   3.840   0.149   3.931
 2030TIP3   OH2 6046   4.640   0.329   3.973
 2030TIP3    H1 6047   4.577   0.277   3.920
 2030TIP3    H2 6048   4.726   0.300   3.937
 2031TIP3   OH2 6049   4.897   0.843   3.556
 2031TIP3    H1 6050   4.801   0.846   3.569
 2031TIP3    H2 6051   4.927   0.898   3.632
 2032TIP3   OH2 6052   5.307  -0.078   2.450
 2032TIP3    H1 6053   5.248  -0.128   2.389
 2032TIP3    H2 6054   5.291   0.012   2.415
 2033TIP3   OH2 6055   5.527   0.778   3.543
 2033TIP3    H1 6056   5.430   0.774   3.532
 2033TIP3    H2 6057   5.555   0.749   3.452
 2034TIP3   OH2 6058   5.002   0.740   2.369
 2034TIP3    H1 6059   4.984   0.672   2.435
 2034TIP3    H2 6060   5.024   0.689   2.289
 2035TIP3   OH2 6061   5.005   0.371   3.204
 2035TIP3    H1 6062   4.911   0.346   3.217
 2035TIP3    H2 6063   5.038   0.291   3.158
 2036TIP3   OH2 6064   4.135   0.595   2.957
 2036TIP3    H1 6065   4.131   0.680   2.908
 2036TIP3    H2 6066   4.042   0.573   2.962
 2037TIP3   OH2 6067   3.693  -0.092   2.665
 2037TIP3    H1 6068   3.741  -0.010   2.685
 2037TIP3    H2 6069   3.621  -0.090   2.731
 2038TIP3   OH2 6070   4.264   0.359   2.896
 2038TIP3    H1 6071   4.232   0.449   2.917
 2038TIP3    H2 6072   4.234   0.309   2.974
 2039TIP3   OH2 6073   4.404   0.940   3.427
 2039TIP3    H1 6074   4.446   1.013   3.378
 2039TIP3    H2 6075   4.480   0.903   3.475
 2040TIP3   OH2 6076   4.057   0.830   2.817
 2040TIP3    H1 6077   3.966   0.840   2.851
 2040TIP3    H2 6078   4.088   0.923   2.819
 2041TIP3   OH2 6079   4.787   0.572   3.389
 2041TIP3    H1 6080   4.776   0.572   3.487
 2041TIP3    H2 6081   4.869   0.522   3.378
 2042TIP3   OH2 6082   4.751   0.458   2.278
 2042TIP3    H1 6083   4.818   0.435   2.347
 2042TIP3    H2 6084   4.670   0.445   2.330
 2043TIP3   OH2 6085   5.038   1.104   3.436
 2043TIP3    H1 6086   4.956   1.051   3.428
 2043TIP3    H2 6087   5.024   1.170   3.365
 2044TIP3   OH2 6088   5.104   0.940   2.091
 2044TIP3    H1 6089   5.143   1.014   2.042
 2044TIP3    H2 6090   5.024   0.984   2.124
 2045TIP3   OH2 6091   4.929   0.397   2.478
 2045TIP3    H1 6092   4.917   0.336   2.554
 2045TIP3    H2 6093   5.027   0.396   2.471
 2046TIP3   OH2 6094   3.842   0.800   3.584
 2046TIP3    H1 6095   3.899   0.734   3.626
 2046TIP3    H2 6096   3.857   0.878   3.639
 2047TIP3   OH2 6097   4.096   0.440   2.520
 2047TIP3    H1 6098   4.147   0.426   2.600
 2047TIP3    H2 6099   4.075   0.535   2.525
 2048TIP3   OH2 6100   3.811   0.146   2.748
 2048TIP3    H1 6101   3.744   0.197   2.798
 2048TIP3    H2 6102   3.853   0.215   2.695
 2049TIP3   OH2 6103   4.342   0.649   2.458
 2049TIP3    H1 6104   4.257   0.656   2.505
 2049TIP3    H2 6105   4.369   0.742   2.458
 2050TIP3   OH2 6106   4.534  -0.295   2.872
 2050TIP3    H1 6107   4.587  -0.212   2.864
 2050TIP3    H2 6108   4.567  -0.328   2.957
 2051TIP3   OH2 6109   4.814   0.034   3.716
 2051TIP3    H1 6110   4.810   0.099   3.789
 2051TIP3    H2 6111   4.859  -0.040   3.759
 2052TIP3   OH2 6112   4.091   0.716   2.553
 2052TIP3    H1 6113   4.059   0.788   2.495
 2052TIP3    H2 6114   4.062   0.748   2.641
 2053TIP3   OH2 6115   5.093   0.127   3.083
 2053TIP3    H1 6116   5.012   0.076   3.103
 2053TIP3    H2 6117   5.162   0.078   3.133
 2054TIP3   OH2 6118   3.744  -0.358   2.691
 2054TIP3    H1 6119   3.740  -0.263   2.672
 2054TIP3    H2 6120   3.661  -0.390   2.655
 2055TIP3   OH2 6121   5.060   1.082   3.029
 2055TIP3    H1 6122   5.017   1.128   2.954
 2055TIP3    H2 6123   5.155   1.102   3.009
 2056TIP3   OH2 6124   3.669   0.550   2.951
 2056TIP3    H1 6125   3.600   0.612   2.978
 2056TIP3    H2 6126   3.688   0.583   2.860
 2057TIP3   OH2 6127   3.833   1.109   4.002
 2057TIP3    H1 6128   3.917   1.115   4.053
 2057TIP3    H2 6129   3.811   1.015   4.011
 2058TIP3   OH2 6130   4.311   1.068   4.060
 2058TIP3    H1 6131   4.407   1.056   4.059
 2058TIP3    H2 6132   4.284   1.009   3.987
 2059TIP3   OH2 6133   4.294   0.648   2.184
 2059TIP3    H1 6134   4.300   0.627   2.279
 2059TIP3    H2 6135   4.372   0.601   2.149
 2060TIP3   OH2 6136   4.952   0.981   3.788
 2060TIP3    H1 6137   4.944   0.913   3.859
 2060TIP3    H2 6138   5.028   1.035   3.819
 2061TIP3   OH2 6139   4.730   0.690   2.091
 2061TIP3    H1 6140   4.778   0.634   2.155
 2061TIP3    H2 6141   4.789   0.688   2.013
 2062TIP3   OH2 6142   3.961   0.516   4.212
 2062TIP3    H1 6143   3.974   0.420   4.215
 2062TIP3    H2 6144   3.875   0.523   4.166
 2063TIP3   OH2 6145   3.927   0.137   2.406
 2063TIP3    H1 6146   3.985   0.135   2.484
 2063TIP3    H2 6147   3.991   0.110   2.337
 2064TIP3   OH2 6148   4.569   0.605   3.985
 2064TIP3    H1 6149   4.527   0.627   3.899
 2064TIP3    H2 6150   4.596   0.512   3.973
 2065TIP3   OH2 6151   5.060   0.615   3.593
 2065TIP3    H1 6152   5.137   0.657   3.548
 2065TIP3    H2 6153   4.992   0.683   3.577
 2066TIP3   OH2 6154   4.085   0.247   4.197
 2066TIP3    H1 6155   4.171   0.214   4.167
 2066TIP3    H2 6156   4.109   0.286   4.284
 2067TIP3   OH2 6157   4.146   0.068   2.621
 2067TIP3    H1 6158   4.119   0.040   2.710
 2067TIP3    H2 6159   4.176  -0.015   2.582
 2068TIP3   OH2 6160   4.417   0.169   3.855
 2068TIP3    H1 6161   4.333   0.218   3.848
 2068TIP3    H2 6162   4.463   0.194   3.772
 2069TIP3   OH2 6163   4.937   0.541   3.990
 2069TIP3    H1 6164   5.006   0.505   3.933
 2069TIP3    H2 6165   4.924   0.469   4.054
 2070TIP3   OH2 6166   5.064   0.192   2.130
 2070TIP3    H1 6167   5.049   0.150   2.044
 2070TIP3    H2 6168   5.031   0.283   2.111
 2071TIP3   OH2 6169   4.502  -0.055   3.974
 2071TIP3    H1 6170   4.453  -0.113   3.914
 2071TIP3    H2 6171   4.477   0.033   3.936
 2072TIP3   OH2 6172   4.578   0.253   3.656
 2072TIP3    H1 6173   4.660   0.265   3.607
 2072TIP3    H2 6174   4.519   0.317   3.611
 2073TIP3   OH2 6175   5.141   0.218   4.022
 2073TIP3    H1 6176   5.177   0.162   4.094
 2073TIP3    H2 6177   5.217   0.270   3.995
 2074TIP3   OH2 6178   5.192   0.467   3.775
 2074TIP3    H1 6179   5.132   0.521   3.719
 2074TIP3    H2 6180   5.278   0.493   3.736
 2075TIP3   OH2 6181   4.386   0.065   4.211
 2075TIP3    H1 6182   4.339  -0.016   4.233
 2075TIP3    H2 6183   4.446   0.035   4.141
 2076TIP3   OH2 6184   4.781  -0.003   4.011
 2076TIP3    H1 6185   4.803  -0.034   4.100
 2076TIP3    H2 6186   4.684  -0.014   4.010
 2077TIP3   OH2 6187   4.056   0.920   2.366
 2077TIP3    H1 6188   4.151   0.925   2.349
 2077TIP3    H2 6189   4.024   0.979   2.295
 2078TIP3   OH2 6190   3.532   0.311   2.581
 2078TIP3    H1 6191   3.622   0.347   2.571
 2078TIP3    H2 6192   3.539   0.222   2.541
 2079TIP3   OH2 6193   3.454   0.921   3.006
 2079TIP3    H1 6194   3.388   0.859   2.968
 2079TIP3    H2 6195   3.495   0.863   3.074
 2080TIP3   OH2 6196   3.581   0.774   3.195
 2080TIP3    H1 6197   3.574   0.697   3.254
 2080TIP3    H2 6198   3.636   0.833   3.251
 2081TIP3   OH2 6199   5.314   1.172   2.991
 2081TIP3    H1 6200   5.340   1.204   3.079
 2081TIP3    H2 6201   5.380   1.215   2.933
 2082TIP3   OH2 6202   5.340   1.192   3.273
 2082TIP3    H1 6203   5.298   1.103   3.270
 2082TIP3    H2 6204   5.419   1.171   3.324
 2083TIP3   OH2 6205   5.391   0.867   3.849
 2083TIP3    H1 6206   5.317   0.879   3.912
 2083TIP3    H2 6207   5.433   0.955   3.849
 2084TIP3   OH2 6208   5.206   0.383   2.461
 2084TIP3    H1 6209   5.273   0.448   2.433
 2084TIP3    H2 6210   5.250   0.346   2.541
 2085TIP3   OH2 6211   5.331   0.253   2.665
 2085TIP3    H1 6212   5.264   0.215   2.726
 2085TIP3    H2 6213   5.396   0.293   2.726
 2086TIP3   OH2 6214   5.389   0.643   3.099
 2086TIP3    H1 6215   5.441   0.576   3.051
 2086TIP3    H2 6216   5.386   0.717   3.035
 2087TIP3   OH2 6217   5.216   0.940   3.295
 2087TIP3    H1 6218   5.144   0.985   3.344
 2087TIP3    H2 6219   5.167   0.897   3.222
 2088TIP3   OH2 6220   5.263   0.157   2.314
 2088TIP3    H1 6221   5.193   0.164   2.244
 2088TIP3    H2 6222   5.237   0.234   2.370
 2089TIP3   OH2 6223   5.136  -0.182   2.258
 2089TIP3    H1 6224   5.104  -0.115   2.197
 2089TIP3    H2 6225   5.085  -0.260   2.231
 2090TIP3   OH2 6226   5.144   0.120   2.810
 2090TIP3    H1 6227   5.147   0.025   2.786
 2090TIP3    H2 6228   5.132   0.118   2.907
 2091TIP3   OH2 6229   3.771   0.176   3.562
 2091TIP3    H1 6230   3.768   0.149   3.468
 2091TIP3    H2 6231   3.868   0.179   3.578
 2092TIP3   OH2 6232   5.436   0.534   3.670
 2092TIP3    H1 6233   5.508   0.468   3.659
 2092TIP3    H2 6234   5.460   0.603   3.607
 2093TIP3   OH2 6235   5.612   0.330   3.686
 2093TIP3    H1 6236   5.541   0.274   3.724
 2093TIP3    H2 6237   5.690   0.272   3.702
 2094TIP3   OH2 6238   5.149  -0.136   2.688
 2094TIP3    H1 6239   5.165  -0.225   2.727
 2094TIP3    H2 6240   5.208  -0.137   2.610
 2095TIP3   OH2 6241   5.302  -0.001   3.212
 2095TIP3    H1 6242   5.387   0.024   3.169
 2095TIP3    H2 6243   5.317   0.038   3.301
 2096TIP3   OH2 6244   5.372   0.148   3.437
 2096TIP3    H1 6245   5.293   0.183   3.483
 2096TIP3    H2 6246   5.405   0.227   3.390
 2097TIP3   OH2 6247   3.989  -0.139   4.240
 2097TIP3    H1 6248   4.076  -0.167   4.210
 2097TIP3    H2 6249   3.952  -0.222   4.274
 2098TIP3   OH2 6250   3.749  -0.170   3.638
 2098TIP3    H1 6251   3.795  -0.165   3.552
 2098TIP3    H2 6252   3.774  -0.086   3.678
 2099TIP3   OH2 6253   4.895   1.039   2.643
 2099TIP3    H1 6254   4.950   1.032   2.563
 2099TIP3    H2 6255   4.943   1.106   2.696
 2100TIP3   OH2 6256   4.001   0.831   4.029
 2100TIP3    H1 6257   3.906   0.818   4.013
 2100TIP3    H2 6258   4.005   0.835   4.125
 2101TIP3   OH2 6259   4.179   0.877   3.577
 2101TIP3    H1 6260   4.129   0.953   3.540
 2101TIP3    H2 6261   4.264   0.893   3.531
 2102TIP3   OH2 6262   4.618   1.118   3.714
 2102TIP3    H1 6263   4.659   1.120   3.803
 2102TIP3    H2 6264   4.683   1.171   3.663
 2103TIP3   OH2 6265   4.798   1.274   3.578
 2103TIP3    H1 6266   4.870   1.225   3.535
 2103TIP3    H2 6267   4.849   1.331   3.639
 2104TIP3   OH2 6268   3.852   1.131   3.606
 2104TIP3    H1 6269   3.761   1.163   3.583
 2104TIP3    H2 6270   3.867   1.182   3.687
 2105TIP3   OH2 6271   4.087   1.111   3.462
 2105TIP3    H1 6272   4.001   1.123   3.507
 2105TIP3    H2 6273   4.069   1.145   3.373
 2106TIP3   OH2 6274   4.514   1.138   3.258
 2106TIP3    H1 6275   4.444   1.158   3.193
 2106TIP3    H2 6276   4.526   1.226   3.301
 2107TIP3   OH2 6277   4.783   1.075   3.310
 2107TIP3    H1 6278   4.690   1.096   3.292
 2107TIP3    H2 6279   4.829   1.150   3.269
 2108TIP3   OH2 6280   4.986   1.267   3.223
 2108TIP3    H1 6281   4.974   1.353   3.176
 2108TIP3    H2 6282   5.015   1.209   3.150
 2109TIP3   OH2 6283   3.766   0.928   3.343
 2109TIP3    H1 6284   3.789   0.900   3.435
 2109TIP3    H2 6285   3.838   0.881   3.295
 2110TIP3   OH2 6286   3.962   0.797   3.207
 2110TIP3    H1 6287   3.976   0.713   3.257
 2110TIP3    H2 6288   4.053   0.833   3.203
 2111TIP3   OH2 6289   4.227   0.891   3.210
 2111TIP3    H1 6290   4.257   0.799   3.201
 2111TIP3    H2 6291   4.273   0.915   3.293
 2112TIP3   OH2 6292   4.323   0.897   2.314
 2112TIP3    H1 6293   4.415   0.909   2.282
 2112TIP3    H2 6294   4.294   0.826   2.254
 2113TIP3   OH2 6295   5.044   1.007   2.413
 2113TIP3    H1 6296   5.033   0.909   2.402
 2113TIP3    H2 6297   4.997   1.038   2.333
 2114TIP3   OH2 6298   3.620   0.706   2.384
 2114TIP3    H1 6299   3.647   0.707   2.479
 2114TIP3    H2 6300   3.706   0.684   2.342
 2115TIP3   OH2 6301   5.264   1.148   3.602
 2115TIP3    H1 6302   5.187   1.119   3.549
 2115TIP3    H2 6303   5.248   1.244   3.606
 2116TIP3   OH2 6304   6.555   0.510   2.343
 2116TIP3    H1 6305   6.536   0.605   2.335
 2116TIP3    H2 6306   6.471   0.471   2.315
 2117TIP3   OH2 6307   6.538   0.515   2.746
 2117TIP3    H1 6308   6.570   0.504   2.837
 2117TIP3    H2 6309   6.489   0.433   2.732
 2118TIP3   OH2 6310   5.831   0.419   3.112
 2118TIP3    H1 6311   5.866   0.348   3.169
 2118TIP3    H2 6312   5.908   0.477   3.107
 2119TIP3   OH2 6313   6.780   0.828   2.431
 2119TIP3    H1 6314   6.766   0.762   2.500
 2119TIP3    H2 6315   6.812   0.904   2.483
 2120TIP3   OH2 6316   5.798   0.824   2.829
 2120TIP3    H1 6317   5.795   0.726   2.832
 2120TIP3    H2 6318   5.890   0.840   2.852
 2121TIP3   OH2 6319   5.501   0.039   2.631
 2121TIP3    H1 6320   5.449   0.120   2.646
 2121TIP3    H2 6321   5.437  -0.015   2.582
 2122TIP3   OH2 6322   5.562   0.327   2.793
 2122TIP3    H1 6323   5.604   0.244   2.825
 2122TIP3    H2 6324   5.634   0.368   2.744
 2123TIP3   OH2 6325   6.430   1.289   2.444
 2123TIP3    H1 6326   6.474   1.212   2.404
 2123TIP3    H2 6327   6.417   1.260   2.535
 2124TIP3   OH2 6328   6.333   0.746   2.793
 2124TIP3    H1 6329   6.382   0.673   2.752
 2124TIP3    H2 6330   6.410   0.799   2.823
 2125TIP3   OH2 6331   6.747   0.244   2.838
 2125TIP3    H1 6332   6.773   0.157   2.872
 2125TIP3    H2 6333   6.716   0.224   2.748
 2126TIP3   OH2 6334   6.063  -0.132   2.768
 2126TIP3    H1 6335   6.043  -0.043   2.733
 2126TIP3    H2 6336   5.986  -0.182   2.740
 2127TIP3   OH2 6337   3.534   6.592   8.969
 2127TIP3    H1 6338   3.579   6.532   9.033
 2127TIP3    H2 6339   3.535   6.539   8.888
 2128TIP3   OH2 6340   5.691   0.108   2.889
 2128TIP3    H1 6341   5.783   0.113   2.925
 2128TIP3    H2 6342   5.708   0.047   2.815
 2129TIP3   OH2 6343   6.158   0.312   2.695
 2129TIP3    H1 6344   6.251   0.286   2.710
 2129TIP3    H2 6345   6.116   0.225   2.675
 2130TIP3   OH2 6346   7.377   0.257   2.994
 2130TIP3    H1 6347   7.303   0.313   2.962
 2130TIP3    H2 6348   7.443   0.321   3.021
 2131TIP3   OH2 6349   6.443   0.757   2.220
 2131TIP3    H1 6350   6.387   0.729   2.146
 2131TIP3    H2 6351   6.390   0.832   2.255
 2132TIP3   OH2 6352   6.188   0.668   3.022
 2132TIP3    H1 6353   6.123   0.733   3.057
 2132TIP3    H2 6354   6.231   0.721   2.952
 2133TIP3   OH2 6355   5.949   0.077   2.956
 2133TIP3    H1 6356   6.016   0.120   3.012
 2133TIP3    H2 6357   5.984  -0.013   2.953
 2134TIP3   OH2 6358   5.994   0.848   3.096
 2134TIP3    H1 6359   6.000   0.944   3.083
 2134TIP3    H2 6360   5.924   0.844   3.164
 2135TIP3   OH2 6361   5.406   0.553   2.356
 2135TIP3    H1 6362   5.367   0.583   2.271
 2135TIP3    H2 6363   5.438   0.638   2.393
 2136TIP3   OH2 6364   6.847   1.071   2.593
 2136TIP3    H1 6365   6.760   1.059   2.638
 2136TIP3    H2 6366   6.834   1.160   2.553
 2137TIP3   OH2 6367   6.551   1.109   2.262
 2137TIP3    H1 6368   6.605   1.029   2.246
 2137TIP3    H2 6369   6.611   1.178   2.226
 2138TIP3   OH2 6370   6.687   0.875   2.177
 2138TIP3    H1 6371   6.604   0.827   2.194
 2138TIP3    H2 6372   6.737   0.855   2.259
 2139TIP3   OH2 6373   7.075   0.978   2.936
 2139TIP3    H1 6374   7.060   0.904   2.872
 2139TIP3    H2 6375   7.053   1.055   2.880
 2140TIP3   OH2 6376   6.356   0.370   2.196
 2140TIP3    H1 6377   6.280   0.428   2.174
 2140TIP3    H2 6378   6.400   0.358   2.110
 2141TIP3   OH2 6379   7.259   0.612   2.796
 2141TIP3    H1 6380   7.181   0.670   2.809
 2141TIP3    H2 6381   7.282   0.643   2.705
 2142TIP3   OH2 6382   6.944   0.496   3.087
 2142TIP3    H1 6383   6.939   0.578   3.140
 2142TIP3    H2 6384   6.857   0.499   3.042
 2143TIP3   OH2 6385   5.948   0.451   2.583
 2143TIP3    H1 6386   5.914   0.392   2.514
 2143TIP3    H2 6387   6.025   0.402   2.617
 2144TIP3   OH2 6388   6.080   0.873   2.729
 2144TIP3    H1 6389   6.063   0.822   2.649
 2144TIP3    H2 6390   6.168   0.839   2.756
 2145TIP3   OH2 6391   6.085   0.424   2.945
 2145TIP3    H1 6392   6.117   0.401   2.856
 2145TIP3    H2 6393   6.127   0.511   2.962
 2146TIP3   OH2 6394   6.610   1.058   2.719
 2146TIP3    H1 6395   6.592   1.141   2.767
 2146TIP3    H2 6396   6.585   0.990   2.784
 2147TIP3   OH2 6397   6.567   0.298   2.007
 2147TIP3    H1 6398   6.635   0.353   2.049
 2147TIP3    H2 6399   6.586   0.309   1.913
 2148TIP3   OH2 6400   5.968   0.541   3.366
 2148TIP3    H1 6401   5.974   0.629   3.409
 2148TIP3    H2 6402   5.873   0.522   3.380
 2149TIP3   OH2 6403   6.302   0.987   2.268
 2149TIP3    H1 6404   6.379   1.044   2.282
 2149TIP3    H2 6405   6.236   1.048   2.232
 2150TIP3   OH2 6406   5.994   1.182   3.356
 2150TIP3    H1 6407   5.992   1.149   3.265
 2150TIP3    H2 6408   5.922   1.132   3.399
 2151TIP3   OH2 6409   5.819   0.292   2.370
 2151TIP3    H1 6410   5.744   0.340   2.327
 2151TIP3    H2 6411   5.772   0.219   2.412
 2152TIP3   OH2 6412   6.801   0.940   1.650
 2152TIP3    H1 6413   6.840   1.025   1.623
 2152TIP3    H2 6414   6.872   0.878   1.626
 2153TIP3   OH2 6415   5.591   0.681   3.300
 2153TIP3    H1 6416   5.526   0.662   3.229
 2153TIP3    H2 6417   5.631   0.593   3.317
 2154TIP3   OH2 6418   5.449   0.873   2.930
 2154TIP3    H1 6419   5.545   0.867   2.920
 2154TIP3    H2 6420   5.441   0.952   2.987
 2155TIP3   OH2 6421   7.308   1.325   2.980
 2155TIP3    H1 6422   7.307   1.228   2.996
 2155TIP3    H2 6423   7.226   1.350   3.029
 2156TIP3   OH2 6424   6.183   1.240   2.074
 2156TIP3    H1 6425   6.135   1.223   1.991
 2156TIP3    H2 6426   6.147   1.326   2.103
 2157TIP3   OH2 6427   5.618   1.087   2.460
 2157TIP3    H1 6428   5.668   1.081   2.545
 2157TIP3    H2 6429   5.562   1.008   2.467
 2158TIP3   OH2 6430   6.377   1.147   1.716
 2158TIP3    H1 6431   6.433   1.074   1.687
 2158TIP3    H2 6432   6.408   1.161   1.808
 2159TIP3   OH2 6433   6.432   1.190   1.983
 2159TIP3    H1 6434   6.343   1.200   2.023
 2159TIP3    H2 6435   6.482   1.155   2.058
 2160TIP3   OH2 6436   7.200   0.443   3.262
 2160TIP3    H1 6437   7.120   0.476   3.218
 2160TIP3    H2 6438   7.189   0.347   3.251
 2161TIP3   OH2 6439   5.796   0.864   3.284
 2161TIP3    H1 6440   5.847   0.851   3.366
 2161TIP3    H2 6441   5.722   0.801   3.294
 2162TIP3   OH2 6442   6.970   0.239   3.208
 2162TIP3    H1 6443   6.943   0.274   3.293
 2162TIP3    H2 6444   6.953   0.313   3.148
 2163TIP3   OH2 6445   6.147   0.208   3.104
 2163TIP3    H1 6446   6.088   0.228   3.179
 2163TIP3    H2 6447   6.134   0.288   3.048
 2164TIP3   OH2 6448   6.012   0.091   2.613
 2164TIP3    H1 6449   5.917   0.069   2.626
 2164TIP3    H2 6450   6.026   0.063   2.520
 2165TIP3   OH2 6451   6.499   0.178   2.321
 2165TIP3    H1 6452   6.439   0.250   2.292
 2165TIP3    H2 6453   6.572   0.189   2.260
 2166TIP3   OH2 6454   6.688   0.475   3.398
 2166TIP3    H1 6455   6.663   0.396   3.451
 2166TIP3    H2 6456   6.781   0.485   3.424
 2167TIP3   OH2 6457   6.653   0.211   2.583
 2167TIP3    H1 6458   6.593   0.248   2.516
 2167TIP3    H2 6459   6.704   0.148   2.526
 2168TIP3   OH2 6460   5.949   0.239   3.297
 2168TIP3    H1 6461   5.969   0.306   3.363
 2168TIP3    H2 6462   5.930   0.160   3.350
 2169TIP3   OH2 6463   5.576  -0.158   2.432
 2169TIP3    H1 6464   5.588  -0.159   2.336
 2169TIP3    H2 6465   5.483  -0.130   2.438
 2170TIP3   OH2 6466   6.667   0.451   2.989
 2170TIP3    H1 6467   6.702   0.379   2.931
 2170TIP3    H2 6468   6.639   0.398   3.066
 2171TIP3   OH2 6469   5.760  -0.033   2.651
 2171TIP3    H1 6470   5.669   0.001   2.636
 2171TIP3    H2 6471   5.749  -0.120   2.613
 2172TIP3   OH2 6472   6.047  -0.014   2.359
 2172TIP3    H1 6473   6.130  -0.048   2.321
 2172TIP3    H2 6474   5.988  -0.028   2.285
 2173TIP3   OH2 6475   5.857  -0.045   2.133
 2173TIP3    H1 6476   5.760  -0.053   2.139
 2173TIP3    H2 6477   5.867   0.028   2.072
 2174TIP3   OH2 6478   7.006   1.672   3.088
 2174TIP3    H1 6479   7.001   1.702   2.996
 2174TIP3    H2 6480   7.070   1.734   3.126
 2175TIP3   OH2 6481   5.958   0.781   3.509
 2175TIP3    H1 6482   6.039   0.814   3.551
 2175TIP3    H2 6483   5.894   0.791   3.582
 2176TIP3   OH2 6484   6.415   0.234   2.757
 2176TIP3    H1 6485   6.502   0.207   2.725
 2176TIP3    H2 6486   6.418   0.205   2.851
 2177TIP3   OH2 6487   6.419   0.170   3.022
 2177TIP3    H1 6488   6.330   0.167   3.061
 2177TIP3    H2 6489   6.472   0.214   3.091
 2178TIP3   OH2 6490   6.132   0.522   2.146
 2178TIP3    H1 6491   6.054   0.465   2.134
 2178TIP3    H2 6492   6.114   0.558   2.237
 2179TIP3   OH2 6493   7.037   0.769   2.759
 2179TIP3    H1 6494   7.075   0.779   2.670
 2179TIP3    H2 6495   6.952   0.726   2.740
 2180TIP3   OH2 6496   6.546   0.815   3.147
 2180TIP3    H1 6497   6.580   0.825   3.236
 2180TIP3    H2 6498   6.495   0.899   3.135
 2181TIP3   OH2 6499   5.825   0.540   2.819
 2181TIP3    H1 6500   5.868   0.516   2.735
 2181TIP3    H2 6501   5.876   0.489   2.884
 2182TIP3   OH2 6502   6.285   0.681   1.989
 2182TIP3    H1 6503   6.235   0.767   1.988
 2182TIP3    H2 6504   6.226   0.627   2.046
 2183TIP3   OH2 6505   5.710   0.467   3.437
 2183TIP3    H1 6506   5.729   0.452   3.532
 2183TIP3    H2 6507   5.636   0.405   3.421
 2184TIP3   OH2 6508   6.439   0.583   3.461
 2184TIP3    H1 6509   6.376   0.534   3.406
 2184TIP3    H2 6510   6.525   0.556   3.424
 2185TIP3   OH2 6511   6.702   1.105   3.039
 2185TIP3    H1 6512   6.604   1.099   3.047
 2185TIP3    H2 6513   6.722   1.157   3.119
 2186TIP3   OH2 6514   7.326   1.040   3.017
 2186TIP3    H1 6515   7.228   1.030   3.013
 2186TIP3    H2 6516   7.350   1.006   2.928
 2187TIP3   OH2 6517   6.788   1.009   1.919
 2187TIP3    H1 6518   6.784   0.946   1.993
 2187TIP3    H2 6519   6.790   0.954   1.839
 2188TIP3   OH2 6520   6.804   0.625   2.689
 2188TIP3    H1 6521   6.711   0.602   2.706
 2188TIP3    H2 6522   6.835   0.545   2.645
 2189TIP3   OH2 6523   5.927   0.848   2.433
 2189TIP3    H1 6524   5.924   0.934   2.386
 2189TIP3    H2 6525   5.838   0.842   2.468
 2190TIP3   OH2 6526   5.495   0.161   2.165
 2190TIP3    H1 6527   5.536   0.248   2.184
 2190TIP3    H2 6528   5.416   0.165   2.223
 2191TIP3   OH2 6529   6.063   0.615   2.386
 2191TIP3    H1 6530   6.026   0.705   2.402
 2191TIP3    H2 6531   6.031   0.568   2.465
 2192TIP3   OH2 6532   6.191   1.196   2.910
 2192TIP3    H1 6533   6.249   1.265   2.876
 2192TIP3    H2 6534   6.253   1.152   2.973
 2193TIP3   OH2 6535   5.847   1.093   2.296
 2193TIP3    H1 6536   5.762   1.102   2.344
 2193TIP3    H2 6537   5.880   1.185   2.300
 2194TIP3   OH2 6538   6.584   0.822   2.876
 2194TIP3    H1 6539   6.570   0.822   2.973
 2194TIP3    H2 6540   6.671   0.781   2.870
 2195TIP3   OH2 6541   6.541   0.703   1.811
 2195TIP3    H1 6542   6.551   0.757   1.890
 2195TIP3    H2 6543   6.444   0.698   1.804
 2196TIP3   OH2 6544   6.837   1.355   2.924
 2196TIP3    H1 6545   6.758   1.298   2.923
 2196TIP3    H2 6546   6.814   1.420   2.854
 2197TIP3   OH2 6547   6.891   1.189   1.576
 2197TIP3    H1 6548   6.925   1.256   1.515
 2197TIP3    H2 6549   6.815   1.241   1.612
 2198TIP3   OH2 6550   5.639   1.057   3.074
 2198TIP3    H1 6551   5.699   0.988   3.108
 2198TIP3    H2 6552   5.671   1.134   3.123
 2199TIP3   OH2 6553   5.937   0.709   1.762
 2199TIP3    H1 6554   5.930   0.623   1.718
 2199TIP3    H2 6555   5.908   0.689   1.853
 2200TIP3   OH2 6556   5.871   0.707   2.033
 2200TIP3    H1 6557   5.938   0.689   2.100
 2200TIP3    H2 6558   5.870   0.805   2.033
 2201TIP3   OH2 6559   5.605   0.407   2.238
 2201TIP3    H1 6560   5.539   0.452   2.294
 2201TIP3    H2 6561   5.615   0.474   2.167
 2202TIP3   OH2 6562   6.140   0.906   1.981
 2202TIP3    H1 6563   6.052   0.930   2.018
 2202TIP3    H2 6564   6.149   0.973   1.913
 2203TIP3   OH2 6565   6.384  -0.035   2.441
 2203TIP3    H1 6566   6.419   0.042   2.392
 2203TIP3    H2 6567   6.340   0.007   2.515
 2204TIP3   OH2 6568   6.609   0.290   3.201
 2204TIP3    H1 6569   6.607   0.357   3.272
 2204TIP3    H2 6570   6.661   0.221   3.243
 2205TIP3   OH2 6571   5.884   0.978   2.047
 2205TIP3    H1 6572   5.853   1.049   1.985
 2205TIP3    H2 6573   5.868   1.021   2.134
 2206TIP3   OH2 6574   6.886   0.382   2.564
 2206TIP3    H1 6575   6.812   0.326   2.592
 2206TIP3    H2 6576   6.961   0.340   2.611
 2207TIP3   OH2 6577   5.596   0.611   2.042
 2207TIP3    H1 6578   5.664   0.680   2.048
 2207TIP3    H2 6579   5.638   0.552   1.976
 2208TIP3   OH2 6580   5.592  -0.091   2.154
 2208TIP3    H1 6581   5.548  -0.004   2.157
 2208TIP3    H2 6582   5.522  -0.150   2.122
 2209TIP3   OH2 6583   6.858   1.340   2.514
 2209TIP3    H1 6584   6.814   1.388   2.440
 2209TIP3    H2 6585   6.952   1.362   2.494
 2210TIP3   OH2 6586   5.463   0.816   2.422
 2210TIP3    H1 6587   5.405   0.853   2.489
 2210TIP3    H2 6588   5.433   0.863   2.341
 2211TIP3   OH2 6589   5.630   1.372   3.499
 2211TIP3    H1 6590   5.718   1.374   3.543
 2211TIP3    H2 6591   5.613   1.277   3.495
 2212TIP3   OH2 6592   6.108   1.330   3.551
 2212TIP3    H1 6593   6.202   1.311   3.542
 2212TIP3    H2 6594   6.072   1.278   3.475
 2213TIP3   OH2 6595   6.082   0.923   1.683
 2213TIP3    H1 6596   6.033   0.843   1.714
 2213TIP3    H2 6597   6.152   0.881   1.627
 2214TIP3   OH2 6598   6.753   1.239   3.274
 2214TIP3    H1 6599   6.743   1.170   3.344
 2214TIP3    H2 6600   6.825   1.294   3.309
 2215TIP3   OH2 6601   6.540   0.964   1.588
 2215TIP3    H1 6602   6.624   0.944   1.635
 2215TIP3    H2 6603   6.572   1.030   1.525
 2216TIP3   OH2 6604   5.755   0.773   3.701
 2216TIP3    H1 6605   5.771   0.677   3.701
 2216TIP3    H2 6606   5.670   0.779   3.652
 2217TIP3   OH2 6607   5.730   0.419   1.908
 2217TIP3    H1 6608   5.792   0.400   1.979
 2217TIP3    H2 6609   5.791   0.427   1.832
 2218TIP3   OH2 6610   6.353   0.856   3.464
 2218TIP3    H1 6611   6.347   0.874   3.369
 2218TIP3    H2 6612   6.391   0.766   3.465
 2219TIP3   OH2 6613   6.266   0.628   1.714
 2219TIP3    H1 6614   6.246   0.639   1.808
 2219TIP3    H2 6615   6.188   0.582   1.680
 2220TIP3   OH2 6616   6.858   0.869   3.078
 2220TIP3    H1 6617   6.929   0.917   3.033
 2220TIP3    H2 6618   6.784   0.933   3.068
 2221TIP3   OH2 6619   5.881   0.502   3.683
 2221TIP3    H1 6620   5.968   0.472   3.652
 2221TIP3    H2 6621   5.905   0.541   3.769
 2222TIP3   OH2 6622   5.936   0.325   2.118
 2222TIP3    H1 6623   5.905   0.312   2.211
 2222TIP3    H2 6624   5.999   0.254   2.107
 2223TIP3   OH2 6625   6.212   0.423   3.339
 2223TIP3    H1 6626   6.129   0.475   3.333
 2223TIP3    H2 6627   6.260   0.450   3.257
 2224TIP3   OH2 6628   6.727   0.796   3.478
 2224TIP3    H1 6629   6.797   0.763   3.421
 2224TIP3    H2 6630   6.720   0.726   3.545
 2225TIP3   OH2 6631   6.301   0.203   3.461
 2225TIP3    H1 6632   6.252   0.144   3.402
 2225TIP3    H2 6633   6.275   0.290   3.422
 2226TIP3   OH2 6634   6.374   0.508   3.141
 2226TIP3    H1 6635   6.458   0.531   3.100
 2226TIP3    H2 6636   6.313   0.573   3.098
 2227TIP3   OH2 6637   6.939   0.471   3.505
 2227TIP3    H1 6638   6.972   0.417   3.580
 2227TIP3    H2 6639   7.014   0.527   3.485
 2228TIP3   OH2 6640   6.990   0.723   3.262
 2228TIP3    H1 6641   6.930   0.777   3.205
 2228TIP3    H2 6642   7.076   0.749   3.222
 2229TIP3   OH2 6643   6.178   0.323   3.694
 2229TIP3    H1 6644   6.140   0.240   3.725
 2229TIP3    H2 6645   6.241   0.293   3.627
 2230TIP3   OH2 6646   6.578   0.251   3.498
 2230TIP3    H1 6647   6.601   0.220   3.588
 2230TIP3    H2 6648   6.482   0.243   3.499
 2231TIP3   OH2 6649   5.850   1.181   1.859
 2231TIP3    H1 6650   5.946   1.179   1.843
 2231TIP3    H2 6651   5.823   1.235   1.782
 2232TIP3   OH2 6652   5.329   0.572   2.081
 2232TIP3    H1 6653   5.423   0.593   2.063
 2232TIP3    H2 6654   5.322   0.483   2.037
 2233TIP3   OH2 6655   5.251   1.176   2.491
 2233TIP3    H1 6656   5.184   1.116   2.452
 2233TIP3    H2 6657   5.293   1.117   2.556
 2234TIP3   OH2 6658   5.386   1.021   2.676
 2234TIP3    H1 6659   5.372   0.954   2.745
 2234TIP3    H2 6660   5.438   1.086   2.726
 2235TIP3   OH2 6661   7.114   1.432   2.480
 2235TIP3    H1 6662   7.134   1.472   2.567
 2235TIP3    H2 6663   7.167   1.486   2.420
 2236TIP3   OH2 6664   7.146   1.443   2.761
 2236TIP3    H1 6665   7.095   1.359   2.751
 2236TIP3    H2 6666   7.200   1.419   2.839
 2237TIP3   OH2 6667   7.187   1.122   3.332
 2237TIP3    H1 6668   7.113   1.133   3.395
 2237TIP3    H2 6669   7.226   1.213   3.334
 2238TIP3   OH2 6670   6.971   0.689   2.028
 2238TIP3    H1 6671   6.992   0.776   1.988
 2238TIP3    H2 6672   7.063   0.658   2.032
 2239TIP3   OH2 6673   7.124   0.515   2.184
 2239TIP3    H1 6674   7.136   0.443   2.248
 2239TIP3    H2 6675   7.217   0.546   2.184
 2240TIP3   OH2 6676   7.013   1.199   2.778
 2240TIP3    H1 6677   6.943   1.242   2.831
 2240TIP3    H2 6678   6.960   1.152   2.710
 2241TIP3   OH2 6679   6.906   0.376   2.290
 2241TIP3    H1 6680   6.924   0.281   2.292
 2241TIP3    H2 6681   6.888   0.391   2.386
 2242TIP3   OH2 6682   5.567   0.434   3.051
 2242TIP3    H1 6683   5.564   0.406   2.957
 2242TIP3    H2 6684   5.664   0.437   3.065
 2243TIP3   OH2 6685   7.236   0.789   3.156
 2243TIP3    H1 6686   7.309   0.724   3.145
 2243TIP3    H2 6687   7.254   0.852   3.085
 2244TIP3   OH2 6688   7.417   0.587   3.178
 2244TIP3    H1 6689   7.340   0.537   3.213
 2244TIP3    H2 6690   7.488   0.520   3.192
 2245TIP3   OH2 6691   7.099   0.263   2.693
 2245TIP3    H1 6692   7.186   0.283   2.653
 2245TIP3    H2 6693   7.113   0.297   2.784
 2246TIP3   OH2 6694   7.157   0.401   2.926
 2246TIP3    H1 6695   7.081   0.440   2.973
 2246TIP3    H2 6696   7.193   0.480   2.878
 2247TIP3   OH2 6697   5.781   0.118   3.724
 2247TIP3    H1 6698   5.873   0.099   3.704
 2247TIP3    H2 6699   5.751   0.035   3.765
 2248TIP3   OH2 6700   5.547   0.087   3.126
 2248TIP3    H1 6701   5.592   0.091   3.039
 2248TIP3    H2 6702   5.572   0.172   3.164
 2249TIP3   OH2 6703   6.695   1.296   2.133
 2249TIP3    H1 6704   6.749   1.292   2.052
 2249TIP3    H2 6705   6.744   1.361   2.187
 2250TIP3   OH2 6706   5.790   1.086   3.522
 2250TIP3    H1 6707   5.695   1.070   3.506
 2250TIP3    H2 6708   5.797   1.085   3.617
 2251TIP3   OH2 6709   5.974   1.127   3.066
 2251TIP3    H1 6710   5.932   1.208   3.030
 2251TIP3    H2 6711   6.062   1.137   3.025
 2252TIP3   OH2 6712   6.406   1.437   3.217
 2252TIP3    H1 6713   6.434   1.368   3.280
 2252TIP3    H2 6714   6.472   1.427   3.147
 2253TIP3   OH2 6715   6.608   1.536   3.038
 2253TIP3    H1 6716   6.682   1.475   3.025
 2253TIP3    H2 6717   6.644   1.592   3.111
 2254TIP3   OH2 6718   5.644   1.386   3.087
 2254TIP3    H1 6719   5.555   1.421   3.069
 2254TIP3    H2 6720   5.665   1.431   3.170
 2255TIP3   OH2 6721   5.884   1.368   2.950
 2255TIP3    H1 6722   5.796   1.379   2.992
 2255TIP3    H2 6723   5.867   1.400   2.859
 2256TIP3   OH2 6724   6.318   1.403   2.736
 2256TIP3    H1 6725   6.238   1.419   2.683
 2256TIP3    H2 6726   6.325   1.486   2.786
 2257TIP3   OH2 6727   6.583   1.333   2.785
 2257TIP3    H1 6728   6.486   1.347   2.775
 2257TIP3    H2 6729   6.617   1.421   2.767
 2258TIP3   OH2 6730   6.797   1.528   2.712
 2258TIP3    H1 6731   6.776   1.610   2.662
 2258TIP3    H2 6732   6.813   1.464   2.640
 2259TIP3   OH2 6733   5.559   1.180   2.831
 2259TIP3    H1 6734   5.586   1.156   2.923
 2259TIP3    H2 6735   5.634   1.138   2.782
 2260TIP3   OH2 6736   5.758   1.056   2.691
 2260TIP3    H1 6737   5.771   0.971   2.740
 2260TIP3    H2 6738   5.849   1.092   2.691
 2261TIP3   OH2 6739   6.023   1.146   2.699
 2261TIP3    H1 6740   6.051   1.053   2.695
 2261TIP3    H2 6741   6.073   1.174   2.779
 2262TIP3   OH2 6742   5.348   0.959   2.223
 2262TIP3    H1 6743   5.262   0.927   2.190
 2262TIP3    H2 6744   5.340   1.053   2.202
 2263TIP3   OH2 6745   6.119   1.153   1.812
 2263TIP3    H1 6746   6.206   1.175   1.773
 2263TIP3    H2 6747   6.095   1.077   1.755
 2264TIP3   OH2 6748   6.844   1.273   1.901
 2264TIP3    H1 6749   6.828   1.175   1.908
 2264TIP3    H2 6750   6.793   1.295   1.821
 2265TIP3   OH2 6751   5.423   0.979   1.860
 2265TIP3    H1 6752   5.426   1.000   1.954
 2265TIP3    H2 6753   5.510   0.935   1.846
 2266TIP3   OH2 6754   7.067   1.405   3.079
 2266TIP3    H1 6755   6.985   1.373   3.036
 2266TIP3    H2 6756   7.045   1.499   3.092
 2267TIP3   OH2 6757   7.590   1.080   2.375
 2267TIP3    H1 6758   7.538   1.003   2.350
 2267TIP3    H2 6759   7.676   1.063   2.331
 2268TIP3   OH2 6760   7.381   0.540   2.247
 2268TIP3    H1 6761   7.379   0.581   2.334
 2268TIP3    H2 6762   7.437   0.597   2.196
 2269TIP3   OH2 6763   7.153   0.866   1.932
 2269TIP3    H1 6764   7.202   0.814   1.865
 2269TIP3    H2 6765   7.208   0.947   1.937
 2270TIP3   OH2 6766   7.395   0.939   2.772
 2270TIP3    H1 6767   7.352   0.898   2.693
 2270TIP3    H2 6768   7.431   0.859   2.815
 2271TIP3   OH2 6769   7.272   1.172   2.401
 2271TIP3    H1 6770   7.300   1.084   2.420
 2271TIP3    H2 6771   7.202   1.189   2.461
 2272TIP3   OH2 6772   7.391   1.357   1.948
 2272TIP3    H1 6773   7.458   1.354   2.018
 2272TIP3    H2 6774   7.367   1.263   1.943
 2273TIP3   OH2 6775   7.599   1.129   2.767
 2273TIP3    H1 6776   7.649   1.109   2.848
 2273TIP3    H2 6777   7.528   1.062   2.768
 2274TIP3   OH2 6778   7.762   1.086   3.000
 2274TIP3    H1 6779   7.825   1.018   3.024
 2274TIP3    H2 6780   7.689   1.069   3.063
 2275TIP3   OH2 6781   7.486   0.738   2.927
 2275TIP3    H1 6782   7.521   0.714   3.015
 2275TIP3    H2 6783   7.427   0.663   2.907
 2276TIP3   OH2 6784   7.489   1.354   2.632
 2276TIP3    H1 6785   7.514   1.281   2.573
 2276TIP3    H2 6786   7.405   1.316   2.667
 2277TIP3   OH2 6787   7.270   1.111   1.918
 2277TIP3    H1 6788   7.200   1.144   1.976
 2277TIP3    H2 6789   7.238   1.138   1.829
 2278TIP3   OH2 6790   7.433   1.615   2.967
 2278TIP3    H1 6791   7.508   1.612   3.029
 2278TIP3    H2 6792   7.394   1.527   2.981
 2279TIP3   OH2 6793   7.554   1.030   3.176
 2279TIP3    H1 6794   7.572   0.934   3.181
 2279TIP3    H2 6795   7.466   1.030   3.131
 2280TIP3   OH2 6796   7.678   0.776   3.163
 2280TIP3    H1 6797   7.725   0.692   3.158
 2280TIP3    H2 6798   7.700   0.805   3.254
 2281TIP3   OH2 6799   7.046   1.443   1.975
 2281TIP3    H1 6800   6.980   1.380   1.939
 2281TIP3    H2 6801   7.091   1.384   2.041
 2282TIP3   OH2 6802   7.166   1.291   2.167
 2282TIP3    H1 6803   7.176   1.217   2.228
 2282TIP3    H2 6804   7.223   1.355   2.211
 2283TIP3   OH2 6805   7.581   0.373   3.210
 2283TIP3    H1 6806   7.675   0.353   3.219
 2283TIP3    H2 6807   7.542   0.291   3.246
 2284TIP3   OH2 6808   7.348   0.339   2.600
 2284TIP3    H1 6809   7.408   0.339   2.525
 2284TIP3    H2 6810   7.359   0.428   2.636
 2285TIP3   OH2 6811   7.579   1.358   3.026
 2285TIP3    H1 6812   7.488   1.330   3.004
 2285TIP3    H2 6813   7.584   1.326   3.117
 2286TIP3   OH2 6814   7.356   1.467   2.312
 2286TIP3    H1 6815   7.363   1.419   2.396
 2286TIP3    H2 6816   7.423   1.417   2.260
 2287TIP3   OH2 6817   7.539   1.312   2.181
 2287TIP3    H1 6818   7.538   1.219   2.210
 2287TIP3    H2 6819   7.631   1.320   2.148
 2288TIP3   OH2 6820   7.146   1.211   1.696
 2288TIP3    H1 6821   7.059   1.176   1.673
 2288TIP3    H2 6822   7.130   1.306   1.687
 2289TIP3   OH2 6823   7.213   1.268   1.376
 2289TIP3    H1 6824   7.201   1.274   1.472
 2289TIP3    H2 6825   7.275   1.192   1.368
 2290TIP3   OH2 6826   0.785   1.580   3.561
 2290TIP3    H1 6827   0.756   1.666   3.524
 2290TIP3    H2 6828   0.700   1.536   3.571
 2291TIP3   OH2 6829   0.780   1.571   3.931
 2291TIP3    H1 6830   0.818   1.544   4.017
 2291TIP3    H2 6831   0.749   1.486   3.896
 2292TIP3   OH2 6832   0.087   1.461   4.295
 2292TIP3    H1 6833   0.125   1.397   4.357
 2292TIP3    H2 6834   0.163   1.518   4.278
 2293TIP3   OH2 6835   1.027   1.875   3.606
 2293TIP3    H1 6836   1.013   1.799   3.664
 2293TIP3    H2 6837   1.059   1.943   3.667
 2294TIP3   OH2 6838   0.059   1.867   4.014
 2294TIP3    H1 6839   0.051   1.770   4.015
 2294TIP3    H2 6840   0.155   1.877   4.003
 2295TIP3   OH2 6841   0.681   2.333   3.627
 2295TIP3    H1 6842   0.721   2.263   3.571
 2295TIP3    H2 6843   0.672   2.288   3.711
 2296TIP3   OH2 6844   0.581   1.794   3.975
 2296TIP3    H1 6845   0.622   1.716   3.934
 2296TIP3    H2 6846   0.663   1.842   3.998
 2297TIP3   OH2 6847   1.596   1.112   3.971
 2297TIP3    H1 6848   1.627   1.195   4.011
 2297TIP3    H2 6849   1.619   1.126   3.877
 2298TIP3   OH2 6850   0.993   1.293   4.004
 2298TIP3    H1 6851   1.036   1.208   4.023
 2298TIP3    H2 6852   0.959   1.277   3.914
 2299TIP3   OH2 6853   1.022   1.050   3.616
 2299TIP3    H1 6854   1.100   1.026   3.669
 2299TIP3    H2 6855   1.066   1.080   3.534
 2300TIP3   OH2 6856   0.413   1.345   3.869
 2300TIP3    H1 6857   0.510   1.346   3.886
 2300TIP3    H2 6858   0.401   1.251   3.853
 2301TIP3   OH2 6859   1.672   1.322   4.139
 2301TIP3    H1 6860   1.587   1.366   4.119
 2301TIP3    H2 6861   1.682   1.346   4.232
 2302TIP3   OH2 6862   0.355   0.930   4.395
 2302TIP3    H1 6863   0.298   0.971   4.327
 2302TIP3    H2 6864   0.297   0.929   4.472
 2303TIP3   OH2 6865   0.659   1.782   3.417
 2303TIP3    H1 6866   0.658   1.787   3.321
 2303TIP3    H2 6867   0.618   1.866   3.443
 2304TIP3   OH2 6868   0.434   1.713   4.194
 2304TIP3    H1 6869   0.376   1.782   4.232
 2304TIP3    H2 6870   0.479   1.761   4.121
 2305TIP3   OH2 6871   1.243   1.038   3.774
 2305TIP3    H1 6872   1.220   1.007   3.863
 2305TIP3    H2 6873   1.289   1.122   3.793
 2306TIP3   OH2 6874   0.203   1.040   4.201
 2306TIP3    H1 6875   0.257   1.122   4.208
 2306TIP3    H2 6876   0.221   1.012   4.111
 2307TIP3   OH2 6877   0.262   1.910   4.298
 2307TIP3    H1 6878   0.239   1.996   4.260
 2307TIP3    H2 6879   0.183   1.894   4.353
 2308TIP3   OH2 6880   1.096   2.116   3.774
 2308TIP3    H1 6881   1.006   2.105   3.812
 2308TIP3    H2 6882   1.086   2.201   3.727
 2309TIP3   OH2 6883   1.389   1.012   4.137
 2309TIP3    H1 6884   1.302   1.037   4.102
 2309TIP3    H2 6885   1.449   1.044   4.067
 2310TIP3   OH2 6886   0.704   0.672   4.125
 2310TIP3    H1 6887   0.675   0.580   4.117
 2310TIP3    H2 6888   0.620   0.714   4.155
 2311TIP3   OH2 6889   0.794   2.159   3.444
 2311TIP3    H1 6890   0.841   2.074   3.426
 2311TIP3    H2 6891   0.859   2.222   3.405
 2312TIP3   OH2 6892   0.934   1.942   3.355
 2312TIP3    H1 6893   0.941   1.864   3.298
 2312TIP3    H2 6894   0.971   1.908   3.440
 2313TIP3   OH2 6895   1.322   2.023   4.115
 2313TIP3    H1 6896   1.309   1.945   4.057
 2313TIP3    H2 6897   1.305   2.098   4.054
 2314TIP3   OH2 6898   1.517   1.666   3.964
 2314TIP3    H1 6899   1.432   1.715   3.967
 2314TIP3    H2 6900   1.546   1.687   3.873
 2315TIP3   OH2 6901   0.954   1.527   3.345
 2315TIP3    H1 6902   0.914   1.534   3.434
 2315TIP3    H2 6903   1.029   1.467   3.361
 2316TIP3   OH2 6904   1.196   1.538   4.261
 2316TIP3    H1 6905   1.192   1.621   4.312
 2316TIP3    H2 6906   1.110   1.541   4.215
 2317TIP3   OH2 6907   0.190   1.489   3.762
 2317TIP3    H1 6908   0.172   1.447   3.677
 2317TIP3    H2 6909   0.272   1.443   3.792
 2318TIP3   OH2 6910   0.323   1.905   3.909
 2318TIP3    H1 6911   0.309   1.872   3.819
 2318TIP3    H2 6912   0.413   1.871   3.929
 2319TIP3   OH2 6913   0.324   1.476   4.111
 2319TIP3    H1 6914   0.364   1.450   4.026
 2319TIP3    H2 6915   0.372   1.558   4.134
 2320TIP3   OH2 6916   0.854   2.108   3.894
 2320TIP3    H1 6917   0.844   2.187   3.951
 2320TIP3    H2 6918   0.839   2.034   3.955
 2321TIP3   OH2 6919   0.470   2.027   4.440
 2321TIP3    H1 6920   0.408   2.087   4.487
 2321TIP3    H2 6921   0.406   1.973   4.390
 2322TIP3   OH2 6922   0.242   1.591   4.534
 2322TIP3    H1 6923   0.237   1.678   4.578
 2322TIP3    H2 6924   0.150   1.559   4.545
 2323TIP3   OH2 6925   0.545   2.040   3.440
 2323TIP3    H1 6926   0.629   2.087   3.453
 2323TIP3    H2 6927   0.486   2.111   3.410
 2324TIP3   OH2 6928   0.261   2.192   4.529
 2324TIP3    H1 6929   0.228   2.197   4.437
 2324TIP3    H2 6930   0.179   2.176   4.580
 2325TIP3   OH2 6931   1.127   1.977   2.776
 2325TIP3    H1 6932   1.130   2.073   2.757
 2325TIP3    H2 6933   1.218   1.950   2.754
 2326TIP3   OH2 6934  -0.134   1.714   4.467
 2326TIP3    H1 6935  -0.205   1.701   4.404
 2326TIP3    H2 6936  -0.122   1.625   4.502
 2327TIP3   OH2 6937  -0.294   1.938   4.089
 2327TIP3    H1 6938  -0.206   1.900   4.078
 2327TIP3    H2 6939  -0.279   1.999   4.163
 2328TIP3   OH2 6940   1.558   2.371   4.163
 2328TIP3    H1 6941   1.558   2.275   4.178
 2328TIP3    H2 6942   1.476   2.396   4.210
 2329TIP3   OH2 6943   0.665   2.156   4.297
 2329TIP3    H1 6944   0.662   2.248   4.331
 2329TIP3    H2 6945   0.594   2.114   4.351
 2330TIP3   OH2 6946   0.431   2.280   3.260
 2330TIP3    H1 6947   0.393   2.263   3.171
 2330TIP3    H2 6948   0.396   2.369   3.280
 2331TIP3   OH2 6949  -0.136   2.144   3.628
 2331TIP3    H1 6950  -0.103   2.116   3.716
 2331TIP3    H2 6951  -0.185   2.063   3.599
 2332TIP3   OH2 6952   0.632   2.175   2.896
 2332TIP3    H1 6953   0.695   2.109   2.859
 2332TIP3    H2 6954   0.667   2.188   2.986
 2333TIP3   OH2 6955   0.682   2.236   3.164
 2333TIP3    H1 6956   0.592   2.244   3.204
 2333TIP3    H2 6957   0.730   2.191   3.235
 2334TIP3   OH2 6958   1.447   1.499   4.438
 2334TIP3    H1 6959   1.365   1.507   4.387
 2334TIP3    H2 6960   1.466   1.404   4.430
 2335TIP3   OH2 6961   0.044   1.919   4.471
 2335TIP3    H1 6962   0.102   1.890   4.545
 2335TIP3    H2 6963  -0.023   1.847   4.470
 2336TIP3   OH2 6964   0.452   0.744   4.211
 2336TIP3    H1 6965   0.368   0.695   4.201
 2336TIP3    H2 6966   0.428   0.810   4.279
 2337TIP3   OH2 6967   1.018   0.850   4.426
 2337TIP3    H1 6968   1.084   0.816   4.491
 2337TIP3    H2 6969   0.933   0.835   4.472
 2338TIP3   OH2 6970   1.214   1.274   4.360
 2338TIP3    H1 6971   1.165   1.272   4.445
 2338TIP3    H2 6972   1.193   1.362   4.325
 2339TIP3   OH2 6973   0.375   1.251   4.255
 2339TIP3    H1 6974   0.332   1.274   4.340
 2339TIP3    H2 6975   0.359   1.333   4.204
 2340TIP3   OH2 6976   0.777   1.253   3.489
 2340TIP3    H1 6977   0.694   1.270   3.442
 2340TIP3    H2 6978   0.840   1.253   3.416
 2341TIP3   OH2 6979   0.927   1.496   4.595
 2341TIP3    H1 6980   0.904   1.422   4.656
 2341TIP3    H2 6981   1.022   1.506   4.615
 2342TIP3   OH2 6982   0.903   1.254   3.746
 2342TIP3    H1 6983   0.853   1.281   3.666
 2342TIP3    H2 6984   0.942   1.171   3.709
 2343TIP3   OH2 6985   0.202   1.285   4.469
 2343TIP3    H1 6986   0.247   1.345   4.532
 2343TIP3    H2 6987   0.189   1.206   4.522
 2344TIP3   OH2 6988   0.917   1.491   4.168
 2344TIP3    H1 6989   0.950   1.420   4.108
 2344TIP3    H2 6990   0.888   1.436   4.244
 2345TIP3   OH2 6991   0.581   0.986   3.864
 2345TIP3    H1 6992   0.526   0.915   3.896
 2345TIP3    H2 6993   0.670   0.955   3.887
 2346TIP3   OH2 6994   1.082   1.032   4.046
 2346TIP3    H1 6995   1.045   1.046   4.136
 2346TIP3    H2 6996   1.015   0.973   4.008
 2347TIP3   OH2 6997   1.253   2.720   4.264
 2347TIP3    H1 6998   1.252   2.744   4.170
 2347TIP3    H2 6999   1.334   2.766   4.295
 2348TIP3   OH2 7000   0.209   1.834   4.681
 2348TIP3    H1 7001   0.291   1.858   4.728
 2348TIP3    H2 7002   0.146   1.829   4.755
 2349TIP3   OH2 7003   0.673   1.295   3.939
 2349TIP3    H1 7004   0.735   1.248   3.881
 2349TIP3    H2 7005   0.675   1.239   4.019
 2350TIP3   OH2 7006   0.648   1.186   4.225
 2350TIP3    H1 7007   0.559   1.224   4.238
 2350TIP3    H2 7008   0.707   1.248   4.274
 2351TIP3   OH2 7009   1.282   1.808   3.950
 2351TIP3    H1 7010   1.305   1.858   3.869
 2351TIP3    H2 7011   1.199   1.762   3.923
 2352TIP3   OH2 7012   0.781   1.889   4.320
 2352TIP3    H1 7013   0.816   1.869   4.408
 2352TIP3    H2 7014   0.745   1.978   4.329
 2353TIP3   OH2 7015   0.072   1.588   4.000
 2353TIP3    H1 7016   0.101   1.558   3.911
 2353TIP3    H2 7017   0.131   1.536   4.057
 2354TIP3   OH2 7018   0.515   1.712   3.145
 2354TIP3    H1 7019   0.486   1.806   3.139
 2354TIP3    H2 7020   0.475   1.686   3.228
 2355TIP3   OH2 7021   0.000   1.479   4.620
 2355TIP3    H1 7022   0.036   1.501   4.708
 2355TIP3    H2 7023  -0.096   1.481   4.639
 2356TIP3   OH2 7024   0.688   1.632   4.628
 2356TIP3    H1 7025   0.628   1.568   4.586
 2356TIP3    H2 7026   0.775   1.595   4.604
 2357TIP3   OH2 7027   0.942   2.154   4.215
 2357TIP3    H1 7028   0.846   2.149   4.230
 2357TIP3    H2 7029   0.970   2.204   4.295
 2358TIP3   OH2 7030   1.368   1.208   3.053
 2358TIP3    H1 7031   1.276   1.198   3.086
 2358TIP3    H2 7032   1.371   1.305   3.049
 2359TIP3   OH2 7033   1.573   2.083   4.203
 2359TIP3    H1 7034   1.475   2.075   4.196
 2359TIP3    H2 7035   1.599   2.051   4.114
 2360TIP3   OH2 7036   1.060   2.040   3.041
 2360TIP3    H1 7037   1.023   1.969   3.095
 2360TIP3    H2 7038   1.066   1.999   2.953
 2361TIP3   OH2 7039   1.050   1.670   3.869
 2361TIP3    H1 7040   0.956   1.647   3.880
 2361TIP3    H2 7041   1.083   1.589   3.825
 2362TIP3   OH2 7042   0.173   1.898   3.626
 2362TIP3    H1 7043   0.170   1.989   3.589
 2362TIP3    H2 7044   0.086   1.893   3.667
 2363TIP3   OH2 7045   0.338   1.672   3.606
 2363TIP3    H1 7046   0.293   1.758   3.599
 2363TIP3    H2 7047   0.277   1.622   3.662
 2364TIP3   OH2 7048   0.449   2.239   4.093
 2364TIP3    H1 7049   0.492   2.312   4.042
 2364TIP3    H2 7050   0.525   2.201   4.139
 2365TIP3   OH2 7051   0.119   2.143   3.521
 2365TIP3    H1 7052   0.024   2.152   3.540
 2365TIP3    H2 7053   0.141   2.233   3.491
 2366TIP3   OH2 7054   0.834   1.876   4.051
 2366TIP3    H1 7055   0.823   1.872   4.149
 2366TIP3    H2 7056   0.910   1.819   4.038
 2367TIP3   OH2 7057   0.821   1.798   2.950
 2367TIP3    H1 7058   0.869   1.771   3.031
 2367TIP3    H2 7059   0.740   1.745   2.957
 2368TIP3   OH2 7060   1.083   2.407   4.103
 2368TIP3    H1 7061   1.004   2.350   4.098
 2368TIP3    H2 7062   1.065   2.470   4.030
 2369TIP3   OH2 7063   1.152   2.251   2.751
 2369TIP3    H1 7064   1.188   2.330   2.706
 2369TIP3    H2 7065   1.070   2.291   2.788
 2370TIP3   OH2 7066   0.976   1.730   3.168
 2370TIP3    H1 7067   0.955   1.655   3.229
 2370TIP3    H2 7068   1.068   1.707   3.146
 2371TIP3   OH2 7069  -0.117   2.097   4.254
 2371TIP3    H1 7070  -0.056   2.030   4.287
 2371TIP3    H2 7071  -0.089   2.176   4.302
 2372TIP3   OH2 7072   1.005   1.095   4.306
 2372TIP3    H1 7073   1.090   1.134   4.332
 2372TIP3    H2 7074   1.006   1.009   4.354
 2373TIP3   OH2 7075   0.403   1.957   3.151
 2373TIP3    H1 7076   0.348   1.971   3.229
 2373TIP3    H2 7077   0.396   2.042   3.105
 2374TIP3   OH2 7078   0.845   1.330   4.375
 2374TIP3    H1 7079   0.873   1.376   4.457
 2374TIP3    H2 7080   0.897   1.248   4.378
 2375TIP3   OH2 7081   1.483   1.234   4.357
 2375TIP3    H1 7082   1.385   1.232   4.366
 2375TIP3    H2 7083   1.493   1.183   4.275
 2376TIP3   OH2 7084   1.133   1.429   3.749
 2376TIP3    H1 7085   1.058   1.367   3.756
 2376TIP3    H2 7086   1.205   1.379   3.794
 2377TIP3   OH2 7087   1.104   2.387   3.693
 2377TIP3    H1 7088   1.061   2.435   3.619
 2377TIP3    H2 7089   1.198   2.405   3.672
 2378TIP3   OH2 7090  -0.102   2.435   4.652
 2378TIP3    H1 7091  -0.024   2.442   4.710
 2378TIP3    H2 7092  -0.123   2.341   4.664
 2379TIP3   OH2 7093   0.356   2.373   4.719
 2379TIP3    H1 7094   0.451   2.354   4.725
 2379TIP3    H2 7095   0.330   2.312   4.647
 2380TIP3   OH2 7096   0.993   2.284   4.454
 2380TIP3    H1 7097   0.987   2.214   4.523
 2380TIP3    H2 7098   1.072   2.334   4.483
 2381TIP3   OH2 7099   0.787   1.990   2.759
 2381TIP3    H1 7100   0.807   1.919   2.824
 2381TIP3    H2 7101   0.859   1.979   2.694
 2382TIP3   OH2 7102   0.003   1.810   4.870
 2382TIP3    H1 7103   0.035   1.717   4.871
 2382TIP3    H2 7104  -0.093   1.797   4.867
 2383TIP3   OH2 7105   0.612   1.906   4.649
 2383TIP3    H1 7106   0.574   1.924   4.560
 2383TIP3    H2 7107   0.645   1.814   4.639
 2384TIP3   OH2 7108   1.106   1.918   4.257
 2384TIP3    H1 7109   1.183   1.958   4.212
 2384TIP3    H2 7110   1.037   1.984   4.237
 2385TIP3   OH2 7111   0.114   1.557   4.861
 2385TIP3    H1 7112   0.180   1.486   4.853
 2385TIP3    H2 7113   0.129   1.578   4.956
 2386TIP3   OH2 7114   0.461   1.430   4.510
 2386TIP3    H1 7115   0.391   1.499   4.514
 2386TIP3    H2 7116   0.519   1.466   4.439
 2387TIP3   OH2 7117   0.981   1.840   4.651
 2387TIP3    H1 7118   1.056   1.805   4.600
 2387TIP3    H2 7119   0.973   1.775   4.722
 2388TIP3   OH2 7120   0.582   1.218   4.635
 2388TIP3    H1 7121   0.595   1.144   4.572
 2388TIP3    H2 7122   0.544   1.288   4.578
 2389TIP3   OH2 7123   0.608   1.020   4.447
 2389TIP3    H1 7124   0.630   1.061   4.361
 2389TIP3    H2 7125   0.519   0.983   4.428
 2390TIP3   OH2 7126   0.611   1.545   4.322
 2390TIP3    H1 7127   0.698   1.556   4.283
 2390TIP3    H2 7128   0.558   1.613   4.276
 2391TIP3   OH2 7129   1.194   1.511   4.704
 2391TIP3    H1 7130   1.237   1.426   4.721
 2391TIP3    H2 7131   1.266   1.562   4.664
 2392TIP3   OH2 7132   1.235   1.770   4.444
 2392TIP3    H1 7133   1.178   1.825   4.384
 2392TIP3    H2 7134   1.323   1.789   4.405
 2393TIP3   OH2 7135   0.493   1.339   4.866
 2393TIP3    H1 7136   0.402   1.322   4.895
 2393TIP3    H2 7137   0.504   1.290   4.783
 2394TIP3   OH2 7138   0.761   0.798   4.496
 2394TIP3    H1 7139   0.712   0.882   4.479
 2394TIP3    H2 7140   0.686   0.737   4.504
 2395TIP3   OH2 7141   0.841   1.280   4.736
 2395TIP3    H1 7142   0.833   1.261   4.831
 2395TIP3    H2 7143   0.752   1.253   4.706
 2396TIP3   OH2 7144   1.083   1.235   4.592
 2396TIP3    H1 7145   1.010   1.230   4.656
 2396TIP3    H2 7146   1.159   1.204   4.646
 2397TIP3   OH2 7147   1.311   1.179   4.737
 2397TIP3    H1 7148   1.325   1.082   4.745
 2397TIP3    H2 7149   1.309   1.208   4.830
 2398TIP3   OH2 7150   0.795   0.761   4.766
 2398TIP3    H1 7151   0.875   0.706   4.771
 2398TIP3    H2 7152   0.791   0.778   4.670
 2399TIP3   OH2 7153   0.882   1.000   4.911
 2399TIP3    H1 7154   0.844   0.924   4.863
 2399TIP3    H2 7155   0.803   1.057   4.924
 2400TIP3   OH2 7156  -0.390   2.101   3.862
 2400TIP3    H1 7157  -0.383   2.017   3.910
 2400TIP3    H2 7158  -0.327   2.155   3.913
 2401TIP3   OH2 7159   1.359   2.476   3.654
 2401TIP3    H1 7160   1.385   2.503   3.744
 2401TIP3    H2 7161   1.427   2.517   3.600
 2402TIP3   OH2 7162   1.388   2.492   3.936
 2402TIP3    H1 7163   1.342   2.406   3.932
 2402TIP3    H2 7164   1.461   2.468   3.994
 2403TIP3   OH2 7165   1.433   2.171   4.509
 2403TIP3    H1 7166   1.362   2.181   4.575
 2403TIP3    H2 7167   1.476   2.259   4.513
 2404TIP3   OH2 7168   1.252   1.687   3.129
 2404TIP3    H1 7169   1.324   1.749   3.107
 2404TIP3    H2 7170   1.289   1.643   3.209
 2405TIP3   OH2 7171   1.380   1.552   3.330
 2405TIP3    H1 7172   1.311   1.507   3.384
 2405TIP3    H2 7173   1.439   1.588   3.399
 2406TIP3   OH2 7174   1.434   1.945   3.763
 2406TIP3    H1 7175   1.487   1.875   3.720
 2406TIP3    H2 7176   1.426   2.012   3.693
 2407TIP3   OH2 7177   1.262   2.245   3.957
 2407TIP3    H1 7178   1.189   2.284   4.009
 2407TIP3    H2 7179   1.213   2.198   3.886
 2408TIP3   OH2 7180   1.301   1.472   2.962
 2408TIP3    H1 7181   1.213   1.431   2.965
 2408TIP3    H2 7182   1.283   1.551   3.016
 2409TIP3   OH2 7183   1.203   1.416   3.480
 2409TIP3    H1 7184   1.196   1.319   3.462
 2409TIP3    H2 7185   1.182   1.420   3.575
 2410TIP3   OH2 7186  -0.177   1.470   4.240
 2410TIP3    H1 7187  -0.177   1.498   4.148
 2410TIP3    H2 7188  -0.081   1.475   4.260
 2411TIP3   OH2 7189   1.482   1.834   4.336
 2411TIP3    H1 7190   1.552   1.765   4.326
 2411TIP3    H2 7191   1.507   1.899   4.269
 2412TIP3   OH2 7192   1.664   1.634   4.346
 2412TIP3    H1 7193   1.589   1.584   4.385
 2412TIP3    H2 7194   1.737   1.571   4.363
 2413TIP3   OH2 7195   1.174   1.153   3.412
 2413TIP3    H1 7196   1.235   1.076   3.412
 2413TIP3    H2 7197   1.143   1.157   3.319
 2414TIP3   OH2 7198   1.346   1.295   3.867
 2414TIP3    H1 7199   1.432   1.319   3.824
 2414TIP3    H2 7200   1.363   1.332   3.956
 2415TIP3   OH2 7201   1.421   1.442   4.097
 2415TIP3    H1 7202   1.343   1.475   4.145
 2415TIP3    H2 7203   1.454   1.523   4.053
 2416TIP3   OH2 7204   1.872   1.038   4.653
 2416TIP3    H1 7205   1.932   0.972   4.612
 2416TIP3    H2 7206   1.840   1.088   4.575
 2417TIP3   OH2 7207   1.322   0.919   3.431
 2417TIP3    H1 7208   1.339   0.874   3.516
 2417TIP3    H2 7209   1.281   0.849   3.376
 2418TIP3   OH2 7210   1.739   1.171   4.454
 2418TIP3    H1 7211   1.653   1.212   4.476
 2418TIP3    H2 7212   1.708   1.096   4.399
 2419TIP3   OH2 7213   0.944   2.342   3.311
 2419TIP3    H1 7214   0.993   2.330   3.227
 2419TIP3    H2 7215   0.999   2.406   3.357
 2420TIP3   OH2 7216   0.032   2.150   4.699
 2420TIP3    H1 7217  -0.010   2.068   4.673
 2420TIP3    H2 7218   0.052   2.137   4.792
 2421TIP3   OH2 7219   0.222   2.181   4.242
 2421TIP3    H1 7220   0.176   2.258   4.202
 2421TIP3    H2 7221   0.308   2.193   4.198
 2422TIP3   OH2 7222   0.662   2.423   4.380
 2422TIP3    H1 7223   0.705   2.421   4.468
 2422TIP3    H2 7224   0.728   2.474   4.328
 2423TIP3   OH2 7225   0.842   2.576   4.240
 2423TIP3    H1 7226   0.911   2.524   4.197
 2423TIP3    H2 7227   0.896   2.632   4.301
 2424TIP3   OH2 7228   1.642   0.934   4.337
 2424TIP3    H1 7229   1.550   0.923   4.305
 2424TIP3    H2 7230   1.675   0.842   4.329
 2425TIP3   OH2 7231  -0.104   2.436   4.267
 2425TIP3    H1 7232  -0.194   2.467   4.245
 2425TIP3    H2 7233  -0.094   2.472   4.355
 2426TIP3   OH2 7234   0.134   2.415   4.127
 2426TIP3    H1 7235   0.046   2.427   4.169
 2426TIP3    H2 7236   0.116   2.442   4.035
 2427TIP3   OH2 7237   0.558   2.439   3.924
 2427TIP3    H1 7238   0.489   2.456   3.857
 2427TIP3    H2 7239   0.569   2.527   3.964
 2428TIP3   OH2 7240   0.828   2.380   3.977
 2428TIP3    H1 7241   0.734   2.397   3.955
 2428TIP3    H2 7242   0.873   2.452   3.930
 2429TIP3   OH2 7243   1.034   2.571   3.887
 2429TIP3    H1 7244   1.020   2.654   3.838
 2429TIP3    H2 7245   1.061   2.509   3.815
 2430TIP3   OH2 7246  -0.185   2.230   4.006
 2430TIP3    H1 7247  -0.172   2.200   4.098
 2430TIP3    H2 7248  -0.118   2.176   3.959
 2431TIP3   OH2 7249   0.002   2.090   3.866
 2431TIP3    H1 7250   0.021   2.011   3.921
 2431TIP3    H2 7251   0.091   2.132   3.859
 2432TIP3   OH2 7252   0.271   2.194   3.876
 2432TIP3    H1 7253   0.302   2.103   3.859
 2432TIP3    H2 7254   0.320   2.213   3.958
 2433TIP3   OH2 7255   0.842   0.859   3.956
 2433TIP3    H1 7256   0.803   0.790   4.013
 2433TIP3    H2 7257   0.914   0.812   3.910
 2434TIP3   OH2 7258   1.364   0.728   3.873
 2434TIP3    H1 7259   1.408   0.777   3.801
 2434TIP3    H2 7260   1.271   0.750   3.858
 2435TIP3   OH2 7261   1.484   0.824   3.646
 2435TIP3    H1 7262   1.555   0.780   3.597
 2435TIP3    H2 7263   1.505   0.918   3.626
 2436TIP3   OH2 7264   1.077   0.736   3.839
 2436TIP3    H1 7265   1.088   0.704   3.749
 2436TIP3    H2 7266   1.069   0.652   3.889
 2437TIP3   OH2 7267   0.376   2.194   3.001
 2437TIP3    H1 7268   0.461   2.189   2.951
 2437TIP3    H2 7269   0.312   2.165   2.934
 2438TIP3   OH2 7270   1.091   2.308   3.078
 2438TIP3    H1 7271   1.085   2.210   3.071
 2438TIP3    H2 7272   1.041   2.336   2.999
 2439TIP3   OH2 7273   1.370   0.913   4.743
 2439TIP3    H1 7274   1.391   0.872   4.830
 2439TIP3    H2 7275   1.460   0.908   4.703
 2440TIP3   OH2 7276   1.311   2.450   4.263
 2440TIP3    H1 7277   1.233   2.420   4.213
 2440TIP3    H2 7278   1.292   2.546   4.270
 2441TIP3   OH2 7279   2.583   1.825   3.023
 2441TIP3    H1 7280   2.554   1.916   3.006
 2441TIP3    H2 7281   2.502   1.775   3.006
 2442TIP3   OH2 7282   2.575   1.821   3.418
 2442TIP3    H1 7283   2.616   1.803   3.505
 2442TIP3    H2 7284   2.536   1.734   3.398
 2443TIP3   OH2 7285   1.876   1.716   3.777
 2443TIP3    H1 7286   1.903   1.645   3.838
 2443TIP3    H2 7287   1.958   1.767   3.772
 2444TIP3   OH2 7288   2.823   2.129   3.096
 2444TIP3    H1 7289   2.811   2.058   3.162
 2444TIP3    H2 7290   2.856   2.202   3.151
 2445TIP3   OH2 7291   1.849   2.130   3.495
 2445TIP3    H1 7292   1.841   2.032   3.496
 2445TIP3    H2 7293   1.945   2.139   3.503
 2446TIP3   OH2 7294   1.556   1.335   3.278
 2446TIP3    H1 7295   1.503   1.415   3.291
 2446TIP3    H2 7296   1.490   1.266   3.291
 2447TIP3   OH2 7297   1.616   1.619   3.465
 2447TIP3    H1 7298   1.663   1.539   3.499
 2447TIP3    H2 7299   1.670   1.642   3.389
 2448TIP3   OH2 7300   2.474   2.588   3.110
 2448TIP3    H1 7301   2.518   2.516   3.061
 2448TIP3    H2 7302   2.468   2.550   3.199
 2449TIP3   OH2 7303   2.379   2.051   3.457
 2449TIP3    H1 7304   2.419   1.970   3.421
 2449TIP3    H2 7305   2.461   2.098   3.482
 2450TIP3   OH2 7306   3.393   1.374   3.458
 2450TIP3    H1 7307   3.424   1.454   3.506
 2450TIP3    H2 7308   3.412   1.399   3.366
 2451TIP3   OH2 7309   2.794   1.554   3.486
 2451TIP3    H1 7310   2.833   1.469   3.513
 2451TIP3    H2 7311   2.758   1.531   3.399
 2452TIP3   OH2 7312   2.128   1.210   3.454
 2452TIP3    H1 7313   2.108   1.281   3.390
 2452TIP3    H2 7314   2.082   1.135   3.412
 2453TIP3   OH2 7315   2.826   1.300   3.077
 2453TIP3    H1 7316   2.893   1.284   3.147
 2453TIP3    H2 7317   2.884   1.338   3.008
 2454TIP3   OH2 7318   1.762   1.409   3.561
 2454TIP3    H1 7319   1.844   1.390   3.610
 2454TIP3    H2 7320   1.777   1.353   3.482
 2455TIP3   OH2 7321   2.202   1.609   3.358
 2455TIP3    H1 7322   2.296   1.584   3.372
 2455TIP3    H2 7323   2.164   1.523   3.328
 2456TIP3   OH2 7324   3.472   1.586   3.614
 2456TIP3    H1 7325   3.385   1.627   3.599
 2456TIP3    H2 7326   3.468   1.580   3.711
 2457TIP3   OH2 7327   2.121   1.205   3.896
 2457TIP3    H1 7328   2.060   1.238   3.828
 2457TIP3    H2 7329   2.068   1.222   3.977
 2458TIP3   OH2 7330   2.471   2.047   2.893
 2458TIP3    H1 7331   2.425   2.028   2.811
 2458TIP3    H2 7332   2.425   2.128   2.922
 2459TIP3   OH2 7333   2.232   1.970   3.681
 2459TIP3    H1 7334   2.172   2.037   3.720
 2459TIP3    H2 7335   2.276   2.020   3.609
 2460TIP3   OH2 7336   3.029   1.307   3.255
 2460TIP3    H1 7337   3.003   1.267   3.339
 2460TIP3    H2 7338   3.079   1.386   3.284
 2461TIP3   OH2 7339   1.996   1.309   3.673
 2461TIP3    H1 7340   2.060   1.379   3.699
 2461TIP3    H2 7341   2.046   1.267   3.599
 2462TIP3   OH2 7342   2.059   2.166   3.781
 2462TIP3    H1 7343   2.034   2.255   3.749
 2462TIP3    H2 7344   1.981   2.146   3.837
 2463TIP3   OH2 7345   1.457   1.856   3.019
 2463TIP3    H1 7346   1.403   1.886   2.945
 2463TIP3    H2 7347   1.488   1.940   3.057
 2464TIP3   OH2 7348   2.889   2.372   3.256
 2464TIP3    H1 7349   2.800   2.361   3.296
 2464TIP3    H2 7350   2.880   2.459   3.214
 2465TIP3   OH2 7351   3.186   1.266   3.621
 2465TIP3    H1 7352   3.101   1.303   3.594
 2465TIP3    H2 7353   3.247   1.301   3.553
 2466TIP3   OH2 7354   2.591   2.415   2.926
 2466TIP3    H1 7355   2.642   2.332   2.912
 2466TIP3    H2 7356   2.655   2.479   2.890
 2467TIP3   OH2 7357   2.737   2.199   2.845
 2467TIP3    H1 7358   2.689   2.120   2.816
 2467TIP3    H2 7359   2.777   2.167   2.929
 2468TIP3   OH2 7360   3.107   2.282   3.598
 2468TIP3    H1 7361   3.100   2.202   3.541
 2468TIP3    H2 7362   3.099   2.354   3.532
 2469TIP3   OH2 7363   2.405   1.671   2.859
 2469TIP3    H1 7364   2.327   1.726   2.841
 2469TIP3    H2 7365   2.455   1.677   2.776
 2470TIP3   OH2 7366   2.366   1.466   2.574
 2470TIP3    H1 7367   2.429   1.515   2.629
 2470TIP3    H2 7368   2.426   1.406   2.527
 2471TIP3   OH2 7369   3.313   1.919   3.445
 2471TIP3    H1 7370   3.230   1.970   3.451
 2471TIP3    H2 7371   3.344   1.946   3.356
 2472TIP3   OH2 7372   2.761   1.756   2.830
 2472TIP3    H1 7373   2.706   1.780   2.908
 2472TIP3    H2 7374   2.845   1.733   2.875
 2473TIP3   OH2 7375   2.996   1.794   3.752
 2473TIP3    H1 7376   2.994   1.875   3.806
 2473TIP3    H2 7377   2.910   1.800   3.706
 2474TIP3   OH2 7378   1.994   1.754   3.246
 2474TIP3    H1 7379   1.954   1.694   3.180
 2474TIP3    H2 7380   2.068   1.700   3.281
 2475TIP3   OH2 7381   2.128   2.174   3.392
 2475TIP3    H1 7382   2.103   2.123   3.314
 2475TIP3    H2 7383   2.216   2.137   3.414
 2476TIP3   OH2 7384   2.125   1.726   3.604
 2476TIP3    H1 7385   2.160   1.700   3.516
 2476TIP3    H2 7386   2.170   1.811   3.621
 2477TIP3   OH2 7387   2.649   2.363   3.379
 2477TIP3    H1 7388   2.642   2.442   3.437
 2477TIP3    H2 7389   2.635   2.289   3.442
 2478TIP3   OH2 7390   2.266   2.284   3.925
 2478TIP3    H1 7391   2.205   2.344   3.974
 2478TIP3    H2 7392   2.202   2.229   3.876
 2479TIP3   OH2 7393   2.599   1.616   2.659
 2479TIP3    H1 7394   2.657   1.677   2.710
 2479TIP3    H2 7395   2.626   1.637   2.567
 2480TIP3   OH2 7396   2.020   1.841   4.030
 2480TIP3    H1 7397   2.023   1.928   4.074
 2480TIP3    H2 7398   1.926   1.817   4.044
 2481TIP3   OH2 7399   2.342   2.294   2.927
 2481TIP3    H1 7400   2.427   2.340   2.941
 2481TIP3    H2 7401   2.283   2.365   2.901
 2482TIP3   OH2 7402   2.058   2.447   4.015
 2482TIP3    H1 7403   2.021   2.450   3.925
 2482TIP3    H2 7404   1.978   2.428   4.069
 2483TIP3   OH2 7405   3.107   0.868   2.702
 2483TIP3    H1 7406   3.027   0.859   2.757
 2483TIP3    H2 7407   3.120   0.963   2.708
 2484TIP3   OH2 7408   1.862   1.597   3.043
 2484TIP3    H1 7409   1.787   1.637   2.995
 2484TIP3    H2 7410   1.825   1.513   3.073
 2485TIP3   OH2 7411   2.915   2.221   2.257
 2485TIP3    H1 7412   2.922   2.317   2.240
 2485TIP3    H2 7413   3.008   2.192   2.244
 2486TIP3   OH2 7414   1.638   1.983   3.961
 2486TIP3    H1 7415   1.570   1.960   3.894
 2486TIP3    H2 7416   1.675   1.895   3.984
 2487TIP3   OH2 7417   1.492   2.179   3.585
 2487TIP3    H1 7418   1.588   2.166   3.584
 2487TIP3    H2 7419   1.484   2.252   3.648
 2488TIP3   OH2 7420   3.350   2.624   3.645
 2488TIP3    H1 7421   3.354   2.529   3.666
 2488TIP3    H2 7422   3.270   2.650   3.695
 2489TIP3   OH2 7423   2.458   2.415   3.781
 2489TIP3    H1 7424   2.456   2.506   3.817
 2489TIP3    H2 7425   2.389   2.372   3.837
 2490TIP3   OH2 7426   2.214   2.535   2.736
 2490TIP3    H1 7427   2.182   2.531   2.644
 2490TIP3    H2 7428   2.192   2.626   2.763
 2491TIP3   OH2 7429   1.666   2.386   3.120
 2491TIP3    H1 7430   1.709   2.379   3.209
 2491TIP3    H2 7431   1.613   2.304   3.120
 2492TIP3   OH2 7432   2.412   2.437   2.382
 2492TIP3    H1 7433   2.473   2.372   2.340
 2492TIP3    H2 7434   2.454   2.450   2.469
 2493TIP3   OH2 7435   2.473   2.492   2.650
 2493TIP3    H1 7436   2.386   2.495   2.696
 2493TIP3    H2 7437   2.529   2.453   2.718
 2494TIP3   OH2 7438   3.244   1.752   3.935
 2494TIP3    H1 7439   3.165   1.761   3.881
 2494TIP3    H2 7440   3.268   1.659   3.916
 2495TIP3   OH2 7441   1.841   2.166   3.946
 2495TIP3    H1 7442   1.891   2.149   4.028
 2495TIP3    H2 7443   1.767   2.101   3.954
 2496TIP3   OH2 7444   2.234   0.993   3.760
 2496TIP3    H1 7445   2.158   0.960   3.710
 2496TIP3    H2 7446   2.196   1.072   3.803
 2497TIP3   OH2 7447   2.776   1.100   3.926
 2497TIP3    H1 7448   2.847   1.073   3.989
 2497TIP3    H2 7449   2.694   1.082   3.976
 2498TIP3   OH2 7450   2.994   1.522   3.840
 2498TIP3    H1 7451   2.965   1.524   3.933
 2498TIP3    H2 7452   2.994   1.616   3.814
 2499TIP3   OH2 7453   2.675   1.653   2.403
 2499TIP3    H1 7454   2.641   1.635   2.313
 2499TIP3    H2 7455   2.755   1.706   2.381
 2500TIP3   OH2 7456   2.389   1.042   2.706
 2500TIP3    H1 7457   2.362   1.038   2.800
 2500TIP3    H2 7458   2.357   0.955   2.676
 2501TIP3   OH2 7459   2.174   1.505   3.754
 2501TIP3    H1 7460   2.124   1.525   3.836
 2501TIP3    H2 7461   2.158   1.586   3.701
 2502TIP3   OH2 7462   2.052   1.393   3.267
 2502TIP3    H1 7463   1.962   1.362   3.288
 2502TIP3    H2 7464   2.067   1.348   3.181
 2503TIP3   OH2 7465   2.548   1.476   2.996
 2503TIP3    H1 7466   2.495   1.547   2.953
 2503TIP3    H2 7467   2.601   1.443   2.921
 2504TIP3   OH2 7468   2.724   1.752   4.080
 2504TIP3    H1 7469   2.702   1.678   4.142
 2504TIP3    H2 7470   2.818   1.764   4.102
 2505TIP3   OH2 7471   2.705   1.501   3.232
 2505TIP3    H1 7472   2.641   1.527   3.164
 2505TIP3    H2 7473   2.739   1.419   3.189
 2506TIP3   OH2 7474   1.991   1.531   3.961
 2506TIP3    H1 7475   2.029   1.591   4.027
 2506TIP3    H2 7476   1.979   1.448   4.012
 2507TIP3   OH2 7477   2.040   0.986   2.681
 2507TIP3    H1 7478   2.038   0.989   2.779
 2507TIP3    H2 7479   1.974   1.055   2.660
 2508TIP3   OH2 7480   1.591   1.053   3.543
 2508TIP3    H1 7481   1.664   1.086   3.599
 2508TIP3    H2 7482   1.635   1.019   3.464
 2509TIP3   OH2 7483   1.595   1.057   3.070
 2509TIP3    H1 7484   1.635   1.073   2.984
 2509TIP3    H2 7485   1.515   1.113   3.066
 2510TIP3   OH2 7486   2.709   1.749   3.652
 2510TIP3    H1 7487   2.747   1.678   3.594
 2510TIP3    H2 7488   2.683   1.694   3.729
 2511TIP3   OH2 7489   2.385   1.223   3.325
 2511TIP3    H1 7490   2.306   1.210   3.382
 2511TIP3    H2 7491   2.457   1.201   3.387
 2512TIP3   OH2 7492   1.818   1.268   3.331
 2512TIP3    H1 7493   1.725   1.275   3.300
 2512TIP3    H2 7494   1.841   1.175   3.311
 2513TIP3   OH2 7495   2.088   1.264   3.033
 2513TIP3    H1 7496   2.182   1.279   3.014
 2513TIP3    H2 7497   2.042   1.288   2.949
 2514TIP3   OH2 7498   2.869   1.288   3.523
 2514TIP3    H1 7499   2.845   1.301   3.618
 2514TIP3    H2 7500   2.799   1.225   3.496
 2515TIP3   OH2 7501   1.938   1.309   2.813
 2515TIP3    H1 7502   1.856   1.269   2.780
 2515TIP3    H2 7503   1.983   1.336   2.731
 2516TIP3   OH2 7504   3.046   2.979   3.752
 2516TIP3    H1 7505   3.052   2.991   3.655
 2516TIP3    H2 7506   3.131   3.019   3.781
 2517TIP3   OH2 7507   2.004   2.090   4.169
 2517TIP3    H1 7508   2.085   2.116   4.218
 2517TIP3    H2 7509   1.940   2.085   4.242
 2518TIP3   OH2 7510   2.464   1.545   3.430
 2518TIP3    H1 7511   2.532   1.493   3.385
 2518TIP3    H2 7512   2.462   1.504   3.519
 2519TIP3   OH2 7513   1.986   1.027   3.305
 2519TIP3    H1 7514   1.944   0.956   3.359
 2519TIP3    H2 7515   2.045   0.975   3.250
 2520TIP3   OH2 7516   2.445   1.451   3.700
 2520TIP3    H1 7517   2.354   1.477   3.727
 2520TIP3    H2 7518   2.501   1.503   3.761
 2521TIP3   OH2 7519   2.177   1.828   2.807
 2521TIP3    H1 7520   2.108   1.759   2.798
 2521TIP3    H2 7521   2.159   1.861   2.898
 2522TIP3   OH2 7522   3.079   2.064   3.434
 2522TIP3    H1 7523   3.104   2.114   3.353
 2522TIP3    H2 7524   2.995   2.021   3.407
 2523TIP3   OH2 7525   2.629   1.154   2.637
 2523TIP3    H1 7526   2.541   1.123   2.670
 2523TIP3    H2 7527   2.644   1.237   2.688
 2524TIP3   OH2 7528   2.578   2.147   3.805
 2524TIP3    H1 7529   2.615   2.123   3.891
 2524TIP3    H2 7530   2.540   2.235   3.821
 2525TIP3   OH2 7531   2.708   1.383   2.773
 2525TIP3    H1 7532   2.801   1.394   2.800
 2525TIP3    H2 7533   2.688   1.469   2.731
 2526TIP3   OH2 7534   1.877   1.856   3.482
 2526TIP3    H1 7535   1.914   1.821   3.399
 2526TIP3    H2 7536   1.914   1.795   3.548
 2527TIP3   OH2 7537   2.325   1.973   2.631
 2527TIP3    H1 7538   2.275   2.058   2.633
 2527TIP3    H2 7539   2.271   1.918   2.691
 2528TIP3   OH2 7540   1.755   1.771   4.100
 2528TIP3    H1 7541   1.773   1.755   4.194
 2528TIP3    H2 7542   1.687   1.704   4.081
 2529TIP3   OH2 7543   2.484   1.887   4.117
 2529TIP3    H1 7544   2.424   1.825   4.073
 2529TIP3    H2 7545   2.571   1.850   4.091
 2530TIP3   OH2 7546   2.735   2.417   3.698
 2530TIP3    H1 7547   2.640   2.409   3.716
 2530TIP3    H2 7548   2.766   2.462   3.779
 2531TIP3   OH2 7549   3.129   1.494   2.632
 2531TIP3    H1 7550   3.081   1.441   2.569
 2531TIP3    H2 7551   3.131   1.580   2.584
 2532TIP3   OH2 7552   3.357   2.334   3.689
 2532TIP3    H1 7553   3.259   2.328   3.680
 2532TIP3    H2 7554   3.385   2.305   3.600
 2533TIP3   OH2 7555   2.847   2.298   2.521
 2533TIP3    H1 7556   2.825   2.228   2.584
 2533TIP3    H2 7557   2.863   2.249   2.438
 2534TIP3   OH2 7558   2.843   1.930   3.347
 2534TIP3    H1 7559   2.752   1.903   3.365
 2534TIP3    H2 7560   2.879   1.847   3.309
 2535TIP3   OH2 7561   1.971   2.152   3.102
 2535TIP3    H1 7562   1.965   2.238   3.057
 2535TIP3    H2 7563   1.881   2.136   3.131
 2536TIP3   OH2 7564   1.547   1.455   2.835
 2536TIP3    H1 7565   1.587   1.543   2.854
 2536TIP3    H2 7566   1.460   1.465   2.879
 2537TIP3   OH2 7567   2.108   1.917   3.049
 2537TIP3    H1 7568   2.071   2.005   3.071
 2537TIP3    H2 7569   2.077   1.864   3.125
 2538TIP3   OH2 7570   2.245   2.497   3.579
 2538TIP3    H1 7571   2.292   2.568   3.530
 2538TIP3    H2 7572   2.319   2.457   3.629
 2539TIP3   OH2 7573   1.888   2.396   2.956
 2539TIP3    H1 7574   1.806   2.402   3.010
 2539TIP3    H2 7575   1.921   2.489   2.965
 2540TIP3   OH2 7576   2.630   2.132   3.538
 2540TIP3    H1 7577   2.616   2.131   3.636
 2540TIP3    H2 7578   2.711   2.080   3.531
 2541TIP3   OH2 7579   2.608   2.024   2.423
 2541TIP3    H1 7580   2.663   1.998   2.501
 2541TIP3    H2 7581   2.520   1.998   2.453
 2542TIP3   OH2 7582   2.877   2.664   3.592
 2542TIP3    H1 7583   2.801   2.602   3.590
 2542TIP3    H2 7584   2.857   2.724   3.517
 2543TIP3   OH2 7585   2.945   2.497   2.238
 2543TIP3    H1 7586   2.980   2.570   2.186
 2543TIP3    H2 7587   2.864   2.540   2.273
 2544TIP3   OH2 7588   1.960   1.279   4.108
 2544TIP3    H1 7589   1.863   1.278   4.119
 2544TIP3    H2 7590   1.988   1.220   4.179
 2545TIP3   OH2 7591   2.771   1.952   2.633
 2545TIP3    H1 7592   2.761   1.891   2.709
 2545TIP3    H2 7593   2.868   1.951   2.623
 2546TIP3   OH2 7594   1.682   2.357   3.737
 2546TIP3    H1 7595   1.736   2.284   3.773
 2546TIP3    H2 7596   1.706   2.428   3.797
 2547TIP3   OH2 7597   1.984   1.995   2.424
 2547TIP3    H1 7598   1.992   1.900   2.399
 2547TIP3    H2 7599   1.952   1.988   2.515
 2548TIP3   OH2 7600   1.911   2.012   2.697
 2548TIP3    H1 7601   1.986   1.976   2.747
 2548TIP3    H2 7602   1.923   2.108   2.707
 2549TIP3   OH2 7603   1.651   1.705   2.898
 2549TIP3    H1 7604   1.584   1.749   2.954
 2549TIP3    H2 7605   1.663   1.773   2.829
 2550TIP3   OH2 7606   2.804   1.335   3.783
 2550TIP3    H1 7607   2.881   1.383   3.817
 2550TIP3    H2 7608   2.797   1.258   3.843
 2551TIP3   OH2 7609   2.707   1.092   2.946
 2551TIP3    H1 7610   2.678   1.131   2.862
 2551TIP3    H2 7611   2.740   1.171   2.994
 2552TIP3   OH2 7612   2.179   2.200   2.640
 2552TIP3    H1 7613   2.105   2.236   2.690
 2552TIP3    H2 7614   2.202   2.274   2.582
 2553TIP3   OH2 7615   2.367   1.274   3.056
 2553TIP3    H1 7616   2.432   1.347   3.045
 2553TIP3    H2 7617   2.373   1.259   3.154
 2554TIP3   OH2 7618   2.643   1.588   3.863
 2554TIP3    H1 7619   2.668   1.640   3.942
 2554TIP3    H2 7620   2.698   1.509   3.873
 2555TIP3   OH2 7621   2.517   0.995   3.141
 2555TIP3    H1 7622   2.513   1.043   3.225
 2555TIP3    H2 7623   2.589   1.040   3.092
 2556TIP3   OH2 7624   1.895   2.299   2.705
 2556TIP3    H1 7625   1.938   2.382   2.679
 2556TIP3    H2 7626   1.896   2.312   2.804
 2557TIP3   OH2 7627   2.043   1.006   2.953
 2557TIP3    H1 7628   2.039   1.092   2.998
 2557TIP3    H2 7629   2.139   0.987   2.965
 2558TIP3   OH2 7630   3.279   1.504   3.804
 2558TIP3    H1 7631   3.216   1.479   3.874
 2558TIP3    H2 7632   3.266   1.432   3.742
 2559TIP3   OH2 7633   2.931   1.685   3.233
 2559TIP3    H1 7634   2.855   1.626   3.250
 2559TIP3    H2 7635   3.003   1.639   3.281
 2560TIP3   OH2 7636   1.651   1.912   2.700
 2560TIP3    H1 7637   1.731   1.965   2.716
 2560TIP3    H2 7638   1.688   1.848   2.635
 2561TIP3   OH2 7639   1.626   1.194   2.788
 2561TIP3    H1 7640   1.614   1.285   2.823
 2561TIP3    H2 7641   1.533   1.164   2.787
 2562TIP3   OH2 7642   2.899   2.645   3.180
 2562TIP3    H1 7643   2.858   2.695   3.105
 2562TIP3    H2 7644   2.994   2.664   3.161
 2563TIP3   OH2 7645   1.966   0.910   3.711
 2563TIP3    H1 7646   1.943   0.875   3.622
 2563TIP3    H2 7647   1.964   0.830   3.766
 2564TIP3   OH2 7648   1.514   2.131   3.088
 2564TIP3    H1 7649   1.451   2.156   3.157
 2564TIP3    H2 7650   1.474   2.172   3.008
 2565TIP3   OH2 7651   1.675   2.674   4.160
 2565TIP3    H1 7652   1.761   2.675   4.207
 2565TIP3    H2 7653   1.657   2.578   4.159
 2566TIP3   OH2 7654   2.150   2.631   4.204
 2566TIP3    H1 7655   2.244   2.613   4.213
 2566TIP3    H2 7656   2.126   2.567   4.133
 2567TIP3   OH2 7657   2.132   2.206   2.333
 2567TIP3    H1 7658   2.081   2.129   2.368
 2567TIP3    H2 7659   2.210   2.162   2.297
 2568TIP3   OH2 7660   2.793   2.538   3.938
 2568TIP3    H1 7661   2.784   2.469   4.008
 2568TIP3    H2 7662   2.872   2.587   3.969
 2569TIP3   OH2 7663   2.567   2.250   2.248
 2569TIP3    H1 7664   2.615   2.187   2.305
 2569TIP3    H2 7665   2.621   2.249   2.166
 2570TIP3   OH2 7666   1.802   2.076   4.361
 2570TIP3    H1 7667   1.819   1.980   4.369
 2570TIP3    H2 7668   1.716   2.077   4.315
 2571TIP3   OH2 7669   1.790   1.724   2.568
 2571TIP3    H1 7670   1.849   1.692   2.639
 2571TIP3    H2 7671   1.852   1.729   2.493
 2572TIP3   OH2 7672   2.408   2.161   4.136
 2572TIP3    H1 7673   2.370   2.179   4.048
 2572TIP3    H2 7674   2.441   2.069   4.127
 2573TIP3   OH2 7675   2.298   1.921   2.362
 2573TIP3    H1 7676   2.298   1.933   2.459
 2573TIP3    H2 7677   2.294   1.823   2.355
 2574TIP3   OH2 7678   2.898   2.172   3.741
 2574TIP3    H1 7679   2.976   2.213   3.698
 2574TIP3    H2 7680   2.831   2.241   3.724
 2575TIP3   OH2 7681   1.924   1.814   4.343
 2575TIP3    H1 7682   1.999   1.759   4.317
 2575TIP3    H2 7683   1.953   1.845   4.431
 2576TIP3   OH2 7684   1.985   1.630   2.776
 2576TIP3    H1 7685   1.955   1.599   2.863
 2576TIP3    H2 7686   2.022   1.549   2.736
 2577TIP3   OH2 7687   2.254   1.692   4.004
 2577TIP3    H1 7688   2.178   1.754   4.004
 2577TIP3    H2 7689   2.308   1.727   3.930
 2578TIP3   OH2 7690   2.090   1.420   2.614
 2578TIP3    H1 7691   2.067   1.437   2.521
 2578TIP3    H2 7692   2.188   1.427   2.611
 2579TIP3   OH2 7693   2.776   2.096   4.136
 2579TIP3    H1 7694   2.858   2.069   4.094
 2579TIP3    H2 7695   2.769   2.032   4.209
 2580TIP3   OH2 7696   2.909   1.754   2.282
 2580TIP3    H1 7697   2.887   1.711   2.197
 2580TIP3    H2 7698   2.875   1.844   2.263
 2581TIP3   OH2 7699   2.378   1.483   4.131
 2581TIP3    H1 7700   2.382   1.405   4.073
 2581TIP3    H2 7701   2.335   1.549   4.073
 2582TIP3   OH2 7702   2.383   1.274   3.938
 2582TIP3    H1 7703   2.413   1.304   3.851
 2582TIP3    H2 7704   2.290   1.250   3.921
 2583TIP3   OH2 7705   2.406   1.802   3.813
 2583TIP3    H1 7706   2.493   1.810   3.772
 2583TIP3    H2 7707   2.353   1.868   3.764
 2584TIP3   OH2 7708   2.994   1.764   4.196
 2584TIP3    H1 7709   3.043   1.680   4.208
 2584TIP3    H2 7710   3.062   1.819   4.155
 2585TIP3   OH2 7711   3.032   2.024   3.925
 2585TIP3    H1 7712   2.974   2.079   3.867
 2585TIP3    H2 7713   3.120   2.044   3.886
 2586TIP3   OH2 7714   2.256   1.591   4.363
 2586TIP3    H1 7715   2.191   1.520   4.379
 2586TIP3    H2 7716   2.292   1.565   4.276
 2587TIP3   OH2 7717   2.514   1.031   4.007
 2587TIP3    H1 7718   2.463   1.111   3.983
 2587TIP3    H2 7719   2.447   0.961   3.995
 2588TIP3   OH2 7720   2.642   1.534   4.222
 2588TIP3    H1 7721   2.637   1.519   4.318
 2588TIP3    H2 7722   2.551   1.509   4.196
 2589TIP3   OH2 7723   2.885   1.486   4.084
 2589TIP3    H1 7724   2.810   1.486   4.147
 2589TIP3    H2 7725   2.955   1.440   4.134
 2590TIP3   OH2 7726   2.098   1.370   4.418
 2590TIP3    H1 7727   2.101   1.279   4.384
 2590TIP3    H2 7728   2.137   1.358   4.507
 2591TIP3   OH2 7729   2.607   1.039   4.265
 2591TIP3    H1 7730   2.674   0.968   4.258
 2591TIP3    H2 7731   2.567   1.035   4.176
 2592TIP3   OH2 7732   2.673   1.253   4.426
 2592TIP3    H1 7733   2.653   1.182   4.361
 2592TIP3    H2 7734   2.595   1.312   4.417
 2593TIP3   OH2 7735   1.875   2.474   2.494
 2593TIP3    H1 7736   1.974   2.461   2.485
 2593TIP3    H2 7737   1.867   2.543   2.423
 2594TIP3   OH2 7738   1.379   1.879   2.725
 2594TIP3    H1 7739   1.475   1.896   2.721
 2594TIP3    H2 7740   1.374   1.785   2.695
 2595TIP3   OH2 7741   1.295   2.480   3.154
 2595TIP3    H1 7742   1.229   2.419   3.115
 2595TIP3    H2 7743   1.338   2.420   3.219
 2596TIP3   OH2 7744   1.428   2.326   3.341
 2596TIP3    H1 7745   1.416   2.255   3.407
 2596TIP3    H2 7746   1.479   2.389   3.395
 2597TIP3   OH2 7747   3.152   2.742   3.142
 2597TIP3    H1 7748   3.185   2.760   3.232
 2597TIP3    H2 7749   3.229   2.764   3.087
 2598TIP3   OH2 7750   3.188   2.750   3.424
 2598TIP3    H1 7751   3.139   2.665   3.420
 2598TIP3    H2 7752   3.260   2.723   3.484
 2599TIP3   OH2 7753   3.224   2.430   3.992
 2599TIP3    H1 7754   3.157   2.439   4.062
 2599TIP3    H2 7755   3.273   2.515   3.999
 2600TIP3   OH2 7756   3.049   1.936   2.611
 2600TIP3    H1 7757   3.114   2.002   2.582
 2600TIP3    H2 7758   3.092   1.901   2.692
 2601TIP3   OH2 7759   3.173   1.807   2.818
 2601TIP3    H1 7760   3.109   1.766   2.881
 2601TIP3    H2 7761   3.242   1.842   2.878
 2602TIP3   OH2 7762   3.226   2.200   3.244
 2602TIP3    H1 7763   3.284   2.132   3.203
 2602TIP3    H2 7764   3.225   2.271   3.177
 2603TIP3   OH2 7765   3.057   2.505   3.437
 2603TIP3    H1 7766   2.986   2.538   3.497
 2603TIP3    H2 7767   3.006   2.456   3.369
 2604TIP3   OH2 7768   3.105   1.709   2.464
 2604TIP3    H1 7769   3.036   1.719   2.395
 2604TIP3    H2 7770   3.082   1.786   2.520
 2605TIP3   OH2 7771   2.986   1.666   2.967
 2605TIP3    H1 7772   2.997   1.570   2.968
 2605TIP3    H2 7773   2.970   1.685   3.063
 2606TIP3   OH2 7774   1.611   1.741   3.713
 2606TIP3    H1 7775   1.609   1.705   3.622
 2606TIP3    H2 7776   1.708   1.740   3.730
 2607TIP3   OH2 7777   3.276   2.090   3.817
 2607TIP3    H1 7778   3.346   2.021   3.809
 2607TIP3    H2 7779   3.310   2.161   3.760
 2608TIP3   OH2 7780   3.455   1.887   3.825
 2608TIP3    H1 7781   3.385   1.837   3.872
 2608TIP3    H2 7782   3.532   1.828   3.842
 2609TIP3   OH2 7783   2.983   1.377   2.858
 2609TIP3    H1 7784   3.024   1.289   2.868
 2609TIP3    H2 7785   3.049   1.421   2.801
 2610TIP3   OH2 7786   3.141   1.548   3.349
 2610TIP3    H1 7787   3.228   1.574   3.309
 2610TIP3    H2 7788   3.154   1.587   3.438
 2611TIP3   OH2 7789   3.210   1.697   3.570
 2611TIP3    H1 7790   3.141   1.727   3.632
 2611TIP3    H2 7791   3.246   1.781   3.537
 2612TIP3   OH2 7792   1.833   1.426   4.391
 2612TIP3    H1 7793   1.930   1.417   4.392
 2612TIP3    H2 7794   1.808   1.338   4.426
 2613TIP3   OH2 7795   3.703   1.316   4.138
 2613TIP3    H1 7796   3.727   1.232   4.095
 2613TIP3    H2 7797   3.639   1.352   4.073
 2614TIP3   OH2 7798   3.093   1.124   2.884
 2614TIP3    H1 7799   3.143   1.117   2.969
 2614TIP3    H2 7800   3.027   1.052   2.898
 2615TIP3   OH2 7801   1.790   1.120   3.720
 2615TIP3    H1 7802   1.848   1.042   3.727
 2615TIP3    H2 7803   1.856   1.191   3.709
 2616TIP3   OH2 7804   1.592   1.389   3.787
 2616TIP3    H1 7805   1.642   1.381   3.703
 2616TIP3    H2 7806   1.628   1.471   3.824
 2617TIP3   OH2 7807   3.531   1.429   3.954
 2617TIP3    H1 7808   3.452   1.444   4.011
 2617TIP3    H2 7809   3.494   1.361   3.894
 2618TIP3   OH2 7810   3.155   1.100   2.446
 2618TIP3    H1 7811   3.212   1.021   2.456
 2618TIP3    H2 7812   3.219   1.168   2.481
 2619TIP3   OH2 7813   1.580   0.900   3.293
 2619TIP3    H1 7814   1.491   0.910   3.332
 2619TIP3    H2 7815   1.575   0.956   3.214
 2620TIP3   OH2 7816   2.736   2.603   2.795
 2620TIP3    H1 7817   2.787   2.588   2.713
 2620TIP3    H2 7818   2.796   2.660   2.845
 2621TIP3   OH2 7819   1.800   0.975   4.104
 2621TIP3    H1 7820   1.748   0.970   4.186
 2621TIP3    H2 7821   1.733   1.012   4.042
 2622TIP3   OH2 7822   1.837   2.406   4.178
 2622TIP3    H1 7823   1.745   2.377   4.164
 2622TIP3    H2 7824   1.852   2.382   4.270
 2623TIP3   OH2 7825   2.017   2.436   3.727
 2623TIP3    H1 7826   1.971   2.513   3.688
 2623TIP3    H2 7827   2.104   2.449   3.684
 2624TIP3   OH2 7828   2.459   2.681   3.865
 2624TIP3    H1 7829   2.501   2.677   3.954
 2624TIP3    H2 7830   2.526   2.732   3.815
 2625TIP3   OH2 7831   2.641   2.833   3.724
 2625TIP3    H1 7832   2.712   2.778   3.689
 2625TIP3    H2 7833   2.691   2.889   3.787
 2626TIP3   OH2 7834   3.437   1.201   3.802
 2626TIP3    H1 7835   3.342   1.190   3.788
 2626TIP3    H2 7836   3.466   1.108   3.813
 2627TIP3   OH2 7837   1.693   2.694   3.751
 2627TIP3    H1 7838   1.601   2.726   3.732
 2627TIP3    H2 7839   1.707   2.734   3.837
 2628TIP3   OH2 7840   1.929   2.671   3.611
 2628TIP3    H1 7841   1.842   2.683   3.656
 2628TIP3    H2 7842   1.909   2.702   3.521
 2629TIP3   OH2 7843   2.355   2.697   3.406
 2629TIP3    H1 7844   2.282   2.717   3.345
 2629TIP3    H2 7845   2.366   2.782   3.453
 2630TIP3   OH2 7846   2.624   2.636   3.458
 2630TIP3    H1 7847   2.530   2.653   3.438
 2630TIP3    H2 7848   2.667   2.714   3.419
 2631TIP3   OH2 7849   2.834   2.832   3.374
 2631TIP3    H1 7850   2.817   2.913   3.322
 2631TIP3    H2 7851   2.860   2.768   3.304
 2632TIP3   OH2 7852   1.606   2.484   3.497
 2632TIP3    H1 7853   1.631   2.456   3.588
 2632TIP3    H2 7854   1.677   2.439   3.447
 2633TIP3   OH2 7855   1.801   2.356   3.355
 2633TIP3    H1 7856   1.813   2.272   3.406
 2633TIP3    H2 7857   1.893   2.391   3.355
 2634TIP3   OH2 7858   2.070   2.447   3.361
 2634TIP3    H1 7859   2.098   2.354   3.354
 2634TIP3    H2 7860   2.117   2.471   3.443
 2635TIP3   OH2 7861   2.631   1.098   3.429
 2635TIP3    H1 7862   2.582   1.022   3.464
 2635TIP3    H2 7863   2.713   1.056   3.397
 2636TIP3   OH2 7864   3.161   0.975   3.338
 2636TIP3    H1 7865   3.196   1.035   3.269
 2636TIP3    H2 7866   3.068   1.003   3.343
 2637TIP3   OH2 7867   3.255   1.088   3.104
 2637TIP3    H1 7868   3.332   1.035   3.074
 2637TIP3    H2 7869   3.292   1.179   3.094
 2638TIP3   OH2 7870   1.883   0.826   3.459
 2638TIP3    H1 7871   1.795   0.784   3.449
 2638TIP3    H2 7872   1.939   0.745   3.455
 2639TIP3   OH2 7873   1.779   0.738   3.180
 2639TIP3    H1 7874   1.716   0.717   3.110
 2639TIP3    H2 7875   1.727   0.800   3.234
 2640TIP3   OH2 7876   2.878   0.998   3.321
 2640TIP3    H1 7877   2.869   0.950   3.238
 2640TIP3    H2 7878   2.873   0.923   3.385
 2641TIP3   OH2 7879   2.909   0.913   2.888
 2641TIP3    H1 7880   2.827   0.964   2.909
 2641TIP3    H2 7881   2.893   0.831   2.938
 2642TIP3   OH2 7882   1.395   2.261   2.885
 2642TIP3    H1 7883   1.310   2.226   2.850
 2642TIP3    H2 7884   1.384   2.354   2.859
 2643TIP3   OH2 7885   1.800   0.869   2.889
 2643TIP3    H1 7886   1.845   0.805   2.945
 2643TIP3    H2 7887   1.824   0.950   2.935
 2644TIP3   OH2 7888   2.314   1.020   2.968
 2644TIP3    H1 7889   2.376   0.977   3.031
 2644TIP3    H2 7890   2.330   1.113   2.997
 2645TIP3   OH2 7891   2.149   2.439   2.472
 2645TIP3    H1 7892   2.236   2.467   2.440
 2645TIP3    H2 7893   2.136   2.363   2.411
 2646TIP3   OH2 7894   2.883   2.564   2.566
 2646TIP3    H1 7895   2.876   2.466   2.554
 2646TIP3    H2 7896   2.840   2.595   2.483
 2647TIP3   OH2 7897   2.095   1.096   4.351
 2647TIP3    H1 7898   2.059   1.025   4.407
 2647TIP3    H2 7899   2.189   1.095   4.380
 2648TIP3   OH2 7900   2.345   1.094   4.471
 2648TIP3    H1 7901   2.430   1.070   4.431
 2648TIP3    H2 7902   2.334   1.023   4.537
 2649TIP3   OH2 7903   3.161   1.142   4.251
 2649TIP3    H1 7904   3.190   1.132   4.344
 2649TIP3    H2 7905   3.193   1.231   4.228
 2650TIP3   OH2 7906   3.107   2.710   3.749
 2650TIP3    H1 7907   3.027   2.678   3.702
 2650TIP3    H2 7908   3.085   2.804   3.761
 2651TIP3   OH2 7909   4.378   2.078   2.513
 2651TIP3    H1 7910   4.350   2.170   2.497
 2651TIP3    H2 7911   4.298   2.030   2.485
 2652TIP3   OH2 7912   4.370   2.077   2.901
 2652TIP3    H1 7913   4.409   2.060   2.989
 2652TIP3    H2 7914   4.330   1.991   2.880
 2653TIP3   OH2 7915   3.671   1.971   3.264
 2653TIP3    H1 7916   3.699   1.902   3.326
 2653TIP3    H2 7917   3.747   2.031   3.268
 2654TIP3   OH2 7918   4.617   2.386   2.581
 2654TIP3    H1 7919   4.607   2.320   2.651
 2654TIP3    H2 7920   4.648   2.464   2.632
 2655TIP3   OH2 7921   3.643   2.382   2.981
 2655TIP3    H1 7922   3.637   2.284   2.983
 2655TIP3    H2 7923   3.740   2.394   2.984
 2656TIP3   OH2 7924   3.356   1.582   2.764
 2656TIP3    H1 7925   3.322   1.669   2.789
 2656TIP3    H2 7926   3.273   1.540   2.732
 2657TIP3   OH2 7927   3.411   1.871   2.942
 2657TIP3    H1 7928   3.461   1.795   2.980
 2657TIP3    H2 7929   3.480   1.918   2.893
 2658TIP3   OH2 7930   4.271   2.843   2.600
 2658TIP3    H1 7931   4.312   2.772   2.547
 2658TIP3    H2 7932   4.277   2.807   2.689
 2659TIP3   OH2 7933   4.174   2.307   2.946
 2659TIP3    H1 7934   4.217   2.230   2.906
 2659TIP3    H2 7935   4.255   2.356   2.972
 2660TIP3   OH2 7936   5.189   1.626   2.945
 2660TIP3    H1 7937   5.219   1.709   2.988
 2660TIP3    H2 7938   5.210   1.645   2.851
 2661TIP3   OH2 7939   4.586   1.805   2.976
 2661TIP3    H1 7940   4.629   1.720   2.998
 2661TIP3    H2 7941   4.554   1.787   2.886
 2662TIP3   OH2 7942   3.932   1.468   2.944
 2662TIP3    H1 7943   3.912   1.544   2.885
 2662TIP3    H2 7944   3.883   1.397   2.897
 2663TIP3   OH2 7945   4.622   1.557   2.563
 2663TIP3    H1 7946   4.692   1.543   2.630
 2663TIP3    H2 7947   4.676   1.593   2.490
 2664TIP3   OH2 7948   3.560   1.670   3.049
 2664TIP3    H1 7949   3.642   1.654   3.099
 2664TIP3    H2 7950   3.578   1.614   2.970
 2665TIP3   OH2 7951   4.001   1.869   2.845
 2665TIP3    H1 7952   4.095   1.843   2.856
 2665TIP3    H2 7953   3.961   1.784   2.816
 2666TIP3   OH2 7954   5.262   1.832   3.116
 2666TIP3    H1 7955   5.181   1.881   3.092
 2666TIP3    H2 7956   5.280   1.869   3.204
 2667TIP3   OH2 7957   3.920   1.449   3.377
 2667TIP3    H1 7958   3.861   1.490   3.312
 2667TIP3    H2 7959   3.869   1.464   3.459
 2668TIP3   OH2 7960   4.264   2.300   2.383
 2668TIP3    H1 7961   4.222   2.288   2.297
 2668TIP3    H2 7962   4.221   2.382   2.413
 2669TIP3   OH2 7963   4.027   2.226   3.169
 2669TIP3    H1 7964   3.968   2.294   3.207
 2669TIP3    H2 7965   4.073   2.275   3.098
 2670TIP3   OH2 7966   4.826   1.563   2.742
 2670TIP3    H1 7967   4.804   1.526   2.829
 2670TIP3    H2 7968   4.878   1.642   2.767
 2671TIP3   OH2 7969   3.792   1.566   3.161
 2671TIP3    H1 7970   3.852   1.639   3.188
 2671TIP3    H2 7971   3.844   1.527   3.088
 2672TIP3   OH2 7972   3.854   2.422   3.268
 2672TIP3    H1 7973   3.830   2.511   3.236
 2672TIP3    H2 7974   3.777   2.404   3.326
 2673TIP3   OH2 7975   3.247   2.111   2.505
 2673TIP3    H1 7976   3.209   2.143   2.421
 2673TIP3    H2 7977   3.282   2.194   2.543
 2674TIP3   OH2 7978   4.680   2.617   2.737
 2674TIP3    H1 7979   4.592   2.615   2.782
 2674TIP3    H2 7980   4.682   2.709   2.706
 2675TIP3   OH2 7981   4.983   1.520   3.108
 2675TIP3    H1 7982   4.897   1.552   3.077
 2675TIP3    H2 7983   5.044   1.556   3.040
 2676TIP3   OH2 7984   4.273   1.165   3.092
 2676TIP3    H1 7985   4.257   1.071   3.113
 2676TIP3    H2 7986   4.198   1.206   3.140
 2677TIP3   OH2 7987   4.384   2.671   2.410
 2677TIP3    H1 7988   4.436   2.589   2.396
 2677TIP3    H2 7989   4.448   2.736   2.375
 2678TIP3   OH2 7990   4.533   2.456   2.330
 2678TIP3    H1 7991   4.492   2.374   2.299
 2678TIP3    H2 7992   4.572   2.426   2.415
 2679TIP3   OH2 7993   4.204   1.929   2.347
 2679TIP3    H1 7994   4.126   1.984   2.326
 2679TIP3    H2 7995   4.254   1.931   2.264
 2680TIP3   OH2 7996   4.163   1.721   2.057
 2680TIP3    H1 7997   4.227   1.771   2.110
 2680TIP3    H2 7998   4.223   1.658   2.012
 2681TIP3   OH2 7999   5.120   2.177   2.954
 2681TIP3    H1 8000   5.035   2.226   2.944
 2681TIP3    H2 8001   5.152   2.186   2.861
 2682TIP3   OH2 8002   4.555   2.013   2.316
 2682TIP3    H1 8003   4.501   2.036   2.395
 2682TIP3    H2 8004   4.640   1.990   2.359
 2683TIP3   OH2 8005   4.789   2.052   3.240
 2683TIP3    H1 8006   4.787   2.135   3.292
 2683TIP3    H2 8007   4.704   2.059   3.192
 2684TIP3   OH2 8008   3.789   2.012   2.738
 2684TIP3    H1 8009   3.748   1.954   2.670
 2684TIP3    H2 8010   3.865   1.959   2.768
 2685TIP3   OH2 8011   3.919   2.425   2.883
 2685TIP3    H1 8012   3.902   2.384   2.798
 2685TIP3    H2 8013   4.008   2.391   2.905
 2686TIP3   OH2 8014   3.919   1.985   3.087
 2686TIP3    H1 8015   3.957   1.960   3.001
 2686TIP3    H2 8016   3.965   2.069   3.108
 2687TIP3   OH2 8017   4.442   2.622   2.868
 2687TIP3    H1 8018   4.445   2.703   2.924
 2687TIP3    H2 8019   4.428   2.552   2.934
 2688TIP3   OH2 8020   4.060   2.539   3.418
 2688TIP3    H1 8021   4.000   2.599   3.467
 2688TIP3    H2 8022   3.995   2.485   3.369
 2689TIP3   OH2 8023   4.392   1.874   2.144
 2689TIP3    H1 8024   4.452   1.933   2.195
 2689TIP3    H2 8025   4.420   1.895   2.052
 2690TIP3   OH2 8026   3.816   2.095   3.514
 2690TIP3    H1 8027   3.825   2.182   3.558
 2690TIP3    H2 8028   3.724   2.074   3.537
 2691TIP3   OH2 8029   4.138   2.549   2.417
 2691TIP3    H1 8030   4.222   2.597   2.427
 2691TIP3    H2 8031   4.080   2.618   2.383
 2692TIP3   OH2 8032   3.851   2.706   3.503
 2692TIP3    H1 8033   3.814   2.706   3.413
 2692TIP3    H2 8034   3.773   2.686   3.558
 2693TIP3   OH2 8035   4.908   1.111   2.193
 2693TIP3    H1 8036   4.828   1.134   2.244
 2693TIP3    H2 8037   4.925   1.194   2.145
 2694TIP3   OH2 8038   3.655   1.858   2.539
 2694TIP3    H1 8039   3.582   1.894   2.485
 2694TIP3    H2 8040   3.628   1.766   2.550
 2695TIP3   OH2 8041   4.710   2.478   1.741
 2695TIP3    H1 8042   4.720   2.575   1.728
 2695TIP3    H2 8043   4.803   2.448   1.728
 2696TIP3   OH2 8044   3.434   2.237   3.449
 2696TIP3    H1 8045   3.370   2.208   3.381
 2696TIP3    H2 8046   3.475   2.152   3.478
 2697TIP3   OH2 8047   3.292   2.434   3.074
 2697TIP3    H1 8048   3.386   2.418   3.065
 2697TIP3    H2 8049   3.291   2.504   3.141
 2698TIP3   OH2 8050   5.179   2.878   3.154
 2698TIP3    H1 8051   5.150   2.785   3.153
 2698TIP3    H2 8052   5.096   2.918   3.189
 2699TIP3   OH2 8053   4.251   2.667   3.271
 2699TIP3    H1 8054   4.253   2.759   3.306
 2699TIP3    H2 8055   4.183   2.626   3.329
 2700TIP3   OH2 8056   4.019   2.794   2.224
 2700TIP3    H1 8057   3.975   2.780   2.138
 2700TIP3    H2 8058   3.988   2.883   2.250
 2701TIP3   OH2 8059   3.457   2.645   2.611
 2701TIP3    H1 8060   3.507   2.638   2.696
 2701TIP3    H2 8061   3.408   2.561   2.612
 2702TIP3   OH2 8062   4.219   2.698   1.862
 2702TIP3    H1 8063   4.279   2.628   1.827
 2702TIP3    H2 8064   4.255   2.709   1.953
 2703TIP3   OH2 8065   4.271   2.747   2.132
 2703TIP3    H1 8066   4.184   2.754   2.176
 2703TIP3    H2 8067   4.326   2.712   2.205
 2704TIP3   OH2 8068   5.050   2.017   3.410
 2704TIP3    H1 8069   4.966   2.030   3.365
 2704TIP3    H2 8070   5.062   1.920   3.401
 2705TIP3   OH2 8071   3.637   2.423   3.435
 2705TIP3    H1 8072   3.690   2.406   3.516
 2705TIP3    H2 8073   3.564   2.359   3.446
 2706TIP3   OH2 8074   4.038   1.244   3.224
 2706TIP3    H1 8075   3.949   1.216   3.195
 2706TIP3    H2 8076   4.013   1.326   3.273
 2707TIP3   OH2 8077   4.573   1.357   3.416
 2707TIP3    H1 8078   4.642   1.331   3.481
 2707TIP3    H2 8079   4.490   1.340   3.464
 2708TIP3   OH2 8080   4.807   1.788   3.333
 2708TIP3    H1 8081   4.756   1.786   3.417
 2708TIP3    H2 8082   4.788   1.877   3.298
 2709TIP3   OH2 8083   4.467   1.912   1.886
 2709TIP3    H1 8084   4.436   1.891   1.796
 2709TIP3    H2 8085   4.551   1.958   1.867
 2710TIP3   OH2 8086   4.183   1.294   2.182
 2710TIP3    H1 8087   4.154   1.291   2.276
 2710TIP3    H2 8088   4.142   1.211   2.151
 2711TIP3   OH2 8089   3.967   1.763   3.239
 2711TIP3    H1 8090   3.920   1.785   3.322
 2711TIP3    H2 8091   3.951   1.844   3.186
 2712TIP3   OH2 8092   3.853   1.653   2.763
 2712TIP3    H1 8093   3.761   1.623   2.778
 2712TIP3    H2 8094   3.867   1.623   2.670
 2713TIP3   OH2 8095   4.344   1.731   2.483
 2713TIP3    H1 8096   4.293   1.803   2.439
 2713TIP3    H2 8097   4.399   1.699   2.409
 2714TIP3   OH2 8098   4.518   2.005   3.564
 2714TIP3    H1 8099   4.496   1.935   3.628
 2714TIP3    H2 8100   4.611   2.023   3.587
 2715TIP3   OH2 8101   4.498   1.756   2.721
 2715TIP3    H1 8102   4.438   1.788   2.651
 2715TIP3    H2 8103   4.533   1.677   2.674
 2716TIP3   OH2 8104   3.787   1.788   3.448
 2716TIP3    H1 8105   3.815   1.852   3.515
 2716TIP3    H2 8106   3.775   1.707   3.501
 2717TIP3   OH2 8107   3.836   1.265   2.169
 2717TIP3    H1 8108   3.836   1.258   2.265
 2717TIP3    H2 8109   3.759   1.321   2.154
 2718TIP3   OH2 8110   3.388   1.307   3.021
 2718TIP3    H1 8111   3.450   1.347   3.085
 2718TIP3    H2 8112   3.445   1.288   2.946
 2719TIP3   OH2 8113   3.324   1.286   2.548
 2719TIP3    H1 8114   3.412   1.277   2.504
 2719TIP3    H2 8115   3.319   1.382   2.561
 2720TIP3   OH2 8116   4.505   2.004   3.139
 2720TIP3    H1 8117   4.541   1.933   3.081
 2720TIP3    H2 8118   4.477   1.950   3.216
 2721TIP3   OH2 8119   4.186   1.464   2.814
 2721TIP3    H1 8120   4.105   1.466   2.868
 2721TIP3    H2 8121   4.256   1.465   2.881
 2722TIP3   OH2 8122   3.616   1.526   2.823
 2722TIP3    H1 8123   3.523   1.531   2.792
 2722TIP3    H2 8124   3.644   1.436   2.797
 2723TIP3   OH2 8125   3.884   1.556   2.514
 2723TIP3    H1 8126   3.976   1.539   2.491
 2723TIP3    H2 8127   3.835   1.541   2.431
 2724TIP3   OH2 8128   4.673   1.543   3.013
 2724TIP3    H1 8129   4.645   1.557   3.106
 2724TIP3    H2 8130   4.602   1.484   2.982
 2725TIP3   OH2 8131   3.725   1.552   2.285
 2725TIP3    H1 8132   3.654   1.511   2.233
 2725TIP3    H2 8133   3.779   1.593   2.214
 2726TIP3   OH2 8134   4.844   3.235   3.239
 2726TIP3    H1 8135   4.841   3.251   3.143
 2726TIP3    H2 8136   4.924   3.283   3.265
 2727TIP3   OH2 8137   3.804   2.344   3.648
 2727TIP3    H1 8138   3.881   2.376   3.700
 2727TIP3    H2 8139   3.738   2.338   3.720
 2728TIP3   OH2 8140   4.263   1.797   2.911
 2728TIP3    H1 8141   4.339   1.760   2.864
 2728TIP3    H2 8142   4.269   1.755   2.998
 2729TIP3   OH2 8143   3.782   1.293   2.790
 2729TIP3    H1 8144   3.764   1.207   2.832
 2729TIP3    H2 8145   3.811   1.268   2.701
 2730TIP3   OH2 8146   4.239   1.698   3.202
 2730TIP3    H1 8147   4.149   1.735   3.216
 2730TIP3    H2 8148   4.296   1.759   3.252
 2731TIP3   OH2 8149   3.974   2.083   2.293
 2731TIP3    H1 8150   3.902   2.017   2.283
 2731TIP3    H2 8151   3.956   2.117   2.384
 2732TIP3   OH2 8152   4.885   2.304   2.907
 2732TIP3    H1 8153   4.877   2.389   2.861
 2732TIP3    H2 8154   4.795   2.268   2.898
 2733TIP3   OH2 8155   4.433   1.398   2.153
 2733TIP3    H1 8156   4.337   1.378   2.166
 2733TIP3    H2 8157   4.442   1.489   2.186
 2734TIP3   OH2 8158   4.372   2.400   3.296
 2734TIP3    H1 8159   4.410   2.391   3.384
 2734TIP3    H2 8160   4.333   2.489   3.298
 2735TIP3   OH2 8161   4.503   1.643   2.264
 2735TIP3    H1 8162   4.598   1.649   2.282
 2735TIP3    H2 8163   4.485   1.726   2.215
 2736TIP3   OH2 8164   3.665   2.101   2.970
 2736TIP3    H1 8165   3.708   2.075   2.886
 2736TIP3    H2 8166   3.717   2.052   3.035
 2737TIP3   OH2 8167   4.120   2.231   2.115
 2737TIP3    H1 8168   4.071   2.317   2.119
 2737TIP3    H2 8169   4.067   2.177   2.178
 2738TIP3   OH2 8170   3.555   2.030   3.591
 2738TIP3    H1 8171   3.579   2.022   3.685
 2738TIP3    H2 8172   3.490   1.958   3.582
 2739TIP3   OH2 8173   4.278   2.142   3.603
 2739TIP3    H1 8174   4.217   2.080   3.561
 2739TIP3    H2 8175   4.365   2.106   3.575
 2740TIP3   OH2 8176   4.528   2.708   3.149
 2740TIP3    H1 8177   4.446   2.695   3.200
 2740TIP3    H2 8178   4.596   2.666   3.204
 2741TIP3   OH2 8179   4.940   1.738   2.100
 2741TIP3    H1 8180   4.879   1.695   2.035
 2741TIP3    H2 8181   4.938   1.828   2.061
 2742TIP3   OH2 8182   5.134   2.601   3.178
 2742TIP3    H1 8183   5.038   2.600   3.196
 2742TIP3    H2 8184   5.142   2.560   3.089
 2743TIP3   OH2 8185   4.640   2.555   2.006
 2743TIP3    H1 8186   4.621   2.488   2.073
 2743TIP3    H2 8187   4.658   2.504   1.926
 2744TIP3   OH2 8188   4.634   2.185   2.843
 2744TIP3    H1 8189   4.540   2.159   2.852
 2744TIP3    H2 8190   4.670   2.107   2.797
 2745TIP3   OH2 8191   3.772   2.410   2.593
 2745TIP3    H1 8192   3.769   2.492   2.540
 2745TIP3    H2 8193   3.679   2.396   2.612
 2746TIP3   OH2 8194   3.328   1.719   2.295
 2746TIP3    H1 8195   3.378   1.801   2.320
 2746TIP3    H2 8196   3.257   1.721   2.362
 2747TIP3   OH2 8197   3.902   2.172   2.535
 2747TIP3    H1 8198   3.869   2.262   2.556
 2747TIP3    H2 8199   3.871   2.122   2.613
 2748TIP3   OH2 8200   4.043   2.752   3.065
 2748TIP3    H1 8201   4.089   2.823   3.016
 2748TIP3    H2 8202   4.117   2.713   3.115
 2749TIP3   OH2 8203   3.686   2.653   2.446
 2749TIP3    H1 8204   3.602   2.661   2.496
 2749TIP3    H2 8205   3.719   2.746   2.452
 2750TIP3   OH2 8206   4.423   2.389   3.027
 2750TIP3    H1 8207   4.414   2.386   3.125
 2750TIP3    H2 8208   4.509   2.347   3.013
 2751TIP3   OH2 8209   4.404   2.282   1.910
 2751TIP3    H1 8210   4.461   2.256   1.987
 2751TIP3    H2 8211   4.317   2.256   1.944
 2752TIP3   OH2 8212   4.662   2.943   3.105
 2752TIP3    H1 8213   4.608   2.861   3.108
 2752TIP3    H2 8214   4.649   2.973   3.013
 2753TIP3   OH2 8215   4.742   2.755   1.726
 2753TIP3    H1 8216   4.782   2.832   1.682
 2753TIP3    H2 8217   4.660   2.797   1.760
 2754TIP3   OH2 8218   3.760   1.530   3.590
 2754TIP3    H1 8219   3.664   1.543   3.607
 2754TIP3    H2 8220   3.787   1.479   3.668
 2755TIP3   OH2 8221   4.566   2.210   2.120
 2755TIP3    H1 8222   4.556   2.147   2.194
 2755TIP3    H2 8223   4.663   2.209   2.110
 2756TIP3   OH2 8224   3.476   2.613   3.226
 2756TIP3    H1 8225   3.531   2.540   3.259
 2756TIP3    H2 8226   3.502   2.684   3.286
 2757TIP3   OH2 8227   3.765   2.262   1.909
 2757TIP3    H1 8228   3.782   2.169   1.885
 2757TIP3    H2 8229   3.746   2.253   2.005
 2758TIP3   OH2 8230   3.711   2.267   2.181
 2758TIP3    H1 8231   3.786   2.239   2.235
 2758TIP3    H2 8232   3.715   2.365   2.190
 2759TIP3   OH2 8233   3.442   1.956   2.384
 2759TIP3    H1 8234   3.378   2.003   2.441
 2759TIP3    H2 8235   3.461   2.025   2.317
 2760TIP3   OH2 8236   4.605   1.591   3.273
 2760TIP3    H1 8237   4.680   1.636   3.315
 2760TIP3    H2 8238   4.591   1.513   3.330
 2761TIP3   OH2 8239   4.487   1.342   2.445
 2761TIP3    H1 8240   4.469   1.368   2.353
 2761TIP3    H2 8241   4.524   1.424   2.483
 2762TIP3   OH2 8242   3.977   2.461   2.125
 2762TIP3    H1 8243   3.892   2.486   2.164
 2762TIP3    H2 8244   3.998   2.541   2.075
 2763TIP3   OH2 8245   4.168   1.526   2.545
 2763TIP3    H1 8246   4.229   1.601   2.529
 2763TIP3    H2 8247   4.172   1.518   2.642
 2764TIP3   OH2 8248   4.438   1.844   3.349
 2764TIP3    H1 8249   4.460   1.899   3.427
 2764TIP3    H2 8250   4.491   1.764   3.365
 2765TIP3   OH2 8251   4.311   1.248   2.649
 2765TIP3    H1 8252   4.299   1.327   2.704
 2765TIP3    H2 8253   4.371   1.283   2.579
 2766TIP3   OH2 8254   3.723   2.539   2.198
 2766TIP3    H1 8255   3.694   2.610   2.137
 2766TIP3    H2 8256   3.708   2.581   2.285
 2767TIP3   OH2 8257   5.075   1.746   3.336
 2767TIP3    H1 8258   4.977   1.743   3.341
 2767TIP3    H2 8259   5.089   1.711   3.247
 2768TIP3   OH2 8260   4.727   1.939   2.720
 2768TIP3    H1 8261   4.652   1.880   2.736
 2768TIP3    H2 8262   4.800   1.895   2.768
 2769TIP3   OH2 8263   3.442   2.166   2.187
 2769TIP3    H1 8264   3.514   2.231   2.199
 2769TIP3    H2 8265   3.486   2.107   2.121
 2770TIP3   OH2 8266   3.393   1.454   2.323
 2770TIP3    H1 8267   3.403   1.551   2.318
 2770TIP3    H2 8268   3.310   1.441   2.277
 2771TIP3   OH2 8269   4.697   2.897   2.663
 2771TIP3    H1 8270   4.654   2.946   2.590
 2771TIP3    H2 8271   4.791   2.923   2.647
 2772TIP3   OH2 8272   3.772   1.162   3.191
 2772TIP3    H1 8273   3.742   1.118   3.111
 2772TIP3    H2 8274   3.767   1.089   3.257
 2773TIP3   OH2 8275   3.308   2.381   2.572
 2773TIP3    H1 8276   3.245   2.412   2.637
 2773TIP3    H2 8277   3.275   2.424   2.490
 2774TIP3   OH2 8278   3.473   2.929   3.648
 2774TIP3    H1 8279   3.559   2.931   3.696
 2774TIP3    H2 8280   3.456   2.834   3.647
 2775TIP3   OH2 8281   3.948   2.893   3.683
 2775TIP3    H1 8282   4.041   2.867   3.698
 2775TIP3    H2 8283   3.922   2.828   3.616
 2776TIP3   OH2 8284   3.929   2.464   1.816
 2776TIP3    H1 8285   3.874   2.393   1.856
 2776TIP3    H2 8286   4.007   2.413   1.788
 2777TIP3   OH2 8287   4.569   2.817   3.450
 2777TIP3    H1 8288   4.571   2.730   3.495
 2777TIP3    H2 8289   4.663   2.837   3.440
 2778TIP3   OH2 8290   4.365   2.502   1.733
 2778TIP3    H1 8291   4.407   2.440   1.795
 2778TIP3    H2 8292   4.426   2.498   1.656
 2779TIP3   OH2 8293   3.598   2.344   3.831
 2779TIP3    H1 8294   3.611   2.267   3.887
 2779TIP3    H2 8295   3.509   2.331   3.794
 2780TIP3   OH2 8296   3.578   1.977   2.046
 2780TIP3    H1 8297   3.635   1.948   2.119
 2780TIP3    H2 8298   3.644   1.983   1.974
 2781TIP3   OH2 8299   4.209   2.418   3.624
 2781TIP3    H1 8300   4.168   2.439   3.538
 2781TIP3    H2 8301   4.240   2.326   3.612
 2782TIP3   OH2 8302   4.086   2.179   1.847
 2782TIP3    H1 8303   4.092   2.192   1.944
 2782TIP3    H2 8304   4.088   2.081   1.842
 2783TIP3   OH2 8305   3.725   2.065   3.839
 2783TIP3    H1 8306   3.804   2.012   3.830
 2783TIP3    H2 8307   3.754   2.124   3.913
 2784TIP3   OH2 8308   3.777   1.887   2.259
 2784TIP3    H1 8309   3.759   1.849   2.347
 2784TIP3    H2 8310   3.818   1.811   2.213
 2785TIP3   OH2 8311   4.053   1.948   3.488
 2785TIP3    H1 8312   3.976   2.008   3.491
 2785TIP3    H2 8313   4.105   1.984   3.413
 2786TIP3   OH2 8314   3.885   1.682   2.102
 2786TIP3    H1 8315   3.863   1.691   2.007
 2786TIP3    H2 8316   3.983   1.683   2.098
 2787TIP3   OH2 8317   4.566   2.347   3.624
 2787TIP3    H1 8318   4.644   2.325   3.572
 2787TIP3    H2 8319   4.569   2.282   3.696
 2788TIP3   OH2 8320   4.701   2.008   1.771
 2788TIP3    H1 8321   4.684   1.966   1.684
 2788TIP3    H2 8322   4.669   2.099   1.750
 2789TIP3   OH2 8323   4.181   1.741   3.612
 2789TIP3    H1 8324   4.178   1.661   3.555
 2789TIP3    H2 8325   4.134   1.807   3.558
 2790TIP3   OH2 8326   4.180   1.524   3.424
 2790TIP3    H1 8327   4.207   1.568   3.342
 2790TIP3    H2 8328   4.086   1.503   3.406
 2791TIP3   OH2 8329   4.203   2.056   3.294
 2791TIP3    H1 8330   4.291   2.077   3.259
 2791TIP3    H2 8331   4.147   2.124   3.251
 2792TIP3   OH2 8332   4.786   2.026   3.675
 2792TIP3    H1 8333   4.839   1.946   3.686
 2792TIP3    H2 8334   4.851   2.089   3.642
 2793TIP3   OH2 8335   4.823   2.285   3.402
 2793TIP3    H1 8336   4.792   2.372   3.367
 2793TIP3    H2 8337   4.916   2.292   3.371
 2794TIP3   OH2 8338   4.058   1.844   3.847
 2794TIP3    H1 8339   3.987   1.778   3.865
 2794TIP3    H2 8340   4.088   1.816   3.759
 2795TIP3   OH2 8341   4.311   1.286   3.495
 2795TIP3    H1 8342   4.261   1.368   3.472
 2795TIP3    H2 8343   4.241   1.218   3.485
 2796TIP3   OH2 8344   4.438   1.789   3.710
 2796TIP3    H1 8345   4.421   1.777   3.805
 2796TIP3    H2 8346   4.349   1.767   3.675
 2797TIP3   OH2 8347   4.674   1.738   3.563
 2797TIP3    H1 8348   4.600   1.744   3.627
 2797TIP3    H2 8349   4.749   1.712   3.620
 2798TIP3   OH2 8350   4.907   1.685   3.713
 2798TIP3    H1 8351   4.918   1.589   3.730
 2798TIP3    H2 8352   4.902   1.721   3.804
 2799TIP3   OH2 8353   3.894   1.626   3.903
 2799TIP3    H1 8354   3.896   1.533   3.873
 2799TIP3    H2 8355   3.929   1.616   3.994
 2800TIP3   OH2 8356   4.405   1.296   3.753
 2800TIP3    H1 8357   4.471   1.225   3.745
 2800TIP3    H2 8358   4.364   1.293   3.664
 2801TIP3   OH2 8359   4.471   1.512   3.912
 2801TIP3    H1 8360   4.449   1.442   3.847
 2801TIP3    H2 8361   4.393   1.571   3.906
 2802TIP3   OH2 8362   3.694   2.744   2.010
 2802TIP3    H1 8363   3.789   2.732   1.993
 2802TIP3    H2 8364   3.669   2.795   1.931
 2803TIP3   OH2 8365   3.173   2.127   2.222
 2803TIP3    H1 8366   3.268   2.148   2.209
 2803TIP3    H2 8367   3.168   2.037   2.183
 2804TIP3   OH2 8368   3.088   2.736   2.644
 2804TIP3    H1 8369   3.024   2.674   2.604
 2804TIP3    H2 8370   3.133   2.677   2.708
 2805TIP3   OH2 8371   3.223   2.582   2.829
 2805TIP3    H1 8372   3.215   2.511   2.895
 2805TIP3    H2 8373   3.277   2.645   2.879
 2806TIP3   OH2 8374   4.943   3.013   2.621
 2806TIP3    H1 8375   4.976   3.017   2.713
 2806TIP3    H2 8376   5.024   3.017   2.569
 2807TIP3   OH2 8377   4.978   3.012   2.902
 2807TIP3    H1 8378   4.922   2.931   2.905
 2807TIP3    H2 8379   5.056   2.979   2.948
 2808TIP3   OH2 8380   5.056   2.678   3.495
 2808TIP3    H1 8381   4.962   2.673   3.469
 2808TIP3    H2 8382   5.072   2.774   3.501
 2809TIP3   OH2 8383   4.842   2.198   2.097
 2809TIP3    H1 8384   4.911   2.262   2.070
 2809TIP3    H2 8385   4.884   2.159   2.177
 2810TIP3   OH2 8386   4.961   2.061   2.298
 2810TIP3    H1 8387   4.902   2.023   2.365
 2810TIP3    H2 8388   5.037   2.094   2.351
 2811TIP3   OH2 8389   4.854   2.773   2.932
 2811TIP3    H1 8390   4.799   2.749   3.008
 2811TIP3    H2 8391   4.829   2.705   2.867
 2812TIP3   OH2 8392   4.907   1.972   1.950
 2812TIP3    H1 8393   4.834   1.976   1.884
 2812TIP3    H2 8394   4.881   2.047   2.007
 2813TIP3   OH2 8395   4.778   1.643   1.903
 2813TIP3    H1 8396   4.733   1.681   1.826
 2813TIP3    H2 8397   4.755   1.548   1.893
 2814TIP3   OH2 8398   4.779   1.922   2.452
 2814TIP3    H1 8399   4.791   1.826   2.448
 2814TIP3    H2 8400   4.766   1.937   2.549
 2815TIP3   OH2 8401   3.408   2.001   3.195
 2815TIP3    H1 8402   3.408   1.964   3.104
 2815TIP3    H2 8403   3.505   1.998   3.215
 2816TIP3   OH2 8404   5.076   2.335   3.315
 2816TIP3    H1 8405   5.153   2.280   3.291
 2816TIP3    H2 8406   5.070   2.399   3.243
 2817TIP3   OH2 8407   5.273   2.147   3.316
 2817TIP3    H1 8408   5.194   2.107   3.357
 2817TIP3    H2 8409   5.338   2.076   3.333
 2818TIP3   OH2 8410   4.724   1.376   1.883
 2818TIP3    H1 8411   4.798   1.349   1.941
 2818TIP3    H2 8412   4.650   1.320   1.912
 2819TIP3   OH2 8413   4.779   1.636   2.342
 2819TIP3    H1 8414   4.821   1.547   2.356
 2819TIP3    H2 8415   4.838   1.672   2.274
 2820TIP3   OH2 8416   4.942   1.808   2.840
 2820TIP3    H1 8417   5.027   1.834   2.799
 2820TIP3    H2 8418   4.955   1.847   2.928
 2821TIP3   OH2 8419   5.011   1.954   3.070
 2821TIP3    H1 8420   4.934   1.989   3.119
 2821TIP3    H2 8421   5.047   2.036   3.030
 2822TIP3   OH2 8422   3.626   1.679   3.874
 2822TIP3    H1 8423   3.723   1.672   3.883
 2822TIP3    H2 8424   3.597   1.593   3.910
 2823TIP3   OH2 8425   5.462   1.548   3.627
 2823TIP3    H1 8426   5.524   1.484   3.585
 2823TIP3    H2 8427   5.431   1.599   3.550
 2824TIP3   OH2 8428   4.890   1.387   2.381
 2824TIP3    H1 8429   4.938   1.372   2.465
 2824TIP3    H2 8430   4.828   1.311   2.382
 2825TIP3   OH2 8431   3.587   1.373   3.196
 2825TIP3    H1 8432   3.650   1.301   3.214
 2825TIP3    H2 8433   3.648   1.449   3.192
 2826TIP3   OH2 8434   3.386   1.643   3.269
 2826TIP3    H1 8435   3.442   1.652   3.189
 2826TIP3    H2 8436   3.416   1.718   3.323
 2827TIP3   OH2 8437   5.329   1.682   3.432
 2827TIP3    H1 8438   5.244   1.727   3.450
 2827TIP3    H2 8439   5.297   1.610   3.374
 2828TIP3   OH2 8440   4.965   1.320   2.016
 2828TIP3    H1 8441   5.009   1.251   1.964
 2828TIP3    H2 8442   5.032   1.391   2.017
 2829TIP3   OH2 8443   3.393   1.133   2.773
 2829TIP3    H1 8444   3.306   1.147   2.812
 2829TIP3    H2 8445   3.384   1.181   2.688
 2830TIP3   OH2 8446   4.530   2.858   2.280
 2830TIP3    H1 8447   4.586   2.848   2.201
 2830TIP3    H2 8448   4.584   2.916   2.336
 2831TIP3   OH2 8449   3.597   1.223   3.577
 2831TIP3    H1 8450   3.550   1.222   3.663
 2831TIP3    H2 8451   3.529   1.269   3.522
 2832TIP3   OH2 8452   3.633   2.666   3.670
 2832TIP3    H1 8453   3.544   2.628   3.659
 2832TIP3    H2 8454   3.657   2.634   3.758
 2833TIP3   OH2 8455   3.813   2.692   3.212
 2833TIP3    H1 8456   3.770   2.771   3.174
 2833TIP3    H2 8457   3.902   2.703   3.172
 2834TIP3   OH2 8458   4.256   2.936   3.355
 2834TIP3    H1 8459   4.300   2.933   3.443
 2834TIP3    H2 8460   4.324   2.982   3.302
 2835TIP3   OH2 8461   4.434   3.088   3.209
 2835TIP3    H1 8462   4.504   3.032   3.171
 2835TIP3    H2 8463   4.488   3.142   3.270
 2836TIP3   OH2 8464   5.231   1.447   3.312
 2836TIP3    H1 8465   5.142   1.440   3.275
 2836TIP3    H2 8466   5.264   1.355   3.302
 2837TIP3   OH2 8467   3.486   2.950   3.235
 2837TIP3    H1 8468   3.396   2.986   3.221
 2837TIP3    H2 8469   3.505   2.984   3.324
 2838TIP3   OH2 8470   3.725   2.928   3.099
 2838TIP3    H1 8471   3.637   2.939   3.141
 2838TIP3    H2 8472   3.708   2.957   3.007
 2839TIP3   OH2 8473   4.146   2.957   2.896
 2839TIP3    H1 8474   4.078   2.979   2.831
 2839TIP3    H2 8475   4.160   3.042   2.942
 2840TIP3   OH2 8476   4.417   2.898   2.928
 2840TIP3    H1 8477   4.324   2.922   2.915
 2840TIP3    H2 8478   4.466   2.978   2.903
 2841TIP3   OH2 8479   4.626   3.084   2.858
 2841TIP3    H1 8480   4.617   3.165   2.805
 2841TIP3    H2 8481   4.655   3.018   2.791
 2842TIP3   OH2 8482   3.400   2.738   2.986
 2842TIP3    H1 8483   3.429   2.712   3.076
 2842TIP3    H2 8484   3.472   2.696   2.934
 2843TIP3   OH2 8485   3.596   2.614   2.843
 2843TIP3    H1 8486   3.610   2.529   2.892
 2843TIP3    H2 8487   3.688   2.648   2.841
 2844TIP3   OH2 8488   3.863   2.704   2.850
 2844TIP3    H1 8489   3.894   2.612   2.841
 2844TIP3    H2 8490   3.914   2.729   2.931
 2845TIP3   OH2 8491   4.438   1.364   2.934
 2845TIP3    H1 8492   4.394   1.292   2.984
 2845TIP3    H2 8493   4.511   1.317   2.890
 2846TIP3   OH2 8494   4.956   1.237   2.832
 2846TIP3    H1 8495   4.993   1.292   2.760
 2846TIP3    H2 8496   4.862   1.264   2.831
 2847TIP3   OH2 8497   5.053   1.340   2.598
 2847TIP3    H1 8498   5.128   1.289   2.561
 2847TIP3    H2 8499   5.087   1.432   2.585
 2848TIP3   OH2 8500   3.668   1.042   2.890
 2848TIP3    H1 8501   3.587   1.023   2.942
 2848TIP3    H2 8502   3.728   0.973   2.925
 2849TIP3   OH2 8503   4.130   1.101   2.832
 2849TIP3    H1 8504   4.182   1.150   2.767
 2849TIP3    H2 8505   4.160   1.141   2.915
 2850TIP3   OH2 8506   4.671   1.251   2.812
 2850TIP3    H1 8507   4.672   1.212   2.724
 2850TIP3    H2 8508   4.659   1.171   2.869
 2851TIP3   OH2 8509   4.705   1.176   2.374
 2851TIP3    H1 8510   4.621   1.222   2.395
 2851TIP3    H2 8511   4.689   1.090   2.419
 2852TIP3   OH2 8512   3.187   2.516   2.372
 2852TIP3    H1 8513   3.101   2.484   2.339
 2852TIP3    H2 8514   3.180   2.610   2.347
 2853TIP3   OH2 8515   4.116   1.281   2.444
 2853TIP3    H1 8516   4.155   1.229   2.515
 2853TIP3    H2 8517   4.133   1.372   2.475
 2854TIP3   OH2 8518   3.960   2.698   1.957
 2854TIP3    H1 8519   4.049   2.720   1.922
 2854TIP3    H2 8520   3.939   2.623   1.898
 2855TIP3   OH2 8521   4.681   2.821   2.051
 2855TIP3    H1 8522   4.671   2.723   2.041
 2855TIP3    H2 8523   4.635   2.852   1.970
 2856TIP3   OH2 8524   3.893   1.351   3.832
 2856TIP3    H1 8525   3.849   1.290   3.893
 2856TIP3    H2 8526   3.985   1.349   3.867
 2857TIP3   OH2 8527   4.142   1.347   3.958
 2857TIP3    H1 8528   4.228   1.322   3.921
 2857TIP3    H2 8529   4.127   1.276   4.023
 2858TIP3   OH2 8530   3.264   2.535   2.011
 2858TIP3    H1 8531   3.269   2.554   2.106
 2858TIP3    H2 8532   3.352   2.493   1.994
 2859TIP3   OH2 8533   4.969   1.412   3.744
 2859TIP3    H1 8534   4.987   1.382   3.835
 2859TIP3    H2 8535   5.059   1.408   3.704
 2860TIP3   OH2 8536   4.920   2.967   3.230
 2860TIP3    H1 8537   4.839   2.927   3.191
 2860TIP3    H2 8538   4.887   3.058   3.243
 2861TIP3   OH2 8539   6.174   2.338   1.998
 2861TIP3    H1 8540   6.144   2.429   1.978
 2861TIP3    H2 8541   6.096   2.288   1.970
 2862TIP3   OH2 8542   6.177   2.334   2.386
 2862TIP3    H1 8543   6.209   2.311   2.475
 2862TIP3    H2 8544   6.131   2.252   2.360
 2863TIP3   OH2 8545   5.479   2.231   2.746
 2863TIP3    H1 8546   5.507   2.162   2.808
 2863TIP3    H2 8547   5.555   2.290   2.746
 2864TIP3   OH2 8548   6.420   2.639   2.067
 2864TIP3    H1 8549   6.397   2.576   2.136
 2864TIP3    H2 8550   6.448   2.717   2.120
 2865TIP3   OH2 8551   5.455   2.664   2.464
 2865TIP3    H1 8552   5.387   2.614   2.515
 2865TIP3    H2 8553   5.529   2.603   2.464
 2866TIP3   OH2 8554   5.153   1.834   2.252
 2866TIP3    H1 8555   5.120   1.921   2.280
 2866TIP3    H2 8556   5.073   1.795   2.212
 2867TIP3   OH2 8557   5.204   2.117   2.403
 2867TIP3    H1 8558   5.250   2.058   2.467
 2867TIP3    H2 8559   5.273   2.181   2.382
 2868TIP3   OH2 8560   6.062   3.105   2.081
 2868TIP3    H1 8561   6.107   3.029   2.039
 2868TIP3    H2 8562   6.090   3.097   2.173
 2869TIP3   OH2 8563   5.973   2.557   2.433
 2869TIP3    H1 8564   6.015   2.482   2.388
 2869TIP3    H2 8565   6.055   2.605   2.460
 2870TIP3   OH2 8566   6.981   1.890   2.433
 2870TIP3    H1 8567   7.016   1.964   2.488
 2870TIP3    H2 8568   6.972   1.935   2.347
 2871TIP3   OH2 8569   6.389   2.064   2.460
 2871TIP3    H1 8570   6.425   1.977   2.484
 2871TIP3    H2 8571   6.351   2.046   2.372
 2872TIP3   OH2 8572   5.725   1.722   2.426
 2872TIP3    H1 8573   5.703   1.795   2.365
 2872TIP3    H2 8574   5.675   1.650   2.384
 2873TIP3   OH2 8575   6.419   1.814   2.049
 2873TIP3    H1 8576   6.489   1.798   2.116
 2873TIP3    H2 8577   6.472   1.850   1.976
 2874TIP3   OH2 8578   5.354   1.925   2.537
 2874TIP3    H1 8579   5.437   1.906   2.586
 2874TIP3    H2 8580   5.370   1.873   2.456
 2875TIP3   OH2 8581   5.795   2.121   2.329
 2875TIP3    H1 8582   5.889   2.097   2.344
 2875TIP3    H2 8583   5.757   2.037   2.298
 2876TIP3   OH2 8584   7.057   2.094   2.599
 2876TIP3    H1 8585   6.970   2.139   2.592
 2876TIP3    H2 8586   7.090   2.132   2.683
 2877TIP3   OH2 8587   5.717   1.705   2.865
 2877TIP3    H1 8588   5.658   1.743   2.797
 2877TIP3    H2 8589   5.665   1.722   2.945
 2878TIP3   OH2 8590   6.069   2.562   1.866
 2878TIP3    H1 8591   6.018   2.544   1.785
 2878TIP3    H2 8592   6.023   2.643   1.897
 2879TIP3   OH2 8593   5.823   2.487   2.658
 2879TIP3    H1 8594   5.759   2.553   2.693
 2879TIP3    H2 8595   5.862   2.534   2.581
 2880TIP3   OH2 8596   6.624   1.819   2.229
 2880TIP3    H1 8597   6.597   1.776   2.311
 2880TIP3    H2 8598   6.671   1.898   2.261
 2881TIP3   OH2 8599   5.590   1.819   2.647
 2881TIP3    H1 8600   5.652   1.892   2.672
 2881TIP3    H2 8601   5.640   1.780   2.572
 2882TIP3   OH2 8602   5.638   2.674   2.762
 2882TIP3    H1 8603   5.630   2.765   2.725
 2882TIP3    H2 8604   5.544   2.649   2.761
 2883TIP3   OH2 8605   5.045   2.367   1.991
 2883TIP3    H1 8606   5.004   2.402   1.910
 2883TIP3    H2 8607   5.080   2.450   2.031
 2884TIP3   OH2 8608   6.488   2.862   2.229
 2884TIP3    H1 8609   6.401   2.868   2.275
 2884TIP3    H2 8610   6.489   2.950   2.184
 2885TIP3   OH2 8611   6.775   1.780   2.595
 2885TIP3    H1 8612   6.687   1.809   2.567
 2885TIP3    H2 8613   6.833   1.816   2.526
 2886TIP3   OH2 8614   6.068   1.423   2.579
 2886TIP3    H1 8615   6.056   1.329   2.602
 2886TIP3    H2 8616   5.992   1.462   2.627
 2887TIP3   OH2 8617   6.190   2.925   1.907
 2887TIP3    H1 8618   6.241   2.844   1.887
 2887TIP3    H2 8619   6.249   2.992   1.867
 2888TIP3   OH2 8620   6.335   2.708   1.814
 2888TIP3    H1 8621   6.274   2.636   1.793
 2888TIP3    H2 8622   6.373   2.677   1.899
 2889TIP3   OH2 8623   6.708   2.794   2.576
 2889TIP3    H1 8624   6.695   2.716   2.517
 2889TIP3    H2 8625   6.686   2.868   2.515
 2890TIP3   OH2 8626   6.002   2.187   1.836
 2890TIP3    H1 8627   5.922   2.240   1.818
 2890TIP3    H2 8628   6.046   2.186   1.749
 2891TIP3   OH2 8629   5.961   1.975   1.545
 2891TIP3    H1 8630   6.026   2.027   1.595
 2891TIP3    H2 8631   6.020   1.912   1.499
 2892TIP3   OH2 8632   6.900   2.424   2.414
 2892TIP3    H1 8633   6.819   2.479   2.422
 2892TIP3    H2 8634   6.936   2.458   2.329
 2893TIP3   OH2 8635   6.353   2.271   1.804
 2893TIP3    H1 8636   6.296   2.295   1.881
 2893TIP3    H2 8637   6.436   2.249   1.850
 2894TIP3   OH2 8638   6.584   2.308   2.721
 2894TIP3    H1 8639   6.583   2.391   2.773
 2894TIP3    H2 8640   6.497   2.314   2.677
 2895TIP3   OH2 8641   5.586   2.263   2.217
 2895TIP3    H1 8642   5.545   2.205   2.150
 2895TIP3    H2 8643   5.662   2.210   2.248
 2896TIP3   OH2 8644   5.740   2.690   2.355
 2896TIP3    H1 8645   5.706   2.644   2.278
 2896TIP3    H2 8646   5.823   2.643   2.374
 2897TIP3   OH2 8647   5.734   2.235   2.581
 2897TIP3    H1 8648   5.756   2.216   2.488
 2897TIP3    H2 8649   5.767   2.326   2.594
 2898TIP3   OH2 8650   6.251   2.876   2.360
 2898TIP3    H1 8651   6.206   2.946   2.407
 2898TIP3    H2 8652   6.233   2.798   2.416
 2899TIP3   OH2 8653   5.853   2.795   2.893
 2899TIP3    H1 8654   5.793   2.867   2.914
 2899TIP3    H2 8655   5.791   2.735   2.845
 2900TIP3   OH2 8656   6.190   2.128   1.631
 2900TIP3    H1 8657   6.248   2.190   1.681
 2900TIP3    H2 8658   6.217   2.149   1.539
 2901TIP3   OH2 8659   5.609   2.352   3.000
 2901TIP3    H1 8660   5.615   2.420   3.068
 2901TIP3    H2 8661   5.517   2.321   3.014
 2902TIP3   OH2 8662   5.939   2.804   1.903
 2902TIP3    H1 8663   6.016   2.859   1.922
 2902TIP3    H2 8664   5.874   2.868   1.872
 2903TIP3   OH2 8665   6.703   1.363   1.680
 2903TIP3    H1 8666   6.622   1.388   1.729
 2903TIP3    H2 8667   6.720   1.445   1.629
 2904TIP3   OH2 8668   5.454   2.108   2.017
 2904TIP3    H1 8669   5.382   2.153   1.968
 2904TIP3    H2 8670   5.410   2.027   2.046
 2905TIP3   OH2 8671   6.505   2.735   1.227
 2905TIP3    H1 8672   6.514   2.832   1.215
 2905TIP3    H2 8673   6.599   2.706   1.217
 2906TIP3   OH2 8674   5.223   2.492   2.945
 2906TIP3    H1 8675   5.209   2.519   2.851
 2906TIP3    H2 8676   5.259   2.403   2.934
 2907TIP3   OH2 8677   6.946   3.141   2.626
 2907TIP3    H1 8678   6.948   3.044   2.640
 2907TIP3    H2 8679   6.861   3.163   2.669
 2908TIP3   OH2 8680   6.063   2.920   2.764
 2908TIP3    H1 8681   6.056   3.014   2.791
 2908TIP3    H2 8682   5.986   2.881   2.809
 2909TIP3   OH2 8683   5.818   3.053   1.708
 2909TIP3    H1 8684   5.768   3.039   1.626
 2909TIP3    H2 8685   5.784   3.139   1.739
 2910TIP3   OH2 8686   5.253   2.901   2.094
 2910TIP3    H1 8687   5.302   2.898   2.180
 2910TIP3    H2 8688   5.202   2.819   2.099
 2911TIP3   OH2 8689   6.015   2.956   1.348
 2911TIP3    H1 8690   6.075   2.886   1.314
 2911TIP3    H2 8691   6.049   2.967   1.439
 2912TIP3   OH2 8692   6.068   3.003   1.617
 2912TIP3    H1 8693   5.980   3.013   1.659
 2912TIP3    H2 8694   6.121   2.971   1.692
 2913TIP3   OH2 8695   6.842   2.266   2.902
 2913TIP3    H1 8696   6.757   2.277   2.856
 2913TIP3    H2 8697   6.857   2.170   2.892
 2914TIP3   OH2 8698   5.407   2.690   2.969
 2914TIP3    H1 8699   5.475   2.624   2.951
 2914TIP3    H2 8700   5.329   2.646   2.926
 2915TIP3   OH2 8701   5.833   1.502   2.709
 2915TIP3    H1 8702   5.745   1.472   2.680
 2915TIP3    H2 8703   5.807   1.581   2.760
 2916TIP3   OH2 8704   6.370   1.616   2.904
 2916TIP3    H1 8705   6.442   1.587   2.963
 2916TIP3    H2 8706   6.289   1.593   2.955
 2917TIP3   OH2 8707   6.605   2.047   2.822
 2917TIP3    H1 8708   6.554   2.043   2.906
 2917TIP3    H2 8709   6.581   2.135   2.787
 2918TIP3   OH2 8710   6.268   2.170   1.377
 2918TIP3    H1 8711   6.232   2.149   1.289
 2918TIP3    H2 8712   6.349   2.218   1.353
 2919TIP3   OH2 8713   5.979   1.548   1.680
 2919TIP3    H1 8714   5.944   1.544   1.772
 2919TIP3    H2 8715   5.938   1.467   1.644
 2920TIP3   OH2 8716   5.769   2.013   2.730
 2920TIP3    H1 8717   5.716   2.035   2.809
 2920TIP3    H2 8718   5.757   2.095   2.676
 2921TIP3   OH2 8719   5.650   1.903   2.239
 2921TIP3    H1 8720   5.557   1.878   2.260
 2921TIP3    H2 8721   5.660   1.861   2.151
 2922TIP3   OH2 8722   6.141   1.988   1.971
 2922TIP3    H1 8723   6.089   2.060   1.927
 2922TIP3    H2 8724   6.194   1.954   1.896
 2923TIP3   OH2 8725   6.315   2.265   3.054
 2923TIP3    H1 8726   6.293   2.192   3.116
 2923TIP3    H2 8727   6.409   2.278   3.075
 2924TIP3   OH2 8728   6.297   2.015   2.206
 2924TIP3    H1 8729   6.232   2.043   2.138
 2924TIP3    H2 8730   6.331   1.935   2.160
 2925TIP3   OH2 8731   5.590   2.042   2.935
 2925TIP3    H1 8732   5.605   2.105   3.007
 2925TIP3    H2 8733   5.575   1.959   2.984
 2926TIP3   OH2 8734   5.635   1.524   1.644
 2926TIP3    H1 8735   5.625   1.524   1.742
 2926TIP3    H2 8736   5.558   1.579   1.619
 2927TIP3   OH2 8737   5.180   1.562   2.516
 2927TIP3    H1 8738   5.250   1.599   2.573
 2927TIP3    H2 8739   5.227   1.541   2.434
 2928TIP3   OH2 8740   5.142   1.546   2.034
 2928TIP3    H1 8741   5.190   1.584   1.957
 2928TIP3    H2 8742   5.084   1.622   2.055
 2929TIP3   OH2 8743   6.308   2.260   2.627
 2929TIP3    H1 8744   6.343   2.189   2.568
 2929TIP3    H2 8745   6.278   2.206   2.703
 2930TIP3   OH2 8746   5.981   1.723   2.300
 2930TIP3    H1 8747   5.899   1.723   2.353
 2930TIP3    H2 8748   6.049   1.717   2.370
 2931TIP3   OH2 8749   5.413   1.783   2.307
 2931TIP3    H1 8750   5.319   1.791   2.279
 2931TIP3    H2 8751   5.434   1.691   2.285
 2932TIP3   OH2 8752   5.677   1.774   1.999
 2932TIP3    H1 8753   5.770   1.791   1.977
 2932TIP3    H2 8754   5.628   1.796   1.916
 2933TIP3   OH2 8755   6.468   1.800   2.500
 2933TIP3    H1 8756   6.442   1.813   2.594
 2933TIP3    H2 8757   6.398   1.739   2.471
 2934TIP3   OH2 8758   5.527   1.808   1.775
 2934TIP3    H1 8759   5.455   1.766   1.726
 2934TIP3    H2 8760   5.578   1.848   1.701
 2935TIP3   OH2 8761   6.640   3.488   2.719
 2935TIP3    H1 8762   6.627   3.508   2.624
 2935TIP3    H2 8763   6.706   3.554   2.744
 2936TIP3   OH2 8764   5.591   2.654   3.180
 2936TIP3    H1 8765   5.684   2.662   3.212
 2936TIP3    H2 8766   5.558   2.585   3.239
 2937TIP3   OH2 8767   6.057   2.055   2.402
 2937TIP3    H1 8768   6.130   2.010   2.357
 2937TIP3    H2 8769   6.058   2.012   2.490
 2938TIP3   OH2 8770   5.578   1.540   2.281
 2938TIP3    H1 8771   5.542   1.463   2.331
 2938TIP3    H2 8772   5.626   1.496   2.210
 2939TIP3   OH2 8773   6.037   1.958   2.679
 2939TIP3    H1 8774   5.946   1.987   2.699
 2939TIP3    H2 8775   6.092   2.016   2.735
 2940TIP3   OH2 8776   5.774   2.338   1.783
 2940TIP3    H1 8777   5.701   2.274   1.771
 2940TIP3    H2 8778   5.753   2.373   1.874
 2941TIP3   OH2 8779   6.671   2.575   2.411
 2941TIP3    H1 8780   6.692   2.628   2.332
 2941TIP3    H2 8781   6.585   2.533   2.385
 2942TIP3   OH2 8782   6.230   1.649   1.651
 2942TIP3    H1 8783   6.133   1.630   1.658
 2942TIP3    H2 8784   6.236   1.744   1.674
 2943TIP3   OH2 8785   6.175   2.660   2.779
 2943TIP3    H1 8786   6.202   2.639   2.870
 2943TIP3    H2 8787   6.138   2.750   2.787
 2944TIP3   OH2 8788   6.298   1.901   1.752
 2944TIP3    H1 8789   6.394   1.909   1.766
 2944TIP3    H2 8790   6.277   1.982   1.701
 2945TIP3   OH2 8791   5.482   2.360   2.457
 2945TIP3    H1 8792   5.517   2.327   2.372
 2945TIP3    H2 8793   5.508   2.293   2.521
 2946TIP3   OH2 8794   5.917   2.489   1.605
 2946TIP3    H1 8795   5.868   2.575   1.608
 2946TIP3    H2 8796   5.863   2.435   1.667
 2947TIP3   OH2 8797   5.359   2.263   3.071
 2947TIP3    H1 8798   5.350   2.245   3.166
 2947TIP3    H2 8799   5.278   2.220   3.037
 2948TIP3   OH2 8800   6.073   2.400   3.091
 2948TIP3    H1 8801   6.011   2.338   3.049
 2948TIP3    H2 8802   6.159   2.362   3.062
 2949TIP3   OH2 8803   6.334   2.931   2.677
 2949TIP3    H1 8804   6.238   2.920   2.692
 2949TIP3    H2 8805   6.359   2.978   2.759
 2950TIP3   OH2 8806   6.744   1.994   1.585
 2950TIP3    H1 8807   6.682   1.951   1.522
 2950TIP3    H2 8808   6.740   2.084   1.546
 2951TIP3   OH2 8809   6.960   2.852   2.662
 2951TIP3    H1 8810   6.863   2.843   2.653
 2951TIP3    H2 8811   6.988   2.819   2.574
 2952TIP3   OH2 8812   6.448   2.811   1.497
 2952TIP3    H1 8813   6.412   2.748   1.561
 2952TIP3    H2 8814   6.453   2.759   1.415
 2953TIP3   OH2 8815   6.438   2.439   2.328
 2953TIP3    H1 8816   6.344   2.415   2.342
 2953TIP3    H2 8817   6.470   2.359   2.282
 2954TIP3   OH2 8818   5.567   2.664   2.074
 2954TIP3    H1 8819   5.559   2.748   2.026
 2954TIP3    H2 8820   5.479   2.655   2.113
 2955TIP3   OH2 8821   5.132   1.971   1.790
 2955TIP3    H1 8822   5.177   2.055   1.812
 2955TIP3    H2 8823   5.056   1.974   1.852
 2956TIP3   OH2 8824   5.703   2.430   2.025
 2956TIP3    H1 8825   5.665   2.519   2.042
 2956TIP3    H2 8826   5.666   2.380   2.100
 2957TIP3   OH2 8827   5.836   3.013   2.555
 2957TIP3    H1 8828   5.869   3.091   2.504
 2957TIP3    H2 8829   5.919   2.979   2.589
 2958TIP3   OH2 8830   5.482   2.909   1.933
 2958TIP3    H1 8831   5.398   2.916   1.983
 2958TIP3    H2 8832   5.515   3.001   1.939
 2959TIP3   OH2 8833   6.222   2.642   2.512
 2959TIP3    H1 8834   6.211   2.641   2.610
 2959TIP3    H2 8835   6.303   2.590   2.503
 2960TIP3   OH2 8836   6.200   2.541   1.394
 2960TIP3    H1 8837   6.253   2.513   1.472
 2960TIP3    H2 8838   6.112   2.513   1.422
 2961TIP3   OH2 8839   6.469   3.173   2.538
 2961TIP3    H1 8840   6.404   3.110   2.573
 2961TIP3    H2 8841   6.411   3.222   2.474
 2962TIP3   OH2 8842   6.538   3.011   1.214
 2962TIP3    H1 8843   6.574   3.087   1.165
 2962TIP3    H2 8844   6.458   3.053   1.250
 2963TIP3   OH2 8845   5.555   1.787   3.078
 2963TIP3    H1 8846   5.458   1.789   3.091
 2963TIP3    H2 8847   5.583   1.732   3.152
 2964TIP3   OH2 8848   6.361   2.463   1.602
 2964TIP3    H1 8849   6.349   2.405   1.679
 2964TIP3    H2 8850   6.458   2.465   1.595
 2965TIP3   OH2 8851   5.268   2.895   2.704
 2965TIP3    H1 8852   5.242   2.803   2.677
 2965TIP3    H2 8853   5.323   2.874   2.780
 2966TIP3   OH2 8854   5.563   2.518   1.395
 2966TIP3    H1 8855   5.576   2.424   1.370
 2966TIP3    H2 8856   5.544   2.510   1.490
 2967TIP3   OH2 8857   5.507   2.524   1.666
 2967TIP3    H1 8858   5.577   2.497   1.727
 2967TIP3    H2 8859   5.510   2.622   1.675
 2968TIP3   OH2 8860   5.241   2.215   1.872
 2968TIP3    H1 8861   5.175   2.260   1.929
 2968TIP3    H2 8862   5.254   2.284   1.804
 2969TIP3   OH2 8863   6.402   1.847   2.760
 2969TIP3    H1 8864   6.477   1.888   2.807
 2969TIP3    H2 8865   6.384   1.768   2.816
 2970TIP3   OH2 8866   6.281   1.598   1.931
 2970TIP3    H1 8867   6.263   1.621   1.838
 2970TIP3    H2 8868   6.316   1.682   1.966
 2971TIP3   OH2 8869   5.775   2.719   1.612
 2971TIP3    H1 8870   5.689   2.741   1.652
 2971TIP3    H2 8871   5.792   2.800   1.562
 2972TIP3   OH2 8872   5.962   1.785   2.031
 2972TIP3    H1 8873   6.025   1.859   2.016
 2972TIP3    H2 8874   5.967   1.776   2.129
 2973TIP3   OH2 8875   6.235   2.101   2.836
 2973TIP3    H1 8876   6.256   2.154   2.915
 2973TIP3    H2 8877   6.286   2.020   2.852
 2974TIP3   OH2 8878   6.105   1.506   2.131
 2974TIP3    H1 8879   6.097   1.583   2.189
 2974TIP3    H2 8880   6.168   1.540   2.063
 2975TIP3   OH2 8881   5.521   2.796   1.685
 2975TIP3    H1 8882   5.490   2.867   1.625
 2975TIP3    H2 8883   5.505   2.837   1.773
 2976TIP3   OH2 8884   5.619   1.510   1.920
 2976TIP3    H1 8885   5.616   1.600   1.959
 2976TIP3    H2 8886   5.715   1.493   1.929
 2977TIP3   OH2 8887   6.870   1.998   2.821
 2977TIP3    H1 8888   6.772   2.000   2.829
 2977TIP3    H2 8889   6.880   1.952   2.737
 2978TIP3   OH2 8890   6.526   2.192   2.204
 2978TIP3    H1 8891   6.446   2.138   2.220
 2978TIP3    H2 8892   6.593   2.145   2.257
 2979TIP3   OH2 8893   5.237   2.421   1.675
 2979TIP3    H1 8894   5.306   2.489   1.687
 2979TIP3    H2 8895   5.283   2.365   1.608
 2980TIP3   OH2 8896   5.179   1.701   1.810
 2980TIP3    H1 8897   5.184   1.798   1.808
 2980TIP3    H2 8898   5.095   1.685   1.766
 2981TIP3   OH2 8899   6.509   3.116   2.141
 2981TIP3    H1 8900   6.444   3.183   2.113
 2981TIP3    H2 8901   6.593   3.160   2.116
 2982TIP3   OH2 8902   5.569   1.420   2.680
 2982TIP3    H1 8903   5.539   1.385   2.594
 2982TIP3    H2 8904   5.559   1.343   2.739
 2983TIP3   OH2 8905   5.103   2.633   2.057
 2983TIP3    H1 8906   5.046   2.665   2.127
 2983TIP3    H2 8907   5.067   2.679   1.978
 2984TIP3   OH2 8908   5.262   3.180   3.137
 2984TIP3    H1 8909   5.346   3.184   3.188
 2984TIP3    H2 8910   5.239   3.086   3.144
 2985TIP3   OH2 8911   5.748   3.138   3.177
 2985TIP3    H1 8912   5.835   3.112   3.209
 2985TIP3    H2 8913   5.764   3.148   3.083
 2986TIP3   OH2 8914   5.725   2.719   1.302
 2986TIP3    H1 8915   5.669   2.649   1.343
 2986TIP3    H2 8916   5.802   2.666   1.276
 2987TIP3   OH2 8917   6.383   3.052   2.918
 2987TIP3    H1 8918   6.376   2.982   2.987
 2987TIP3    H2 8919   6.460   3.104   2.949
 2988TIP3   OH2 8920   6.163   2.759   1.220
 2988TIP3    H1 8921   6.201   2.693   1.281
 2988TIP3    H2 8922   6.222   2.754   1.143
 2989TIP3   OH2 8923   5.369   2.597   3.318
 2989TIP3    H1 8924   5.391   2.506   3.346
 2989TIP3    H2 8925   5.273   2.587   3.297
 2990TIP3   OH2 8926   5.374   2.235   1.530
 2990TIP3    H1 8927   5.430   2.206   1.604
 2990TIP3    H2 8928   5.441   2.241   1.459
 2991TIP3   OH2 8929   6.002   2.675   3.106
 2991TIP3    H1 8930   5.961   2.694   3.019
 2991TIP3    H2 8931   6.033   2.583   3.096
 2992TIP3   OH2 8932   5.889   2.439   1.336
 2992TIP3    H1 8933   5.889   2.450   1.434
 2992TIP3    H2 8934   5.888   2.341   1.329
 2993TIP3   OH2 8935   6.494   2.686   2.717
 2993TIP3    H1 8936   6.570   2.729   2.673
 2993TIP3    H2 8937   6.424   2.752   2.700
 2994TIP3   OH2 8938   5.537   2.353   3.309
 2994TIP3    H1 8939   5.581   2.269   3.296
 2994TIP3    H2 8940   5.554   2.369   3.404
 2995TIP3   OH2 8941   5.577   2.145   1.748
 2995TIP3    H1 8942   5.549   2.108   1.834
 2995TIP3    H2 8943   5.614   2.067   1.703
 2996TIP3   OH2 8944   5.853   2.212   2.981
 2996TIP3    H1 8945   5.771   2.265   2.973
 2996TIP3    H2 8946   5.904   2.244   2.903
 2997TIP3   OH2 8947   5.682   1.938   1.589
 2997TIP3    H1 8948   5.657   1.946   1.495
 2997TIP3    H2 8949   5.779   1.940   1.583
 2998TIP3   OH2 8950   6.369   2.609   3.113
 2998TIP3    H1 8951   6.444   2.576   3.062
 2998TIP3    H2 8952   6.362   2.544   3.184
 2999TIP3   OH2 8953   6.504   2.265   1.256
 2999TIP3    H1 8954   6.480   2.221   1.172
 2999TIP3    H2 8955   6.469   2.355   1.236
 3000TIP3   OH2 8956   5.972   1.998   3.104
 3000TIP3    H1 8957   5.973   1.918   3.046
 3000TIP3    H2 8958   5.929   2.064   3.046
 3001TIP3   OH2 8959   5.974   1.787   2.912
 3001TIP3    H1 8960   6.003   1.823   2.827
 3001TIP3    H2 8961   5.881   1.762   2.894
 3002TIP3   OH2 8962   6.000   2.319   2.784
 3002TIP3    H1 8963   6.084   2.331   2.740
 3002TIP3    H2 8964   5.942   2.383   2.738
 3003TIP3   OH2 8965   6.581   2.282   3.163
 3003TIP3    H1 8966   6.626   2.199   3.184
 3003TIP3    H2 8967   6.654   2.336   3.128
 3004TIP3   OH2 8968   6.624   2.538   2.902
 3004TIP3    H1 8969   6.567   2.592   2.843
 3004TIP3    H2 8970   6.712   2.560   2.864
 3005TIP3   OH2 8971   5.851   2.104   3.337
 3005TIP3    H1 8972   5.784   2.034   3.353
 3005TIP3    H2 8973   5.885   2.079   3.249
 3006TIP3   OH2 8974   6.107   1.544   2.978
 3006TIP3    H1 8975   6.055   1.623   2.957
 3006TIP3    H2 8976   6.041   1.472   2.970
 3007TIP3   OH2 8977   6.233   2.048   3.196
 3007TIP3    H1 8978   6.221   2.030   3.291
 3007TIP3    H2 8979   6.143   2.024   3.164
 3008TIP3   OH2 8980   6.472   1.998   3.050
 3008TIP3    H1 8981   6.398   1.998   3.114
 3008TIP3    H2 8982   6.547   1.967   3.105
 3009TIP3   OH2 8983   6.704   1.940   3.198
 3009TIP3    H1 8984   6.715   1.844   3.214
 3009TIP3    H2 8985   6.697   1.977   3.288
 3010TIP3   OH2 8986   5.693   1.883   3.392
 3010TIP3    H1 8987   5.697   1.791   3.358
 3010TIP3    H2 8988   5.731   1.870   3.481
 3011TIP3   OH2 8989   6.172   1.567   3.247
 3011TIP3    H1 8990   6.256   1.515   3.246
 3011TIP3    H2 8991   6.144   1.552   3.155
 3012TIP3   OH2 8992   6.269   1.774   3.398
 3012TIP3    H1 8993   6.244   1.701   3.336
 3012TIP3    H2 8994   6.190   1.831   3.393
 3013TIP3   OH2 8995   5.490   2.998   1.495
 3013TIP3    H1 8996   5.585   2.988   1.478
 3013TIP3    H2 8997   5.464   3.052   1.418
 3014TIP3   OH2 8998   4.967   2.383   1.704
 3014TIP3    H1 8999   5.063   2.403   1.695
 3014TIP3    H2 9000   4.963   2.293   1.668
 3015TIP3   OH2 9001   4.886   2.991   2.131
 3015TIP3    H1 9002   4.820   2.929   2.093
 3015TIP3    H2 9003   4.931   2.932   2.195
 3016TIP3   OH2 9004   5.024   2.834   2.310
 3016TIP3    H1 9005   5.017   2.760   2.373
 3016TIP3    H2 9006   5.073   2.898   2.364
 3017TIP3   OH2 9007   6.757   3.235   2.113
 3017TIP3    H1 9008   6.769   3.269   2.203
 3017TIP3    H2 9009   6.801   3.302   2.060
 3018TIP3   OH2 9010   6.774   3.262   2.393
 3018TIP3    H1 9011   6.724   3.178   2.387
 3018TIP3    H2 9012   6.843   3.234   2.455
 3019TIP3   OH2 9013   6.820   2.942   2.968
 3019TIP3    H1 9014   6.749   2.948   3.034
 3019TIP3    H2 9015   6.861   3.030   2.972
 3020TIP3   OH2 9016   6.640   2.452   1.586
 3020TIP3    H1 9017   6.704   2.519   1.557
 3020TIP3    H2 9018   6.685   2.415   1.666
 3021TIP3   OH2 9019   6.767   2.319   1.793
 3021TIP3    H1 9020   6.696   2.276   1.845
 3021TIP3    H2 9021   6.819   2.364   1.861
 3022TIP3   OH2 9022   6.826   2.715   2.227
 3022TIP3    H1 9023   6.872   2.652   2.170
 3022TIP3    H2 9024   6.814   2.792   2.169
 3023TIP3   OH2 9025   6.649   3.013   2.414
 3023TIP3    H1 9026   6.577   3.066   2.455
 3023TIP3    H2 9027   6.602   2.970   2.340
 3024TIP3   OH2 9028   6.705   2.229   1.437
 3024TIP3    H1 9029   6.634   2.228   1.369
 3024TIP3    H2 9030   6.674   2.305   1.491
 3025TIP3   OH2 9031   6.580   1.903   1.389
 3025TIP3    H1 9032   6.528   1.935   1.315
 3025TIP3    H2 9033   6.554   1.808   1.389
 3026TIP3   OH2 9034   6.582   2.178   1.937
 3026TIP3    H1 9035   6.582   2.082   1.927
 3026TIP3    H2 9036   6.564   2.189   2.033
 3027TIP3   OH2 9037   5.211   2.201   2.703
 3027TIP3    H1 9038   5.180   2.261   2.633
 3027TIP3    H2 9039   5.307   2.223   2.705
 3028TIP3   OH2 9040   6.870   2.607   2.797
 3028TIP3    H1 9041   6.937   2.536   2.783
 3028TIP3    H2 9042   6.900   2.676   2.737
 3029TIP3   OH2 9043   7.045   2.404   2.783
 3029TIP3    H1 9044   6.986   2.345   2.834
 3029TIP3    H2 9045   7.133   2.373   2.812
 3030TIP3   OH2 9046   6.512   1.642   1.391
 3030TIP3    H1 9047   6.585   1.597   1.436
 3030TIP3    H2 9048   6.440   1.576   1.392
 3031TIP3   OH2 9049   6.579   1.896   1.831
 3031TIP3    H1 9050   6.616   1.806   1.845
 3031TIP3    H2 9051   6.635   1.927   1.757
 3032TIP3   OH2 9052   6.743   2.063   2.328
 3032TIP3    H1 9053   6.829   2.089   2.292
 3032TIP3    H2 9054   6.749   2.103   2.417
 3033TIP3   OH2 9055   6.803   2.210   2.556
 3033TIP3    H1 9056   6.728   2.243   2.609
 3033TIP3    H2 9057   6.837   2.293   2.516
 3034TIP3   OH2 9058   5.427   1.930   3.358
 3034TIP3    H1 9059   5.525   1.924   3.364
 3034TIP3    H2 9060   5.402   1.844   3.397
 3035TIP3   OH2 9061   7.278   1.814   3.109
 3035TIP3    H1 9062   7.323   1.742   3.062
 3035TIP3    H2 9063   7.232   1.861   3.036
 3036TIP3   OH2 9064   6.684   1.644   1.867
 3036TIP3    H1 9065   6.730   1.626   1.952
 3036TIP3    H2 9066   6.621   1.569   1.865
 3037TIP3   OH2 9067   5.384   1.629   2.689
 3037TIP3    H1 9068   5.446   1.555   2.697
 3037TIP3    H2 9069   5.445   1.704   2.681
 3038TIP3   OH2 9070   5.186   1.907   2.761
 3038TIP3    H1 9071   5.238   1.901   2.678
 3038TIP3    H2 9072   5.194   2.003   2.776
 3039TIP3   OH2 9073   7.122   1.933   2.925
 3039TIP3    H1 9074   7.042   1.983   2.949
 3039TIP3    H2 9075   7.083   1.868   2.863
 3040TIP3   OH2 9076   6.768   1.571   1.509
 3040TIP3    H1 9077   6.803   1.503   1.447
 3040TIP3    H2 9078   6.829   1.645   1.495
 3041TIP3   OH2 9079   5.171   1.398   2.257
 3041TIP3    H1 9080   5.081   1.400   2.293
 3041TIP3    H2 9081   5.165   1.462   2.183
 3042TIP3   OH2 9082   6.325   3.111   1.767
 3042TIP3    H1 9083   6.386   3.109   1.690
 3042TIP3    H2 9084   6.371   3.172   1.828
 3043TIP3   OH2 9085   5.390   1.485   3.077
 3043TIP3    H1 9086   5.339   1.484   3.159
 3043TIP3    H2 9087   5.325   1.525   3.016
 3044TIP3   OH2 9088   5.623   2.942   2.708
 3044TIP3    H1 9089   5.560   3.009   2.677
 3044TIP3    H2 9090   5.701   2.970   2.656
 3045TIP3   OH2 9091   6.047   3.186   2.846
 3045TIP3    H1 9092   6.093   3.191   2.931
 3045TIP3    H2 9093   6.111   3.235   2.789
 3046TIP3   OH2 9094   6.234   3.327   2.710
 3046TIP3    H1 9095   6.273   3.326   2.621
 3046TIP3    H2 9096   6.289   3.391   2.758
 3047TIP3   OH2 9097   7.025   1.701   2.798
 3047TIP3    H1 9098   6.933   1.688   2.769
 3047TIP3    H2 9099   7.059   1.609   2.789
 3048TIP3   OH2 9100   5.289   3.231   2.715
 3048TIP3    H1 9101   5.197   3.260   2.698
 3048TIP3    H2 9102   5.287   3.221   2.810
 3049TIP3   OH2 9103   5.524   3.181   2.585
 3049TIP3    H1 9104   5.438   3.198   2.629
 3049TIP3    H2 9105   5.505   3.210   2.494
 3050TIP3   OH2 9106   5.942   3.205   2.396
 3050TIP3    H1 9107   5.889   3.246   2.327
 3050TIP3    H2 9108   6.031   3.244   2.383
 3051TIP3   OH2 9109   5.189   2.996   2.467
 3051TIP3    H1 9110   5.220   2.976   2.558
 3051TIP3    H2 9111   5.263   2.953   2.417
 3052TIP3   OH2 9112   5.391   2.881   2.325
 3052TIP3    H1 9113   5.407   2.799   2.378
 3052TIP3    H2 9114   5.483   2.915   2.323
 3053TIP3   OH2 9115   5.660   2.959   2.333
 3053TIP3    H1 9116   5.690   2.866   2.328
 3053TIP3    H2 9117   5.706   2.986   2.415
 3054TIP3   OH2 9118   6.231   1.618   2.419
 3054TIP3    H1 9119   6.188   1.549   2.474
 3054TIP3    H2 9120   6.306   1.569   2.379
 3055TIP3   OH2 9121   6.753   1.497   2.318
 3055TIP3    H1 9122   6.787   1.553   2.245
 3055TIP3    H2 9123   6.658   1.517   2.317
 3056TIP3   OH2 9124   6.849   1.604   2.084
 3056TIP3    H1 9125   6.923   1.551   2.047
 3056TIP3    H2 9126   6.884   1.695   2.076
 3057TIP3   OH2 9127   5.481   1.326   2.432
 3057TIP3    H1 9128   5.388   1.294   2.437
 3057TIP3    H2 9129   5.529   1.241   2.428
 3058TIP3   OH2 9130   5.265   1.198   2.081
 3058TIP3    H1 9131   5.297   1.256   2.010
 3058TIP3    H2 9132   5.239   1.264   2.150
 3059TIP3   OH2 9133   5.928   1.358   2.317
 3059TIP3    H1 9134   5.983   1.408   2.256
 3059TIP3    H2 9135   5.953   1.395   2.402
 3060TIP3   OH2 9136   6.472   1.508   2.297
 3060TIP3    H1 9137   6.466   1.466   2.210
 3060TIP3    H2 9138   6.459   1.430   2.357
 3061TIP3   OH2 9139   6.502   1.432   1.862
 3061TIP3    H1 9140   6.416   1.477   1.878
 3061TIP3    H2 9141   6.487   1.347   1.908
 3062TIP3   OH2 9142   4.985   2.772   1.858
 3062TIP3    H1 9143   4.899   2.741   1.824
 3062TIP3    H2 9144   4.976   2.867   1.841
 3063TIP3   OH2 9145   5.387   1.356   1.844
 3063TIP3    H1 9146   5.436   1.294   1.786
 3063TIP3    H2 9147   5.460   1.410   1.879
 3064TIP3   OH2 9148   5.897   1.534   1.944
 3064TIP3    H1 9149   5.956   1.488   2.005
 3064TIP3    H2 9150   5.917   1.627   1.969
 3065TIP3   OH2 9151   5.756   2.954   1.442
 3065TIP3    H1 9152   5.844   2.977   1.407
 3065TIP3    H2 9153   5.735   2.878   1.383
 3066TIP3   OH2 9154   6.482   3.079   1.537
 3066TIP3    H1 9155   6.473   2.982   1.530
 3066TIP3    H2 9156   6.431   3.108   1.459
 3067TIP3   OH2 9157   5.689   1.609   3.325
 3067TIP3    H1 9158   5.653   1.538   3.380
 3067TIP3    H2 9159   5.783   1.607   3.352
 3068TIP3   OH2 9160   5.940   1.606   3.442
 3068TIP3    H1 9161   6.022   1.585   3.392
 3068TIP3    H2 9162   5.936   1.532   3.505
 3069TIP3   OH2 9163   5.060   2.794   1.499
 3069TIP3    H1 9164   5.062   2.810   1.594
 3069TIP3    H2 9165   5.147   2.751   1.483
 3070TIP3   OH2 9166   6.763   1.669   3.231
 3070TIP3    H1 9167   6.775   1.638   3.323
 3070TIP3    H2 9168   6.853   1.658   3.195
 3071TIP3   OH2 9169   6.696   3.219   2.723
 3071TIP3    H1 9170   6.622   3.188   2.666
 3071TIP3    H2 9171   6.676   3.315   2.726
 3072TIP3   OH2 9172   7.271   2.481   2.232
 3072TIP3    H1 9173   7.291   2.412   2.298
 3072TIP3    H2 9174   7.328   2.552   2.264
 3073TIP3   OH2 9175   7.238   2.899   1.957
 3073TIP3    H1 9176   7.229   2.802   1.962
 3073TIP3    H2 9177   7.334   2.908   1.954
 3074TIP3   OH2 9178   6.949   2.106   1.750
 3074TIP3    H1 9179   6.892   2.184   1.761
 3074TIP3    H2 9180   6.886   2.047   1.704
 3075TIP3   OH2 9181   7.017   2.387   1.914
 3075TIP3    H1 9182   7.067   2.305   1.906
 3075TIP3    H2 9183   7.046   2.437   1.837
 3076TIP3   OH2 9184   7.870   3.321   1.550
 3076TIP3    H1 9185   7.965   3.296   1.555
 3076TIP3    H2 9186   7.849   3.333   1.643
 3077TIP3   OH2 9187   7.779   2.800   1.920
 3077TIP3    H1 9188   7.780   2.780   1.826
 3077TIP3    H2 9189   7.853   2.862   1.932
 3078TIP3   OH2 9190   7.475   1.978   1.941
 3078TIP3    H1 9191   7.505   2.052   1.883
 3078TIP3    H2 9192   7.472   1.906   1.874
 3079TIP3   OH2 9193   7.577   2.382   1.807
 3079TIP3    H1 9194   7.669   2.350   1.823
 3079TIP3    H2 9195   7.534   2.298   1.780
 3080TIP3   OH2 9196   7.516   1.967   2.367
 3080TIP3    H1 9197   7.496   2.054   2.331
 3080TIP3    H2 9198   7.465   1.970   2.450
 3081TIP3   OH2 9199   7.621   2.736   2.153
 3081TIP3    H1 9200   7.557   2.800   2.190
 3081TIP3    H2 9201   7.662   2.787   2.081
 3082TIP3   OH2 9202   7.451   2.933   2.244
 3082TIP3    H1 9203   7.423   3.020   2.210
 3082TIP3    H2 9204   7.372   2.913   2.299
 3083TIP3   OH2 9205   6.841   2.623   1.478
 3083TIP3    H1 9206   6.798   2.651   1.396
 3083TIP3    H2 9207   6.871   2.710   1.514
 3084TIP3   OH2 9208   7.367   2.526   1.708
 3084TIP3    H1 9209   7.328   2.467   1.640
 3084TIP3    H2 9210   7.445   2.474   1.737
 3085TIP3   OH2 9211   7.502   2.942   1.851
 3085TIP3    H1 9212   7.474   2.908   1.764
 3085TIP3    H2 9213   7.582   2.892   1.870
 3086TIP3   OH2 9214   7.530   2.485   2.063
 3086TIP3    H1 9215   7.551   2.470   1.969
 3086TIP3    H2 9216   7.559   2.576   2.080
 3087TIP3   OH2 9217   7.649   3.048   2.398
 3087TIP3    H1 9218   7.587   3.112   2.440
 3087TIP3    H2 9219   7.585   2.996   2.345
 3088TIP3   OH2 9220   7.398   2.617   2.472
 3088TIP3    H1 9221   7.412   2.690   2.535
 3088TIP3    H2 9222   7.313   2.584   2.508
 3089TIP3   OH2 9223   7.752   3.100   1.423
 3089TIP3    H1 9224   7.768   3.191   1.454
 3089TIP3    H2 9225   7.686   3.113   1.354
 3090TIP3   OH2 9226   7.447   3.221   2.477
 3090TIP3    H1 9227   7.412   3.222   2.386
 3090TIP3    H2 9228   7.366   3.198   2.529
 3091TIP3   OH2 9229   7.243   2.365   1.512
 3091TIP3    H1 9230   7.178   2.414   1.457
 3091TIP3    H2 9231   7.198   2.280   1.522
 3092TIP3   OH2 9232   7.029   2.751   2.421
 3092TIP3    H1 9233   6.958   2.729   2.358
 3092TIP3    H2 9234   7.064   2.663   2.447
 3093TIP3   OH2 9235   6.878   2.947   2.055
 3093TIP3    H1 9236   6.974   2.959   2.056
 3093TIP3    H2 9237   6.848   3.027   2.101
 3094TIP3   OH2 9238   7.840   3.161   2.240
 3094TIP3    H1 9239   7.845   3.253   2.272
 3094TIP3    H2 9240   7.767   3.127   2.297
 3095TIP3   OH2 9241   7.619   3.309   1.195
 3095TIP3    H1 9242   7.570   3.292   1.112
 3095TIP3    H2 9243   7.581   3.394   1.223
 3096TIP3   OH2 9244   7.050   3.159   1.582
 3096TIP3    H1 9245   7.097   3.151   1.668
 3096TIP3    H2 9246   6.991   3.082   1.586
 3097TIP3   OH2 9247   7.883   3.271   1.134
 3097TIP3    H1 9248   7.790   3.289   1.157
 3097TIP3    H2 9249   7.888   3.176   1.152
 3098TIP3   OH2 9250   7.231   2.936   2.407
 3098TIP3    H1 9251   7.280   2.919   2.490
 3098TIP3    H2 9252   7.158   2.871   2.414
 3099TIP3   OH2 9253   7.617   1.787   2.179
 3099TIP3    H1 9254   7.541   1.730   2.166
 3099TIP3    H2 9255   7.597   1.832   2.262
 3100TIP3   OH2 9256   7.541   2.256   2.214
 3100TIP3    H1 9257   7.487   2.282   2.291
 3100TIP3    H2 9258   7.529   2.336   2.157
 3101TIP3   OH2 9259   7.448   2.155   1.727
 3101TIP3    H1 9260   7.358   2.125   1.751
 3101TIP3    H2 9261   7.460   2.116   1.638
 3102TIP3   OH2 9262   7.370   2.292   2.428
 3102TIP3    H1 9263   7.400   2.360   2.491
 3102TIP3    H2 9264   7.359   2.215   2.487
 3103TIP3   OH2 9265   7.399   1.727   1.130
 3103TIP3    H1 9266   7.400   1.765   1.219
 3103TIP3    H2 9267   7.359   1.796   1.077
 3104TIP3   OH2 9268   6.998   1.823   2.000
 3104TIP3    H1 9269   7.083   1.785   2.021
 3104TIP3    H2 9270   6.981   1.788   1.911
 3105TIP3   OH2 9271   6.943   1.803   1.524
 3105TIP3    H1 9272   6.985   1.842   1.445
 3105TIP3    H2 9273   6.879   1.875   1.543
 3106TIP3   OH2 9274   7.205   2.033   1.826
 3106TIP3    H1 9275   7.112   2.054   1.802
 3106TIP3    H2 9276   7.220   1.949   1.781
 3107TIP3   OH2 9277   7.484   2.042   1.477
 3107TIP3    H1 9278   7.566   2.050   1.426
 3107TIP3    H2 9279   7.417   2.055   1.406
 3108TIP3   OH2 9280   7.326   2.059   1.263
 3108TIP3    H1 9281   7.249   2.024   1.214
 3108TIP3    H2 9282   7.377   2.098   1.189
 3109TIP3   OH2 9283   7.391   2.869   2.628
 3109TIP3    H1 9284   7.470   2.890   2.681
 3109TIP3    H2 9285   7.343   2.814   2.693
 3110TIP3   OH2 9286   7.382   1.793   1.765
 3110TIP3    H1 9287   7.344   1.720   1.819
 3110TIP3    H2 9288   7.411   1.744   1.686
 3111TIP3   OH2 9289   7.819   2.205   2.223
 3111TIP3    H1 9290   7.726   2.225   2.200
 3111TIP3    H2 9291   7.859   2.293   2.230
 3112TIP3   OH2 9292   7.542   2.622   1.272
 3112TIP3    H1 9293   7.492   2.539   1.266
 3112TIP3    H2 9294   7.545   2.638   1.369
 3113TIP3   OH2 9295   7.939   2.893   2.301
 3113TIP3    H1 9296   7.945   2.882   2.396
 3113TIP3    H2 9297   7.907   2.985   2.293
 3114TIP3   OH2 9298   7.268   2.624   1.950
 3114TIP3    H1 9299   7.299   2.588   1.865
 3114TIP3    H2 9300   7.303   2.560   2.015
 3115TIP3   OH2 9301   7.679   2.743   1.069
 3115TIP3    H1 9302   7.650   2.834   1.092
 3115TIP3    H2 9303   7.646   2.693   1.146
 3116TIP3   OH2 9304   7.144   2.536   2.550
 3116TIP3    H1 9305   7.180   2.540   2.643
 3116TIP3    H2 9306   7.078   2.466   2.561
 3117TIP3   OH2 9307   7.868   2.657   2.577
 3117TIP3    H1 9308   7.807   2.604   2.524
 3117TIP3    H2 9309   7.952   2.614   2.558
 3118TIP3   OH2 9310   7.365   2.925   1.573
 3118TIP3    H1 9311   7.360   3.005   1.517
 3118TIP3    H2 9312   7.271   2.906   1.585
 3119TIP3   OH2 9313   6.927   2.230   1.275
 3119TIP3    H1 9314   6.969   2.316   1.297
 3119TIP3    H2 9315   6.849   2.232   1.336
 3120TIP3   OH2 9316   7.513   2.691   1.537
 3120TIP3    H1 9317   7.470   2.779   1.540
 3120TIP3    H2 9318   7.458   2.640   1.600
 3121TIP3   OH2 9319   7.631   3.264   2.039
 3121TIP3    H1 9320   7.666   3.342   1.990
 3121TIP3    H2 9321   7.710   3.235   2.088
 3122TIP3   OH2 9322   7.283   3.161   1.424
 3122TIP3    H1 9323   7.197   3.171   1.470
 3122TIP3    H2 9324   7.316   3.254   1.426
 3123TIP3   OH2 9325   7.350   2.043   2.573
 3123TIP3    H1 9326   7.255   2.054   2.590
 3123TIP3    H2 9327   7.376   1.984   2.645
 3124TIP3   OH2 9328   7.079   3.126   2.193
 3124TIP3    H1 9329   7.125   3.055   2.239
 3124TIP3    H2 9330   7.090   3.200   2.253
 3125TIP3   OH2 9331   7.356   2.773   0.883
 3125TIP3    H1 9332   7.357   2.680   0.856
 3125TIP3    H2 9333   7.338   2.766   0.979
 3126TIP3   OH2 9334   7.309   2.778   1.154
 3126TIP3    H1 9335   7.390   2.748   1.199
 3126TIP3    H2 9336   7.312   2.875   1.166
 3127TIP3   OH2 9337   7.040   2.474   1.359
 3127TIP3    H1 9338   6.972   2.519   1.415
 3127TIP3    H2 9339   7.051   2.542   1.290
 3128TIP3   OH2 9340   7.575   2.989   1.113
 3128TIP3    H1 9341   7.483   3.010   1.142
 3128TIP3    H2 9342   7.592   3.066   1.057
 3129TIP3   OH2 9343   7.314   3.052   1.171
 3129TIP3    H1 9344   7.280   3.122   1.110
 3129TIP3    H2 9345   7.299   3.095   1.258
 3130TIP3   OH2 9346   7.428   1.774   1.412
 3130TIP3    H1 9347   7.412   1.860   1.455
 3130TIP3    H2 9348   7.510   1.795   1.362
 3131TIP3   OH2 9349   7.035   2.674   1.162
 3131TIP3    H1 9350   7.102   2.744   1.174
 3131TIP3    H2 9351   7.080   2.622   1.092
 3132TIP3   OH2 9352   6.976   1.963   1.308
 3132TIP3    H1 9353   6.970   2.060   1.299
 3132TIP3    H2 9354   6.909   1.933   1.246
 3133TIP3   OH2 9355   7.342   1.719   2.153
 3133TIP3    H1 9356   7.329   1.660   2.075
 3133TIP3    H2 9357   7.340   1.651   2.224
 3134TIP3   OH2 9358   6.898   2.888   1.545
 3134TIP3    H1 9359   6.839   2.922   1.614
 3134TIP3    H2 9360   6.864   2.935   1.465
 3135TIP3   OH2 9361   7.065   3.433   2.623
 3135TIP3    H1 9362   7.151   3.421   2.669
 3135TIP3    H2 9363   7.037   3.340   2.613
 3136TIP3   OH2 9364   7.531   3.406   2.664
 3136TIP3    H1 9365   7.625   3.385   2.675
 3136TIP3    H2 9366   7.506   3.341   2.595
 3137TIP3   OH2 9367   7.517   2.974   0.793
 3137TIP3    H1 9368   7.453   2.906   0.824
 3137TIP3    H2 9369   7.601   2.929   0.811
 3138TIP3   OH2 9370   7.184   2.868   2.843
 3138TIP3    H1 9371   7.224   2.779   2.854
 3138TIP3    H2 9372   7.107   2.848   2.786
 3139TIP3   OH2 9373   7.176   2.494   1.011
 3139TIP3    H1 9374   7.229   2.466   1.087
 3139TIP3    H2 9375   7.245   2.497   0.942
 3140TIP3   OH2 9376   7.817   2.936   2.587
 3140TIP3    H1 9377   7.754   2.952   2.514
 3140TIP3    H2 9378   7.826   2.838   2.586
 3141TIP3   OH2 9379   7.667   2.680   0.810
 3141TIP3    H1 9380   7.686   2.710   0.902
 3141TIP3    H2 9381   7.590   2.625   0.827
 3142TIP3   OH2 9382   7.378   2.396   1.235
 3142TIP3    H1 9383   7.346   2.353   1.316
 3142TIP3    H2 9384   7.419   2.323   1.186
 3143TIP3   OH2 9385   7.614   2.448   2.488
 3143TIP3    H1 9386   7.539   2.511   2.492
 3143TIP3    H2 9387   7.668   2.488   2.418
 3144TIP3   OH2 9388   7.482   2.187   1.073
 3144TIP3    H1 9389   7.449   2.200   0.982
 3144TIP3    H2 9390   7.574   2.160   1.052
 3145TIP3   OH2 9391   7.798   2.264   2.570
 3145TIP3    H1 9392   7.785   2.174   2.533
 3145TIP3    H2 9393   7.723   2.314   2.533
 3146TIP3   OH2 9394   7.789   2.021   2.419
 3146TIP3    H1 9395   7.793   2.075   2.338
 3146TIP3    H2 9396   7.703   1.978   2.408
 3147TIP3   OH2 9397   7.770   2.570   2.309
 3147TIP3    H1 9398   7.833   2.557   2.237
 3147TIP3    H2 9399   7.709   2.635   2.268
 3148TIP3   OH2 9400   7.674   2.354   2.827
 3148TIP3    H1 9401   7.579   2.335   2.833
 3148TIP3    H2 9402   7.692   2.341   2.733
 3149TIP3   OH2 9403   7.475   2.144   2.882
 3149TIP3    H1 9404   7.480   2.055   2.842
 3149TIP3    H2 9405   7.520   2.129   2.968
 3150TIP3   OH2 9406   7.275   3.257   0.984
 3150TIP3    H1 9407   7.372   3.251   0.972
 3150TIP3    H2 9408   7.252   3.309   0.905
 3151TIP3   OH2 9409   6.765   2.637   1.198
 3151TIP3    H1 9410   6.860   2.658   1.184
 3151TIP3    H2 9411   6.758   2.549   1.157
 3152TIP3   OH2 9412   6.686   3.250   1.613
 3152TIP3    H1 9413   6.617   3.191   1.575
 3152TIP3    H2 9414   6.727   3.190   1.679
 3153TIP3   OH2 9415   6.819   3.095   1.798
 3153TIP3    H1 9416   6.796   3.029   1.865
 3153TIP3    H2 9417   6.868   3.159   1.853
 3154TIP3   OH2 9418   7.005   2.497   2.169
 3154TIP3    H1 9419   7.007   2.474   2.074
 3154TIP3    H2 9420   7.102   2.501   2.188
 3155TIP3   OH2 9421   7.210   2.176   2.821
 3155TIP3    H1 9422   7.305   2.191   2.839
 3155TIP3    H2 9423   7.193   2.097   2.876
 3156TIP3   OH2 9424   6.993   2.147   2.237
 3156TIP3    H1 9425   6.978   2.181   2.149
 3156TIP3    H2 9426   7.014   2.227   2.287
 3157TIP3   OH2 9427   6.957   1.686   1.766
 3157TIP3    H1 9428   6.864   1.659   1.776
 3157TIP3    H2 9429   6.956   1.731   1.679
 3158TIP3   OH2 9430   7.180   1.739   2.562
 3158TIP3    H1 9431   7.137   1.740   2.649
 3158TIP3    H2 9432   7.113   1.781   2.506
 3159TIP3   OH2 9433   7.226   3.178   2.640
 3159TIP3    H1 9434   7.135   3.148   2.621
 3159TIP3    H2 9435   7.247   3.127   2.719
 3160TIP3   OH2 9436   7.410   3.204   2.192
 3160TIP3    H1 9437   7.355   3.275   2.152
 3160TIP3    H2 9438   7.493   3.221   2.143
 3161TIP3   OH2 9439   7.837   3.429   2.329
 3161TIP3    H1 9440   7.883   3.439   2.415
 3161TIP3    H2 9441   7.887   3.491   2.272
 3162TIP3   OH2 9442   7.982   3.598   2.153
 3162TIP3    H1 9443   8.025   3.593   2.066
 3162TIP3    H2 9444   8.008   3.686   2.183
 3163TIP3   OH2 9445   7.083   3.461   2.214
 3163TIP3    H1 9446   6.992   3.489   2.188
 3163TIP3    H2 9447   7.089   3.505   2.300
 3164TIP3   OH2 9448   7.317   3.436   2.071
 3164TIP3    H1 9449   7.230   3.449   2.116
 3164TIP3    H2 9450   7.297   3.470   1.982
 3165TIP3   OH2 9451   7.714   3.474   1.872
 3165TIP3    H1 9452   7.639   3.486   1.810
 3165TIP3    H2 9453   7.726   3.565   1.906
 3166TIP3   OH2 9454   7.966   3.373   1.853
 3166TIP3    H1 9455   7.874   3.407   1.859
 3166TIP3    H2 9456   8.018   3.450   1.879
 3167TIP3   OH2 9457   6.998   3.257   1.952
 3167TIP3    H1 9458   7.018   3.227   2.043
 3167TIP3    H2 9459   7.069   3.209   1.904
 3168TIP3   OH2 9460   7.189   3.124   1.813
 3168TIP3    H1 9461   7.202   3.042   1.866
 3168TIP3    H2 9462   7.279   3.162   1.811
 3169TIP3   OH2 9463   7.454   3.220   1.819
 3169TIP3    H1 9464   7.481   3.127   1.810
 3169TIP3    H2 9465   7.499   3.243   1.902
 3170TIP3   OH2 9466   7.270   1.595   1.916
 3170TIP3    H1 9467   7.182   1.553   1.922
 3170TIP3    H2 9468   7.325   1.513   1.915
 3171TIP3   OH2 9469   7.065   1.455   1.578
 3171TIP3    H1 9470   7.085   1.508   1.498
 3171TIP3    H2 9471   7.036   1.523   1.641
 3172TIP3   OH2 9472   6.782   3.029   1.346
 3172TIP3    H1 9473   6.696   2.996   1.315
 3172TIP3    H2 9474   6.772   3.123   1.325
 3173TIP3   OH2 9475   7.180   1.608   1.341
 3173TIP3    H1 9476   7.229   1.535   1.301
 3173TIP3    H2 9477   7.252   1.668   1.369
 3174TIP3   OH2 9478   7.542   3.210   0.939
 3174TIP3    H1 9479   7.635   3.220   0.909
 3174TIP3    H2 9480   7.514   3.140   0.876
 3175TIP3   OH2 9481   7.483   1.877   2.803
 3175TIP3    H1 9482   7.439   1.801   2.842
 3175TIP3    H2 9483   7.572   1.872   2.844
 3176TIP3   OH2 9484   7.720   1.863   2.942
 3176TIP3    H1 9485   7.795   1.822   2.897
 3176TIP3    H2 9486   7.706   1.800   3.016
 3177TIP3   OH2 9487   6.855   3.050   0.984
 3177TIP3    H1 9488   6.856   3.071   1.078
 3177TIP3    H2 9489   6.944   3.008   0.971
 3178TIP3   OH2 9490   0.419   3.383   3.178
 3178TIP3    H1 9491   0.388   3.474   3.159
 3178TIP3    H2 9492   0.350   3.332   3.132
 3179TIP3   OH2 9493   0.417   3.386   3.568
 3179TIP3    H1 9494   0.454   3.353   3.652
 3179TIP3    H2 9495   0.382   3.305   3.529
 3180TIP3   OH2 9496  -0.268   3.274   3.943
 3180TIP3    H1 9497  -0.236   3.199   3.994
 3180TIP3    H2 9498  -0.187   3.311   3.905
 3181TIP3   OH2 9499   0.665   3.686   3.244
 3181TIP3    H1 9500   0.652   3.613   3.306
 3181TIP3    H2 9501   0.698   3.757   3.301
 3182TIP3   OH2 9502  -0.301   3.670   3.582
 3182TIP3    H1 9503  -0.318   3.577   3.608
 3182TIP3    H2 9504  -0.221   3.687   3.632
 3183TIP3   OH2 9505  -0.542   3.184   3.581
 3183TIP3    H1 9506  -0.506   3.127   3.651
 3183TIP3    H2 9507  -0.464   3.206   3.531
 3184TIP3   OH2 9508   0.318   4.146   3.263
 3184TIP3    H1 9509   0.357   4.078   3.205
 3184TIP3    H2 9510   0.310   4.098   3.346
 3185TIP3   OH2 9511   0.222   3.606   3.608
 3185TIP3    H1 9512   0.262   3.525   3.573
 3185TIP3    H2 9513   0.303   3.652   3.636
 3186TIP3   OH2 9514   1.233   2.927   3.608
 3186TIP3    H1 9515   1.264   3.010   3.651
 3186TIP3    H2 9516   1.255   2.944   3.515
 3187TIP3   OH2 9517   0.630   3.111   3.638
 3187TIP3    H1 9518   0.673   3.026   3.662
 3187TIP3    H2 9519   0.598   3.091   3.548
 3188TIP3   OH2 9520  -0.027   2.771   3.598
 3188TIP3    H1 9521  -0.051   2.842   3.535
 3188TIP3    H2 9522  -0.070   2.694   3.554
 3189TIP3   OH2 9523   0.666   2.863   3.226
 3189TIP3    H1 9524   0.737   2.846   3.291
 3189TIP3    H2 9525   0.719   2.895   3.151
 3190TIP3   OH2 9526  -0.388   2.978   3.708
 3190TIP3    H1 9527  -0.312   2.956   3.765
 3190TIP3    H2 9528  -0.371   2.919   3.631
 3191TIP3   OH2 9529   0.047   3.167   3.509
 3191TIP3    H1 9530   0.141   3.143   3.524
 3191TIP3    H2 9531   0.010   3.081   3.480
 3192TIP3   OH2 9532   1.309   3.137   3.775
 3192TIP3    H1 9533   1.222   3.180   3.760
 3192TIP3    H2 9534   1.326   3.164   3.867
 3193TIP3   OH2 9535  -0.032   2.749   4.042
 3193TIP3    H1 9536  -0.091   2.788   3.975
 3193TIP3    H2 9537  -0.086   2.763   4.123
 3194TIP3   OH2 9538   0.304   3.601   3.054
 3194TIP3    H1 9539   0.280   3.588   2.961
 3194TIP3    H2 9540   0.261   3.687   3.074
 3195TIP3   OH2 9541   0.073   3.532   3.833
 3195TIP3    H1 9542   0.011   3.595   3.876
 3195TIP3    H2 9543   0.104   3.582   3.755
 3196TIP3   OH2 9544   0.871   2.865   3.403
 3196TIP3    H1 9545   0.860   2.815   3.484
 3196TIP3    H2 9546   0.923   2.942   3.432
 3197TIP3   OH2 9547  -0.156   2.863   3.822
 3197TIP3    H1 9548  -0.094   2.934   3.850
 3197TIP3    H2 9549  -0.107   2.826   3.746
 3198TIP3   OH2 9550  -0.111   3.708   3.955
 3198TIP3    H1 9551  -0.167   3.769   3.904
 3198TIP3    H2 9552  -0.180   3.666   4.010
 3199TIP3   OH2 9553   0.732   3.930   3.409
 3199TIP3    H1 9554   0.642   3.920   3.447
 3199TIP3    H2 9555   0.724   4.015   3.362
 3200TIP3   OH2 9556   1.026   2.827   3.773
 3200TIP3    H1 9557   0.939   2.853   3.739
 3200TIP3    H2 9558   1.087   2.859   3.704
 3201TIP3   OH2 9559   0.318   2.465   3.755
 3201TIP3    H1 9560   0.303   2.370   3.775
 3201TIP3    H2 9561   0.241   2.505   3.802
 3202TIP3   OH2 9562   0.430   3.973   3.079
 3202TIP3    H1 9563   0.479   3.889   3.061
 3202TIP3    H2 9564   0.494   4.036   3.041
 3203TIP3   OH2 9565   0.574   3.758   2.993
 3203TIP3    H1 9566   0.554   3.676   2.946
 3203TIP3    H2 9567   0.612   3.723   3.077
 3204TIP3   OH2 9568   0.953   3.838   3.753
 3204TIP3    H1 9569   0.946   3.760   3.693
 3204TIP3    H2 9570   0.943   3.912   3.690
 3205TIP3   OH2 9571   0.260   3.230   3.001
 3205TIP3    H1 9572   0.175   3.205   2.960
 3205TIP3    H2 9573   0.319   3.222   2.923
 3206TIP3   OH2 9574   1.153   3.478   3.599
 3206TIP3    H1 9575   1.070   3.529   3.604
 3206TIP3    H2 9576   1.183   3.502   3.509
 3207TIP3   OH2 9577   0.608   3.331   2.986
 3207TIP3    H1 9578   0.551   3.347   3.064
 3207TIP3    H2 9579   0.690   3.297   3.028
 3208TIP3   OH2 9580   0.835   3.350   3.899
 3208TIP3    H1 9581   0.836   3.429   3.956
 3208TIP3    H2 9582   0.749   3.359   3.855
 3209TIP3   OH2 9583  -0.165   3.286   3.395
 3209TIP3    H1 9584  -0.211   3.201   3.385
 3209TIP3    H2 9585  -0.082   3.255   3.437
 3210TIP3   OH2 9586  -0.017   3.743   3.541
 3210TIP3    H1 9587  -0.058   3.693   3.470
 3210TIP3    H2 9588   0.067   3.696   3.555
 3211TIP3   OH2 9589  -0.008   3.276   3.765
 3211TIP3    H1 9590   0.008   3.257   3.671
 3211TIP3    H2 9591   0.012   3.372   3.772
 3212TIP3   OH2 9592   0.492   3.920   3.534
 3212TIP3    H1 9593   0.478   4.004   3.581
 3212TIP3    H2 9594   0.472   3.853   3.601
 3213TIP3   OH2 9595   0.100   3.858   4.073
 3213TIP3    H1 9596   0.037   3.910   4.126
 3213TIP3    H2 9597   0.040   3.790   4.038
 3214TIP3   OH2 9598   0.455   3.181   2.815
 3214TIP3    H1 9599   0.515   3.246   2.856
 3214TIP3    H2 9600   0.471   3.197   2.719
 3215TIP3   OH2 9601  -0.137   3.403   4.188
 3215TIP3    H1 9602  -0.146   3.483   4.245
 3215TIP3    H2 9603  -0.217   3.410   4.134
 3216TIP3   OH2 9604   0.182   3.853   3.084
 3216TIP3    H1 9605   0.265   3.902   3.092
 3216TIP3    H2 9606   0.124   3.915   3.037
 3217TIP3   OH2 9607  -0.118   4.012   4.165
 3217TIP3    H1 9608  -0.140   4.019   4.070
 3217TIP3    H2 9609  -0.197   3.966   4.200
 3218TIP3   OH2 9610   0.954   2.411   2.859
 3218TIP3    H1 9611   0.871   2.432   2.907
 3218TIP3    H2 9612   0.969   2.495   2.810
 3219TIP3   OH2 9613   0.758   3.781   2.406
 3219TIP3    H1 9614   0.764   3.878   2.391
 3219TIP3    H2 9615   0.849   3.753   2.385
 3220TIP3   OH2 9616   1.195   4.185   3.798
 3220TIP3    H1 9617   1.198   4.089   3.819
 3220TIP3    H2 9618   1.114   4.210   3.848
 3221TIP3   OH2 9619   0.303   3.967   3.932
 3221TIP3    H1 9620   0.297   4.060   3.960
 3221TIP3    H2 9621   0.228   3.929   3.983
 3222TIP3   OH2 9622   0.067   4.096   2.888
 3222TIP3    H1 9623   0.021   4.083   2.803
 3222TIP3    H2 9624   0.037   4.184   2.915
 3223TIP3   OH2 9625   0.267   4.002   2.523
 3223TIP3    H1 9626   0.326   3.931   2.488
 3223TIP3    H2 9627   0.301   4.012   2.614
 3224TIP3   OH2 9628   0.317   4.048   2.793
 3224TIP3    H1 9629   0.228   4.059   2.834
 3224TIP3    H2 9630   0.366   4.009   2.867
 3225TIP3   OH2 9631   1.087   3.312   4.075
 3225TIP3    H1 9632   1.003   3.319   4.028
 3225TIP3    H2 9633   1.106   3.217   4.068
 3226TIP3   OH2 9634   0.083   2.545   3.886
 3226TIP3    H1 9635  -0.004   2.511   3.855
 3226TIP3    H2 9636   0.053   2.623   3.937
 3227TIP3   OH2 9637   0.619   2.661   4.079
 3227TIP3    H1 9638   0.689   2.632   4.141
 3227TIP3    H2 9639   0.536   2.640   4.128
 3228TIP3   OH2 9640   0.851   3.087   3.996
 3228TIP3    H1 9641   0.802   3.085   4.082
 3228TIP3    H2 9642   0.831   3.176   3.962
 3229TIP3   OH2 9643   0.517   3.225   2.557
 3229TIP3    H1 9644   0.477   3.202   2.471
 3229TIP3    H2 9645   0.603   3.259   2.528
 3230TIP3   OH2 9646   0.238   2.639   2.866
 3230TIP3    H1 9647   0.203   2.610   2.953
 3230TIP3    H2 9648   0.194   2.577   2.806
 3231TIP3   OH2 9649   0.018   3.055   3.912
 3231TIP3    H1 9650  -0.034   3.078   3.992
 3231TIP3    H2 9651   0.008   3.137   3.858
 3232TIP3   OH2 9652  -0.116   2.961   3.418
 3232TIP3    H1 9653  -0.205   2.920   3.433
 3232TIP3    H2 9654  -0.093   2.918   3.332
 3233TIP3   OH2 9655   0.389   3.037   3.149
 3233TIP3    H1 9656   0.341   3.107   3.100
 3233TIP3    H2 9657   0.443   2.998   3.077
 3234TIP3   OH2 9658   0.565   3.312   4.229
 3234TIP3    H1 9659   0.544   3.239   4.291
 3234TIP3    H2 9660   0.658   3.328   4.254
 3235TIP3   OH2 9661   0.544   3.061   3.380
 3235TIP3    H1 9662   0.481   3.084   3.309
 3235TIP3    H2 9663   0.582   2.981   3.339
 3236TIP3   OH2 9664  -0.157   3.083   4.123
 3236TIP3    H1 9665  -0.126   3.146   4.189
 3236TIP3    H2 9666  -0.165   3.000   4.174
 3237TIP3   OH2 9667  -0.538   2.667   3.670
 3237TIP3    H1 9668  -0.471   2.658   3.740
 3237TIP3    H2 9669  -0.552   2.576   3.642
 3238TIP3   OH2 9670   0.551   3.307   3.805
 3238TIP3    H1 9671   0.587   3.236   3.746
 3238TIP3    H2 9672   0.525   3.252   3.882
 3239TIP3   OH2 9673   0.234   2.780   3.480
 3239TIP3    H1 9674   0.152   2.769   3.533
 3239TIP3    H2 9675   0.303   2.759   3.545
 3240TIP3   OH2 9676  -0.340   2.815   3.483
 3240TIP3    H1 9677  -0.433   2.787   3.474
 3240TIP3    H2 9678  -0.294   2.730   3.468
 3241TIP3   OH2 9679  -0.061   2.844   3.185
 3241TIP3    H1 9680   0.033   2.839   3.158
 3241TIP3    H2 9681  -0.108   2.855   3.099
 3242TIP3   OH2 9682   0.716   2.849   3.683
 3242TIP3    H1 9683   0.683   2.860   3.774
 3242TIP3    H2 9684   0.652   2.786   3.647
 3243TIP3   OH2 9685  -0.211   2.858   2.965
 3243TIP3    H1 9686  -0.301   2.822   2.952
 3243TIP3    H2 9687  -0.194   2.907   2.884
 3244TIP3   OH2 9688   0.889   4.538   3.900
 3244TIP3    H1 9689   0.889   4.561   3.806
 3244TIP3    H2 9690   0.972   4.581   3.931
 3245TIP3   OH2 9691  -0.165   3.632   4.348
 3245TIP3    H1 9692  -0.089   3.665   4.400
 3245TIP3    H2 9693  -0.236   3.688   4.384
 3246TIP3   OH2 9694   0.307   3.103   3.578
 3246TIP3    H1 9695   0.375   3.057   3.526
 3246TIP3    H2 9696   0.309   3.054   3.662
 3247TIP3   OH2 9697  -0.174   2.589   3.450
 3247TIP3    H1 9698  -0.196   2.505   3.494
 3247TIP3    H2 9699  -0.147   2.559   3.361
 3248TIP3   OH2 9700   0.285   3.001   3.856
 3248TIP3    H1 9701   0.195   3.029   3.879
 3248TIP3    H2 9702   0.342   3.056   3.914
 3249TIP3   OH2 9703   0.918   3.623   3.586
 3249TIP3    H1 9704   0.944   3.672   3.505
 3249TIP3    H2 9705   0.836   3.578   3.558
 3250TIP3   OH2 9706   0.493   2.708   2.820
 3250TIP3    H1 9707   0.397   2.692   2.834
 3250TIP3    H2 9708   0.504   2.800   2.851
 3251TIP3   OH2 9709   0.419   3.731   4.065
 3251TIP3    H1 9710   0.386   3.645   4.032
 3251TIP3    H2 9711   0.380   3.791   3.999
 3252TIP3   OH2 9712   0.547   2.952   2.936
 3252TIP3    H1 9713   0.643   2.962   2.943
 3252TIP3    H2 9714   0.520   3.031   2.883
 3253TIP3   OH2 9715  -0.259   3.408   3.646
 3253TIP3    H1 9716  -0.238   3.350   3.572
 3253TIP3    H2 9717  -0.306   3.353   3.709
 3254TIP3   OH2 9718   0.174   3.538   2.780
 3254TIP3    H1 9719   0.119   3.620   2.788
 3254TIP3    H2 9720   0.119   3.471   2.824
 3255TIP3   OH2 9721   0.332   3.451   4.271
 3255TIP3    H1 9722   0.264   3.401   4.224
 3255TIP3    H2 9723   0.413   3.402   4.243
 3256TIP3   OH2 9724   0.576   3.963   3.866
 3256TIP3    H1 9725   0.478   3.966   3.874
 3256TIP3    H2 9726   0.604   4.023   3.937
 3257TIP3   OH2 9727   0.989   3.036   2.762
 3257TIP3    H1 9728   0.925   2.994   2.700
 3257TIP3    H2 9729   0.987   3.126   2.721
 3258TIP3   OH2 9730   1.206   3.895   3.841
 3258TIP3    H1 9731   1.109   3.889   3.835
 3258TIP3    H2 9732   1.231   3.865   3.751
 3259TIP3   OH2 9733   0.698   3.854   2.674
 3259TIP3    H1 9734   0.663   3.785   2.732
 3259TIP3    H2 9735   0.706   3.808   2.589
 3260TIP3   OH2 9736   0.682   3.486   3.504
 3260TIP3    H1 9737   0.590   3.455   3.516
 3260TIP3    H2 9738   0.721   3.406   3.461
 3261TIP3   OH2 9739  -0.178   3.704   3.248
 3261TIP3    H1 9740  -0.186   3.790   3.201
 3261TIP3    H2 9741  -0.257   3.705   3.304
 3262TIP3   OH2 9742   7.533   1.409   1.345
 3262TIP3    H1 9743   7.602   1.471   1.374
 3262TIP3    H2 9744   7.462   1.427   1.407
 3263TIP3   OH2 9745  -0.095   3.444   3.177
 3263TIP3    H1 9746  -0.100   3.542   3.187
 3263TIP3    H2 9747  -0.107   3.416   3.270
 3264TIP3   OH2 9748   0.091   4.060   3.727
 3264TIP3    H1 9749   0.133   4.130   3.674
 3264TIP3    H2 9750   0.168   4.020   3.770
 3265TIP3   OH2 9751  -0.267   3.954   3.117
 3265TIP3    H1 9752  -0.349   3.979   3.161
 3265TIP3    H2 9753  -0.222   4.041   3.114
 3266TIP3   OH2 9754   0.478   3.686   3.704
 3266TIP3    H1 9755   0.524   3.680   3.789
 3266TIP3    H2 9756   0.537   3.635   3.647
 3267TIP3   OH2 9757   0.451   3.588   2.573
 3267TIP3    H1 9758   0.504   3.562   2.651
 3267TIP3    H2 9759   0.364   3.554   2.599
 3268TIP3   OH2 9760   0.713   4.224   3.740
 3268TIP3    H1 9761   0.631   4.173   3.722
 3268TIP3    H2 9762   0.708   4.290   3.667
 3269TIP3   OH2 9763   0.788   4.057   2.391
 3269TIP3    H1 9764   0.824   4.133   2.342
 3269TIP3    H2 9765   0.707   4.099   2.427
 3270TIP3   OH2 9766  -0.185   2.826   4.266
 3270TIP3    H1 9767  -0.276   2.828   4.298
 3270TIP3    H2 9768  -0.145   2.766   4.331
 3271TIP3   OH2 9769   0.611   3.526   2.791
 3271TIP3    H1 9770   0.600   3.458   2.861
 3271TIP3    H2 9771   0.708   3.517   2.776
 3272TIP3   OH2 9772  -0.185   3.564   2.576
 3272TIP3    H1 9773  -0.176   3.470   2.548
 3272TIP3    H2 9774  -0.202   3.551   2.672
 3273TIP3   OH2 9775  -0.223   3.575   2.854
 3273TIP3    H1 9776  -0.161   3.570   2.927
 3273TIP3    H2 9777  -0.232   3.672   2.845
 3274TIP3   OH2 9778  -0.475   3.253   3.054
 3274TIP3    H1 9779  -0.520   3.298   3.125
 3274TIP3    H2 9780  -0.473   3.322   2.985
 3275TIP3   OH2 9781   0.641   2.900   3.943
 3275TIP3    H1 9782   0.724   2.937   3.977
 3275TIP3    H2 9783   0.631   2.818   3.997
 3276TIP3   OH2 9784   0.524   2.647   3.107
 3276TIP3    H1 9785   0.509   2.668   3.014
 3276TIP3    H2 9786   0.563   2.730   3.142
 3277TIP3   OH2 9787   0.024   3.764   2.795
 3277TIP3    H1 9788  -0.063   3.792   2.829
 3277TIP3    H2 9789   0.041   3.837   2.734
 3278TIP3   OH2 9790   0.217   2.828   3.209
 3278TIP3    H1 9791   0.278   2.902   3.191
 3278TIP3    H2 9792   0.221   2.822   3.307
 3279TIP3   OH2 9793   0.482   3.145   4.012
 3279TIP3    H1 9794   0.508   3.193   4.093
 3279TIP3    H2 9795   0.534   3.063   4.018
 3280TIP3   OH2 9796   0.358   2.551   3.310
 3280TIP3    H1 9797   0.355   2.631   3.365
 3280TIP3    H2 9798   0.417   2.583   3.237
 3281TIP3   OH2 9799  -0.233   3.843   2.861
 3281TIP3    H1 9800  -0.261   3.912   2.797
 3281TIP3    H2 9801  -0.251   3.888   2.946
 3282TIP3   OH2 9802  -0.121   2.555   3.160
 3282TIP3    H1 9803  -0.132   2.648   3.136
 3282TIP3    H2 9804  -0.030   2.539   3.128
 3283TIP3   OH2 9805   1.119   3.047   3.993
 3283TIP3    H1 9806   1.021   3.045   4.002
 3283TIP3    H2 9807   1.130   2.995   3.913
 3284TIP3   OH2 9808   0.771   3.243   3.384
 3284TIP3    H1 9809   0.696   3.182   3.393
 3284TIP3    H2 9810   0.843   3.195   3.431
 3285TIP3   OH2 9811  -0.508   3.477   2.892
 3285TIP3    H1 9812  -0.445   3.546   2.869
 3285TIP3    H2 9813  -0.487   3.415   2.819
 3286TIP3   OH2 9814   0.741   4.200   3.331
 3286TIP3    H1 9815   0.698   4.248   3.256
 3286TIP3    H2 9816   0.835   4.219   3.310
 3287TIP3   OH2 9817  -0.180   2.459   3.853
 3287TIP3    H1 9818  -0.213   2.419   3.770
 3287TIP3    H2 9819  -0.188   2.383   3.915
 3288TIP3   OH2 9820  -0.026   4.200   4.356
 3288TIP3    H1 9821   0.068   4.198   4.373
 3288TIP3    H2 9822  -0.039   4.129   4.291
 3289TIP3   OH2 9823  -0.023   3.762   2.481
 3289TIP3    H1 9824  -0.081   3.692   2.519
 3289TIP3    H2 9825   0.052   3.709   2.451
 3290TIP3   OH2 9826   0.654   4.073   4.127
 3290TIP3    H1 9827   0.732   4.020   4.146
 3290TIP3    H2 9828   0.696   4.161   4.133
 3291TIP3   OH2 9829   0.412   3.803   2.399
 3291TIP3    H1 9830   0.450   3.735   2.458
 3291TIP3    H2 9831   0.469   3.797   2.319
 3292TIP3   OH2 9832  -0.382   3.301   2.722
 3292TIP3    H1 9833  -0.346   3.222   2.764
 3292TIP3    H2 9834  -0.320   3.312   2.648
 3293TIP3   OH2 9835   0.139   3.484   2.511
 3293TIP3    H1 9836   0.141   3.497   2.608
 3293TIP3    H2 9837   0.140   3.386   2.506
 3294TIP3   OH2 9838   0.735   3.739   3.893
 3294TIP3    H1 9839   0.819   3.765   3.850
 3294TIP3    H2 9840   0.682   3.819   3.874
 3295TIP3   OH2 9841  -0.241   3.332   4.512
 3295TIP3    H1 9842  -0.166   3.310   4.457
 3295TIP3    H2 9843  -0.201   3.389   4.581
 3296TIP3   OH2 9844   0.097   3.255   4.155
 3296TIP3    H1 9845   0.019   3.314   4.160
 3296TIP3    H2 9846   0.149   3.296   4.083
 3297TIP3   OH2 9847   0.749   3.311   2.433
 3297TIP3    H1 9848   0.731   3.264   2.349
 3297TIP3    H2 9849   0.712   3.400   2.409
 3298TIP3   OH2 9850   0.219   3.042   4.282
 3298TIP3    H1 9851   0.222   2.963   4.225
 3298TIP3    H2 9852   0.176   3.108   4.223
 3299TIP3   OH2 9853   0.225   2.831   4.090
 3299TIP3    H1 9854   0.253   2.865   4.004
 3299TIP3    H2 9855   0.132   2.805   4.072
 3300TIP3   OH2 9856   0.257   3.383   3.972
 3300TIP3    H1 9857   0.325   3.355   3.911
 3300TIP3    H2 9858   0.193   3.431   3.914
 3301TIP3   OH2 9859   0.825   3.328   4.340
 3301TIP3    H1 9860   0.874   3.247   4.358
 3301TIP3    H2 9861   0.895   3.388   4.310
 3302TIP3   OH2 9862   0.876   3.577   4.065
 3302TIP3    H1 9863   0.819   3.636   4.012
 3302TIP3    H2 9864   0.965   3.599   4.030
 3303TIP3   OH2 9865   0.094   3.146   4.515
 3303TIP3    H1 9866   0.029   3.075   4.528
 3303TIP3    H2 9867   0.131   3.124   4.428
 3304TIP3   OH2 9868   0.356   2.590   4.158
 3304TIP3    H1 9869   0.305   2.670   4.136
 3304TIP3    H2 9870   0.288   2.520   4.147
 3305TIP3   OH2 9871   0.481   3.095   4.372
 3305TIP3    H1 9872   0.473   3.078   4.468
 3305TIP3    H2 9873   0.391   3.069   4.343
 3306TIP3   OH2 9874   0.720   3.045   4.227
 3306TIP3    H1 9875   0.647   3.045   4.292
 3306TIP3    H2 9876   0.796   3.015   4.282
 3307TIP3   OH2 9877   0.945   2.984   4.376
 3307TIP3    H1 9878   0.961   2.889   4.392
 3307TIP3    H2 9879   0.944   3.021   4.466
 3308TIP3   OH2 9880  -0.071   2.929   4.574
 3308TIP3    H1 9881  -0.067   2.838   4.539
 3308TIP3    H2 9882  -0.023   2.916   4.659
 3309TIP3   OH2 9883   0.449   2.599   4.416
 3309TIP3    H1 9884   0.516   2.528   4.411
 3309TIP3    H2 9885   0.410   2.594   4.327
 3310TIP3   OH2 9886   0.517   2.814   4.574
 3310TIP3    H1 9887   0.496   2.742   4.510
 3310TIP3    H2 9888   0.438   2.871   4.567
 3311TIP3   OH2 9889  -0.260   4.034   2.670
 3311TIP3    H1 9890  -0.165   4.036   2.648
 3311TIP3    H2 9891  -0.295   4.091   2.599
 3312TIP3   OH2 9892   0.996   4.289   3.293
 3312TIP3    H1 9893   1.024   4.318   3.381
 3312TIP3    H2 9894   1.062   4.329   3.235
 3313TIP3   OH2 9895   1.025   4.307   3.575
 3313TIP3    H1 9896   0.981   4.220   3.569
 3313TIP3    H2 9897   1.098   4.283   3.634
 3314TIP3   OH2 9898   1.057   3.991   4.134
 3314TIP3    H1 9899   1.014   3.985   4.221
 3314TIP3    H2 9900   1.114   4.069   4.147
 3315TIP3   OH2 9901   0.890   3.501   2.767
 3315TIP3    H1 9902   0.961   3.560   2.739
 3315TIP3    H2 9903   0.930   3.458   2.846
 3316TIP3   OH2 9904   1.014   3.366   2.971
 3316TIP3    H1 9905   0.948   3.322   3.028
 3316TIP3    H2 9906   1.079   3.400   3.036
 3317TIP3   OH2 9907   1.069   3.758   3.398
 3317TIP3    H1 9908   1.124   3.690   3.355
 3317TIP3    H2 9909   1.066   3.828   3.330
 3318TIP3   OH2 9910   0.899   4.060   3.592
 3318TIP3    H1 9911   0.825   4.096   3.644
 3318TIP3    H2 9912   0.852   4.013   3.520
 3319TIP3   OH2 9913   0.949   3.274   2.617
 3319TIP3    H1 9914   0.879   3.272   2.548
 3319TIP3    H2 9915   0.917   3.350   2.670
 3320TIP3   OH2 9916   0.819   2.946   2.571
 3320TIP3    H1 9917   0.782   2.977   2.487
 3320TIP3    H2 9918   0.802   2.850   2.562
 3321TIP3   OH2 9919   0.829   3.222   3.115
 3321TIP3    H1 9920   0.835   3.126   3.102
 3321TIP3    H2 9921   0.815   3.230   3.211
 3322TIP3   OH2 9922   1.119   3.649   3.962
 3322TIP3    H1 9923   1.190   3.580   3.959
 3322TIP3    H2 9924   1.156   3.719   3.906
 3323TIP3   OH2 9925   1.300   3.448   3.977
 3323TIP3    H1 9926   1.227   3.399   4.020
 3323TIP3    H2 9927   1.375   3.387   3.995
 3324TIP3   OH2 9928   0.777   2.679   2.543
 3324TIP3    H1 9929   0.835   2.644   2.613
 3324TIP3    H2 9930   0.692   2.631   2.558
 3325TIP3   OH2 9931   0.830   2.942   3.008
 3325TIP3    H1 9932   0.868   2.852   3.023
 3325TIP3    H2 9933   0.886   2.970   2.933
 3326TIP3   OH2 9934   0.983   3.111   3.503
 3326TIP3    H1 9935   1.069   3.134   3.462
 3326TIP3    H2 9936   1.000   3.146   3.593
 3327TIP3   OH2 9937   1.057   3.255   3.733
 3327TIP3    H1 9938   0.981   3.288   3.784
 3327TIP3    H2 9939   1.091   3.337   3.690
 3328TIP3   OH2 9940  -0.343   2.996   4.483
 3328TIP3    H1 9941  -0.251   2.978   4.512
 3328TIP3    H2 9942  -0.392   2.945   4.550
 3329TIP3   OH2 9943   1.504   2.847   4.289
 3329TIP3    H1 9944   1.567   2.783   4.249
 3329TIP3    H2 9945   1.477   2.900   4.211
 3330TIP3   OH2 9946   0.933   2.690   3.046
 3330TIP3    H1 9947   0.981   2.672   3.130
 3330TIP3    H2 9948   0.872   2.614   3.043
 3331TIP3   OH2 9949  -0.353   2.670   3.873
 3331TIP3    H1 9950  -0.291   2.593   3.876
 3331TIP3    H2 9951  -0.289   2.742   3.856
 3332TIP3   OH2 9952   1.377   2.985   4.092
 3332TIP3    H1 9953   1.293   3.028   4.118
 3332TIP3    H2 9954   1.342   2.913   4.037
 3333TIP3   OH2 9955   1.016   2.621   2.690
 3333TIP3    H1 9956   1.051   2.554   2.628
 3333TIP3    H2 9957   1.078   2.695   2.677
 3334TIP3   OH2 9958   0.582   4.153   2.948
 3334TIP3    H1 9959   0.631   4.143   2.864
 3334TIP3    H2 9960   0.633   4.222   2.993
 3335TIP3   OH2 9961  -0.359   2.545   4.267
 3335TIP3    H1 9962  -0.414   2.524   4.343
 3335TIP3    H2 9963  -0.424   2.582   4.206
 3336TIP3   OH2 9964  -0.141   4.030   3.880
 3336TIP3    H1 9965  -0.162   4.105   3.822
 3336TIP3    H2 9966  -0.052   4.010   3.847
 3337TIP3   OH2 9967   0.302   4.228   4.014
 3337TIP3    H1 9968   0.338   4.229   4.105
 3337TIP3    H2 9969   0.364   4.286   3.967
 3338TIP3   OH2 9970   0.482   4.387   3.880
 3338TIP3    H1 9971   0.553   4.345   3.829
 3338TIP3    H2 9972   0.534   4.446   3.940
 3339TIP3   OH2 9973   1.276   2.746   3.975
 3339TIP3    H1 9974   1.186   2.733   3.942
 3339TIP3    H2 9975   1.312   2.655   3.967
 3340TIP3   OH2 9976  -0.228   4.256   3.733
 3340TIP3    H1 9977  -0.252   4.344   3.764
 3340TIP3    H2 9978  -0.284   4.247   3.655
 3341TIP3   OH2 9979   0.199   4.254   3.562
 3341TIP3    H1 9980   0.146   4.272   3.483
 3341TIP3    H2 9981   0.210   4.343   3.600
 3342TIP3   OH2 9982   0.466   4.190   3.613
 3342TIP3    H1 9983   0.372   4.210   3.594
 3342TIP3    H2 9984   0.511   4.261   3.565
 3343TIP3   OH2 9985   0.671   4.384   3.524
 3343TIP3    H1 9986   0.656   4.468   3.476
 3343TIP3    H2 9987   0.698   4.324   3.451
 3344TIP3   OH2 9988  -0.355   3.918   3.492
 3344TIP3    H1 9989  -0.349   3.829   3.533
 3344TIP3    H2 9990  -0.263   3.948   3.498
 3345TIP3   OH2 9991  -0.080   4.014   3.509
 3345TIP3    H1 9992  -0.055   3.920   3.494
 3345TIP3    H2 9993  -0.033   4.028   3.593
 3346TIP3   OH2 9994   0.476   2.662   3.594
 3346TIP3    H1 9995   0.436   2.590   3.647
 3346TIP3    H2 9996   0.551   2.617   3.551
 3347TIP3   OH2 9997   1.001   2.548   3.500
 3347TIP3    H1 9998   1.036   2.597   3.423
 3347TIP3    H2 9999   0.905   2.562   3.491
 3348TIP3   OH210000   1.098   2.643   3.263
 3348TIP3    H110001   1.173   2.592   3.225
 3348TIP3    H210002   1.131   2.735   3.248
 3349TIP3   OH210003  -0.287   2.364   3.602
 3349TIP3    H110004  -0.364   2.308   3.619
 3349TIP3    H210005  -0.218   2.293   3.598
 3350TIP3   OH210006   0.174   2.414   3.489
 3350TIP3    H110007   0.233   2.459   3.427
 3350TIP3    H210008   0.209   2.441   3.575
 3351TIP3   OH210009   0.717   2.552   3.474
 3351TIP3    H110010   0.719   2.510   3.388
 3351TIP3    H210011   0.706   2.474   3.534
 3352TIP3   OH210012   0.751   2.476   3.040
 3352TIP3    H110013   0.663   2.517   3.051
 3352TIP3    H210014   0.737   2.391   3.086
 3353TIP3   OH210015   0.153   2.577   3.121
 3353TIP3    H110016   0.206   2.529   3.187
 3353TIP3    H210017   0.174   2.669   3.147
 3354TIP3   OH210018   0.009   3.997   2.621
 3354TIP3    H110019   0.097   4.021   2.584
 3354TIP3    H210020  -0.014   3.924   2.560
 3355TIP3   OH210021   0.727   4.122   2.715
 3355TIP3    H110022   0.721   4.024   2.705
 3355TIP3    H210023   0.679   4.151   2.635
 3356TIP3   OH210024  -0.063   2.660   4.501
 3356TIP3    H110025  -0.098   2.584   4.552
 3356TIP3    H210026   0.031   2.657   4.531
 3357TIP3   OH210027   0.188   2.652   4.622
 3357TIP3    H110028   0.273   2.626   4.582
 3357TIP3    H210029   0.175   2.581   4.688
 3358TIP3   OH210030   1.014   2.714   4.407
 3358TIP3    H110031   1.031   2.683   4.499
 3358TIP3    H210032   1.104   2.709   4.368
 3359TIP3   OH210033   0.947   4.268   3.895
 3359TIP3    H110034   0.868   4.239   3.844
 3359TIP3    H210035   0.928   4.363   3.905
 3360TIP3   OH210036   2.217   3.642   2.664
 3360TIP3    H110037   2.186   3.731   2.641
 3360TIP3    H210038   2.144   3.588   2.628
 3361TIP3   OH210039   2.220   3.635   3.050
 3361TIP3    H110040   2.239   3.591   3.133
 3361TIP3    H210041   2.177   3.562   3.001
 3362TIP3   OH210042   1.513   3.529   3.412
 3362TIP3    H110043   1.540   3.458   3.474
 3362TIP3    H210044   1.590   3.588   3.418
 3363TIP3   OH210045   2.463   3.946   2.729
 3363TIP3    H110046   2.444   3.876   2.793
 3363TIP3    H210047   2.494   4.018   2.786
 3364TIP3   OH210048   1.486   3.944   3.133
 3364TIP3    H110049   1.479   3.846   3.134
 3364TIP3    H210050   1.583   3.954   3.136
 3365TIP3   OH210051   1.194   3.145   2.918
 3365TIP3    H110052   1.143   3.226   2.935
 3365TIP3    H210053   1.125   3.090   2.877
 3366TIP3   OH210054   1.251   3.432   3.100
 3366TIP3    H110055   1.300   3.353   3.134
 3366TIP3    H210056   1.308   3.459   3.027
 3367TIP3   OH210057   2.111   4.400   2.745
 3367TIP3    H110058   2.157   4.327   2.698
 3367TIP3    H210059   2.103   4.364   2.834
 3368TIP3   OH210060   2.012   3.867   3.094
 3368TIP3    H110061   2.051   3.789   3.050
 3368TIP3    H210062   2.096   3.912   3.120
 3369TIP3   OH210063   3.023   3.187   3.091
 3369TIP3    H110064   3.065   3.263   3.135
 3369TIP3    H210065   3.060   3.194   3.001
 3370TIP3   OH210066   2.429   3.373   3.130
 3370TIP3    H110067   2.469   3.287   3.151
 3370TIP3    H210068   2.396   3.355   3.039
 3371TIP3   OH210069   1.770   3.025   3.090
 3371TIP3    H110070   1.747   3.097   3.028
 3371TIP3    H210071   1.719   2.951   3.050
 3372TIP3   OH210072   2.460   3.117   2.711
 3372TIP3    H110073   2.530   3.101   2.778
 3372TIP3    H210074   2.515   3.150   2.637
 3373TIP3   OH210075   1.400   3.225   3.199
 3373TIP3    H110076   1.482   3.206   3.248
 3373TIP3    H210077   1.413   3.169   3.120
 3374TIP3   OH210078   1.839   3.423   2.994
 3374TIP3    H110079   1.933   3.398   3.008
 3374TIP3    H210080   1.800   3.339   2.962
 3375TIP3   OH210081   3.120   3.388   3.261
 3375TIP3    H110082   3.055   3.458   3.247
 3375TIP3    H210083   3.130   3.391   3.357
 3376TIP3   OH210084   1.763   3.007   3.527
 3376TIP3    H110085   1.701   3.044   3.461
 3376TIP3    H210086   1.711   3.021   3.609
 3377TIP3   OH210087   2.119   3.868   2.525
 3377TIP3    H110088   2.068   3.839   2.447
 3377TIP3    H210089   2.064   3.944   2.555
 3378TIP3   OH210090   1.869   3.785   3.319
 3378TIP3    H110091   1.807   3.851   3.358
 3378TIP3    H210092   1.909   3.836   3.245
 3379TIP3   OH210093   2.665   3.119   2.885
 3379TIP3    H110094   2.662   3.067   2.966
 3379TIP3    H210095   2.721   3.195   2.912
 3380TIP3   OH210096   1.634   3.123   3.310
 3380TIP3    H110097   1.697   3.194   3.336
 3380TIP3    H210098   1.685   3.083   3.236
 3381TIP3   OH210099   1.697   3.979   3.418
 3381TIP3    H110100   1.671   4.068   3.386
 3381TIP3    H210101   1.619   3.960   3.475
 3382TIP3   OH210102   1.098   3.674   2.648
 3382TIP3    H110103   1.034   3.705   2.582
 3382TIP3    H210104   1.125   3.758   2.691
 3383TIP3   OH210105   2.528   4.184   2.892
 3383TIP3    H110106   2.439   4.176   2.933
 3383TIP3    H210107   2.521   4.272   2.849
 3384TIP3   OH210108   2.816   3.091   3.259
 3384TIP3    H110109   2.728   3.105   3.220
 3384TIP3    H210110   2.877   3.119   3.189
 3385TIP3   OH210111   2.112   2.723   3.241
 3385TIP3    H110112   2.101   2.629   3.264
 3385TIP3    H210113   2.036   2.762   3.290
 3386TIP3   OH210114   2.232   4.224   2.565
 3386TIP3    H110115   2.285   4.143   2.548
 3386TIP3    H210116   2.294   4.291   2.528
 3387TIP3   OH210117   2.375   4.001   2.476
 3387TIP3    H110118   2.300   3.938   2.472
 3387TIP3    H210119   2.416   3.976   2.561
 3388TIP3   OH210120   2.750   4.094   3.241
 3388TIP3    H110121   2.743   4.018   3.179
 3388TIP3    H210122   2.736   4.170   3.182
 3389TIP3   OH210123   2.049   3.494   2.499
 3389TIP3    H110124   1.967   3.540   2.476
 3389TIP3    H210125   2.091   3.482   2.412
 3390TIP3   OH210126   2.007   3.273   2.212
 3390TIP3    H110127   2.074   3.328   2.255
 3390TIP3    H210128   2.063   3.210   2.163
 3391TIP3   OH210129   2.961   3.731   3.088
 3391TIP3    H110130   2.872   3.769   3.097
 3391TIP3    H210131   2.981   3.751   2.995
 3392TIP3   OH210132   2.396   3.575   2.467
 3392TIP3    H110133   2.343   3.596   2.548
 3392TIP3    H210134   2.481   3.546   2.508
 3393TIP3   OH210135   1.628   3.568   2.885
 3393TIP3    H110136   1.586   3.509   2.820
 3393TIP3    H210137   1.704   3.514   2.916
 3394TIP3   OH210138   1.761   3.986   3.031
 3394TIP3    H110139   1.738   3.941   2.949
 3394TIP3    H210140   1.850   3.949   3.051
 3395TIP3   OH210141   1.767   3.539   3.241
 3395TIP3    H110142   1.797   3.515   3.151
 3395TIP3    H210143   1.807   3.626   3.257
 3396TIP3   OH210144   2.290   4.178   3.017
 3396TIP3    H110145   2.276   4.260   3.068
 3396TIP3    H210146   2.270   4.108   3.082
 3397TIP3   OH210147   1.902   4.097   3.563
 3397TIP3    H110148   1.843   4.157   3.612
 3397TIP3    H210149   1.837   4.044   3.514
 3398TIP3   OH210150   2.233   3.432   2.295
 3398TIP3    H110151   2.293   3.491   2.344
 3398TIP3    H210152   2.260   3.452   2.202
 3399TIP3   OH210153   1.657   3.655   3.664
 3399TIP3    H110154   1.663   3.741   3.711
 3399TIP3    H210155   1.564   3.632   3.684
 3400TIP3   OH210156   1.979   4.109   2.563
 3400TIP3    H110157   2.063   4.156   2.579
 3400TIP3    H210158   1.920   4.180   2.536
 3401TIP3   OH210159   1.695   4.261   3.654
 3401TIP3    H110160   1.656   4.264   3.564
 3401TIP3    H210161   1.616   4.241   3.710
 3402TIP3   OH210162   2.753   2.670   2.346
 3402TIP3    H110163   2.670   2.692   2.393
 3402TIP3    H210164   2.766   2.750   2.292
 3403TIP3   OH210165   1.493   3.406   2.696
 3403TIP3    H110166   1.423   3.447   2.640
 3403TIP3    H210167   1.456   3.318   2.711
 3404TIP3   OH210168   2.552   4.037   1.896
 3404TIP3    H110169   2.560   4.133   1.877
 3404TIP3    H210170   2.645   4.008   1.889
 3405TIP3   OH210171   1.274   3.796   3.599
 3405TIP3    H110172   1.209   3.771   3.530
 3405TIP3    H210173   1.314   3.710   3.624
 3406TIP3   OH210174   1.129   3.991   3.226
 3406TIP3    H110175   1.225   3.981   3.220
 3406TIP3    H210176   1.122   4.067   3.286
 3407TIP3   OH210177   2.993   4.442   3.290
 3407TIP3    H110178   2.991   4.346   3.307
 3407TIP3    H210179   2.910   4.469   3.335
 3408TIP3   OH210180   2.098   4.225   3.420
 3408TIP3    H110181   2.096   4.317   3.453
 3408TIP3    H210182   2.027   4.184   3.474
 3409TIP3   OH210183   1.856   4.348   2.373
 3409TIP3    H110184   1.820   4.341   2.283
 3409TIP3    H210185   1.828   4.437   2.401
 3410TIP3   OH210186   1.301   4.203   2.760
 3410TIP3    H110187   1.348   4.195   2.846
 3410TIP3    H210188   1.243   4.125   2.763
 3411TIP3   OH210189   2.061   4.257   2.013
 3411TIP3    H110190   2.120   4.188   1.975
 3411TIP3    H210191   2.098   4.267   2.103
 3412TIP3   OH210192   2.111   4.305   2.285
 3412TIP3    H110193   2.023   4.312   2.326
 3412TIP3    H210194   2.165   4.271   2.358
 3413TIP3   OH210195   1.479   3.979   3.584
 3413TIP3    H110196   1.528   3.964   3.667
 3413TIP3    H210197   1.405   3.916   3.593
 3414TIP3   OH210198   1.877   2.803   3.371
 3414TIP3    H110199   1.789   2.772   3.343
 3414TIP3    H210200   1.850   2.882   3.423
 3415TIP3   OH210201   2.412   2.913   3.565
 3415TIP3    H110202   2.483   2.888   3.628
 3415TIP3    H210203   2.330   2.894   3.616
 3416TIP3   OH210204   2.316   3.477   2.043
 3416TIP3    H110205   2.273   3.453   1.959
 3416TIP3    H210206   2.399   3.517   2.011
 3417TIP3   OH210207   2.023   2.851   2.346
 3417TIP3    H110208   1.989   2.844   2.437
 3417TIP3    H210209   1.983   2.772   2.305
 3418TIP3   OH210210   1.812   3.318   3.392
 3418TIP3    H110211   1.761   3.338   3.473
 3418TIP3    H210212   1.795   3.399   3.339
 3419TIP3   OH210213   1.693   3.205   2.902
 3419TIP3    H110214   1.601   3.178   2.922
 3419TIP3    H210215   1.704   3.165   2.813
 3420TIP3   OH210216   2.184   3.290   2.635
 3420TIP3    H110217   2.134   3.361   2.589
 3420TIP3    H210218   2.240   3.255   2.562
 3421TIP3   OH210219   2.365   3.566   3.712
 3421TIP3    H110220   2.337   3.495   3.775
 3421TIP3    H210221   2.457   3.577   3.741
 3422TIP3   OH210222   2.343   3.318   2.869
 3422TIP3    H110223   2.278   3.341   2.799
 3422TIP3    H210224   2.379   3.237   2.827
 3423TIP3   OH210225   1.630   3.344   3.598
 3423TIP3    H110226   1.659   3.406   3.667
 3423TIP3    H210227   1.618   3.261   3.649
 3424TIP3   OH210228   1.666   2.818   2.305
 3424TIP3    H110229   1.656   2.844   2.398
 3424TIP3    H210230   1.598   2.870   2.261
 3425TIP3   OH210231   1.222   2.868   3.179
 3425TIP3    H110232   1.299   2.898   3.232
 3425TIP3    H210233   1.262   2.835   3.097
 3426TIP3   OH210234   1.191   2.853   2.696
 3426TIP3    H110235   1.230   2.897   2.617
 3426TIP3    H210236   1.125   2.921   2.720
 3427TIP3   OH210237   2.425   3.563   3.329
 3427TIP3    H110238   2.434   3.503   3.251
 3427TIP3    H210239   2.364   3.506   3.383
 3428TIP3   OH210240   2.026   3.028   2.964
 3428TIP3    H110241   1.944   3.026   3.018
 3428TIP3    H210242   2.095   3.015   3.031
 3429TIP3   OH210243   1.455   3.084   2.970
 3429TIP3    H110244   1.361   3.092   2.943
 3429TIP3    H210245   1.476   2.991   2.950
 3430TIP3   OH210246   1.720   3.080   2.659
 3430TIP3    H110247   1.814   3.095   2.639
 3430TIP3    H210248   1.676   3.093   2.571
 3431TIP3   OH210249   2.519   3.108   3.172
 3431TIP3    H110250   2.494   3.117   3.267
 3431TIP3    H210251   2.453   3.045   3.140
 3432TIP3   OH210252   1.569   3.090   2.428
 3432TIP3    H110253   1.475   3.095   2.403
 3432TIP3    H210254   1.611   3.139   2.355
 3433TIP3   OH210255   2.687   4.790   3.388
 3433TIP3    H110256   2.686   4.816   3.294
 3433TIP3    H210257   2.768   4.836   3.420
 3434TIP3   OH210258   1.644   3.903   3.805
 3434TIP3    H110259   1.722   3.931   3.857
 3434TIP3    H210260   1.578   3.897   3.877
 3435TIP3   OH210261   2.103   3.358   3.068
 3435TIP3    H110262   2.173   3.311   3.020
 3435TIP3    H210263   2.102   3.313   3.154
 3436TIP3   OH210264   1.624   2.841   2.948
 3436TIP3    H110265   1.584   2.766   2.997
 3436TIP3    H210266   1.674   2.795   2.880
 3437TIP3   OH210267   2.081   3.262   3.340
 3437TIP3    H110268   1.990   3.290   3.363
 3437TIP3    H210269   2.136   3.318   3.399
 3438TIP3   OH210270   1.815   3.647   2.445
 3438TIP3    H110271   1.751   3.572   2.437
 3438TIP3    H210272   1.795   3.678   2.537
 3439TIP3   OH210273   2.716   3.873   3.076
 3439TIP3    H110274   2.747   3.923   2.997
 3439TIP3    H210275   2.634   3.831   3.044
 3440TIP3   OH210276   2.276   2.949   2.320
 3440TIP3    H110277   2.179   2.932   2.322
 3440TIP3    H210278   2.282   3.045   2.338
 3441TIP3   OH210279   2.225   3.960   3.447
 3441TIP3    H110280   2.239   3.940   3.540
 3441TIP3    H210281   2.181   4.047   3.451
 3442TIP3   OH210282   2.343   3.204   2.418
 3442TIP3    H110283   2.439   3.208   2.431
 3442TIP3    H210284   2.324   3.283   2.363
 3443TIP3   OH210285   1.514   3.670   3.121
 3443TIP3    H110286   1.550   3.634   3.037
 3443TIP3    H210287   1.549   3.607   3.186
 3444TIP3   OH210288   1.962   3.797   2.276
 3444TIP3    H110289   1.905   3.876   2.278
 3444TIP3    H210290   1.909   3.736   2.332
 3445TIP3   OH210291   1.395   3.586   3.737
 3445TIP3    H110292   1.417   3.574   3.831
 3445TIP3    H210293   1.327   3.517   3.724
 3446TIP3   OH210294   2.120   3.703   3.750
 3446TIP3    H110295   2.057   3.637   3.717
 3446TIP3    H210296   2.206   3.663   3.725
 3447TIP3   OH210297   2.375   4.215   3.343
 3447TIP3    H110298   2.279   4.219   3.356
 3447TIP3    H210299   2.406   4.270   3.418
 3448TIP3   OH210300   2.783   3.290   2.247
 3448TIP3    H110301   2.720   3.249   2.184
 3448TIP3    H210302   2.785   3.380   2.209
 3449TIP3   OH210303   3.004   4.150   3.330
 3449TIP3    H110304   2.906   4.145   3.321
 3449TIP3    H210305   3.031   4.122   3.240
 3450TIP3   OH210306   2.499   4.108   2.163
 3450TIP3    H110307   2.440   4.051   2.213
 3450TIP3    H210308   2.502   4.068   2.074
 3451TIP3   OH210309   2.482   3.736   2.998
 3451TIP3    H110310   2.387   3.712   3.006
 3451TIP3    H210311   2.515   3.659   2.948
 3452TIP3   OH210312   1.611   3.968   2.743
 3452TIP3    H110313   1.604   4.051   2.692
 3452TIP3    H210314   1.519   3.953   2.768
 3453TIP3   OH210315   1.178   3.268   2.464
 3453TIP3    H110316   1.218   3.356   2.478
 3453TIP3    H210317   1.098   3.273   2.521
 3454TIP3   OH210318   1.748   3.733   2.691
 3454TIP3    H110319   1.709   3.821   2.710
 3454TIP3    H210320   1.713   3.679   2.764
 3455TIP3   OH210321   1.882   4.312   3.215
 3455TIP3    H110322   1.926   4.384   3.166
 3455TIP3    H210323   1.957   4.275   3.265
 3456TIP3   OH210324   1.528   4.209   2.595
 3456TIP3    H110325   1.445   4.217   2.645
 3456TIP3    H210326   1.563   4.302   2.601
 3457TIP3   OH210327   2.262   3.945   3.176
 3457TIP3    H110328   2.255   3.948   3.274
 3457TIP3    H210329   2.346   3.899   3.163
 3458TIP3   OH210330   2.240   3.845   2.055
 3458TIP3    H110331   2.290   3.811   2.133
 3458TIP3    H210332   2.152   3.810   2.074
 3459TIP3   OH210333   2.516   4.476   3.223
 3459TIP3    H110334   2.435   4.422   3.217
 3459TIP3    H210335   2.500   4.541   3.152
 3460TIP3   OH210336   2.583   4.312   1.878
 3460TIP3    H110337   2.620   4.382   1.823
 3460TIP3    H210338   2.503   4.358   1.910
 3461TIP3   OH210339   1.602   3.089   3.740
 3461TIP3    H110340   1.505   3.091   3.755
 3461TIP3    H210341   1.632   3.036   3.816
 3462TIP3   OH210342   2.394   3.762   2.268
 3462TIP3    H110343   2.375   3.697   2.339
 3462TIP3    H210344   2.476   3.800   2.301
 3463TIP3   OH210345   1.319   4.171   3.375
 3463TIP3    H110346   1.372   4.099   3.411
 3463TIP3    H210347   1.343   4.244   3.434
 3464TIP3   OH210348   1.609   3.811   2.064
 3464TIP3    H110349   1.623   3.728   2.013
 3464TIP3    H210350   1.584   3.772   2.149
 3465TIP3   OH210351   1.550   3.836   2.349
 3465TIP3    H110352   1.581   3.749   2.374
 3465TIP3    H210353   1.627   3.893   2.371
 3466TIP3   OH210354   1.297   3.514   2.535
 3466TIP3    H110355   1.231   3.572   2.579
 3466TIP3    H210356   1.337   3.571   2.468
 3467TIP3   OH210357   2.457   3.153   3.441
 3467TIP3    H110358   2.492   3.194   3.523
 3467TIP3    H210359   2.431   3.065   3.477
 3468TIP3   OH210360   2.320   2.901   2.596
 3468TIP3    H110361   2.308   2.921   2.501
 3468TIP3    H210362   2.360   2.984   2.630
 3469TIP3   OH210363   1.794   4.016   2.283
 3469TIP3    H110364   1.754   4.087   2.335
 3469TIP3    H210365   1.832   4.067   2.209
 3470TIP3   OH210366   2.004   3.086   2.693
 3470TIP3    H110367   2.068   3.158   2.677
 3470TIP3    H210368   2.011   3.076   2.791
 3471TIP3   OH210369   2.281   3.406   3.497
 3471TIP3    H110370   2.295   3.456   3.580
 3471TIP3    H210371   2.331   3.325   3.515
 3472TIP3   OH210372   2.151   2.805   2.793
 3472TIP3    H110373   2.150   2.881   2.855
 3472TIP3    H210374   2.213   2.840   2.725
 3473TIP3   OH210375   1.492   4.115   2.342
 3473TIP3    H110376   1.504   4.195   2.284
 3473TIP3    H210377   1.507   4.154   2.431
 3474TIP3   OH210378   1.668   2.813   2.592
 3474TIP3    H110379   1.659   2.904   2.627
 3474TIP3    H210380   1.765   2.805   2.595
 3475TIP3   OH210381   2.878   3.327   3.444
 3475TIP3    H110382   2.828   3.292   3.517
 3475TIP3    H210383   2.888   3.250   3.387
 3476TIP3   OH210384   2.565   3.502   2.864
 3476TIP3    H110385   2.491   3.439   2.873
 3476TIP3    H210386   2.638   3.454   2.909
 3477TIP3   OH210387   1.234   3.003   2.469
 3477TIP3    H110388   1.224   3.101   2.465
 3477TIP3    H210389   1.180   2.978   2.393
 3478TIP3   OH210390   2.538   4.454   2.816
 3478TIP3    H110391   2.496   4.501   2.741
 3478TIP3    H210392   2.633   4.474   2.797
 3479TIP3   OH210393   1.614   2.721   3.343
 3479TIP3    H110394   1.583   2.685   3.258
 3479TIP3    H210395   1.604   2.645   3.403
 3480TIP3   OH210396   1.143   3.939   2.726
 3480TIP3    H110397   1.083   3.970   2.795
 3480TIP3    H210398   1.107   3.984   2.646
 3481TIP3   OH210399   1.312   4.488   3.800
 3481TIP3    H110400   1.398   4.487   3.846
 3481TIP3    H210401   1.292   4.392   3.799
 3482TIP3   OH210402   1.788   4.448   3.837
 3482TIP3    H110403   1.881   4.424   3.851
 3482TIP3    H210404   1.762   4.383   3.769
 3483TIP3   OH210405   1.774   4.019   1.974
 3483TIP3    H110406   1.725   3.942   2.009
 3483TIP3    H210407   1.848   3.974   1.928
 3484TIP3   OH210408   2.432   4.352   3.573
 3484TIP3    H110409   2.423   4.284   3.644
 3484TIP3    H210410   2.507   4.405   3.606
 3485TIP3   OH210411   2.207   4.064   1.884
 3485TIP3    H110412   2.246   3.994   1.940
 3485TIP3    H210413   2.260   4.059   1.802
 3486TIP3   OH210414   1.441   3.885   3.992
 3486TIP3    H110415   1.453   3.790   4.011
 3486TIP3    H210416   1.352   3.887   3.951
 3487TIP3   OH210417   1.450   3.567   2.221
 3487TIP3    H110418   1.440   3.473   2.243
 3487TIP3    H210419   1.490   3.557   2.133
 3488TIP3   OH210420   2.051   3.979   3.770
 3488TIP3    H110421   2.003   3.995   3.687
 3488TIP3    H210422   2.078   3.885   3.763
 3489TIP3   OH210423   1.936   3.741   2.005
 3489TIP3    H110424   1.935   3.747   2.102
 3489TIP3    H210425   1.937   3.643   1.993
 3490TIP3   OH210426   2.532   3.978   3.369
 3490TIP3    H110427   2.608   4.026   3.332
 3490TIP3    H210428   2.464   4.049   3.366
 3491TIP3   OH210429   1.564   3.621   3.980
 3491TIP3    H110430   1.640   3.564   3.965
 3491TIP3    H210431   1.585   3.656   4.069
 3492TIP3   OH210432   1.644   3.441   2.432
 3492TIP3    H110433   1.599   3.394   2.503
 3492TIP3    H210434   1.665   3.370   2.368
 3493TIP3   OH210435   1.893   3.508   3.643
 3493TIP3    H110436   1.815   3.567   3.644
 3493TIP3    H210437   1.944   3.544   3.566
 3494TIP3   OH210438   1.722   3.241   2.256
 3494TIP3    H110439   1.692   3.255   2.163
 3494TIP3    H210440   1.819   3.242   2.243
 3495TIP3   OH210441   2.409   3.905   3.773
 3495TIP3    H110442   2.504   3.895   3.763
 3495TIP3    H210443   2.392   3.846   3.848
 3496TIP3   OH210444   2.550   3.566   1.922
 3496TIP3    H110445   2.531   3.520   1.838
 3496TIP3    H210446   2.513   3.655   1.899
 3497TIP3   OH210447   2.020   3.298   3.765
 3497TIP3    H110448   2.018   3.218   3.708
 3497TIP3    H210449   1.972   3.364   3.710
 3498TIP3   OH210450   2.020   3.086   3.573
 3498TIP3    H110451   2.046   3.122   3.487
 3498TIP3    H210452   1.926   3.061   3.557
 3499TIP3   OH210453   2.041   3.619   3.448
 3499TIP3    H110454   2.123   3.632   3.401
 3499TIP3    H210455   1.981   3.683   3.404
 3500TIP3   OH210456   2.626   3.580   3.825
 3500TIP3    H110457   2.659   3.499   3.869
 3500TIP3    H210458   2.705   3.636   3.830
 3501TIP3   OH210459   2.665   3.798   3.509
 3501TIP3    H110460   2.625   3.885   3.487
 3501TIP3    H210461   2.760   3.822   3.496
 3502TIP3   OH210462   1.891   3.406   3.994
 3502TIP3    H110463   1.826   3.336   4.015
 3502TIP3    H210464   1.929   3.372   3.911
 3503TIP3   OH210465   2.151   2.844   3.643
 3503TIP3    H110466   2.099   2.925   3.623
 3503TIP3    H210467   2.082   2.775   3.634
 3504TIP3   OH210468   2.280   3.353   3.856
 3504TIP3    H110469   2.274   3.335   3.952
 3504TIP3    H210470   2.189   3.326   3.830
 3505TIP3   OH210471   2.509   3.276   3.688
 3505TIP3    H110472   2.445   3.289   3.760
 3505TIP3    H210473   2.592   3.263   3.738
 3506TIP3   OH210474   2.747   3.238   3.844
 3506TIP3    H110475   2.760   3.144   3.869
 3506TIP3    H210476   2.735   3.282   3.931
 3507TIP3   OH210477   1.735   3.184   4.054
 3507TIP3    H110478   1.739   3.091   4.025
 3507TIP3    H210479   1.773   3.177   4.144
 3508TIP3   OH210480   2.246   2.858   3.901
 3508TIP3    H110481   2.313   2.786   3.898
 3508TIP3    H210482   2.206   2.849   3.812
 3509TIP3   OH210483   2.314   3.074   4.058
 3509TIP3    H110484   2.292   3.001   3.996
 3509TIP3    H210485   2.234   3.129   4.055
 3510TIP3   OH210486   1.538   4.300   2.155
 3510TIP3    H110487   1.633   4.291   2.134
 3510TIP3    H210488   1.510   4.353   2.077
 3511TIP3   OH210489   1.015   3.677   2.361
 3511TIP3    H110490   1.110   3.661   2.365
 3511TIP3    H210491   0.987   3.591   2.321
 3512TIP3   OH210492   0.932   4.293   2.792
 3512TIP3    H110493   0.866   4.233   2.751
 3512TIP3    H210494   0.975   4.232   2.856
 3513TIP3   OH210495   1.068   4.137   2.976
 3513TIP3    H110496   1.054   4.069   3.044
 3513TIP3    H210497   1.119   4.201   3.028
 3514TIP3   OH210498   2.793   4.542   2.778
 3514TIP3    H110499   2.818   4.574   2.867
 3514TIP3    H210500   2.857   4.587   2.721
 3515TIP3   OH210501   2.818   4.564   3.060
 3515TIP3    H110502   2.777   4.475   3.058
 3515TIP3    H210503   2.896   4.545   3.115
 3516TIP3   OH210504   2.865   4.241   3.633
 3516TIP3    H110505   2.793   4.254   3.698
 3516TIP3    H210506   2.910   4.328   3.636
 3517TIP3   OH210507   2.867   4.008   2.888
 3517TIP3    H110508   2.925   3.944   2.842
 3517TIP3    H210509   2.865   4.083   2.825
 3518TIP3   OH210510   2.694   4.314   3.081
 3518TIP3    H110511   2.623   4.358   3.132
 3518TIP3    H210512   2.643   4.269   3.010
 3519TIP3   OH210513   2.751   3.545   2.103
 3519TIP3    H110514   2.689   3.524   2.029
 3519TIP3    H210515   2.696   3.610   2.148
 3520TIP3   OH210516   2.615   3.208   2.051
 3520TIP3    H110517   2.574   3.231   1.967
 3520TIP3    H210518   2.595   3.112   2.054
 3521TIP3   OH210519   2.620   3.475   2.592
 3521TIP3    H110520   2.629   3.378   2.586
 3521TIP3    H210521   2.612   3.490   2.688
 3522TIP3   OH210522   1.248   3.556   3.349
 3522TIP3    H110523   1.246   3.520   3.258
 3522TIP3    H210524   1.346   3.554   3.366
 3523TIP3   OH210525   2.914   3.903   3.458
 3523TIP3    H110526   2.980   3.831   3.452
 3523TIP3    H210527   2.948   3.970   3.397
 3524TIP3   OH210528   3.072   3.685   3.492
 3524TIP3    H110529   3.030   3.603   3.518
 3524TIP3    H210530   3.165   3.655   3.490
 3525TIP3   OH210531   2.560   2.943   2.049
 3525TIP3    H110532   2.635   2.903   2.097
 3525TIP3    H210533   2.488   2.878   2.060
 3526TIP3   OH210534   2.623   3.195   2.492
 3526TIP3    H110535   2.661   3.106   2.509
 3526TIP3    H210536   2.680   3.222   2.417
 3527TIP3   OH210537   2.778   3.370   2.980
 3527TIP3    H110538   2.864   3.398   2.941
 3527TIP3    H210539   2.799   3.380   3.074
 3528TIP3   OH210540   1.469   3.238   4.019
 3528TIP3    H110541   1.567   3.234   4.028
 3528TIP3    H210542   1.446   3.151   4.059
 3529TIP3   OH210543   3.293   3.101   3.767
 3529TIP3    H110544   3.360   3.034   3.741
 3529TIP3    H210545   3.291   3.157   3.689
 3530TIP3   OH210546   2.727   2.946   2.534
 3530TIP3    H110547   2.777   2.929   2.617
 3530TIP3    H210548   2.668   2.868   2.532
 3531TIP3   OH210549   1.430   2.931   3.351
 3531TIP3    H110550   1.490   2.855   3.362
 3531TIP3    H210551   1.494   3.004   3.344
 3532TIP3   OH210552   1.229   3.203   3.423
 3532TIP3    H110553   1.280   3.200   3.339
 3532TIP3    H210554   1.263   3.283   3.465
 3533TIP3   OH210555   3.165   3.252   3.565
 3533TIP3    H110556   3.099   3.277   3.632
 3533TIP3    H210557   3.128   3.170   3.528
 3534TIP3   OH210558   2.809   2.876   2.168
 3534TIP3    H110559   2.846   2.805   2.112
 3534TIP3    H210560   2.879   2.944   2.163
 3535TIP3   OH210561   1.217   2.711   2.927
 3535TIP3    H110562   1.124   2.700   2.954
 3535TIP3    H210563   1.209   2.769   2.849
 3536TIP3   OH210564   2.374   4.411   2.433
 3536TIP3    H110565   2.426   4.405   2.350
 3536TIP3    H210566   2.423   4.478   2.483
 3537TIP3   OH210567   1.436   2.788   3.740
 3537TIP3    H110568   1.386   2.782   3.823
 3537TIP3    H210569   1.369   2.824   3.680
 3538TIP3   OH210570   1.475   4.220   3.823
 3538TIP3    H110571   1.384   4.191   3.808
 3538TIP3    H210572   1.487   4.197   3.917
 3539TIP3   OH210573   1.655   4.250   3.364
 3539TIP3    H110574   1.608   4.327   3.325
 3539TIP3    H210575   1.741   4.263   3.320
 3540TIP3   OH210576   2.096   4.492   3.502
 3540TIP3    H110577   2.137   4.491   3.591
 3540TIP3    H210578   2.162   4.545   3.453
 3541TIP3   OH210579   2.277   4.647   3.365
 3541TIP3    H110580   2.349   4.596   3.324
 3541TIP3    H210581   2.328   4.704   3.426
 3542TIP3   OH210582   3.069   2.996   3.467
 3542TIP3    H110583   2.982   2.969   3.436
 3542TIP3    H210584   3.117   2.911   3.459
 3543TIP3   OH210585   1.329   4.506   3.388
 3543TIP3    H110586   1.239   4.539   3.368
 3543TIP3    H210587   1.344   4.547   3.475
 3544TIP3   OH210588   1.566   4.485   3.249
 3544TIP3    H110589   1.479   4.496   3.292
 3544TIP3    H210590   1.547   4.516   3.158
 3545TIP3   OH210591   1.993   4.512   3.045
 3545TIP3    H110592   1.921   4.530   2.982
 3545TIP3    H210593   2.004   4.599   3.089
 3546TIP3   OH210594   2.261   4.447   3.096
 3546TIP3    H110595   2.168   4.469   3.078
 3546TIP3    H210596   2.307   4.523   3.056
 3547TIP3   OH210597   2.463   4.639   3.010
 3547TIP3    H110598   2.452   4.725   2.963
 3547TIP3    H210599   2.493   4.581   2.937
 3548TIP3   OH210600   1.242   4.297   3.134
 3548TIP3    H110601   1.268   4.270   3.224
 3548TIP3    H210602   1.314   4.254   3.083
 3549TIP3   OH210603   1.438   4.171   2.993
 3549TIP3    H110604   1.451   4.087   3.043
 3549TIP3    H210605   1.530   4.206   2.991
 3550TIP3   OH210606   1.705   4.261   2.998
 3550TIP3    H110607   1.734   4.168   2.991
 3550TIP3    H210608   1.752   4.286   3.080
 3551TIP3   OH210609   2.271   2.916   3.078
 3551TIP3    H110610   2.233   2.846   3.134
 3551TIP3    H210611   2.350   2.873   3.040
 3552TIP3   OH210612   2.796   2.808   2.987
 3552TIP3    H110613   2.833   2.856   2.909
 3552TIP3    H210614   2.701   2.821   2.976
 3553TIP3   OH210615   2.894   2.905   2.749
 3553TIP3    H110616   2.968   2.850   2.713
 3553TIP3    H210617   2.930   2.995   2.734
 3554TIP3   OH210618   1.526   2.626   3.095
 3554TIP3    H110619   1.433   2.595   3.100
 3554TIP3    H210620   1.573   2.540   3.092
 3555TIP3   OH210621   1.319   2.502   2.754
 3555TIP3    H110622   1.344   2.554   2.676
 3555TIP3    H210623   1.286   2.570   2.815
 3556TIP3   OH210624   1.971   2.660   2.977
 3556TIP3    H110625   2.030   2.709   2.919
 3556TIP3    H210626   1.994   2.697   3.064
 3557TIP3   OH210627   2.512   2.808   2.961
 3557TIP3    H110628   2.520   2.765   2.875
 3557TIP3    H210629   2.502   2.730   3.020
 3558TIP3   OH210630   2.546   2.733   2.525
 3558TIP3    H110631   2.459   2.775   2.540
 3558TIP3    H210632   2.533   2.647   2.572
 3559TIP3   OH210633   1.034   4.072   2.518
 3559TIP3    H110634   0.950   4.039   2.484
 3559TIP3    H210635   1.029   4.164   2.485
 3560TIP3   OH210636   1.451   2.646   2.520
 3560TIP3    H110637   1.478   2.660   2.429
 3560TIP3    H210638   1.509   2.708   2.567
 3561TIP3   OH210639   1.944   2.833   2.611
 3561TIP3    H110640   2.008   2.795   2.674
 3561TIP3    H210641   1.961   2.928   2.630
 3562TIP3   OH210642   1.804   4.257   2.106
 3562TIP3    H110643   1.892   4.279   2.070
 3562TIP3    H210644   1.782   4.181   2.047
 3563TIP3   OH210645   2.522   4.379   2.202
 3563TIP3    H110646   2.520   4.281   2.191
 3563TIP3    H210647   2.477   4.408   2.121
 3564TIP3   OH210648   1.734   2.910   3.988
 3564TIP3    H110649   1.697   2.840   4.044
 3564TIP3    H210650   1.828   2.908   4.017
 3565TIP3   OH210651   1.984   2.905   4.106
 3565TIP3    H110652   2.070   2.879   4.071
 3565TIP3    H210653   1.970   2.837   4.175
 3566TIP3   OH210654   2.808   2.970   3.895
 3566TIP3    H110655   2.825   2.938   3.987
 3566TIP3    H210656   2.898   2.965   3.857
 3567TIP3   OH210657   2.744   4.521   3.387
 3567TIP3    H110658   2.666   4.492   3.336
 3567TIP3    H210659   2.727   4.617   3.393
 3568TIP3   OH210660   4.013   3.893   2.152
 3568TIP3    H110661   3.982   3.984   2.132
 3568TIP3    H210662   3.937   3.842   2.118
 3569TIP3   OH210663   4.007   3.896   2.542
 3569TIP3    H110664   4.047   3.872   2.627
 3569TIP3    H210665   3.973   3.811   2.510
 3570TIP3   OH210666   3.309   3.793   2.914
 3570TIP3    H110667   3.338   3.720   2.973
 3570TIP3    H210668   3.394   3.835   2.894
 3571TIP3   OH210669   4.256   4.198   2.220
 3571TIP3    H110670   4.245   4.128   2.286
 3571TIP3    H210671   4.290   4.272   2.273
 3572TIP3   OH210672   3.283   4.193   2.617
 3572TIP3    H110673   3.277   4.096   2.623
 3572TIP3    H210674   3.379   4.206   2.613
 3573TIP3   OH210675   2.962   3.436   2.411
 3573TIP3    H110676   2.904   3.447   2.486
 3573TIP3    H210677   2.920   3.363   2.363
 3574TIP3   OH210678   3.908   4.657   2.236
 3574TIP3    H110679   3.948   4.588   2.180
 3574TIP3    H210680   3.906   4.615   2.322
 3575TIP3   OH210681   3.811   4.121   2.584
 3575TIP3    H110682   3.854   4.042   2.545
 3575TIP3    H210683   3.892   4.170   2.608
 3576TIP3   OH210684   4.821   3.442   2.577
 3576TIP3    H110685   4.857   3.522   2.622
 3576TIP3    H210686   4.853   3.455   2.486
 3577TIP3   OH210687   4.221   3.622   2.612
 3577TIP3    H110688   4.266   3.538   2.636
 3577TIP3    H210689   4.191   3.601   2.522
 3578TIP3   OH210690   3.562   3.282   2.579
 3578TIP3    H110691   3.546   3.354   2.515
 3578TIP3    H210692   3.515   3.208   2.535
 3579TIP3   OH210693   4.258   3.373   2.198
 3579TIP3    H110694   4.327   3.358   2.267
 3579TIP3    H210695   4.314   3.407   2.126
 3580TIP3   OH210696   3.193   3.482   2.692
 3580TIP3    H110697   3.277   3.460   2.735
 3580TIP3    H210698   3.206   3.439   2.605
 3581TIP3   OH210699   3.634   3.681   2.487
 3581TIP3    H110700   3.729   3.659   2.497
 3581TIP3    H210701   3.598   3.596   2.453
 3582TIP3   OH210702   4.900   3.650   2.746
 3582TIP3    H110703   4.814   3.693   2.729
 3582TIP3    H210704   4.911   3.668   2.841
 3583TIP3   OH210705   3.560   3.263   3.012
 3583TIP3    H110706   3.498   3.300   2.946
 3583TIP3    H210707   3.509   3.279   3.095
 3584TIP3   OH210708   3.891   4.110   2.025
 3584TIP3    H110709   3.865   4.105   1.932
 3584TIP3    H210710   3.853   4.195   2.052
 3585TIP3   OH210711   3.664   4.040   2.804
 3585TIP3    H110712   3.607   4.110   2.842
 3585TIP3    H210713   3.710   4.087   2.732
 3586TIP3   OH210714   4.461   3.379   2.377
 3586TIP3    H110715   4.457   3.330   2.460
 3586TIP3    H210716   4.516   3.456   2.402
 3587TIP3   OH210717   3.428   3.378   2.798
 3587TIP3    H110718   3.491   3.450   2.823
 3587TIP3    H210719   3.479   3.338   2.724
 3588TIP3   OH210720   3.494   4.238   2.905
 3588TIP3    H110721   3.469   4.326   2.870
 3588TIP3    H210722   3.415   4.220   2.960
 3589TIP3   OH210723   2.908   3.914   2.178
 3589TIP3    H110724   2.836   3.911   2.108
 3589TIP3    H210725   2.911   4.012   2.190
 3590TIP3   OH210726   4.324   4.443   2.383
 3590TIP3    H110727   4.233   4.433   2.421
 3590TIP3    H210728   4.316   4.528   2.337
 3591TIP3   OH210729   4.619   3.344   2.746
 3591TIP3    H110730   4.533   3.371   2.711
 3591TIP3    H210731   4.681   3.376   2.677
 3592TIP3   OH210732   3.905   2.979   2.723
 3592TIP3    H110733   3.899   2.885   2.749
 3592TIP3    H210734   3.830   3.017   2.774
 3593TIP3   OH210735   4.021   4.485   2.051
 3593TIP3    H110736   4.071   4.402   2.033
 3593TIP3    H210737   4.086   4.550   2.014
 3594TIP3   OH210738   4.163   4.268   1.970
 3594TIP3    H110739   4.149   4.187   1.920
 3594TIP3    H210740   4.203   4.234   2.053
 3595TIP3   OH210741   4.552   4.350   2.728
 3595TIP3    H110742   4.540   4.273   2.668
 3595TIP3    H210743   4.534   4.425   2.667
 3596TIP3   OH210744   3.842   3.745   1.984
 3596TIP3    H110745   3.767   3.802   1.961
 3596TIP3    H210746   3.893   3.743   1.901
 3597TIP3   OH210747   3.802   3.533   1.697
 3597TIP3    H110748   3.868   3.585   1.746
 3597TIP3    H210749   3.860   3.470   1.650
 3598TIP3   OH210750   4.746   3.993   2.574
 3598TIP3    H110751   4.662   4.043   2.576
 3598TIP3    H210752   4.777   4.014   2.484
 3599TIP3   OH210753   4.192   3.828   1.954
 3599TIP3    H110754   4.139   3.851   2.034
 3599TIP3    H210755   4.277   3.803   1.996
 3600TIP3   OH210756   4.425   3.867   2.873
 3600TIP3    H110757   4.421   3.950   2.924
 3600TIP3    H210758   4.340   3.871   2.825
 3601TIP3   OH210759   3.424   3.827   2.377
 3601TIP3    H110760   3.381   3.763   2.317
 3601TIP3    H210761   3.501   3.776   2.410
 3602TIP3   OH210762   3.552   4.233   2.523
 3602TIP3    H110763   3.538   4.202   2.432
 3602TIP3    H210764   3.642   4.199   2.542
 3603TIP3   OH210765   3.545   3.803   2.726
 3603TIP3    H110766   3.586   3.772   2.642
 3603TIP3    H210767   3.597   3.884   2.745
 3604TIP3   OH210768   4.081   4.436   2.504
 3604TIP3    H110769   4.073   4.516   2.559
 3604TIP3    H210770   4.068   4.363   2.567
 3605TIP3   OH210771   3.700   4.354   3.051
 3605TIP3    H110772   3.638   4.415   3.098
 3605TIP3    H210773   3.636   4.300   3.000
 3606TIP3   OH210774   4.027   3.690   1.782
 3606TIP3    H110775   4.089   3.749   1.831
 3606TIP3    H210776   4.055   3.709   1.689
 3607TIP3   OH210777   3.457   3.913   3.158
 3607TIP3    H110778   3.459   4.002   3.199
 3607TIP3    H210779   3.362   3.893   3.163
 3608TIP3   OH210780   3.773   4.367   2.059
 3608TIP3    H110781   3.859   4.413   2.066
 3608TIP3    H210782   3.718   4.432   2.014
 3609TIP3   OH210783   3.492   4.518   3.138
 3609TIP3    H110784   3.456   4.523   3.047
 3609TIP3    H210785   3.412   4.498   3.191
 3610TIP3   OH210786   4.546   2.926   1.830
 3610TIP3    H110787   4.465   2.948   1.881
 3610TIP3    H210788   4.561   3.009   1.781
 3611TIP3   OH210789   3.252   3.673   2.204
 3611TIP3    H110790   3.218   3.702   2.117
 3611TIP3    H210791   3.271   3.579   2.188
 3612TIP3   OH210792   4.348   4.294   1.381
 3612TIP3    H110793   4.358   4.390   1.363
 3612TIP3    H210794   4.441   4.264   1.370
 3613TIP3   OH210795   3.069   4.055   3.087
 3613TIP3    H110796   3.003   4.028   3.019
 3613TIP3    H210797   3.108   3.969   3.114
 3614TIP3   OH210798   2.928   4.244   2.715
 3614TIP3    H110799   3.025   4.243   2.712
 3614TIP3    H210800   2.913   4.320   2.772
 3615TIP3   OH210801   4.789   4.700   2.776
 3615TIP3    H110802   4.788   4.603   2.788
 3615TIP3    H210803   4.705   4.724   2.821
 3616TIP3   OH210804   3.894   4.483   2.907
 3616TIP3    H110805   3.891   4.576   2.941
 3616TIP3    H210806   3.824   4.442   2.962
 3617TIP3   OH210807   3.656   4.606   1.863
 3617TIP3    H110808   3.615   4.592   1.776
 3617TIP3    H210809   3.626   4.696   1.887
 3618TIP3   OH210810   3.093   4.460   2.249
 3618TIP3    H110811   3.148   4.452   2.330
 3618TIP3    H210812   3.023   4.397   2.270
 3619TIP3   OH210813   3.856   4.511   1.499
 3619TIP3    H110814   3.915   4.443   1.462
 3619TIP3    H210815   3.894   4.524   1.588
 3620TIP3   OH210816   3.908   4.563   1.769
 3620TIP3    H110817   3.821   4.569   1.814
 3620TIP3    H210818   3.964   4.527   1.840
 3621TIP3   OH210819   4.676   3.827   3.049
 3621TIP3    H110820   4.594   3.834   2.998
 3621TIP3    H210821   4.697   3.732   3.040
 3622TIP3   OH210822   3.274   4.237   3.069
 3622TIP3    H110823   3.324   4.222   3.152
 3622TIP3    H210824   3.201   4.173   3.078
 3623TIP3   OH210825   3.672   3.058   2.859
 3623TIP3    H110826   3.584   3.028   2.831
 3623TIP3    H210827   3.647   3.137   2.910
 3624TIP3   OH210828   4.213   3.173   3.053
 3624TIP3    H110829   4.286   3.143   3.112
 3624TIP3    H210830   4.133   3.152   3.105
 3625TIP3   OH210831   4.444   3.602   2.970
 3625TIP3    H110832   4.395   3.599   3.056
 3625TIP3    H210833   4.422   3.691   2.936
 3626TIP3   OH210834   4.106   3.728   1.526
 3626TIP3    H110835   4.072   3.706   1.437
 3626TIP3    H210836   4.190   3.772   1.504
 3627TIP3   OH210837   3.817   3.108   1.831
 3627TIP3    H110838   3.785   3.103   1.923
 3627TIP3    H210839   3.780   3.025   1.795
 3628TIP3   OH210840   3.603   3.579   2.874
 3628TIP3    H110841   3.561   3.602   2.959
 3628TIP3    H210842   3.585   3.660   2.821
 3629TIP3   OH210843   3.489   3.464   2.389
 3629TIP3    H110844   3.398   3.435   2.410
 3629TIP3    H210845   3.503   3.419   2.303
 3630TIP3   OH210846   3.980   3.544   2.119
 3630TIP3    H110847   3.931   3.616   2.074
 3630TIP3    H210848   4.037   3.511   2.047
 3631TIP3   OH210849   4.157   3.823   3.203
 3631TIP3    H110850   4.134   3.749   3.264
 3631TIP3    H210851   4.251   3.835   3.225
 3632TIP3   OH210852   4.135   3.571   2.356
 3632TIP3    H110853   4.074   3.598   2.284
 3632TIP3    H210854   4.173   3.492   2.312
 3633TIP3   OH210855   3.422   3.604   3.089
 3633TIP3    H110856   3.475   3.659   3.149
 3633TIP3    H210857   3.417   3.520   3.139
 3634TIP3   OH210858   3.475   3.081   1.794
 3634TIP3    H110859   3.467   3.079   1.891
 3634TIP3    H210860   3.396   3.133   1.769
 3635TIP3   OH210861   3.019   3.131   2.662
 3635TIP3    H110862   3.095   3.157   2.718
 3635TIP3    H210863   3.060   3.086   2.587
 3636TIP3   OH210864   2.988   3.103   2.188
 3636TIP3    H110865   3.032   3.138   2.108
 3636TIP3    H210866   2.921   3.173   2.201
 3637TIP3   OH210867   4.144   3.818   2.778
 3637TIP3    H110868   4.178   3.748   2.718
 3637TIP3    H210869   4.117   3.763   2.855
 3638TIP3   OH210870   3.820   3.289   2.451
 3638TIP3    H110871   3.744   3.283   2.513
 3638TIP3    H210872   3.895   3.271   2.510
 3639TIP3   OH210873   3.253   3.339   2.456
 3639TIP3    H110874   3.161   3.335   2.425
 3639TIP3    H210875   3.286   3.248   2.441
 3640TIP3   OH210876   3.516   3.337   2.149
 3640TIP3    H110877   3.612   3.346   2.134
 3640TIP3    H210878   3.476   3.354   2.061
 3641TIP3   OH210879   4.310   3.363   2.656
 3641TIP3    H110880   4.278   3.373   2.749
 3641TIP3    H210881   4.248   3.298   2.621
 3642TIP3   OH210882   3.363   3.379   1.924
 3642TIP3    H110883   3.297   3.326   1.874
 3642TIP3    H210884   3.417   3.413   1.850
 3643TIP3   OH210885   4.484   5.047   2.874
 3643TIP3    H110886   4.480   5.071   2.780
 3643TIP3    H210887   4.563   5.096   2.904
 3644TIP3   OH210888   3.437   4.160   3.294
 3644TIP3    H110889   3.518   4.188   3.340
 3644TIP3    H210890   3.373   4.162   3.368
 3645TIP3   OH210891   3.898   3.613   2.548
 3645TIP3    H110892   3.972   3.574   2.499
 3645TIP3    H210893   3.905   3.568   2.634
 3646TIP3   OH210894   3.416   3.101   2.431
 3646TIP3    H110895   3.382   3.023   2.481
 3646TIP3    H210896   3.473   3.057   2.366
 3647TIP3   OH210897   3.877   3.513   2.835
 3647TIP3    H110898   3.788   3.549   2.853
 3647TIP3    H210899   3.936   3.570   2.887
 3648TIP3   OH210900   3.609   3.898   1.929
 3648TIP3    H110901   3.537   3.833   1.920
 3648TIP3    H210902   3.592   3.933   2.020
 3649TIP3   OH210903   4.511   4.136   2.560
 3649TIP3    H110904   4.537   4.186   2.480
 3649TIP3    H210905   4.428   4.092   2.532
 3650TIP3   OH210906   4.070   3.209   1.798
 3650TIP3    H110907   3.974   3.191   1.808
 3650TIP3    H210908   4.079   3.303   1.825
 3651TIP3   OH210909   4.007   4.214   2.932
 3651TIP3    H110910   4.047   4.198   3.018
 3651TIP3    H210911   3.975   4.306   2.939
 3652TIP3   OH210912   4.140   3.459   1.902
 3652TIP3    H110913   4.236   3.463   1.919
 3652TIP3    H210914   4.124   3.541   1.850
 3653TIP3   OH210915   3.291   3.908   2.603
 3653TIP3    H110916   3.338   3.884   2.521
 3653TIP3    H210917   3.347   3.864   2.669
 3654TIP3   OH210918   3.760   4.047   1.755
 3654TIP3    H110919   3.711   4.133   1.758
 3654TIP3    H210920   3.707   3.993   1.817
 3655TIP3   OH210921   3.188   3.850   3.227
 3655TIP3    H110922   3.222   3.831   3.317
 3655TIP3    H210923   3.126   3.777   3.211
 3656TIP3   OH210924   3.918   3.958   3.239
 3656TIP3    H110925   3.861   3.897   3.190
 3656TIP3    H210926   4.007   3.923   3.215
 3657TIP3   OH210927   4.170   4.476   2.828
 3657TIP3    H110928   4.074   4.477   2.841
 3657TIP3    H210929   4.200   4.529   2.905
 3658TIP3   OH210930   4.578   3.552   1.737
 3658TIP3    H110931   4.517   3.509   1.673
 3658TIP3    H210932   4.577   3.642   1.697
 3659TIP3   OH210933   4.803   4.412   2.814
 3659TIP3    H110934   4.705   4.402   2.806
 3659TIP3    H210935   4.829   4.379   2.725
 3660TIP3   OH210936   4.276   4.368   1.642
 3660TIP3    H110937   4.262   4.293   1.701
 3660TIP3    H210938   4.298   4.325   1.557
 3661TIP3   OH210939   4.278   3.999   2.476
 3661TIP3    H110940   4.185   3.974   2.490
 3661TIP3    H210941   4.312   3.918   2.434
 3662TIP3   OH210942   3.411   4.227   2.235
 3662TIP3    H110943   3.419   4.307   2.180
 3662TIP3    H210944   3.315   4.221   2.243
 3663TIP3   OH210945   2.975   3.527   1.940
 3663TIP3    H110946   3.019   3.612   1.955
 3663TIP3    H210947   2.898   3.533   2.000
 3664TIP3   OH210948   3.534   3.986   2.172
 3664TIP3    H110949   3.507   4.077   2.194
 3664TIP3    H210950   3.509   3.938   2.253
 3665TIP3   OH210951   3.678   4.567   2.702
 3665TIP3    H110952   3.721   4.640   2.652
 3665TIP3    H210953   3.754   4.530   2.749
 3666TIP3   OH210954   3.326   4.466   2.085
 3666TIP3    H110955   3.241   4.477   2.131
 3666TIP3    H210956   3.361   4.558   2.088
 3667TIP3   OH210957   4.062   4.203   2.663
 3667TIP3    H110958   4.051   4.199   2.761
 3667TIP3    H210959   4.142   4.151   2.651
 3668TIP3   OH210960   4.043   4.094   1.549
 3668TIP3    H110961   4.097   4.071   1.627
 3668TIP3    H210962   3.955   4.069   1.580
 3669TIP3   OH210963   4.312   4.735   2.712
 3669TIP3    H110964   4.232   4.680   2.705
 3669TIP3    H210965   4.297   4.799   2.639
 3670TIP3   OH210966   4.379   4.570   1.363
 3670TIP3    H110967   4.427   4.648   1.328
 3670TIP3    H210968   4.297   4.614   1.391
 3671TIP3   OH210969   3.404   3.346   3.228
 3671TIP3    H110970   3.307   3.343   3.240
 3671TIP3    H210971   3.435   3.291   3.302
 3672TIP3   OH210972   4.203   4.033   1.767
 3672TIP3    H110973   4.193   3.963   1.835
 3672TIP3    H210974   4.300   4.027   1.750
 3673TIP3   OH210975   3.116   4.427   2.861
 3673TIP3    H110976   3.173   4.361   2.903
 3673TIP3    H210977   3.140   4.506   2.912
 3674TIP3   OH210978   3.402   4.077   1.548
 3674TIP3    H110979   3.419   3.986   1.519
 3674TIP3    H210980   3.382   4.064   1.643
 3675TIP3   OH210981   3.348   4.080   1.824
 3675TIP3    H110982   3.431   4.058   1.867
 3675TIP3    H210983   3.350   4.179   1.827
 3676TIP3   OH210984   3.085   3.778   2.014
 3676TIP3    H110985   3.020   3.845   2.041
 3676TIP3    H210986   3.117   3.821   1.933
 3677TIP3   OH210987   4.235   3.412   2.917
 3677TIP3    H110988   4.319   3.448   2.950
 3677TIP3    H210989   4.225   3.330   2.971
 3678TIP3   OH210990   4.117   3.160   2.082
 3678TIP3    H110991   4.107   3.182   1.988
 3678TIP3    H210992   4.158   3.241   2.118
 3679TIP3   OH210993   3.614   4.274   1.766
 3679TIP3    H110994   3.528   4.304   1.801
 3679TIP3    H210995   3.635   4.348   1.707
 3680TIP3   OH210996   3.795   3.346   2.182
 3680TIP3    H110997   3.863   3.415   2.164
 3680TIP3    H210998   3.807   3.333   2.279
 3681TIP3   OH210999   4.075   3.656   2.986
 3681TIP3    H111000   4.102   3.705   3.066
 3681TIP3    H211001   4.128   3.575   2.993
 3682TIP3   OH211002   3.946   3.062   2.279
 3682TIP3    H111003   3.957   3.130   2.347
 3682TIP3    H211004   4.008   3.096   2.209
 3683TIP3   OH211005   3.359   4.353   1.835
 3683TIP3    H111006   3.332   4.423   1.772
 3683TIP3    H211007   3.346   4.398   1.921
 3684TIP3   OH211008   3.460   3.070   2.070
 3684TIP3    H111009   3.459   3.157   2.112
 3684TIP3    H211010   3.556   3.049   2.078
 3685TIP3   OH211011   4.713   3.562   2.966
 3685TIP3    H111012   4.615   3.561   2.975
 3685TIP3    H211013   4.723   3.503   2.890
 3686TIP3   OH211014   4.363   3.756   2.357
 3686TIP3    H111015   4.289   3.694   2.370
 3686TIP3    H211016   4.437   3.710   2.404
 3687TIP3   OH211017   3.078   3.983   1.822
 3687TIP3    H111018   3.150   4.048   1.832
 3687TIP3    H211019   3.120   3.925   1.754
 3688TIP3   OH211020   3.015   3.256   1.964
 3688TIP3    H111021   3.018   3.353   1.956
 3688TIP3    H211022   2.949   3.231   1.899
 3689TIP3   OH211023   4.333   4.713   2.304
 3689TIP3    H111024   4.291   4.761   2.230
 3689TIP3    H211025   4.428   4.731   2.284
 3690TIP3   OH211026   3.405   2.979   2.833
 3690TIP3    H111027   3.379   2.941   2.746
 3690TIP3    H211028   3.398   2.901   2.892
 3691TIP3   OH211029   2.932   4.176   2.214
 3691TIP3    H111030   2.874   4.226   2.271
 3691TIP3    H211031   2.921   4.225   2.129
 3692TIP3   OH211032   3.109   4.746   3.286
 3692TIP3    H111033   3.195   4.749   3.333
 3692TIP3    H211034   3.093   4.650   3.284
 3693TIP3   OH211035   3.581   4.703   3.327
 3693TIP3    H111036   3.676   4.687   3.338
 3693TIP3    H211037   3.560   4.639   3.256
 3694TIP3   OH211038   3.567   4.279   1.455
 3694TIP3    H111039   3.514   4.205   1.493
 3694TIP3    H211040   3.644   4.230   1.419
 3695TIP3   OH211041   4.224   4.612   3.062
 3695TIP3    H111042   4.216   4.541   3.130
 3695TIP3    H211043   4.301   4.662   3.094
 3696TIP3   OH211044   4.001   4.316   1.369
 3696TIP3    H111045   4.050   4.258   1.429
 3696TIP3    H211046   4.058   4.316   1.289
 3697TIP3   OH211047   3.236   4.146   3.484
 3697TIP3    H111048   3.249   4.050   3.496
 3697TIP3    H211049   3.149   4.149   3.439
 3698TIP3   OH211050   3.214   3.792   1.686
 3698TIP3    H111051   3.277   3.761   1.754
 3698TIP3    H211052   3.275   3.799   1.609
 3699TIP3   OH211053   3.840   4.232   3.261
 3699TIP3    H111054   3.805   4.253   3.173
 3699TIP3    H211055   3.874   4.141   3.249
 3700TIP3   OH211056   3.723   3.993   1.487
 3700TIP3    H111057   3.730   4.006   1.584
 3700TIP3    H211058   3.727   3.896   1.481
 3701TIP3   OH211059   4.335   4.245   2.867
 3701TIP3    H111060   4.413   4.283   2.822
 3701TIP3    H211061   4.268   4.314   2.848
 3702TIP3   OH211062   3.346   3.861   3.465
 3702TIP3    H111063   3.431   3.824   3.437
 3702TIP3    H211064   3.371   3.899   3.552
 3703TIP3   OH211065   3.413   3.697   1.898
 3703TIP3    H111066   3.410   3.642   1.977
 3703TIP3    H211067   3.456   3.634   1.835
 3704TIP3   OH211068   3.680   3.755   3.120
 3704TIP3    H111069   3.611   3.824   3.126
 3704TIP3    H211070   3.739   3.793   3.050
 3705TIP3   OH211071   3.525   3.501   1.739
 3705TIP3    H111072   3.501   3.505   1.644
 3705TIP3    H211073   3.622   3.499   1.734
 3706TIP3   OH211074   4.210   4.166   3.262
 3706TIP3    H111075   4.283   4.130   3.211
 3706TIP3    H211076   4.203   4.101   3.335
 3707TIP3   OH211077   4.339   3.822   1.409
 3707TIP3    H111078   4.321   3.780   1.323
 3707TIP3    H211079   4.307   3.913   1.388
 3708TIP3   OH211080   3.810   3.554   3.255
 3708TIP3    H111081   3.816   3.474   3.199
 3708TIP3    H211082   3.767   3.618   3.194
 3709TIP3   OH211083   3.816   3.344   3.064
 3709TIP3    H111084   3.847   3.380   2.979
 3709TIP3    H211085   3.724   3.318   3.043
 3710TIP3   OH211086   3.838   3.872   2.938
 3710TIP3    H111087   3.926   3.881   2.899
 3710TIP3    H211088   3.787   3.939   2.889
 3711TIP3   OH211089   4.423   3.840   3.313
 3711TIP3    H111090   4.464   3.755   3.336
 3711TIP3    H211091   4.498   3.887   3.273
 3712TIP3   OH211092   4.464   4.100   3.056
 3712TIP3    H111093   4.408   4.154   2.996
 3712TIP3    H211094   4.552   4.118   3.017
 3713TIP3   OH211095   3.685   3.664   3.483
 3713TIP3    H111096   3.621   3.591   3.501
 3713TIP3    H211097   3.724   3.634   3.398
 3714TIP3   OH211098   3.949   3.102   3.131
 3714TIP3    H111099   3.897   3.183   3.111
 3714TIP3    H211100   3.881   3.032   3.121
 3715TIP3   OH211101   4.073   3.607   3.346
 3715TIP3    H111102   4.065   3.590   3.442
 3715TIP3    H211103   3.983   3.581   3.318
 3716TIP3   OH211104   4.314   3.561   3.202
 3716TIP3    H111105   4.241   3.556   3.267
 3716TIP3    H211106   4.390   3.527   3.254
 3717TIP3   OH211107   4.543   3.497   3.344
 3717TIP3    H111108   4.558   3.401   3.360
 3717TIP3    H211109   4.539   3.533   3.435
 3718TIP3   OH211110   3.531   3.441   3.541
 3718TIP3    H111111   3.536   3.348   3.510
 3718TIP3    H211112   3.571   3.431   3.631
 3719TIP3   OH211113   4.043   3.114   3.389
 3719TIP3    H111114   4.110   3.043   3.387
 3719TIP3    H211115   4.005   3.105   3.299
 3720TIP3   OH211116   4.110   3.328   3.546
 3720TIP3    H111117   4.091   3.255   3.484
 3720TIP3    H211118   4.029   3.383   3.537
 3721TIP3   OH211119   3.331   4.555   1.648
 3721TIP3    H111120   3.427   4.546   1.630
 3721TIP3    H211121   3.305   4.607   1.569
 3722TIP3   OH211122   2.817   3.918   1.892
 3722TIP3    H111123   2.903   3.952   1.861
 3722TIP3    H211124   2.805   3.841   1.835
 3723TIP3   OH211125   2.727   4.549   2.281
 3723TIP3    H111126   2.661   4.490   2.239
 3723TIP3    H211127   2.770   4.488   2.344
 3724TIP3   OH211128   2.868   4.392   2.460
 3724TIP3    H111129   2.852   4.328   2.532
 3724TIP3    H211130   2.919   4.459   2.509
 3725TIP3   OH211131   4.587   4.802   2.266
 3725TIP3    H111132   4.619   4.836   2.351
 3725TIP3    H211133   4.654   4.835   2.204
 3726TIP3   OH211134   4.616   4.822   2.550
 3726TIP3    H111135   4.571   4.735   2.542
 3726TIP3    H211136   4.693   4.796   2.602
 3727TIP3   OH211137   4.665   4.499   3.122
 3727TIP3    H111138   4.588   4.509   3.181
 3727TIP3    H211139   4.705   4.588   3.125
 3728TIP3   OH211140   4.479   4.011   1.738
 3728TIP3    H111141   4.544   4.076   1.705
 3728TIP3    H211142   4.526   3.975   1.816
 3729TIP3   OH211143   4.607   3.879   1.942
 3729TIP3    H111144   4.541   3.838   2.003
 3729TIP3    H211145   4.674   3.914   2.005
 3730TIP3   OH211146   4.663   4.271   2.373
 3730TIP3    H111147   4.716   4.203   2.328
 3730TIP3    H211148   4.663   4.344   2.308
 3731TIP3   OH211149   4.491   4.571   2.568
 3731TIP3    H111150   4.418   4.613   2.618
 3731TIP3    H211151   4.444   4.525   2.496
 3732TIP3   OH211152   4.544   3.786   1.588
 3732TIP3    H111153   4.472   3.789   1.520
 3732TIP3    H211154   4.517   3.863   1.643
 3733TIP3   OH211155   4.413   3.459   1.542
 3733TIP3    H111156   4.371   3.494   1.463
 3733TIP3    H211157   4.391   3.364   1.534
 3734TIP3   OH211158   4.418   3.737   2.088
 3734TIP3    H111159   4.429   3.641   2.081
 3734TIP3    H211160   4.405   3.749   2.185
 3735TIP3   OH211161   3.054   3.809   2.830
 3735TIP3    H111162   3.077   3.763   2.749
 3735TIP3    H211163   3.145   3.819   2.868
 3736TIP3   OH211164   4.712   4.161   2.948
 3736TIP3    H111165   4.781   4.093   2.938
 3736TIP3    H211166   4.736   4.225   2.879
 3737TIP3   OH211167   4.894   3.962   2.959
 3737TIP3    H111168   4.819   3.911   2.996
 3737TIP3    H211169   4.967   3.898   2.976
 3738TIP3   OH211170   4.360   3.192   1.522
 3738TIP3    H111171   4.436   3.163   1.578
 3738TIP3    H211172   4.288   3.132   1.548
 3739TIP3   OH211173   4.417   3.452   1.979
 3739TIP3    H111174   4.457   3.363   1.994
 3739TIP3    H211175   4.476   3.485   1.909
 3740TIP3   OH211176   4.575   3.626   2.476
 3740TIP3    H111177   4.662   3.649   2.435
 3740TIP3    H211178   4.593   3.659   2.566
 3741TIP3   OH211179   4.649   3.770   2.706
 3741TIP3    H111180   4.572   3.804   2.756
 3741TIP3    H211181   4.683   3.851   2.663
 3742TIP3   OH211182   3.269   3.501   3.509
 3742TIP3    H111183   3.367   3.492   3.514
 3742TIP3    H211184   3.243   3.412   3.539
 3743TIP3   OH211185   5.103   3.367   3.260
 3743TIP3    H111186   5.160   3.300   3.218
 3743TIP3    H211187   5.070   3.417   3.182
 3744TIP3   OH211188   4.524   3.203   2.019
 3744TIP3    H111189   4.575   3.187   2.102
 3744TIP3    H211190   4.465   3.125   2.019
 3745TIP3   OH211191   3.221   3.187   2.847
 3745TIP3    H111192   3.282   3.111   2.853
 3745TIP3    H211193   3.284   3.260   2.834
 3746TIP3   OH211194   3.024   3.464   2.911
 3746TIP3    H111195   3.076   3.459   2.827
 3746TIP3    H211196   3.068   3.537   2.956
 3747TIP3   OH211197   4.966   3.498   3.064
 3747TIP3    H111198   4.879   3.538   3.082
 3747TIP3    H211199   4.938   3.422   3.009
 3748TIP3   OH211200   4.602   3.135   1.652
 3748TIP3    H111201   4.646   3.064   1.601
 3748TIP3    H211202   4.671   3.205   1.653
 3749TIP3   OH211203   3.012   2.968   2.420
 3749TIP3    H111204   2.918   2.956   2.442
 3749TIP3    H211205   3.008   3.023   2.339
 3750TIP3   OH211206   4.168   4.672   1.921
 3750TIP3    H111207   4.217   4.658   1.837
 3750TIP3    H211208   4.227   4.734   1.966
 3751TIP3   OH211209   3.232   3.053   3.232
 3751TIP3    H111210   3.180   3.041   3.312
 3751TIP3    H211211   3.163   3.077   3.167
 3752TIP3   OH211212   3.271   4.476   3.300
 3752TIP3    H111213   3.178   4.448   3.293
 3752TIP3    H211214   3.291   4.459   3.393
 3753TIP3   OH211215   3.451   4.507   2.850
 3753TIP3    H111216   3.406   4.585   2.811
 3753TIP3    H211217   3.538   4.519   2.807
 3754TIP3   OH211218   3.891   4.750   2.990
 3754TIP3    H111219   3.934   4.748   3.078
 3754TIP3    H211220   3.957   4.801   2.938
 3755TIP3   OH211221   4.071   4.903   2.851
 3755TIP3    H111222   4.141   4.853   2.807
 3755TIP3    H211223   4.124   4.959   2.912
 3756TIP3   OH211224   4.866   3.257   2.950
 3756TIP3    H111225   4.775   3.239   2.920
 3756TIP3    H211226   4.905   3.167   2.941
 3757TIP3   OH211227   3.123   4.758   2.879
 3757TIP3    H111228   3.033   4.791   2.858
 3757TIP3    H211229   3.143   4.810   2.958
 3758TIP3   OH211230   3.361   4.740   2.736
 3758TIP3    H111231   3.273   4.752   2.778
 3758TIP3    H211232   3.344   4.773   2.646
 3759TIP3   OH211233   3.787   4.767   2.535
 3759TIP3    H111234   3.721   4.787   2.466
 3759TIP3    H211235   3.800   4.855   2.576
 3760TIP3   OH211236   4.058   4.706   2.587
 3760TIP3    H111237   3.964   4.725   2.566
 3760TIP3    H211238   4.104   4.778   2.541
 3761TIP3   OH211239   4.261   4.897   2.497
 3761TIP3    H111240   4.249   4.981   2.449
 3761TIP3    H211241   4.290   4.837   2.424
 3762TIP3   OH211242   3.037   4.553   2.618
 3762TIP3    H111243   3.063   4.527   2.709
 3762TIP3    H211244   3.111   4.510   2.569
 3763TIP3   OH211245   3.234   4.426   2.479
 3763TIP3    H111246   3.250   4.342   2.528
 3763TIP3    H211247   3.324   4.463   2.476
 3764TIP3   OH211248   3.498   4.519   2.487
 3764TIP3    H111249   3.532   4.428   2.475
 3764TIP3    H211250   3.547   4.543   2.568
 3765TIP3   OH211251   4.060   3.170   2.554
 3765TIP3    H111252   4.027   3.101   2.614
 3765TIP3    H211253   4.144   3.131   2.521
 3766TIP3   OH211254   4.590   3.057   2.469
 3766TIP3    H111255   4.629   3.109   2.395
 3766TIP3    H211256   4.496   3.081   2.464
 3767TIP3   OH211257   4.689   3.158   2.234
 3767TIP3    H111258   4.764   3.105   2.200
 3767TIP3    H211259   4.726   3.249   2.220
 3768TIP3   OH211260   3.321   2.884   2.582
 3768TIP3    H111261   3.229   2.850   2.588
 3768TIP3    H211262   3.370   2.800   2.579
 3769TIP3   OH211263   3.112   2.757   2.235
 3769TIP3    H111264   3.141   2.812   2.160
 3769TIP3    H211265   3.087   2.824   2.301
 3770TIP3   OH211266   3.765   2.922   2.469
 3770TIP3    H111267   3.821   2.966   2.404
 3770TIP3    H211268   3.803   2.952   2.553
 3771TIP3   OH211269   4.302   3.064   2.450
 3771TIP3    H111270   4.317   3.020   2.366
 3771TIP3    H211271   4.294   2.987   2.510
 3772TIP3   OH211272   4.342   2.989   2.011
 3772TIP3    H111273   4.256   3.031   2.029
 3772TIP3    H211274   4.330   2.903   2.058
 3773TIP3   OH211275   2.825   4.334   2.019
 3773TIP3    H111276   2.740   4.301   1.985
 3773TIP3    H211277   2.819   4.426   1.987
 3774TIP3   OH211278   3.229   2.915   1.994
 3774TIP3    H111279   3.276   2.850   1.938
 3774TIP3    H211280   3.304   2.967   2.029
 3775TIP3   OH211281   3.737   3.094   2.095
 3775TIP3    H111282   3.797   3.046   2.154
 3775TIP3    H211283   3.760   3.186   2.120
 3776TIP3   OH211284   3.599   4.512   1.596
 3776TIP3    H111285   3.687   4.535   1.560
 3776TIP3    H211286   3.577   4.438   1.535
 3777TIP3   OH211287   4.310   4.634   1.689
 3777TIP3    H111288   4.305   4.537   1.676
 3777TIP3    H211289   4.272   4.665   1.605
 3778TIP3   OH211290   3.529   3.166   3.478
 3778TIP3    H111291   3.496   3.092   3.531
 3778TIP3    H211292   3.624   3.165   3.504
 3779TIP3   OH211293   3.780   3.163   3.593
 3779TIP3    H111294   3.866   3.136   3.555
 3779TIP3    H211295   3.769   3.095   3.664
 3780TIP3   OH211296   2.901   4.346   1.648
 3780TIP3    H111297   2.911   4.377   1.739
 3780TIP3    H211298   2.988   4.304   1.630
 3781TIP3   OH211299   4.604   3.228   3.381
 3781TIP3    H111300   4.621   3.193   3.471
 3781TIP3    H211301   4.692   3.218   3.340
 3782TIP3   OH211302   4.539   4.777   2.877
 3782TIP3    H111303   4.463   4.747   2.824
 3782TIP3    H211304   4.521   4.873   2.880
 3783TIP3   OH211305   5.810   4.154   1.636
 3783TIP3    H111306   5.779   4.244   1.614
 3783TIP3    H211307   5.734   4.101   1.607
 3784TIP3   OH211308   5.810   4.152   2.026
 3784TIP3    H111309   5.845   4.125   2.113
 3784TIP3    H211310   5.769   4.069   1.996
 3785TIP3   OH211311   5.105   4.044   2.391
 3785TIP3    H111312   5.135   3.974   2.452
 3785TIP3    H211313   5.188   4.091   2.374
 3786TIP3   OH211314   6.055   4.454   1.705
 3786TIP3    H111315   6.037   4.384   1.770
 3786TIP3    H211316   6.084   4.528   1.761
 3787TIP3   OH211317   5.082   4.456   2.112
 3787TIP3    H111318   5.073   4.358   2.112
 3787TIP3    H211319   5.178   4.465   2.100
 3788TIP3   OH211320   4.787   3.655   1.891
 3788TIP3    H111321   4.741   3.738   1.910
 3788TIP3    H211322   4.714   3.604   1.850
 3789TIP3   OH211323   4.843   3.944   2.072
 3789TIP3    H111324   4.893   3.866   2.105
 3789TIP3    H211325   4.905   3.982   2.008
 3790TIP3   OH211326   5.708   4.918   1.723
 3790TIP3    H111327   5.749   4.847   1.669
 3790TIP3    H211328   5.694   4.872   1.806
 3791TIP3   OH211329   5.607   4.378   2.070
 3791TIP3    H111330   5.646   4.299   2.028
 3791TIP3    H211331   5.689   4.424   2.094
 3792TIP3   OH211332   6.641   3.696   2.058
 3792TIP3    H111333   6.659   3.780   2.106
 3792TIP3    H211334   6.654   3.723   1.966
 3793TIP3   OH211335   6.020   3.883   2.097
 3793TIP3    H111336   6.058   3.796   2.121
 3793TIP3    H211337   5.986   3.863   2.008
 3794TIP3   OH211338   5.358   3.537   2.066
 3794TIP3    H111339   5.341   3.609   2.002
 3794TIP3    H211340   5.310   3.464   2.023
 3795TIP3   OH211341   6.056   3.627   1.686
 3795TIP3    H111342   6.124   3.611   1.754
 3795TIP3    H211343   6.111   3.664   1.615
 3796TIP3   OH211344   4.993   3.739   2.172
 3796TIP3    H111345   5.075   3.720   2.221
 3796TIP3    H211346   5.008   3.683   2.093
 3797TIP3   OH211347   5.431   3.936   1.973
 3797TIP3    H111348   5.525   3.912   1.984
 3797TIP3    H211349   5.394   3.852   1.939
 3798TIP3   OH211350   6.698   3.908   2.231
 3798TIP3    H111351   6.611   3.948   2.210
 3798TIP3    H211352   6.695   3.918   2.328
 3799TIP3   OH211353   5.356   3.523   2.500
 3799TIP3    H111354   5.294   3.558   2.434
 3799TIP3    H211355   5.304   3.535   2.582
 3800TIP3   OH211356   5.699   4.373   1.504
 3800TIP3    H111357   5.655   4.357   1.419
 3800TIP3    H211358   5.654   4.454   1.534
 3801TIP3   OH211359   5.462   4.297   2.292
 3801TIP3    H111360   5.402   4.365   2.329
 3801TIP3    H211361   5.503   4.345   2.217
 3802TIP3   OH211362   6.258   3.633   1.867
 3802TIP3    H111363   6.231   3.597   1.953
 3802TIP3    H211364   6.308   3.712   1.895
 3803TIP3   OH211365   5.225   3.636   2.284
 3803TIP3    H111366   5.289   3.706   2.310
 3803TIP3    H211367   5.275   3.595   2.210
 3804TIP3   OH211368   5.291   4.494   2.395
 3804TIP3    H111369   5.265   4.579   2.356
 3804TIP3    H211370   5.211   4.475   2.449
 3805TIP3   OH211371   4.678   4.182   1.630
 3805TIP3    H111372   4.643   4.211   1.543
 3805TIP3    H211373   4.713   4.266   1.666
 3806TIP3   OH211374   6.123   4.700   1.870
 3806TIP3    H111375   6.033   4.689   1.910
 3806TIP3    H211376   6.112   4.785   1.823
 3807TIP3   OH211377   6.449   3.620   2.267
 3807TIP3    H111378   6.366   3.570   2.258
 3807TIP3    H211379   6.478   3.631   2.174
 3808TIP3   OH211380   5.697   3.237   2.202
 3808TIP3    H111381   5.695   3.144   2.232
 3808TIP3    H211382   5.624   3.275   2.256
 3809TIP3   OH211383   5.822   4.743   1.541
 3809TIP3    H111384   5.871   4.659   1.524
 3809TIP3    H211385   5.885   4.807   1.502
 3810TIP3   OH211386   5.966   4.527   1.455
 3810TIP3    H111387   5.921   4.449   1.421
 3810TIP3    H211388   6.005   4.492   1.538
 3811TIP3   OH211389   6.348   4.608   2.213
 3811TIP3    H111390   6.335   4.530   2.155
 3811TIP3    H211391   6.330   4.682   2.151
 3812TIP3   OH211392   5.641   4.001   1.473
 3812TIP3    H111393   5.560   4.054   1.455
 3812TIP3    H211394   5.685   4.002   1.386
 3813TIP3   OH211395   5.597   3.790   1.182
 3813TIP3    H111396   5.662   3.841   1.234
 3813TIP3    H211397   5.657   3.727   1.137
 3814TIP3   OH211398   6.544   4.252   2.060
 3814TIP3    H111399   6.458   4.300   2.064
 3814TIP3    H211400   6.572   4.274   1.969
 3815TIP3   OH211401   5.989   4.085   1.441
 3815TIP3    H111402   5.934   4.109   1.519
 3815TIP3    H211403   6.073   4.061   1.486
 3816TIP3   OH211404   6.221   4.125   2.355
 3816TIP3    H111405   6.217   4.207   2.407
 3816TIP3    H211406   6.134   4.127   2.311
 3817TIP3   OH211407   5.220   4.081   1.861
 3817TIP3    H111408   5.180   4.024   1.793
 3817TIP3    H211409   5.296   4.027   1.891
 3818TIP3   OH211410   5.347   4.492   2.008
 3818TIP3    H111411   5.326   4.461   1.918
 3818TIP3    H211412   5.436   4.454   2.023
 3819TIP3   OH211413   5.349   4.055   2.215
 3819TIP3    H111414   5.385   4.026   2.128
 3819TIP3    H211415   5.397   4.139   2.231
 3820TIP3   OH211416   5.883   4.692   1.992
 3820TIP3    H111417   5.869   4.771   2.048
 3820TIP3    H211418   5.866   4.618   2.053
 3821TIP3   OH211419   5.495   4.612   2.539
 3821TIP3    H111420   5.432   4.672   2.584
 3821TIP3    H211421   5.432   4.557   2.487
 3822TIP3   OH211422   5.828   3.943   1.268
 3822TIP3    H111423   5.886   4.005   1.319
 3822TIP3    H211424   5.854   3.964   1.175
 3823TIP3   OH211425   5.251   4.166   2.645
 3823TIP3    H111426   5.253   4.254   2.686
 3823TIP3    H211427   5.156   4.144   2.653
 3824TIP3   OH211428   5.573   4.619   1.543
 3824TIP3    H111429   5.654   4.673   1.553
 3824TIP3    H211430   5.511   4.681   1.503
 3825TIP3   OH211431   5.288   4.778   2.625
 3825TIP3    H111432   5.254   4.780   2.534
 3825TIP3    H211433   5.207   4.755   2.676
 3826TIP3   OH211434   6.343   3.181   1.318
 3826TIP3    H111435   6.261   3.202   1.369
 3826TIP3    H211436   6.357   3.265   1.270
 3827TIP3   OH211437   5.087   3.927   1.662
 3827TIP3    H111438   5.018   3.970   1.607
 3827TIP3    H211439   5.050   3.839   1.675
 3828TIP3   OH211440   6.142   4.548   0.866
 3828TIP3    H111441   6.150   4.645   0.852
 3828TIP3    H211442   6.235   4.520   0.857
 3829TIP3   OH211443   4.866   4.310   2.572
 3829TIP3    H111444   4.801   4.288   2.503
 3829TIP3    H211445   4.905   4.223   2.594
 3830TIP3   OH211446   4.723   4.500   2.207
 3830TIP3    H111447   4.818   4.493   2.191
 3830TIP3    H211448   4.717   4.580   2.261
 3831TIP3   OH211449   6.585   4.956   2.262
 3831TIP3    H111450   6.584   4.859   2.276
 3831TIP3    H211451   6.501   4.980   2.308
 3832TIP3   OH211452   5.691   4.739   2.396
 3832TIP3    H111453   5.687   4.831   2.428
 3832TIP3    H211454   5.619   4.698   2.449
 3833TIP3   OH211455   5.456   4.865   1.352
 3833TIP3    H111456   5.415   4.845   1.265
 3833TIP3    H211457   5.419   4.952   1.373
 3834TIP3   OH211458   4.882   4.717   1.736
 3834TIP3    H111459   4.936   4.707   1.817
 3834TIP3    H211460   4.835   4.632   1.735
 3835TIP3   OH211461   5.657   4.774   0.984
 3835TIP3    H111462   5.715   4.703   0.950
 3835TIP3    H211463   5.689   4.784   1.076
 3836TIP3   OH211464   5.706   4.819   1.255
 3836TIP3    H111465   5.616   4.829   1.293
 3836TIP3    H211466   5.752   4.776   1.328
 3837TIP3   OH211467   6.475   4.082   2.523
 3837TIP3    H111468   6.388   4.089   2.483
 3837TIP3    H211469   6.493   3.986   2.515
 3838TIP3   OH211470   5.070   4.494   2.558
 3838TIP3    H111471   5.121   4.474   2.640
 3838TIP3    H211472   4.997   4.430   2.564
 3839TIP3   OH211473   5.469   3.316   2.346
 3839TIP3    H111474   5.380   3.285   2.318
 3839TIP3    H211475   5.443   3.394   2.398
 3840TIP3   OH211476   5.998   3.466   2.570
 3840TIP3    H111477   6.071   3.402   2.574
 3840TIP3    H211478   5.920   3.409   2.580
 3841TIP3   OH211479   6.252   3.869   2.468
 3841TIP3    H111480   6.193   3.862   2.547
 3841TIP3    H211481   6.219   3.948   2.423
 3842TIP3   OH211482   5.901   3.982   1.010
 3842TIP3    H111483   5.869   3.960   0.921
 3842TIP3    H211484   5.983   4.031   0.989
 3843TIP3   OH211485   5.616   3.363   1.318
 3843TIP3    H111486   5.583   3.359   1.410
 3843TIP3    H211487   5.576   3.281   1.283
 3844TIP3   OH211488   5.403   3.833   2.364
 3844TIP3    H111489   5.352   3.853   2.446
 3844TIP3    H211490   5.386   3.914   2.311
 3845TIP3   OH211491   5.286   3.719   1.877
 3845TIP3    H111492   5.194   3.692   1.897
 3845TIP3    H211493   5.298   3.676   1.789
 3846TIP3   OH211494   5.778   3.803   1.608
 3846TIP3    H111495   5.727   3.873   1.563
 3846TIP3    H211496   5.832   3.768   1.534
 3847TIP3   OH211497   5.952   4.081   2.694
 3847TIP3    H111498   5.930   4.006   2.754
 3847TIP3    H211499   6.048   4.089   2.710
 3848TIP3   OH211500   5.934   3.830   1.841
 3848TIP3    H111501   5.870   3.854   1.771
 3848TIP3    H211502   5.970   3.748   1.800
 3849TIP3   OH211503   5.221   3.859   2.572
 3849TIP3    H111504   5.258   3.918   2.640
 3849TIP3    H211505   5.211   3.775   2.623
 3850TIP3   OH211506   5.270   3.337   1.281
 3850TIP3    H111507   5.264   3.336   1.378
 3850TIP3    H211508   5.194   3.394   1.258
 3851TIP3   OH211509   4.817   3.380   2.151
 3851TIP3    H111510   4.889   3.414   2.209
 3851TIP3    H211511   4.864   3.350   2.072
 3852TIP3   OH211512   4.779   3.360   1.671
 3852TIP3    H111513   4.828   3.396   1.593
 3852TIP3    H211514   4.721   3.436   1.690
 3853TIP3   OH211515   5.945   4.077   2.267
 3853TIP3    H111516   5.978   4.007   2.206
 3853TIP3    H211517   5.914   4.021   2.341
 3854TIP3   OH211518   5.614   3.550   1.937
 3854TIP3    H111519   5.538   3.541   1.998
 3854TIP3    H211520   5.689   3.523   1.994
 3855TIP3   OH211521   5.049   3.596   1.945
 3855TIP3    H111522   4.955   3.602   1.916
 3855TIP3    H211523   5.073   3.504   1.923
 3856TIP3   OH211524   5.313   3.589   1.638
 3856TIP3    H111525   5.407   3.605   1.618
 3856TIP3    H211526   5.268   3.611   1.553
 3857TIP3   OH211527   6.099   3.621   2.135
 3857TIP3    H111528   6.075   3.628   2.230
 3857TIP3    H211529   6.054   3.539   2.111
 3858TIP3   OH211530   5.163   3.624   1.412
 3858TIP3    H111531   5.091   3.582   1.363
 3858TIP3    H211532   5.215   3.663   1.338
 3859TIP3   OH211533   6.279   5.305   2.361
 3859TIP3    H111534   6.276   5.328   2.266
 3859TIP3    H211535   6.359   5.352   2.391
 3860TIP3   OH211536   5.233   4.417   2.780
 3860TIP3    H111537   5.313   4.443   2.828
 3860TIP3    H211538   5.169   4.412   2.854
 3861TIP3   OH211539   5.696   3.871   2.039
 3861TIP3    H111540   5.766   3.826   1.990
 3861TIP3    H211541   5.697   3.824   2.124
 3862TIP3   OH211542   5.213   3.355   1.918
 3862TIP3    H111543   5.178   3.278   1.969
 3862TIP3    H211544   5.270   3.311   1.854
 3863TIP3   OH211545   5.673   3.771   2.317
 3863TIP3    H111546   5.582   3.802   2.338
 3863TIP3    H211547   5.729   3.828   2.372
 3864TIP3   OH211548   5.413   4.152   1.422
 3864TIP3    H111549   5.337   4.091   1.407
 3864TIP3    H211550   5.390   4.187   1.511
 3865TIP3   OH211551   6.307   4.392   2.047
 3865TIP3    H111552   6.330   4.443   1.966
 3865TIP3    H211553   6.224   4.347   2.021
 3866TIP3   OH211554   5.864   3.470   1.276
 3866TIP3    H111555   5.770   3.447   1.293
 3866TIP3    H211556   5.873   3.561   1.310
 3867TIP3   OH211557   5.811   4.476   2.416
 3867TIP3    H111558   5.838   4.452   2.505
 3867TIP3    H211559   5.770   4.563   2.427
 3868TIP3   OH211560   5.935   3.714   1.388
 3868TIP3    H111561   6.031   3.721   1.407
 3868TIP3    H211562   5.917   3.797   1.340
 3869TIP3   OH211563   5.102   4.177   2.094
 3869TIP3    H111564   5.139   4.150   2.007
 3869TIP3    H211565   5.151   4.120   2.154
 3870TIP3   OH211566   5.551   4.309   1.246
 3870TIP3    H111567   5.499   4.392   1.247
 3870TIP3    H211568   5.498   4.252   1.305
 3871TIP3   OH211569   4.983   4.099   2.711
 3871TIP3    H111570   5.002   4.082   2.805
 3871TIP3    H211571   4.917   4.031   2.691
 3872TIP3   OH211572   5.712   4.215   2.728
 3872TIP3    H111573   5.651   4.155   2.682
 3872TIP3    H211574   5.798   4.177   2.701
 3873TIP3   OH211575   5.968   4.740   2.313
 3873TIP3    H111576   5.872   4.732   2.327
 3873TIP3    H211577   5.995   4.789   2.393
 3874TIP3   OH211578   6.377   3.808   1.222
 3874TIP3    H111579   6.316   3.764   1.159
 3874TIP3    H211580   6.374   3.898   1.184
 3875TIP3   OH211581   6.599   4.668   2.300
 3875TIP3    H111582   6.501   4.659   2.294
 3875TIP3    H211583   6.624   4.635   2.211
 3876TIP3   OH211584   6.087   4.625   1.133
 3876TIP3    H111585   6.051   4.557   1.193
 3876TIP3    H211586   6.093   4.578   1.049
 3877TIP3   OH211587   6.075   4.255   1.963
 3877TIP3    H111588   5.982   4.229   1.978
 3877TIP3    H211589   6.108   4.173   1.921
 3878TIP3   OH211590   5.207   4.480   1.732
 3878TIP3    H111591   5.202   4.566   1.683
 3878TIP3    H211592   5.114   4.456   1.733
 3879TIP3   OH211593   4.769   3.785   1.426
 3879TIP3    H111594   4.813   3.870   1.445
 3879TIP3    H211595   4.693   3.790   1.488
 3880TIP3   OH211596   5.337   4.245   1.663
 3880TIP3    H111597   5.304   4.335   1.684
 3880TIP3    H211598   5.302   4.194   1.738
 3881TIP3   OH211599   5.474   4.824   2.190
 3881TIP3    H111600   5.516   4.896   2.139
 3881TIP3    H211601   5.551   4.786   2.235
 3882TIP3   OH211602   5.141   4.718   1.607
 3882TIP3    H111603   5.045   4.726   1.615
 3882TIP3    H211604   5.165   4.809   1.581
 3883TIP3   OH211605   5.860   4.460   2.148
 3883TIP3    H111606   5.849   4.457   2.246
 3883TIP3    H211607   5.936   4.402   2.137
 3884TIP3   OH211608   5.839   4.353   1.032
 3884TIP3    H111609   5.888   4.326   1.113
 3884TIP3    H211610   5.749   4.324   1.054
 3885TIP3   OH211611   6.109   4.991   2.200
 3885TIP3    H111612   6.030   4.934   2.195
 3885TIP3    H211613   6.091   5.054   2.127
 3886TIP3   OH211614   6.172   4.821   0.851
 3886TIP3    H111615   6.196   4.880   0.778
 3886TIP3    H211616   6.097   4.872   0.889
 3887TIP3   OH211617   5.192   3.605   2.714
 3887TIP3    H111618   5.095   3.601   2.724
 3887TIP3    H211619   5.220   3.541   2.782
 3888TIP3   OH211620   5.999   4.283   1.246
 3888TIP3    H111621   5.988   4.220   1.320
 3888TIP3    H211622   6.096   4.280   1.235
 3889TIP3   OH211623   4.910   4.687   2.349
 3889TIP3    H111624   4.964   4.612   2.379
 3889TIP3    H211625   4.944   4.758   2.404
 3890TIP3   OH211626   5.231   4.315   1.030
 3890TIP3    H111627   5.223   4.220   1.010
 3890TIP3    H211628   5.192   4.320   1.119
 3891TIP3   OH211629   5.152   4.333   1.292
 3891TIP3    H111630   5.219   4.326   1.360
 3891TIP3    H211631   5.124   4.426   1.298
 3892TIP3   OH211632   4.878   4.031   1.507
 3892TIP3    H111633   4.812   4.077   1.564
 3892TIP3    H211634   4.892   4.099   1.438
 3893TIP3   OH211635   6.034   3.679   2.405
 3893TIP3    H111636   6.125   3.698   2.433
 3893TIP3    H211637   6.013   3.602   2.463
 3894TIP3   OH211638   5.918   3.414   1.567
 3894TIP3    H111639   5.904   3.441   1.475
 3894TIP3    H211640   5.956   3.496   1.607
 3895TIP3   OH211641   5.406   4.538   1.254
 3895TIP3    H111642   5.339   4.584   1.305
 3895TIP3    H211643   5.423   4.604   1.185
 3896TIP3   OH211644   5.595   3.601   1.668
 3896TIP3    H111645   5.660   3.673   1.654
 3896TIP3    H211646   5.602   3.589   1.765
 3897TIP3   OH211647   5.872   3.911   2.470
 3897TIP3    H111648   5.899   3.954   2.553
 3897TIP3    H211649   5.925   3.829   2.469
 3898TIP3   OH211650   5.744   3.317   1.766
 3898TIP3    H111651   5.760   3.381   1.838
 3898TIP3    H211652   5.805   3.353   1.697
 3899TIP3   OH211653   5.257   3.325   1.556
 3899TIP3    H111654   5.254   3.414   1.597
 3899TIP3    H211655   5.353   3.307   1.566
 3900TIP3   OH211656   6.514   3.813   2.450
 3900TIP3    H111657   6.418   3.824   2.468
 3900TIP3    H211658   6.506   3.747   2.378
 3901TIP3   OH211659   6.161   4.011   1.843
 3901TIP3    H111660   6.084   3.953   1.857
 3901TIP3    H211661   6.232   3.963   1.892
 3902TIP3   OH211662   4.866   4.242   1.314
 3902TIP3    H111663   4.889   4.336   1.304
 3902TIP3    H211664   4.929   4.201   1.252
 3903TIP3   OH211665   4.815   3.515   1.447
 3903TIP3    H111666   4.821   3.613   1.445
 3903TIP3    H211667   4.733   3.499   1.400
 3904TIP3   OH211668   6.130   4.971   1.791
 3904TIP3    H111669   6.087   5.018   1.717
 3904TIP3    H211670   6.224   4.988   1.769
 3905TIP3   OH211671   5.202   3.236   2.319
 3905TIP3    H111672   5.175   3.198   2.233
 3905TIP3    H211673   5.193   3.158   2.379
 3906TIP3   OH211674   4.749   4.448   1.700
 3906TIP3    H111675   4.675   4.483   1.751
 3906TIP3    H211676   4.728   4.487   1.613
 3907TIP3   OH211677   4.903   5.000   2.773
 3907TIP3    H111678   4.991   4.999   2.817
 3907TIP3    H211679   4.884   4.905   2.769
 3908TIP3   OH211680   5.381   4.955   2.818
 3908TIP3    H111681   5.476   4.936   2.820
 3908TIP3    H211682   5.353   4.896   2.745
 3909TIP3   OH211683   5.362   4.535   0.939
 3909TIP3    H111684   5.305   4.465   0.979
 3909TIP3    H211685   5.437   4.481   0.912
 3910TIP3   OH211686   6.018   4.870   2.553
 3910TIP3    H111687   6.012   4.798   2.620
 3910TIP3    H211688   6.097   4.918   2.581
 3911TIP3   OH211689   5.799   4.573   0.862
 3911TIP3    H111690   5.838   4.505   0.921
 3911TIP3    H211691   5.855   4.567   0.782
 3912TIP3   OH211692   5.031   4.404   2.973
 3912TIP3    H111693   5.049   4.308   2.978
 3912TIP3    H211694   4.945   4.405   2.925
 3913TIP3   OH211695   5.010   4.048   1.168
 3913TIP3    H111696   5.067   4.026   1.243
 3913TIP3    H211697   5.077   4.055   1.097
 3914TIP3   OH211698   5.636   4.490   2.747
 3914TIP3    H111699   5.597   4.509   2.659
 3914TIP3    H211700   5.668   4.397   2.736
 3915TIP3   OH211701   5.542   4.252   0.972
 3915TIP3    H111702   5.524   4.267   1.067
 3915TIP3    H211703   5.528   4.155   0.967
 3916TIP3   OH211704   6.132   4.501   2.355
 3916TIP3    H111705   6.208   4.543   2.310
 3916TIP3    H211706   6.062   4.566   2.336
 3917TIP3   OH211707   5.152   4.144   2.953
 3917TIP3    H111708   5.226   4.088   2.925
 3917TIP3    H211709   5.182   4.172   3.042
 3918TIP3   OH211710   5.216   3.958   1.386
 3918TIP3    H111711   5.189   3.919   1.471
 3918TIP3    H211712   5.252   3.882   1.338
 3919TIP3   OH211713   5.485   4.020   2.617
 3919TIP3    H111714   5.407   4.080   2.616
 3919TIP3    H211715   5.538   4.055   2.541
 3920TIP3   OH211716   5.319   3.751   1.226
 3920TIP3    H111717   5.294   3.763   1.132
 3920TIP3    H211718   5.417   3.755   1.220
 3921TIP3   OH211719   6.008   4.425   2.749
 3921TIP3    H111720   6.082   4.391   2.698
 3921TIP3    H211721   5.998   4.357   2.818
 3922TIP3   OH211722   6.137   4.079   0.894
 3922TIP3    H111723   6.117   4.036   0.809
 3922TIP3    H211724   6.104   4.169   0.874
 3923TIP3   OH211725   5.610   3.811   2.740
 3923TIP3    H111726   5.612   3.731   2.682
 3923TIP3    H211727   5.565   3.876   2.682
 3924TIP3   OH211728   5.613   3.602   2.551
 3924TIP3    H111729   5.643   3.635   2.464
 3924TIP3    H211730   5.520   3.576   2.531
 3925TIP3   OH211731   5.636   4.133   2.426
 3925TIP3    H111732   5.721   4.139   2.382
 3925TIP3    H211733   5.581   4.197   2.376
 3926TIP3   OH211734   6.225   4.100   2.804
 3926TIP3    H111735   6.261   4.010   2.800
 3926TIP3    H211736   6.300   4.153   2.774
 3927TIP3   OH211737   6.260   4.354   2.541
 3927TIP3    H111738   6.203   4.408   2.481
 3927TIP3    H211739   6.348   4.371   2.501
 3928TIP3   OH211740   5.489   3.918   2.974
 3928TIP3    H111741   5.423   3.848   2.990
 3928TIP3    H211742   5.522   3.893   2.885
 3929TIP3   OH211743   5.739   3.359   2.630
 3929TIP3    H111744   5.692   3.440   2.602
 3929TIP3    H211745   5.673   3.289   2.611
 3930TIP3   OH211746   5.867   3.862   2.833
 3930TIP3    H111747   5.849   3.846   2.928
 3930TIP3    H211748   5.780   3.837   2.797
 3931TIP3   OH211749   6.113   3.829   2.696
 3931TIP3    H111750   6.035   3.814   2.752
 3931TIP3    H211751   6.184   3.786   2.747
 3932TIP3   OH211752   6.350   3.761   2.840
 3932TIP3    H111753   6.356   3.664   2.852
 3932TIP3    H211754   6.339   3.793   2.932
 3933TIP3   OH211755   5.327   3.702   3.030
 3933TIP3    H111756   5.326   3.610   2.996
 3933TIP3    H211757   5.364   3.687   3.119
 3934TIP3   OH211758   5.828   3.356   2.889
 3934TIP3    H111759   5.903   3.295   2.871
 3934TIP3    H211760   5.793   3.364   2.798
 3935TIP3   OH211761   5.904   3.582   3.035
 3935TIP3    H111762   5.882   3.511   2.971
 3935TIP3    H211763   5.826   3.641   3.027
 3936TIP3   OH211764   4.603   4.192   1.352
 3936TIP3    H111765   4.696   4.217   1.336
 3936TIP3    H211766   4.600   4.104   1.308
 3937TIP3   OH211767   4.517   4.809   1.769
 3937TIP3    H111768   4.459   4.745   1.723
 3937TIP3    H211769   4.565   4.749   1.830
 3938TIP3   OH211770   4.653   4.655   1.953
 3938TIP3    H111771   4.646   4.581   2.015
 3938TIP3    H211772   4.709   4.716   2.003
 3939TIP3   OH211773   6.386   5.055   1.752
 3939TIP3    H111774   6.412   5.087   1.841
 3939TIP3    H211775   6.450   5.101   1.695
 3940TIP3   OH211776   6.413   5.077   2.034
 3940TIP3    H111777   6.366   4.991   2.029
 3940TIP3    H211778   6.487   5.051   2.092
 3941TIP3   OH211779   6.455   4.760   2.602
 3941TIP3    H111780   6.385   4.767   2.670
 3941TIP3    H211781   6.500   4.846   2.610
 3942TIP3   OH211782   6.277   4.265   1.225
 3942TIP3    H111783   6.342   4.331   1.195
 3942TIP3    H211784   6.322   4.229   1.305
 3943TIP3   OH211785   6.404   4.134   1.431
 3943TIP3    H111786   6.337   4.092   1.488
 3943TIP3    H211787   6.468   4.170   1.495
 3944TIP3   OH211788   6.461   4.530   1.862
 3944TIP3    H111789   6.513   4.460   1.816
 3944TIP3    H211790   6.455   4.599   1.793
 3945TIP3   OH211791   6.287   4.830   2.054
 3945TIP3    H111792   6.214   4.868   2.106
 3945TIP3    H211793   6.239   4.783   1.982
 3946TIP3   OH211794   6.341   4.043   1.073
 3946TIP3    H111795   6.269   4.045   1.006
 3946TIP3    H211796   6.312   4.118   1.129
 3947TIP3   OH211797   6.215   3.713   1.025
 3947TIP3    H111798   6.164   3.752   0.953
 3947TIP3    H211799   6.191   3.618   1.016
 3948TIP3   OH211800   6.216   3.993   1.575
 3948TIP3    H111801   6.223   3.897   1.568
 3948TIP3    H211802   6.201   4.006   1.672
 3949TIP3   OH211803   4.841   4.066   2.323
 3949TIP3    H111804   4.839   4.031   2.232
 3949TIP3    H211805   4.938   4.067   2.340
 3950TIP3   OH211806   6.506   4.416   2.429
 3950TIP3    H111807   6.577   4.348   2.422
 3950TIP3    H211808   6.532   4.481   2.363
 3951TIP3   OH211809   6.693   4.220   2.443
 3951TIP3    H111810   6.615   4.170   2.477
 3951TIP3    H211811   6.763   4.154   2.460
 3952TIP3   OH211812   6.157   3.446   1.005
 3952TIP3    H111813   6.228   3.418   1.067
 3952TIP3    H211814   6.081   3.391   1.033
 3953TIP3   OH211815   6.214   3.709   1.466
 3953TIP3    H111816   6.253   3.620   1.481
 3953TIP3    H211817   6.273   3.741   1.396
 3954TIP3   OH211818   6.373   3.877   1.962
 3954TIP3    H111819   6.459   3.904   1.924
 3954TIP3    H211820   6.386   3.910   2.054
 3955TIP3   OH211821   6.446   4.026   2.191
 3955TIP3    H111822   6.369   4.057   2.242
 3955TIP3    H211823   6.478   4.109   2.150
 3956TIP3   OH211824   5.061   3.753   3.004
 3956TIP3    H111825   5.159   3.745   3.002
 3956TIP3    H211826   5.037   3.664   3.037
 3957TIP3   OH211827   6.915   3.616   2.753
 3957TIP3    H111828   6.968   3.551   2.701
 3957TIP3    H211829   6.871   3.665   2.681
 3958TIP3   OH211830   6.321   3.459   1.503
 3958TIP3    H111831   6.369   3.445   1.587
 3958TIP3    H211832   6.260   3.383   1.504
 3959TIP3   OH211833   5.019   3.445   2.329
 3959TIP3    H111834   5.079   3.368   2.337
 3959TIP3    H211835   5.085   3.517   2.319
 3960TIP3   OH211836   4.820   3.719   2.394
 3960TIP3    H111837   4.872   3.713   2.312
 3960TIP3    H211838   4.857   3.798   2.435
 3961TIP3   OH211839   6.765   3.746   2.567
 3961TIP3    H111840   6.686   3.798   2.592
 3961TIP3    H211841   6.725   3.685   2.502
 3962TIP3   OH211842   6.399   3.391   1.140
 3962TIP3    H111843   6.440   3.320   1.087
 3962TIP3    H211844   6.467   3.461   1.139
 3963TIP3   OH211845   4.808   3.216   1.897
 3963TIP3    H111846   4.717   3.215   1.929
 3963TIP3    H211847   4.803   3.278   1.821
 3964TIP3   OH211848   5.971   4.926   1.408
 3964TIP3    H111849   6.019   4.914   1.324
 3964TIP3    H211850   6.025   4.993   1.452
 3965TIP3   OH211851   5.031   3.319   2.722
 3965TIP3    H111852   4.977   3.294   2.798
 3965TIP3    H211853   4.962   3.337   2.655
 3966TIP3   OH211854   5.067   4.735   2.790
 3966TIP3    H111855   4.976   4.705   2.772
 3966TIP3    H211856   5.079   4.708   2.881
 3967TIP3   OH211857   5.248   4.767   2.341
 3967TIP3    H111858   5.201   4.842   2.300
 3967TIP3    H211859   5.334   4.778   2.296
 3968TIP3   OH211860   5.688   5.006   2.479
 3968TIP3    H111861   5.732   5.006   2.567
 3968TIP3    H211862   5.753   5.057   2.426
 3969TIP3   OH211863   5.867   5.160   2.339
 3969TIP3    H111864   5.935   5.109   2.293
 3969TIP3    H211865   5.922   5.215   2.398
 3970TIP3   OH211866   6.655   3.520   2.433
 3970TIP3    H111867   6.571   3.530   2.383
 3970TIP3    H211868   6.675   3.425   2.419
 3971TIP3   OH211869   4.921   5.019   2.363
 3971TIP3    H111870   4.832   5.051   2.340
 3971TIP3    H211871   4.933   5.062   2.449
 3972TIP3   OH211872   5.160   5.000   2.224
 3972TIP3    H111873   5.071   5.011   2.265
 3972TIP3    H211874   5.142   5.028   2.132
 3973TIP3   OH211875   5.583   5.023   2.021
 3973TIP3    H111876   5.514   5.039   1.955
 3973TIP3    H211877   5.594   5.112   2.060
 3974TIP3   OH211878   5.853   4.965   2.075
 3974TIP3    H111879   5.759   4.981   2.053
 3974TIP3    H211880   5.897   5.036   2.026
 3975TIP3   OH211881   6.061   5.156   1.985
 3975TIP3    H111882   6.046   5.239   1.935
 3975TIP3    H211883   6.087   5.094   1.912
 3976TIP3   OH211884   4.831   4.810   2.109
 3976TIP3    H111885   4.861   4.783   2.198
 3976TIP3    H211886   4.903   4.768   2.056
 3977TIP3   OH211887   5.027   4.685   1.968
 3977TIP3    H111888   5.045   4.601   2.016
 3977TIP3    H211889   5.118   4.720   1.957
 3978TIP3   OH211890   5.297   4.780   1.971
 3978TIP3    H111891   5.325   4.688   1.953
 3978TIP3    H211892   5.345   4.796   2.055
 3979TIP3   OH211893   5.846   3.420   2.030
 3979TIP3    H111894   5.815   3.355   2.096
 3979TIP3    H211895   5.935   3.386   2.007
 3980TIP3   OH211896   6.394   3.304   1.952
 3980TIP3    H111897   6.423   3.362   1.879
 3980TIP3    H211898   6.304   3.336   1.970
 3981TIP3   OH211899   6.487   3.418   1.717
 3981TIP3    H111900   6.563   3.366   1.683
 3981TIP3    H211901   6.520   3.509   1.705
 3982TIP3   OH211902   5.117   3.140   2.069
 3982TIP3    H111903   5.026   3.107   2.076
 3982TIP3    H211904   5.167   3.056   2.066
 3983TIP3   OH211905   4.898   3.015   1.717
 3983TIP3    H111906   4.933   3.072   1.647
 3983TIP3    H211907   4.876   3.080   1.787
 3984TIP3   OH211908   5.563   3.176   1.955
 3984TIP3    H111909   5.618   3.224   1.891
 3984TIP3    H211910   5.599   3.206   2.040
 3985TIP3   OH211911   6.098   3.327   1.939
 3985TIP3    H111912   6.113   3.283   1.855
 3985TIP3    H211913   6.088   3.249   1.999
 3986TIP3   OH211914   6.138   3.246   1.498
 3986TIP3    H111915   6.054   3.291   1.518
 3986TIP3    H211916   6.125   3.161   1.544
 3987TIP3   OH211917   4.609   4.585   1.519
 3987TIP3    H111918   4.525   4.563   1.474
 3987TIP3    H211919   4.642   4.655   1.461
 3988TIP3   OH211920   5.025   3.173   1.480
 3988TIP3    H111921   5.073   3.109   1.424
 3988TIP3    H211922   5.098   3.226   1.516
 3989TIP3   OH211923   5.535   3.350   1.581
 3989TIP3    H111924   5.594   3.304   1.643
 3989TIP3    H211925   5.555   3.443   1.607
 3990TIP3   OH211926   5.405   4.769   1.095
 3990TIP3    H111927   5.487   4.783   1.044
 3990TIP3    H211928   5.354   4.714   1.032
 3991TIP3   OH211929   6.116   4.892   1.176
 3991TIP3    H111930   6.110   4.794   1.165
 3991TIP3    H211931   6.068   4.922   1.096
 3992TIP3   OH211932   5.323   3.434   2.970
 3992TIP3    H111933   5.287   3.355   3.013
 3992TIP3    H211934   5.417   3.428   2.995
 3993TIP3   OH211935   5.577   3.423   3.084
 3993TIP3    H111936   5.659   3.401   3.037
 3993TIP3    H211937   5.567   3.348   3.146
 3994TIP3   OH211938   6.404   3.490   2.869
 3994TIP3    H111939   6.420   3.454   2.959
 3994TIP3    H211940   6.490   3.476   2.826
 3995TIP3   OH211941   6.337   5.035   2.361
 3995TIP3    H111942   6.259   5.003   2.310
 3995TIP3    H211943   6.316   5.130   2.367
 3996TIP3   OH211944   7.603   4.411   1.127
 3996TIP3    H111945   7.572   4.501   1.103
 3996TIP3    H211946   7.526   4.358   1.101
 3997TIP3   OH211947   7.610   4.398   1.512
 3997TIP3    H111948   7.644   4.341   1.584
 3997TIP3    H211949   7.559   4.333   1.462
 3998TIP3   OH211950   6.902   4.300   1.872
 3998TIP3    H111951   6.930   4.230   1.934
 3998TIP3    H211952   6.982   4.354   1.870
 3999TIP3   OH211953   7.854   4.704   1.192
 3999TIP3    H111954   7.830   4.642   1.263
 3999TIP3    H211955   7.878   4.784   1.242
 4000TIP3   OH211956   6.877   4.713   1.595
 4000TIP3    H111957   6.868   4.616   1.596
 4000TIP3    H211958   6.973   4.722   1.593
 4001TIP3   OH211959   6.585   3.915   1.377
 4001TIP3    H111960   6.535   3.996   1.398
 4001TIP3    H211961   6.513   3.861   1.339
 4002TIP3   OH211962   6.640   4.202   1.560
 4002TIP3    H111963   6.689   4.123   1.593
 4002TIP3    H211964   6.699   4.234   1.490
 4003TIP3   OH211965   7.500   5.175   1.211
 4003TIP3    H111966   7.542   5.102   1.161
 4003TIP3    H211967   7.490   5.134   1.298
 4004TIP3   OH211968   7.403   4.638   1.555
 4004TIP3    H111969   7.441   4.557   1.518
 4004TIP3    H211970   7.487   4.683   1.580
 4005TIP3   OH211971   7.803   4.176   1.583
 4005TIP3    H111972   7.819   4.090   1.626
 4005TIP3    H211973   7.758   4.146   1.502
 4006TIP3   OH211974   7.155   3.793   1.553
 4006TIP3    H111975   7.137   3.866   1.490
 4006TIP3    H211976   7.107   3.720   1.509
 4007TIP3   OH211977   7.840   3.886   1.188
 4007TIP3    H111978   7.907   3.831   1.231
 4007TIP3    H211979   7.894   3.943   1.132
 4008TIP3   OH211980   6.789   3.996   1.660
 4008TIP3    H111981   6.871   3.977   1.709
 4008TIP3    H211982   6.803   3.939   1.581
 4009TIP3   OH211983   7.230   4.193   1.454
 4009TIP3    H111984   7.323   4.166   1.471
 4009TIP3    H211985   7.190   4.108   1.423
 4010TIP3   OH211986   7.150   3.778   1.989
 4010TIP3    H111987   7.091   3.815   1.920
 4010TIP3    H211988   7.097   3.795   2.069
 4011TIP3   OH211989   7.496   4.628   0.992
 4011TIP3    H111990   7.455   4.614   0.905
 4011TIP3    H211991   7.449   4.708   1.023
 4012TIP3   OH211992   7.257   4.555   1.776
 4012TIP3    H111993   7.197   4.622   1.816
 4012TIP3    H211994   7.300   4.606   1.704
 4013TIP3   OH211995   7.023   3.893   1.772
 4013TIP3    H111996   7.085   3.965   1.796
 4013TIP3    H211997   7.072   3.853   1.696
 4014TIP3   OH211998   7.088   4.752   1.882
 4014TIP3    H111999   7.061   4.839   1.847
 4014TIP3    H212000   7.008   4.732   1.936
 4015TIP3   OH212001   6.477   4.438   1.115
 4015TIP3    H112002   6.436   4.464   1.031
 4015TIP3    H212003   6.508   4.524   1.150
 4016TIP3   OH212004   7.918   4.952   1.352
 4016TIP3    H112005   7.831   4.941   1.397
 4016TIP3    H212006   7.906   5.040   1.312
 4017TIP3   OH212007   7.495   3.488   1.706
 4017TIP3    H112008   7.473   3.394   1.721
 4017TIP3    H212009   7.418   3.531   1.749
 4018TIP3   OH212010   7.618   5.001   1.032
 4018TIP3    H112011   7.663   4.915   1.011
 4018TIP3    H212012   7.682   5.062   0.990
 4019TIP3   OH212013   7.752   4.781   0.943
 4019TIP3    H112014   7.700   4.703   0.918
 4019TIP3    H212015   7.800   4.748   1.022
 4020TIP3   OH212016   8.143   4.858   1.703
 4020TIP3    H112017   8.145   4.783   1.641
 4020TIP3    H212018   8.137   4.935   1.645
 4021TIP3   OH212019   7.434   4.257   0.958
 4021TIP3    H112020   7.352   4.309   0.946
 4021TIP3    H212021   7.475   4.264   0.870
 4022TIP3   OH212022   7.388   4.056   0.677
 4022TIP3    H112023   7.460   4.097   0.729
 4022TIP3    H212024   7.437   3.981   0.637
 4023TIP3   OH212025   7.778   4.339   0.932
 4023TIP3    H112026   7.722   4.370   1.007
 4023TIP3    H212027   7.850   4.295   0.982
 4024TIP3   OH212028   8.019   4.360   1.822
 4024TIP3    H112029   8.022   4.429   1.892
 4024TIP3    H212030   7.925   4.361   1.802
 4025TIP3   OH212031   7.018   4.338   1.345
 4025TIP3    H112032   6.977   4.279   1.279
 4025TIP3    H212033   7.093   4.283   1.377
 4026TIP3   OH212034   7.149   4.756   1.492
 4026TIP3    H112035   7.126   4.713   1.408
 4026TIP3    H212036   7.237   4.718   1.511
 4027TIP3   OH212037   7.151   4.311   1.701
 4027TIP3    H112038   7.186   4.286   1.613
 4027TIP3    H212039   7.196   4.396   1.719
 4028TIP3   OH212040   7.681   4.948   1.476
 4028TIP3    H112041   7.666   5.028   1.530
 4028TIP3    H212042   7.662   4.875   1.539
 4029TIP3   OH212043   7.292   4.867   2.030
 4029TIP3    H112044   7.227   4.927   2.073
 4029TIP3    H212045   7.231   4.812   1.977
 4030TIP3   OH212046   7.627   4.203   0.751
 4030TIP3    H112047   7.678   4.262   0.811
 4030TIP3    H212048   7.671   4.219   0.666
 4031TIP3   OH212049   7.044   4.423   2.126
 4031TIP3    H112050   7.049   4.509   2.171
 4031TIP3    H212051   6.951   4.400   2.142
 4032TIP3   OH212052   7.371   4.873   1.034
 4032TIP3    H112053   7.453   4.925   1.042
 4032TIP3    H212054   7.312   4.933   0.989
 4033TIP3   OH212055   7.084   5.033   2.114
 4033TIP3    H112056   7.049   5.036   2.023
 4033TIP3    H212057   7.004   5.011   2.166
 4034TIP3   OH212058   6.885   4.183   1.145
 4034TIP3    H112059   6.813   4.225   1.094
 4034TIP3    H212060   6.847   4.097   1.165
 4035TIP3   OH212061   6.664   4.566   2.059
 4035TIP3    H112062   6.595   4.545   1.992
 4035TIP3    H212063   6.701   4.478   2.080
 4036TIP3   OH212064   6.517   4.761   1.687
 4036TIP3    H112065   6.613   4.754   1.683
 4036TIP3    H212066   6.505   4.837   1.745
 4037TIP3   OH212067   7.484   4.999   1.883
 4037TIP3    H112068   7.481   5.091   1.916
 4037TIP3    H212069   7.414   4.957   1.937
 4038TIP3   OH212070   7.252   5.134   0.832
 4038TIP3    H112071   7.185   5.108   0.768
 4038TIP3    H212072   7.221   5.220   0.864
 4039TIP3   OH212073   6.689   4.973   1.219
 4039TIP3    H112074   6.732   4.963   1.307
 4039TIP3    H212075   6.636   4.892   1.215
 4040TIP3   OH212076   7.484   5.013   0.744
 4040TIP3    H112077   7.404   5.058   0.778
 4040TIP3    H212078   7.548   5.031   0.813
 4041TIP3   OH212079   6.866   4.751   2.044
 4041TIP3    H112080   6.916   4.732   2.126
 4041TIP3    H212081   6.792   4.686   2.050
 4042TIP3   OH212082   7.267   3.572   1.835
 4042TIP3    H112083   7.178   3.542   1.805
 4042TIP3    H212084   7.241   3.654   1.882
 4043TIP3   OH212085   7.767   3.703   2.014
 4043TIP3    H112086   7.827   3.660   2.076
 4043TIP3    H212087   7.680   3.686   2.055
 4044TIP3   OH212088   8.082   4.115   1.952
 4044TIP3    H112089   8.018   4.119   2.027
 4044TIP3    H212090   8.060   4.197   1.904
 4045TIP3   OH212091   7.423   3.614   0.805
 4045TIP3    H112092   7.386   3.613   0.895
 4045TIP3    H212093   7.377   3.537   0.767
 4046TIP3   OH212094   7.198   4.090   1.852
 4046TIP3    H112095   7.147   4.111   1.933
 4046TIP3    H212096   7.184   4.171   1.799
 4047TIP3   OH212097   7.082   3.976   1.365
 4047TIP3    H112098   6.990   3.947   1.385
 4047TIP3    H212099   7.094   3.933   1.277
 4048TIP3   OH212100   7.577   4.061   1.091
 4048TIP3    H112101   7.522   4.130   1.048
 4048TIP3    H212102   7.632   4.029   1.018
 4049TIP3   OH212103   7.714   4.094   1.330
 4049TIP3    H112104   7.655   4.106   1.253
 4049TIP3    H212105   7.750   4.006   1.307
 4050TIP3   OH212106   7.017   4.117   2.058
 4050TIP3    H112107   7.046   4.179   2.127
 4050TIP3    H212108   7.004   4.034   2.109
 4051TIP3   OH212109   7.068   3.595   0.769
 4051TIP3    H112110   7.060   3.593   0.867
 4051TIP3    H212111   6.989   3.648   0.746
 4052TIP3   OH212112   6.614   3.641   1.633
 4052TIP3    H112113   6.687   3.672   1.690
 4052TIP3    H212114   6.659   3.606   1.555
 4053TIP3   OH212115   6.577   3.618   1.157
 4053TIP3    H112116   6.625   3.655   1.080
 4053TIP3    H212117   6.517   3.692   1.177
 4054TIP3   OH212118   7.406   3.813   1.422
 4054TIP3    H112119   7.331   3.802   1.484
 4054TIP3    H212120   7.481   3.778   1.474
 4055TIP3   OH212121   6.845   3.854   1.431
 4055TIP3    H112122   6.751   3.862   1.403
 4055TIP3    H212123   6.866   3.761   1.410
 4056TIP3   OH212124   7.108   3.845   1.125
 4056TIP3    H112125   7.202   3.860   1.105
 4056TIP3    H212126   7.062   3.867   1.041
 4057TIP3   OH212127   7.826   3.902   1.614
 4057TIP3    H112128   7.817   3.910   1.711
 4057TIP3    H212129   7.894   3.832   1.609
 4058TIP3   OH212130   6.958   3.881   0.901
 4058TIP3    H112131   6.884   3.838   0.855
 4058TIP3    H212132   7.009   3.917   0.826
 4059TIP3   OH212133   8.066   5.568   1.850
 4059TIP3    H112134   8.063   5.571   1.751
 4059TIP3    H212135   8.128   5.639   1.868
 4060TIP3   OH212136   7.028   4.674   2.265
 4060TIP3    H112137   7.107   4.702   2.314
 4060TIP3    H212138   6.964   4.665   2.337
 4061TIP3   OH212139   7.490   4.123   1.529
 4061TIP3    H112140   7.557   4.074   1.479
 4061TIP3    H212141   7.493   4.079   1.616
 4062TIP3   OH212142   7.012   3.611   1.405
 4062TIP3    H112143   6.975   3.535   1.455
 4062TIP3    H212144   7.058   3.566   1.333
 4063TIP3   OH212145   7.465   4.020   1.813
 4063TIP3    H112146   7.376   4.059   1.827
 4063TIP3    H212147   7.522   4.078   1.868
 4064TIP3   OH212148   7.204   4.407   0.911
 4064TIP3    H112149   7.132   4.341   0.899
 4064TIP3    H212150   7.183   4.441   1.002
 4065TIP3   OH212151   8.110   4.650   1.517
 4065TIP3    H112152   8.108   4.664   1.422
 4065TIP3    H212153   8.026   4.605   1.531
 4066TIP3   OH212154   7.677   3.709   0.782
 4066TIP3    H112155   7.582   3.682   0.785
 4066TIP3    H212156   7.668   3.805   0.769
 4067TIP3   OH212157   7.599   4.726   1.892
 4067TIP3    H112158   7.641   4.682   1.967
 4067TIP3    H212159   7.568   4.810   1.926
 4068TIP3   OH212160   7.762   3.986   0.858
 4068TIP3    H112161   7.849   4.029   0.856
 4068TIP3    H212162   7.708   4.051   0.808
 4069TIP3   OH212163   6.901   4.438   1.580
 4069TIP3    H112164   6.939   4.405   1.497
 4069TIP3    H212165   6.941   4.378   1.645
 4070TIP3   OH212166   7.350   4.572   0.755
 4070TIP3    H112167   7.298   4.655   0.752
 4070TIP3    H212168   7.294   4.515   0.812
 4071TIP3   OH212169   6.782   4.352   2.196
 4071TIP3    H112170   6.795   4.338   2.292
 4071TIP3    H212171   6.712   4.288   2.176
 4072TIP3   OH212172   7.489   4.465   2.215
 4072TIP3    H112173   7.435   4.394   2.176
 4072TIP3    H212174   7.575   4.450   2.169
 4073TIP3   OH212175   7.762   4.995   1.799
 4073TIP3    H112176   7.667   4.988   1.814
 4073TIP3    H212177   7.789   5.046   1.878
 4074TIP3   OH212178   7.864   4.513   1.454
 4074TIP3    H112179   7.770   4.492   1.471
 4074TIP3    H212180   7.898   4.426   1.427
 4075TIP3   OH212181   6.999   4.738   1.205
 4075TIP3    H112182   6.993   4.820   1.153
 4075TIP3    H212183   6.907   4.719   1.224
 4076TIP3   OH212184   6.567   4.042   0.916
 4076TIP3    H112185   6.609   4.128   0.937
 4076TIP3    H212186   6.489   4.045   0.975
 4077TIP3   OH212187   7.132   4.502   1.150
 4077TIP3    H112188   7.098   4.592   1.171
 4077TIP3    H212189   7.099   4.450   1.225
 4078TIP3   OH212190   7.271   5.082   1.676
 4078TIP3    H112191   7.314   5.154   1.627
 4078TIP3    H212192   7.347   5.043   1.723
 4079TIP3   OH212193   6.915   4.978   1.057
 4079TIP3    H112194   6.831   4.984   1.106
 4079TIP3    H212195   6.946   5.071   1.062
 4080TIP3   OH212196   7.657   4.716   1.629
 4080TIP3    H112197   7.639   4.718   1.726
 4080TIP3    H212198   7.742   4.669   1.628
 4081TIP3   OH212199   7.908   5.245   1.683
 4081TIP3    H112200   7.829   5.188   1.680
 4081TIP3    H212201   7.887   5.310   1.613
 4082TIP3   OH212202   6.984   3.860   2.198
 4082TIP3    H112203   6.887   3.869   2.210
 4082TIP3    H212204   7.008   3.804   2.273
 4083TIP3   OH212205   7.768   4.537   0.737
 4083TIP3    H112206   7.772   4.471   0.809
 4083TIP3    H212207   7.853   4.582   0.744
 4084TIP3   OH212208   6.709   4.942   1.834
 4084TIP3    H112209   6.761   4.868   1.871
 4084TIP3    H212210   6.733   5.013   1.893
 4085TIP3   OH212211   7.018   4.575   0.538
 4085TIP3    H112212   7.009   4.483   0.509
 4085TIP3    H212213   6.997   4.569   0.633
 4086TIP3   OH212214   6.941   4.597   0.803
 4086TIP3    H112215   7.006   4.565   0.868
 4086TIP3    H212216   6.950   4.694   0.813
 4087TIP3   OH212217   6.675   4.287   0.996
 4087TIP3    H112218   6.608   4.331   1.053
 4087TIP3    H212219   6.685   4.355   0.927
 4088TIP3   OH212220   7.836   3.938   1.886
 4088TIP3    H112221   7.906   3.971   1.944
 4088TIP3    H212222   7.805   3.858   1.933
 4089TIP3   OH212223   7.688   3.683   1.066
 4089TIP3    H112224   7.687   3.694   0.969
 4089TIP3    H212225   7.735   3.763   1.097
 4090TIP3   OH212226   7.208   4.797   0.723
 4090TIP3    H112227   7.122   4.824   0.761
 4090TIP3    H212228   7.211   4.848   0.641
 4091TIP3   OH212229   7.390   3.860   1.153
 4091TIP3    H112230   7.459   3.928   1.141
 4091TIP3    H212231   7.396   3.845   1.251
 4092TIP3   OH212232   7.641   4.155   1.975
 4092TIP3    H112233   7.680   4.237   2.013
 4092TIP3    H212234   7.718   4.098   1.965
 4093TIP3   OH212235   7.530   3.568   1.255
 4093TIP3    H112236   7.556   3.623   1.331
 4093TIP3    H212237   7.587   3.608   1.185
 4094TIP3   OH212238   6.958   4.868   0.810
 4094TIP3    H112239   6.935   4.942   0.750
 4094TIP3    H212240   6.938   4.907   0.898
 4095TIP3   OH212241   7.053   3.581   1.045
 4095TIP3    H112242   7.050   3.670   1.085
 4095TIP3    H212243   7.149   3.564   1.053
 4096TIP3   OH212244   7.954   4.250   1.365
 4096TIP3    H112245   7.868   4.213   1.336
 4096TIP3    H212246   7.953   4.219   1.457
 4097TIP3   OH212247   6.669   4.493   0.804
 4097TIP3    H112248   6.739   4.559   0.817
 4097TIP3    H212249   6.713   4.436   0.737
 4098TIP3   OH212250   6.614   3.772   0.933
 4098TIP3    H112251   6.616   3.870   0.932
 4098TIP3    H212252   6.530   3.754   0.890
 4099TIP3   OH212253   7.935   5.226   1.277
 4099TIP3    H112254   7.890   5.272   1.202
 4099TIP3    H212255   8.028   5.243   1.258
 4100TIP3   OH212256   7.005   3.493   1.802
 4100TIP3    H112257   6.972   3.458   1.716
 4100TIP3    H212258   6.994   3.414   1.861
 4101TIP3   OH212259   6.539   4.713   1.182
 4101TIP3    H112260   6.475   4.740   1.249
 4101TIP3    H212261   6.501   4.755   1.101
 4102TIP3   OH212262   6.699   5.257   2.259
 4102TIP3    H112263   6.786   5.256   2.305
 4102TIP3    H212264   6.679   5.162   2.257
 4103TIP3   OH212265   7.176   5.210   2.308
 4103TIP3    H112266   7.272   5.200   2.304
 4103TIP3    H212267   7.148   5.151   2.234
 4104TIP3   OH212268   7.809   5.126   2.043
 4104TIP3    H112269   7.814   5.052   2.107
 4104TIP3    H212270   7.889   5.177   2.064
 4105TIP3   OH212271   6.829   4.662   2.459
 4105TIP3    H112272   6.845   4.566   2.468
 4105TIP3    H212273   6.742   4.662   2.413
 4106TIP3   OH212274   6.819   4.316   0.666
 4106TIP3    H112275   6.879   4.283   0.735
 4106TIP3    H212276   6.878   4.319   0.588
 4107TIP3   OH212277   7.438   4.742   2.232
 4107TIP3    H112278   7.395   4.764   2.146
 4107TIP3    H212279   7.461   4.647   2.220
 4108TIP3   OH212280   7.330   4.510   0.491
 4108TIP3    H112281   7.331   4.526   0.588
 4108TIP3    H212282   7.269   4.435   0.484
 4109TIP3   OH212283   7.927   4.759   1.838
 4109TIP3    H112284   8.010   4.796   1.801
 4109TIP3    H212285   7.864   4.825   1.821
 4110TIP3   OH212286   6.950   4.404   2.443
 4110TIP3    H112287   7.003   4.324   2.432
 4110TIP3    H212288   6.979   4.431   2.533
 4111TIP3   OH212289   7.011   4.215   0.873
 4111TIP3    H112290   6.980   4.178   0.958
 4111TIP3    H212291   7.048   4.136   0.829
 4112TIP3   OH212292   7.282   4.279   2.111
 4112TIP3    H112293   7.203   4.337   2.106
 4112TIP3    H212294   7.332   4.308   2.031
 4113TIP3   OH212295   7.115   4.009   0.718
 4113TIP3    H112296   7.089   4.019   0.624
 4113TIP3    H212297   7.212   4.011   0.711
 4114TIP3   OH212298   7.833   4.669   2.267
 4114TIP3    H112299   7.905   4.678   2.200
 4114TIP3    H212300   7.799   4.583   2.234
 4115TIP3   OH212301   7.410   4.066   2.225
 4115TIP3    H112302   7.413   3.990   2.164
 4115TIP3    H212303   7.368   4.135   2.169
 4116TIP3   OH212304   7.410   3.851   2.034
 4116TIP3    H112305   7.437   3.897   1.952
 4116TIP3    H212306   7.315   3.833   2.016
 4117TIP3   OH212307   7.424   4.379   1.910
 4117TIP3    H112308   7.518   4.398   1.899
 4117TIP3    H212309   7.380   4.448   1.857
 4118TIP3   OH212310   8.076   4.348   2.330
 4118TIP3    H112311   8.011   4.303   2.272
 4118TIP3    H212312   8.089   4.429   2.281
 4119TIP3   OH212313   8.072   4.604   2.011
 4119TIP3    H112314   8.010   4.661   1.960
 4119TIP3    H212315   8.144   4.595   1.959
 4120TIP3   OH212316   7.299   4.172   2.462
 4120TIP3    H112317   7.218   4.120   2.479
 4120TIP3    H212318   7.322   4.144   2.371
 4121TIP3   OH212319   7.528   3.614   2.111
 4121TIP3    H112320   7.477   3.695   2.087
 4121TIP3    H212321   7.461   3.544   2.098
 4122TIP3   OH212322   7.679   4.103   2.321
 4122TIP3    H112323   7.637   4.098   2.408
 4122TIP3    H212324   7.601   4.101   2.263
 4123TIP3   OH212325   7.910   4.063   2.164
 4123TIP3    H112326   7.828   4.087   2.214
 4123TIP3    H212327   7.968   4.032   2.236
 4124TIP3   OH212328   8.106   3.980   2.349
 4124TIP3    H112329   8.160   3.903   2.372
 4124TIP3    H212330   8.112   4.036   2.428
 4125TIP3   OH212331   7.122   3.955   2.507
 4125TIP3    H112332   7.125   3.862   2.479
 4125TIP3    H212333   7.150   3.949   2.600
 4126TIP3   OH212334   7.632   3.625   2.364
 4126TIP3    H112335   7.686   3.544   2.359
 4126TIP3    H212336   7.590   3.624   2.276
 4127TIP3   OH212337   7.703   3.840   2.525
 4127TIP3    H112338   7.681   3.774   2.456
 4127TIP3    H212339   7.632   3.906   2.513
 4128TIP3   OH212340   6.943   5.067   0.622
 4128TIP3    H112341   7.024   5.055   0.567
 4128TIP3    H212342   6.877   5.086   0.555
 4129TIP3   OH212343   6.400   4.452   0.838
 4129TIP3    H112344   6.494   4.474   0.821
 4129TIP3    H212345   6.394   4.364   0.796
 4130TIP3   OH212346   6.320   5.065   1.252
 4130TIP3    H112347   6.254   5.004   1.212
 4130TIP3    H212348   6.363   5.005   1.316
 4131TIP3   OH212349   6.454   4.910   1.438
 4131TIP3    H112350   6.439   4.839   1.503
 4131TIP3    H212351   6.505   4.973   1.492
 4132TIP3   OH212352   8.255   5.305   1.514
 4132TIP3    H112353   8.202   5.222   1.509
 4132TIP3    H212354   8.227   5.337   1.600
 4133TIP3   OH212355   8.225   5.035   2.091
 4133TIP3    H112356   8.160   5.027   2.162
 4133TIP3    H212357   8.263   5.122   2.104
 4134TIP3   OH212358   8.088   5.083   1.537
 4134TIP3    H112359   8.021   5.123   1.596
 4134TIP3    H212360   8.031   5.034   1.474
 4135TIP3   OH212361   7.988   4.214   1.063
 4135TIP3    H112362   8.078   4.176   1.072
 4135TIP3    H212363   7.981   4.258   1.150
 4136TIP3   OH212364   6.637   4.323   1.809
 4136TIP3    H112365   6.635   4.288   1.717
 4136TIP3    H212366   6.734   4.323   1.825
 4137TIP3   OH212367   6.854   4.004   2.485
 4137TIP3    H112368   6.952   4.005   2.488
 4137TIP3    H212369   6.835   3.916   2.521
 4138TIP3   OH212370   6.820   3.701   1.804
 4138TIP3    H112371   6.880   3.626   1.817
 4138TIP3    H212372   6.883   3.775   1.801
 4139TIP3   OH212373   6.620   3.971   1.885
 4139TIP3    H112374   6.670   3.972   1.801
 4139TIP3    H212375   6.649   4.054   1.926
 4140TIP3   OH212376   6.605   3.473   1.384
 4140TIP3    H112377   6.514   3.470   1.417
 4140TIP3    H212378   6.598   3.534   1.308
 4141TIP3   OH212379   7.758   5.181   0.879
 4141TIP3    H112380   7.785   5.182   0.786
 4141TIP3    H212381   7.819   5.244   0.920
 4142TIP3   OH212382   6.826   3.552   2.201
 4142TIP3    H112383   6.771   3.550   2.281
 4142TIP3    H212384   6.765   3.596   2.138
 4143TIP3   OH212385   6.863   4.990   2.278
 4143TIP3    H112386   6.772   4.962   2.259
 4143TIP3    H212387   6.873   4.962   2.370
 4144TIP3   OH212388   7.045   5.022   1.827
 4144TIP3    H112389   6.996   5.097   1.787
 4144TIP3    H212390   7.130   5.036   1.781
 4145TIP3   OH212391   7.484   5.264   1.965
 4145TIP3    H112392   7.527   5.267   2.052
 4145TIP3    H212393   7.549   5.314   1.911
 4146TIP3   OH212394   7.664   5.415   1.825
 4146TIP3    H112395   7.735   5.368   1.781
 4146TIP3    H212396   7.715   5.474   1.885
 4147TIP3   OH212397   6.718   5.277   1.850
 4147TIP3    H112398   6.628   5.308   1.828
 4147TIP3    H212399   6.731   5.320   1.935
 4148TIP3   OH212400   6.954   5.255   1.709
 4148TIP3    H112401   6.867   5.267   1.753
 4148TIP3    H212402   6.935   5.286   1.618
 4149TIP3   OH212403   7.380   5.281   1.506
 4149TIP3    H112404   7.307   5.301   1.444
 4149TIP3    H212405   7.393   5.368   1.550
 4150TIP3   OH212406   7.647   5.215   1.560
 4150TIP3    H112407   7.555   5.239   1.538
 4150TIP3    H212408   7.696   5.290   1.522
 4151TIP3   OH212409   7.831   5.400   1.468
 4151TIP3    H112410   7.834   5.490   1.429
 4151TIP3    H212411   7.867   5.345   1.395
 4152TIP3   OH212412   6.631   5.069   1.595
 4152TIP3    H112413   6.657   5.040   1.685
 4152TIP3    H212414   6.702   5.024   1.543
 4153TIP3   OH212415   6.826   4.940   1.454
 4153TIP3    H112416   6.839   4.857   1.504
 4153TIP3    H212417   6.917   4.975   1.450
 4154TIP3   OH212418   7.095   5.033   1.457
 4154TIP3    H112419   7.123   4.940   1.448
 4154TIP3    H212420   7.141   5.056   1.540
 4155TIP3   OH212421   7.623   3.656   1.504
 4155TIP3    H112422   7.604   3.603   1.583
 4155TIP3    H212423   7.719   3.647   1.494
 4156TIP3   OH212424   6.914   3.399   1.555
 4156TIP3    H112425   6.821   3.366   1.561
 4156TIP3    H212426   6.962   3.313   1.551
 4157TIP3   OH212427   6.701   3.271   1.207
 4157TIP3    H112428   6.730   3.329   1.135
 4157TIP3    H212429   6.674   3.335   1.275
 4158TIP3   OH212430   7.361   3.427   1.439
 4158TIP3    H112431   7.414   3.475   1.373
 4158TIP3    H212432   7.383   3.475   1.520
 4159TIP3   OH212433   7.877   3.561   1.419
 4159TIP3    H112434   7.890   3.538   1.326
 4159TIP3    H212435   7.872   3.472   1.460
 4160TIP3   OH212436   6.417   4.847   0.982
 4160TIP3    H112437   6.332   4.812   0.950
 4160TIP3    H212438   6.408   4.939   0.951
 4161TIP3   OH212439   6.821   3.428   0.967
 4161TIP3    H112440   6.869   3.365   0.910
 4161TIP3    H212441   6.895   3.481   1.003
 4162TIP3   OH212442   7.330   3.607   1.066
 4162TIP3    H112443   7.389   3.561   1.128
 4162TIP3    H212444   7.351   3.700   1.092
 4163TIP3   OH212445   7.121   3.681   2.453
 4163TIP3    H112446   7.083   3.609   2.505
 4163TIP3    H212447   7.215   3.677   2.481
 4164TIP3   OH212448   7.374   3.672   2.570
 4164TIP3    H112449   7.458   3.664   2.521
 4164TIP3    H212450   7.374   3.589   2.620
 4165TIP3   OH212451   6.471   4.848   0.639
 4165TIP3    H112452   6.472   4.894   0.725
 4165TIP3    H212453   6.562   4.815   0.631
 4166TIP3   OH212454   8.125   5.300   1.856
 4166TIP3    H112455   8.053   5.265   1.800
 4166TIP3    H212456   8.106   5.396   1.856
 4167TIP3   OH212457   0.062   5.196   2.814
 4167TIP3    H112458   0.025   5.286   2.812
 4167TIP3    H212459  -0.009   5.148   2.767
 4168TIP3   OH212460   0.087   5.175   3.180
 4168TIP3    H112461   0.097   5.157   3.275
 4168TIP3    H212462   0.024   5.108   3.152
 4169TIP3   OH212463   0.305   5.499   2.881
 4169TIP3    H112464   0.287   5.432   2.949
 4169TIP3    H212465   0.331   5.576   2.935
 4170TIP3   OH212466   0.004   5.985   2.883
 4170TIP3    H112467   0.052   5.902   2.866
 4170TIP3    H212468  -0.066   5.955   2.944
 4171TIP3   OH212469  -0.116   5.375   3.277
 4171TIP3    H112470  -0.095   5.320   3.200
 4171TIP3    H212471  -0.036   5.431   3.283
 4172TIP3   OH212472   0.871   4.740   3.246
 4172TIP3    H112473   0.901   4.824   3.286
 4172TIP3    H212474   0.891   4.756   3.152
 4173TIP3   OH212475   0.267   4.920   3.281
 4173TIP3    H112476   0.310   4.834   3.297
 4173TIP3    H212477   0.236   4.908   3.189
 4174TIP3   OH212478   0.303   4.678   2.865
 4174TIP3    H112479   0.374   4.661   2.930
 4174TIP3    H212480   0.356   4.710   2.789
 4175TIP3   OH212481   0.945   4.951   3.414
 4175TIP3    H112482   0.860   4.996   3.395
 4175TIP3    H212483   0.962   4.982   3.504
 4176TIP3   OH212484  -0.072   5.421   2.696
 4176TIP3    H112485  -0.095   5.381   2.611
 4176TIP3    H212486  -0.009   5.489   2.672
 4177TIP3   OH212487   0.509   4.679   3.040
 4177TIP3    H112488   0.494   4.631   3.123
 4177TIP3    H212489   0.560   4.756   3.070
 4178TIP3   OH212490   0.371   5.741   3.041
 4178TIP3    H112491   0.282   5.733   3.084
 4178TIP3    H212492   0.363   5.830   3.002
 4179TIP3   OH212493   0.663   4.640   3.412
 4179TIP3    H112494   0.576   4.664   3.376
 4179TIP3    H212495   0.724   4.672   3.341
 4180TIP3   OH212496  -0.035   4.272   3.383
 4180TIP3    H112497  -0.046   4.177   3.400
 4180TIP3    H212498  -0.085   4.311   3.455
 4181TIP3   OH212499   0.066   5.765   2.703
 4181TIP3    H112500   0.115   5.683   2.683
 4181TIP3    H212501   0.132   5.832   2.673
 4182TIP3   OH212502   0.199   5.541   2.629
 4182TIP3    H112503   0.225   5.469   2.569
 4182TIP3    H212504   0.248   5.519   2.711
 4183TIP3   OH212505   0.597   5.651   3.392
 4183TIP3    H112506   0.582   5.575   3.332
 4183TIP3    H212507   0.576   5.727   3.333
 4184TIP3   OH212508  -0.110   5.063   2.651
 4184TIP3    H112509  -0.191   5.012   2.674
 4184TIP3    H212510  -0.094   5.042   2.558
 4185TIP3   OH212511  -0.133   4.833   2.368
 4185TIP3    H112512  -0.060   4.888   2.404
 4185TIP3    H212513  -0.083   4.768   2.317
 4186TIP3   OH212514   0.791   5.293   3.237
 4186TIP3    H112515   0.707   5.343   3.241
 4186TIP3    H212516   0.821   5.317   3.147
 4187TIP3   OH212517   0.239   5.131   2.618
 4187TIP3    H112518   0.184   5.152   2.697
 4187TIP3    H212519   0.323   5.104   2.661
 4188TIP3   OH212520   0.471   5.168   3.536
 4188TIP3    H112521   0.467   5.252   3.585
 4188TIP3    H212522   0.385   5.171   3.489
 4189TIP3   OH212523   0.131   5.738   3.161
 4189TIP3    H112524   0.107   5.822   3.206
 4189TIP3    H212525   0.113   5.670   3.229
 4190TIP3   OH212526   0.079   4.985   2.448
 4190TIP3    H112527   0.131   5.048   2.501
 4190TIP3    H212528   0.107   5.011   2.356
 4191TIP3   OH212529   0.592   4.225   2.496
 4191TIP3    H112530   0.510   4.247   2.545
 4191TIP3    H212531   0.607   4.308   2.445
 4192TIP3   OH212532   0.391   5.595   2.039
 4192TIP3    H112533   0.401   5.692   2.028
 4192TIP3    H212534   0.484   5.565   2.029
 4193TIP3   OH212535   0.834   6.001   3.441
 4193TIP3    H112536   0.831   5.905   3.455
 4193TIP3    H212537   0.751   6.027   3.485
 4194TIP3   OH212538  -0.049   5.843   2.164
 4194TIP3    H112539  -0.015   5.758   2.131
 4194TIP3    H212540  -0.059   5.827   2.259
 4195TIP3   OH212541  -0.052   5.864   2.451
 4195TIP3    H112542  -0.117   5.868   2.523
 4195TIP3    H212543   0.029   5.846   2.502
 4196TIP3   OH212544   0.722   5.127   3.714
 4196TIP3    H112545   0.640   5.139   3.663
 4196TIP3    H212546   0.738   5.032   3.702
 4197TIP3   OH212547   0.263   4.476   3.715
 4197TIP3    H112548   0.330   4.448   3.780
 4197TIP3    H212549   0.179   4.458   3.761
 4198TIP3   OH212550   0.490   4.904   3.634
 4198TIP3    H112551   0.439   4.900   3.718
 4198TIP3    H212552   0.467   4.992   3.599
 4199TIP3   OH212553   0.157   5.043   2.200
 4199TIP3    H112554   0.118   5.012   2.116
 4199TIP3    H212555   0.242   5.080   2.168
 4200TIP3   OH212556  -0.144   4.415   2.468
 4200TIP3    H112557  -0.156   4.411   2.566
 4200TIP3    H212558  -0.176   4.325   2.446
 4201TIP3   OH212559   0.031   4.856   2.787
 4201TIP3    H112560  -0.023   4.927   2.746
 4201TIP3    H212561   0.078   4.819   2.710
 4202TIP3   OH212562   0.227   5.114   3.857
 4202TIP3    H112563   0.200   5.042   3.917
 4202TIP3    H212564   0.321   5.125   3.883
 4203TIP3   OH212565   0.180   4.874   3.023
 4203TIP3    H112566   0.119   4.903   2.951
 4203TIP3    H212567   0.216   4.796   2.977
 4204TIP3   OH212568   0.192   5.120   3.446
 4204TIP3    H112569   0.225   5.053   3.383
 4204TIP3    H212570   0.162   5.062   3.518
 4205TIP3   OH212571  -0.129   4.576   3.105
 4205TIP3    H112572  -0.220   4.607   3.122
 4205TIP3    H212573  -0.083   4.597   3.187
 4206TIP3   OH212574   0.354   4.658   3.322
 4206TIP3    H112575   0.319   4.673   3.412
 4206TIP3    H212576   0.288   4.594   3.288
 4207TIP3   OH212577   0.533   6.344   3.537
 4207TIP3    H112578   0.525   6.372   3.445
 4207TIP3    H212579   0.605   6.400   3.570
 4208TIP3   OH212580  -0.045   4.897   3.213
 4208TIP3    H112581   0.031   4.873   3.157
 4208TIP3    H212582  -0.023   4.857   3.299
 4209TIP3   OH212583  -0.049   4.796   3.500
 4209TIP3    H112584  -0.115   4.868   3.493
 4209TIP3    H212585   0.022   4.841   3.548
 4210TIP3   OH212586   0.557   5.435   3.225
 4210TIP3    H112587   0.580   5.488   3.145
 4210TIP3    H212588   0.474   5.392   3.197
 4211TIP3   OH212589   0.112   4.508   2.465
 4211TIP3    H112590   0.015   4.492   2.467
 4211TIP3    H212591   0.119   4.602   2.492
 4212TIP3   OH212592   0.052   5.525   3.589
 4212TIP3    H112593   0.077   5.521   3.681
 4212TIP3    H212594  -0.005   5.606   3.587
 4213TIP3   OH212595   0.184   4.759   2.568
 4213TIP3    H112596   0.280   4.764   2.582
 4213TIP3    H212597   0.166   4.839   2.515
 4214TIP3   OH212598  -0.206   5.351   2.443
 4214TIP3    H112599  -0.267   5.424   2.422
 4214TIP3    H212600  -0.265   5.289   2.485
 4215TIP3   OH212601   0.013   5.238   3.971
 4215TIP3    H112602  -0.056   5.198   3.917
 4215TIP3    H212603   0.094   5.211   3.924
 4216TIP3   OH212604   0.221   5.772   3.484
 4216TIP3    H112605   0.125   5.779   3.498
 4216TIP3    H212606   0.254   5.824   3.561
 4217TIP3   OH212607   0.626   4.853   2.399
 4217TIP3    H112608   0.563   4.809   2.336
 4217TIP3    H212609   0.623   4.943   2.359
 4218TIP3   OH212610   0.848   5.710   3.478
 4218TIP3    H112611   0.750   5.704   3.470
 4218TIP3    H212612   0.873   5.679   3.388
 4219TIP3   OH212613   0.340   5.665   2.310
 4219TIP3    H112614   0.297   5.597   2.363
 4219TIP3    H212615   0.342   5.625   2.221
 4220TIP3   OH212616   0.333   5.298   3.137
 4220TIP3    H112617   0.240   5.270   3.153
 4220TIP3    H212618   0.365   5.218   3.092
 4221TIP3   OH212619   0.123   5.500   3.326
 4221TIP3    H112620   0.107   5.513   3.422
 4221TIP3    H212621   0.209   5.456   3.326
 4222TIP3   OH212622   0.094   5.404   2.206
 4222TIP3    H112623   0.134   5.377   2.290
 4222TIP3    H212624   0.006   5.362   2.211
 4223TIP3   OH212625   0.360   6.029   3.370
 4223TIP3    H112626   0.278   5.977   3.366
 4223TIP3    H212627   0.341   6.099   3.303
 4224TIP3   OH212628   0.425   5.868   2.034
 4224TIP3    H112629   0.452   5.938   1.971
 4224TIP3    H212630   0.347   5.913   2.073
 4225TIP3   OH212631   0.249   5.340   2.438
 4225TIP3    H112632   0.236   5.264   2.499
 4225TIP3    H212633   0.344   5.328   2.416
 4226TIP3   OH212634   0.278   4.717   3.583
 4226TIP3    H112635   0.364   4.752   3.612
 4226TIP3    H212636   0.271   4.633   3.633
 4227TIP3   OH212637   0.172   4.454   2.747
 4227TIP3    H112638   0.145   4.476   2.655
 4227TIP3    H212639   0.202   4.541   2.780
 4228TIP3   OH212640  -0.151   4.653   2.842
 4228TIP3    H112641  -0.086   4.726   2.833
 4228TIP3    H212642  -0.151   4.639   2.939
 4229TIP3   OH212643   0.129   4.953   3.648
 4229TIP3    H112644   0.158   5.008   3.723
 4229TIP3    H212645   0.185   4.874   3.656
 4230TIP3   OH212646   0.005   4.365   2.965
 4230TIP3    H112647  -0.027   4.449   3.004
 4230TIP3    H212648   0.051   4.398   2.885
 4231TIP3   OH212649   0.757   4.862   3.634
 4231TIP3    H112650   0.658   4.860   3.639
 4231TIP3    H212651   0.769   4.817   3.549
 4232TIP3   OH212652   0.411   5.053   3.017
 4232TIP3    H112653   0.331   4.999   3.031
 4232TIP3    H212654   0.479   5.004   3.067
 4233TIP3   OH212655   0.382   6.008   2.968
 4233TIP3    H112656   0.339   6.056   2.894
 4233TIP3    H212657   0.476   6.027   2.947
 4234TIP3   OH212658   0.293   5.902   3.711
 4234TIP3    H112659   0.270   5.850   3.790
 4234TIP3    H212660   0.347   5.973   3.749
 4235TIP3   OH212661   0.080   5.616   2.028
 4235TIP3    H112662   0.096   5.549   2.097
 4235TIP3    H212663   0.152   5.600   1.966
 4236TIP3   OH212664  -0.188   5.285   2.167
 4236TIP3    H112665  -0.207   5.287   2.262
 4236TIP3    H212666  -0.201   5.189   2.148
 4237TIP3   OH212667   0.379   5.543   3.531
 4237TIP3    H112668   0.455   5.587   3.488
 4237TIP3    H212669   0.309   5.610   3.516
 4238TIP3   OH212670  -0.393   4.814   2.464
 4238TIP3    H112671  -0.422   4.805   2.371
 4238TIP3    H212672  -0.297   4.812   2.453
 4239TIP3   OH212673   0.244   5.469   3.935
 4239TIP3    H112674   0.312   5.437   3.874
 4239TIP3    H212675   0.245   5.400   4.004
 4240TIP3   OH212676   0.388   5.122   2.071
 4240TIP3    H112677   0.369   5.078   1.986
 4240TIP3    H212678   0.354   5.212   2.049
 4241TIP3   OH212679  -0.177   4.592   3.645
 4241TIP3    H112680  -0.125   4.654   3.591
 4241TIP3    H212681  -0.211   4.648   3.714
 4242TIP3   OH212682  -0.058   5.243   3.545
 4242TIP3    H112683   0.034   5.228   3.523
 4242TIP3    H212684  -0.078   5.319   3.490
 4243TIP3   OH212685   0.478   5.137   3.976
 4243TIP3    H112686   0.529   5.055   3.986
 4243TIP3    H212687   0.543   5.196   3.936
 4244TIP3   OH212688   0.509   5.398   3.718
 4244TIP3    H112689   0.452   5.452   3.659
 4244TIP3    H212690   0.597   5.419   3.679
 4245TIP3   OH212691   0.004   4.405   3.781
 4245TIP3    H112692  -0.059   4.474   3.754
 4245TIP3    H212693  -0.051   4.326   3.770
 4246TIP3   OH212694   0.129   4.910   4.014
 4246TIP3    H112695   0.153   4.906   4.109
 4246TIP3    H212696   0.042   4.867   4.016
 4247TIP3   OH212697   0.362   4.851   3.866
 4247TIP3    H112698   0.288   4.852   3.929
 4247TIP3    H212699   0.438   4.824   3.922
 4248TIP3   OH212700   0.589   4.799   4.017
 4248TIP3    H112701   0.601   4.703   4.032
 4248TIP3    H212702   0.584   4.835   4.108
 4249TIP3   OH212703   0.102   4.419   4.041
 4249TIP3    H112704   0.156   4.339   4.036
 4249TIP3    H212705   0.052   4.415   3.958
 4250TIP3   OH212706   0.171   4.628   4.200
 4250TIP3    H112707   0.152   4.551   4.141
 4250TIP3    H212708   0.082   4.669   4.202
 4251TIP3   OH212709   0.641   6.092   2.930
 4251TIP3    H112710   0.656   6.127   3.020
 4251TIP3    H212711   0.690   6.155   2.875
 4252TIP3   OH212712   0.663   6.121   3.209
 4252TIP3    H112713   0.615   6.036   3.207
 4252TIP3    H212714   0.735   6.098   3.270
 4253TIP3   OH212715   0.715   5.799   3.782
 4253TIP3    H112716   0.640   5.809   3.844
 4253TIP3    H212717   0.754   5.888   3.785
 4254TIP3   OH212718   0.523   5.311   2.403
 4254TIP3    H112719   0.589   5.376   2.372
 4254TIP3    H212720   0.569   5.273   2.481
 4255TIP3   OH212721   0.652   5.181   2.608
 4255TIP3    H112722   0.585   5.137   2.664
 4255TIP3    H212723   0.715   5.216   2.674
 4256TIP3   OH212724   0.710   5.574   3.039
 4256TIP3    H112725   0.761   5.506   2.991
 4256TIP3    H212726   0.702   5.646   2.974
 4257TIP3   OH212727   0.537   5.871   3.231
 4257TIP3    H112728   0.466   5.917   3.282
 4257TIP3    H212729   0.485   5.827   3.160
 4258TIP3   OH212730   0.591   5.089   2.251
 4258TIP3    H112731   0.519   5.088   2.183
 4258TIP3    H212732   0.559   5.163   2.306
 4259TIP3   OH212733   0.460   4.761   2.204
 4259TIP3    H112734   0.417   4.793   2.124
 4259TIP3    H212735   0.438   4.665   2.200
 4260TIP3   OH212736   0.466   5.037   2.749
 4260TIP3    H112737   0.471   4.941   2.740
 4260TIP3    H212738   0.451   5.048   2.846
 4261TIP3   OH212739   0.755   5.462   3.611
 4261TIP3    H112740   0.827   5.396   3.598
 4261TIP3    H212741   0.777   5.530   3.545
 4262TIP3   OH212742   0.938   5.262   3.618
 4262TIP3    H112743   0.863   5.213   3.660
 4262TIP3    H212744   1.011   5.199   3.636
 4263TIP3   OH212745   0.401   4.496   2.192
 4263TIP3    H112746   0.473   4.460   2.247
 4263TIP3    H212747   0.327   4.436   2.209
 4264TIP3   OH212748   0.464   4.754   2.644
 4264TIP3    H112749   0.503   4.665   2.659
 4264TIP3    H212750   0.521   4.785   2.571
 4265TIP3   OH212751   0.622   4.922   3.143
 4265TIP3    H112752   0.707   4.947   3.100
 4265TIP3    H212753   0.637   4.961   3.231
 4266TIP3   OH212754   0.695   5.071   3.372
 4266TIP3    H112755   0.616   5.105   3.419
 4266TIP3    H212756   0.727   5.152   3.327
 4267TIP3   OH212757   1.140   4.663   3.927
 4267TIP3    H112758   1.203   4.598   3.889
 4267TIP3    H212759   1.114   4.714   3.847
 4268TIP3   OH212760   0.571   4.504   2.683
 4268TIP3    H112761   0.617   4.487   2.767
 4268TIP3    H212762   0.509   4.428   2.680
 4269TIP3   OH212763   1.012   4.800   3.728
 4269TIP3    H112764   0.925   4.842   3.744
 4269TIP3    H212765   0.983   4.724   3.673
 4270TIP3   OH212766   0.649   4.434   2.319
 4270TIP3    H112767   0.687   4.364   2.262
 4270TIP3    H212768   0.716   4.504   2.313
 4271TIP3   OH212769   0.219   5.953   2.588
 4271TIP3    H112770   0.273   5.954   2.507
 4271TIP3    H212771   0.254   6.029   2.637
 4272TIP3   OH212772   0.120   6.199   3.516
 4272TIP3    H112773   0.182   6.132   3.487
 4272TIP3    H212774   0.177   6.255   3.571
 4273TIP3   OH212775   0.914   4.561   3.613
 4273TIP3    H112776   0.825   4.551   3.575
 4273TIP3    H212777   0.949   4.470   3.604
 4274TIP3   OH212778   0.090   6.009   3.260
 4274TIP3    H112779   0.009   6.026   3.312
 4274TIP3    H212780   0.101   6.094   3.215
 4275TIP3   OH212781   0.328   6.206   3.162
 4275TIP3    H112782   0.298   6.285   3.112
 4275TIP3    H212783   0.335   6.138   3.092
 4276TIP3   OH212784   0.138   4.480   3.254
 4276TIP3    H112785   0.080   4.407   3.281
 4276TIP3    H212786   0.190   4.440   3.182
 4277TIP3   OH212787   0.640   4.361   3.137
 4277TIP3    H112788   0.675   4.412   3.061
 4277TIP3    H212789   0.544   4.375   3.128
 4278TIP3   OH212790   0.735   4.457   2.900
 4278TIP3    H112791   0.810   4.406   2.861
 4278TIP3    H212792   0.768   4.549   2.885
 4279TIP3   OH212793  -0.168   4.209   3.132
 4279TIP3    H112794  -0.123   4.260   3.063
 4279TIP3    H212795  -0.131   4.250   3.212
 4280TIP3   OH212796   0.361   4.366   3.108
 4280TIP3    H112797   0.348   4.326   3.021
 4280TIP3    H212798   0.345   4.289   3.167
 4281TIP3   OH212799   0.388   4.292   2.675
 4281TIP3    H112800   0.304   4.339   2.694
 4281TIP3    H212801   0.371   4.206   2.719
 4282TIP3   OH212802  -0.166   4.398   2.735
 4282TIP3    H112803  -0.186   4.346   2.813
 4282TIP3    H212804  -0.178   4.489   2.767
 4283TIP3   OH212805   0.366   5.934   2.356
 4283TIP3    H112806   0.361   5.836   2.344
 4283TIP3    H212807   0.316   5.964   2.278
 4284TIP3   OH212808   0.653   4.528   4.046
 4284TIP3    H112809   0.673   4.497   4.137
 4284TIP3    H212810   0.742   4.526   4.004
 4285TIP3   OH212811   0.586   6.075   3.538
 4285TIP3    H112812   0.507   6.045   3.488
 4285TIP3    H212813   0.567   6.172   3.543
 4286TIP3   OH212814   1.853   5.449   2.299
 4286TIP3    H112815   1.821   5.540   2.286
 4286TIP3    H212816   1.778   5.399   2.261
 4287TIP3   OH212817   1.844   5.453   2.693
 4287TIP3    H112818   1.886   5.432   2.778
 4287TIP3    H212819   1.810   5.366   2.666
 4288TIP3   OH212820   1.153   5.346   3.048
 4288TIP3    H112821   1.177   5.274   3.109
 4288TIP3    H212822   1.231   5.403   3.054
 4289TIP3   OH212823   2.097   5.757   2.370
 4289TIP3    H112824   2.088   5.688   2.437
 4289TIP3    H212825   2.130   5.832   2.421
 4290TIP3   OH212826   1.124   5.754   2.761
 4290TIP3    H112827   1.116   5.656   2.767
 4290TIP3    H212828   1.214   5.765   2.795
 4291TIP3   OH212829   0.832   4.960   2.554
 4291TIP3    H112830   0.780   5.041   2.574
 4291TIP3    H212831   0.763   4.905   2.514
 4292TIP3   OH212832   0.890   5.246   2.737
 4292TIP3    H112833   0.937   5.167   2.772
 4292TIP3    H212834   0.944   5.267   2.659
 4293TIP3   OH212835   1.747   6.216   2.385
 4293TIP3    H112836   1.788   6.143   2.333
 4293TIP3    H212837   1.745   6.178   2.474
 4294TIP3   OH212838   1.657   5.677   2.734
 4294TIP3    H112839   1.700   5.597   2.700
 4294TIP3    H212840   1.738   5.727   2.757
 4295TIP3   OH212841   2.667   4.997   2.731
 4295TIP3    H112842   2.697   5.080   2.774
 4295TIP3    H212843   2.692   5.014   2.639
 4296TIP3   OH212844   2.063   5.179   2.762
 4296TIP3    H112845   2.107   5.095   2.785
 4296TIP3    H212846   2.032   5.159   2.672
 4297TIP3   OH212847   1.406   4.840   2.728
 4297TIP3    H112848   1.385   4.912   2.665
 4297TIP3    H212849   1.357   4.766   2.685
 4298TIP3   OH212850   2.100   4.931   2.349
 4298TIP3    H112851   2.171   4.916   2.416
 4298TIP3    H212852   2.154   4.965   2.275
 4299TIP3   OH212853   1.036   5.039   2.837
 4299TIP3    H112854   1.119   5.020   2.885
 4299TIP3    H212855   1.050   4.983   2.758
 4300TIP3   OH212856   1.473   5.247   2.625
 4300TIP3    H112857   1.566   5.219   2.639
 4300TIP3    H212858   1.431   5.162   2.596
 4301TIP3   OH212859   2.740   5.205   2.904
 4301TIP3    H112860   2.656   5.252   2.885
 4301TIP3    H212861   2.764   5.243   2.990
 4302TIP3   OH212862   1.400   4.822   3.164
 4302TIP3    H112863   1.339   4.859   3.097
 4302TIP3    H212864   1.347   4.838   3.246
 4303TIP3   OH212865   1.719   5.663   2.177
 4303TIP3    H112866   1.711   5.664   2.081
 4303TIP3    H212867   1.687   5.752   2.201
 4304TIP3   OH212868   1.505   5.598   2.955
 4304TIP3    H112869   1.446   5.667   2.993
 4304TIP3    H212870   1.554   5.649   2.887
 4305TIP3   OH212871   2.303   4.935   2.529
 4305TIP3    H112872   2.288   4.895   2.615
 4305TIP3    H212873   2.357   5.013   2.553
 4306TIP3   OH212874   1.271   4.937   2.947
 4306TIP3    H112875   1.333   5.009   2.973
 4306TIP3    H212876   1.321   4.897   2.873
 4307TIP3   OH212877   1.331   5.795   3.049
 4307TIP3    H112878   1.310   5.888   3.024
 4307TIP3    H212879   1.254   5.776   3.107
 4308TIP3   OH212880   0.724   5.482   2.290
 4308TIP3    H112881   0.681   5.504   2.205
 4308TIP3    H212882   0.751   5.571   2.322
 4309TIP3   OH212883   2.163   5.999   2.530
 4309TIP3    H112884   2.073   5.991   2.569
 4309TIP3    H212885   2.157   6.087   2.487
 4310TIP3   OH212886   2.460   4.893   2.895
 4310TIP3    H112887   2.374   4.926   2.864
 4310TIP3    H212888   2.522   4.929   2.828
 4311TIP3   OH212889   1.751   4.537   2.880
 4311TIP3    H112890   1.736   4.443   2.900
 4311TIP3    H212891   1.675   4.577   2.927
 4312TIP3   OH212892   1.861   6.040   2.200
 4312TIP3    H112893   1.910   5.957   2.181
 4312TIP3    H212894   1.925   6.106   2.164
 4313TIP3   OH212895   2.001   5.820   2.118
 4313TIP3    H112896   2.003   5.740   2.065
 4313TIP3    H212897   2.040   5.790   2.203
 4314TIP3   OH212898   2.391   5.908   2.878
 4314TIP3    H112899   2.381   5.832   2.817
 4314TIP3    H212900   2.375   5.984   2.817
 4315TIP3   OH212901   1.683   5.305   2.127
 4315TIP3    H112902   1.606   5.340   2.080
 4315TIP3    H212903   1.746   5.294   2.053
 4316TIP3   OH212904   1.644   5.090   1.852
 4316TIP3    H112905   1.713   5.143   1.894
 4316TIP3    H212906   1.699   5.026   1.803
 4317TIP3   OH212907   2.586   5.546   2.722
 4317TIP3    H112908   2.504   5.599   2.726
 4317TIP3    H212909   2.619   5.572   2.633
 4318TIP3   OH212910   2.035   5.387   2.104
 4318TIP3    H112911   1.982   5.410   2.184
 4318TIP3    H212912   2.120   5.361   2.146
 4319TIP3   OH212913   2.266   5.424   3.024
 4319TIP3    H112914   2.266   5.506   3.077
 4319TIP3    H212915   2.181   5.432   2.977
 4320TIP3   OH212916   1.264   5.404   2.509
 4320TIP3    H112917   1.223   5.340   2.446
 4320TIP3    H212918   1.343   5.354   2.538
 4321TIP3   OH212919   1.410   5.787   2.649
 4321TIP3    H112920   1.404   5.692   2.634
 4321TIP3    H212921   1.502   5.791   2.683
 4322TIP3   OH212922   1.404   5.353   2.877
 4322TIP3    H112923   1.437   5.330   2.788
 4322TIP3    H212924   1.447   5.439   2.895
 4323TIP3   OH212925   1.922   5.993   2.653
 4323TIP3    H112926   1.913   6.075   2.706
 4323TIP3    H212927   1.909   5.922   2.720
 4324TIP3   OH212928   1.539   5.911   3.201
 4324TIP3    H112929   1.479   5.972   3.248
 4324TIP3    H212930   1.475   5.857   3.151
 4325TIP3   OH212931   1.869   5.250   1.935
 4325TIP3    H112932   1.933   5.307   1.982
 4325TIP3    H212933   1.895   5.268   1.841
 4326TIP3   OH212934   1.293   5.468   3.303
 4326TIP3    H112935   1.298   5.556   3.346
 4326TIP3    H212936   1.200   5.446   3.320
 4327TIP3   OH212937   1.611   5.925   2.210
 4327TIP3    H112938   1.697   5.970   2.218
 4327TIP3    H212939   1.558   5.992   2.165
 4328TIP3   OH212940   1.333   6.075   3.289
 4328TIP3    H112941   1.295   6.082   3.200
 4328TIP3    H212942   1.253   6.054   3.343
 4329TIP3   OH212943   2.389   4.483   1.982
 4329TIP3    H112944   2.307   4.507   2.030
 4329TIP3    H212945   2.405   4.565   1.930
 4330TIP3   OH212946   1.128   5.231   2.331
 4330TIP3    H112947   1.056   5.266   2.273
 4330TIP3    H212948   1.100   5.140   2.343
 4331TIP3   OH212949   2.190   5.851   1.528
 4331TIP3    H112950   2.199   5.948   1.515
 4331TIP3    H212951   2.284   5.822   1.518
 4332TIP3   OH212952   0.912   5.611   3.235
 4332TIP3    H112953   0.842   5.591   3.170
 4332TIP3    H212954   0.948   5.523   3.256
 4333TIP3   OH212955   0.764   5.807   2.864
 4333TIP3    H112956   0.860   5.811   2.871
 4333TIP3    H212957   0.738   5.884   2.918
 4334TIP3   OH212958   2.630   6.256   2.926
 4334TIP3    H112959   2.629   6.160   2.942
 4334TIP3    H212960   2.547   6.282   2.972
 4335TIP3   OH212961   1.733   6.041   3.057
 4335TIP3    H112962   1.732   6.133   3.091
 4335TIP3    H212963   1.664   6.000   3.113
 4336TIP3   OH212964   1.499   6.164   2.014
 4336TIP3    H112965   1.454   6.151   1.928
 4336TIP3    H212966   1.468   6.252   2.041
 4337TIP3   OH212967   0.935   6.017   2.396
 4337TIP3    H112968   0.978   6.013   2.485
 4337TIP3    H212969   0.864   5.952   2.406
 4338TIP3   OH212970   1.698   6.070   1.648
 4338TIP3    H112971   1.758   6.001   1.613
 4338TIP3    H212972   1.734   6.082   1.739
 4339TIP3   OH212973   1.750   6.120   1.918
 4339TIP3    H112974   1.663   6.128   1.961
 4339TIP3    H212975   1.805   6.088   1.991
 4340TIP3   OH212976   2.518   5.383   3.202
 4340TIP3    H112977   2.436   5.392   3.151
 4340TIP3    H212978   2.536   5.287   3.193
 4341TIP3   OH212979   1.117   5.792   3.217
 4341TIP3    H112980   1.164   5.780   3.302
 4341TIP3    H212981   1.042   5.729   3.227
 4342TIP3   OH212982   1.515   4.616   3.010
 4342TIP3    H112983   1.427   4.586   2.981
 4342TIP3    H212984   1.489   4.697   3.059
 4343TIP3   OH212985   2.052   4.730   3.204
 4343TIP3    H112986   2.122   4.703   3.268
 4343TIP3    H212987   1.969   4.712   3.253
 4344TIP3   OH212988   2.283   5.159   3.119
 4344TIP3    H112989   2.234   5.157   3.204
 4344TIP3    H212990   2.263   5.248   3.085
 4345TIP3   OH212991   1.950   5.290   1.682
 4345TIP3    H112992   1.912   5.266   1.596
 4345TIP3    H212993   2.035   5.329   1.655
 4346TIP3   OH212994   1.660   4.664   1.982
 4346TIP3    H112995   1.625   4.659   2.073
 4346TIP3    H212996   1.620   4.584   1.944
 4347TIP3   OH212997   1.447   5.133   3.028
 4347TIP3    H112998   1.397   5.155   3.109
 4347TIP3    H212999   1.431   5.214   2.975
 4348TIP3   OH213000   1.329   5.022   2.541
 4348TIP3    H113001   1.238   4.992   2.561
 4348TIP3    H213002   1.342   4.979   2.453
 4349TIP3   OH213003   1.821   5.104   2.269
 4349TIP3    H113004   1.771   5.175   2.224
 4349TIP3    H213005   1.877   5.070   2.197
 4350TIP3   OH213006   1.997   5.379   3.353
 4350TIP3    H113007   1.976   5.307   3.416
 4350TIP3    H213008   2.090   5.395   3.375
 4351TIP3   OH213009   1.977   5.129   2.506
 4351TIP3    H113010   1.915   5.157   2.436
 4351TIP3    H213011   2.014   5.050   2.462
 4352TIP3   OH213012   1.265   5.160   3.235
 4352TIP3    H113013   1.297   5.223   3.301
 4352TIP3    H213014   1.255   5.078   3.286
 4353TIP3   OH213015   1.319   4.640   1.945
 4353TIP3    H113016   1.306   4.640   2.041
 4353TIP3    H213017   1.241   4.691   1.915
 4354TIP3   OH213018   0.859   4.682   2.817
 4354TIP3    H113019   0.936   4.713   2.870
 4354TIP3    H213020   0.899   4.649   2.735
 4355TIP3   OH213021   0.827   4.663   2.337
 4355TIP3    H113022   0.871   4.700   2.258
 4355TIP3    H213023   0.764   4.736   2.355
 4356TIP3   OH213024   1.982   5.376   2.926
 4356TIP3    H113025   2.018   5.305   2.868
 4356TIP3    H213026   1.956   5.323   3.003
 4357TIP3   OH213027   1.662   4.840   2.600
 4357TIP3    H113028   1.582   4.840   2.656
 4357TIP3    H213029   1.733   4.832   2.666
 4358TIP3   OH213030   1.093   4.898   2.607
 4358TIP3    H113031   0.999   4.906   2.579
 4358TIP3    H213032   1.114   4.805   2.587
 4359TIP3   OH213033   1.357   4.893   2.300
 4359TIP3    H113034   1.452   4.906   2.279
 4359TIP3    H213035   1.312   4.914   2.216
 4360TIP3   OH213036   2.151   4.918   2.803
 4360TIP3    H113037   2.120   4.930   2.896
 4360TIP3    H213038   2.083   4.857   2.770
 4361TIP3   OH213039   1.208   4.933   2.076
 4361TIP3    H113040   1.138   4.883   2.031
 4361TIP3    H213041   1.259   4.966   1.999
 4362TIP3   OH213042   2.324   6.605   3.025
 4362TIP3    H113043   2.322   6.631   2.931
 4362TIP3    H213044   2.404   6.652   3.056
 4363TIP3   OH213045   1.279   5.716   3.443
 4363TIP3    H113046   1.359   5.745   3.492
 4363TIP3    H213047   1.214   5.715   3.516
 4364TIP3   OH213048   1.738   5.172   2.698
 4364TIP3    H113049   1.812   5.132   2.650
 4364TIP3    H213050   1.743   5.128   2.785
 4365TIP3   OH213051   1.261   4.656   2.582
 4365TIP3    H113052   1.224   4.580   2.632
 4365TIP3    H213053   1.306   4.611   2.509
 4366TIP3   OH213054   1.718   5.071   2.986
 4366TIP3    H113055   1.628   5.106   3.003
 4366TIP3    H213056   1.775   5.131   3.038
 4367TIP3   OH213057   1.433   5.472   2.079
 4367TIP3    H113058   1.368   5.399   2.065
 4367TIP3    H213059   1.459   5.458   2.170
 4368TIP3   OH213060   2.354   5.694   2.709
 4368TIP3    H113061   2.379   5.745   2.630
 4368TIP3    H213062   2.270   5.651   2.681
 4369TIP3   OH213063   1.913   4.763   1.957
 4369TIP3    H113064   1.816   4.745   1.960
 4369TIP3    H213065   1.919   4.859   1.975
 4370TIP3   OH213066   1.846   5.772   3.083
 4370TIP3    H113067   1.889   5.757   3.168
 4370TIP3    H213068   1.815   5.864   3.089
 4371TIP3   OH213069   1.981   5.019   2.054
 4371TIP3    H113070   2.077   5.021   2.069
 4371TIP3    H213071   1.966   5.098   1.998
 4372TIP3   OH213072   1.154   5.482   2.758
 4372TIP3    H113073   1.191   5.442   2.677
 4372TIP3    H213074   1.186   5.421   2.827
 4373TIP3   OH213075   1.601   5.607   1.907
 4373TIP3    H113076   1.555   5.694   1.908
 4373TIP3    H213077   1.544   5.557   1.969
 4374TIP3   OH213078   1.031   5.397   3.373
 4374TIP3    H113079   1.047   5.383   3.468
 4374TIP3    H213080   0.960   5.333   3.356
 4375TIP3   OH213081   1.757   5.515   3.392
 4375TIP3    H113082   1.697   5.453   3.348
 4375TIP3    H213083   1.844   5.479   3.364
 4376TIP3   OH213084   2.010   6.031   2.980
 4376TIP3    H113085   1.914   6.035   2.993
 4376TIP3    H213086   2.041   6.085   3.056
 4377TIP3   OH213087   2.418   5.110   1.888
 4377TIP3    H113088   2.357   5.067   1.824
 4377TIP3    H213089   2.418   5.200   1.847
 4378TIP3   OH213090   2.642   5.966   2.966
 4378TIP3    H113091   2.544   5.960   2.958
 4378TIP3    H213092   2.668   5.936   2.876
 4379TIP3   OH213093   2.120   5.926   1.792
 4379TIP3    H113094   2.101   5.854   1.853
 4379TIP3    H213095   2.138   5.879   1.708
 4380TIP3   OH213096   2.119   5.557   2.625
 4380TIP3    H113097   2.026   5.533   2.639
 4380TIP3    H213098   2.153   5.475   2.583
 4381TIP3   OH213099   0.816   5.085   2.093
 4381TIP3    H113100   0.857   5.171   2.113
 4381TIP3    H213101   0.737   5.088   2.152
 4382TIP3   OH213102   1.521   6.124   2.850
 4382TIP3    H113103   1.563   6.198   2.802
 4382TIP3    H213104   1.596   6.091   2.902
 4383TIP3   OH213105   1.163   5.998   2.250
 4383TIP3    H113106   1.077   6.025   2.287
 4383TIP3    H213107   1.206   6.087   2.245
 4384TIP3   OH213108   1.903   5.761   2.815
 4384TIP3    H113109   1.891   5.758   2.912
 4384TIP3    H213110   1.986   5.713   2.805
 4385TIP3   OH213111   1.887   5.655   1.696
 4385TIP3    H113112   1.938   5.632   1.777
 4385TIP3    H213113   1.799   5.623   1.721
 4386TIP3   OH213114   2.152   6.291   2.861
 4386TIP3    H113115   2.071   6.238   2.853
 4386TIP3    H213116   2.138   6.357   2.789
 4387TIP3   OH213117   2.220   6.127   1.515
 4387TIP3    H113118   2.261   6.201   1.468
 4387TIP3    H213119   2.139   6.172   1.547
 4388TIP3   OH213120   1.238   4.904   3.378
 4388TIP3    H113121   1.141   4.905   3.391
 4388TIP3    H213122   1.266   4.848   3.452
 4389TIP3   OH213123   2.045   5.595   1.921
 4389TIP3    H113124   2.034   5.522   1.985
 4389TIP3    H213125   2.141   5.586   1.902
 4390TIP3   OH213126   0.963   5.983   3.009
 4390TIP3    H113127   1.012   5.918   3.061
 4390TIP3    H213128   0.974   6.063   3.062
 4391TIP3   OH213129   1.245   5.633   1.702
 4391TIP3    H113130   1.258   5.544   1.664
 4391TIP3    H213131   1.214   5.611   1.791
 4392TIP3   OH213132   1.198   5.639   1.991
 4392TIP3    H113133   1.291   5.613   1.998
 4392TIP3    H213134   1.203   5.736   1.980
 4393TIP3   OH213135   0.924   5.334   2.171
 4393TIP3    H113136   0.855   5.377   2.226
 4393TIP3    H213137   0.932   5.400   2.100
 4394TIP3   OH213138   2.078   4.966   3.063
 4394TIP3    H113139   2.158   5.008   3.101
 4394TIP3    H213140   2.067   4.887   3.119
 4395TIP3   OH213141   1.959   4.715   2.234
 4395TIP3    H113142   1.945   4.736   2.139
 4395TIP3    H213143   1.998   4.799   2.267
 4396TIP3   OH213144   1.455   5.833   1.916
 4396TIP3    H113145   1.369   5.864   1.951
 4396TIP3    H213146   1.477   5.906   1.857
 4397TIP3   OH213147   1.641   4.902   2.331
 4397TIP3    H113148   1.706   4.973   2.315
 4397TIP3    H213149   1.649   4.891   2.428
 4398TIP3   OH213150   1.917   5.216   3.136
 4398TIP3    H113151   1.941   5.268   3.215
 4398TIP3    H213152   1.969   5.135   3.148
 4399TIP3   OH213153   1.788   4.619   2.430
 4399TIP3    H113154   1.786   4.694   2.492
 4399TIP3    H213155   1.850   4.654   2.362
 4400TIP3   OH213156   1.202   5.911   1.986
 4400TIP3    H113157   1.174   5.979   1.920
 4400TIP3    H213158   1.183   5.957   2.070
 4401TIP3   OH213159   1.301   4.627   2.222
 4401TIP3    H113160   1.297   4.716   2.262
 4401TIP3    H213161   1.398   4.610   2.229
 4402TIP3   OH213162   2.551   5.118   3.123
 4402TIP3    H113163   2.453   5.114   3.126
 4402TIP3    H213164   2.569   5.080   3.036
 4403TIP3   OH213165   2.205   5.312   2.507
 4403TIP3    H113166   2.130   5.251   2.521
 4403TIP3    H213167   2.278   5.267   2.555
 4404TIP3   OH213168   0.918   5.536   1.975
 4404TIP3    H113169   0.984   5.607   1.979
 4404TIP3    H213170   0.961   5.478   1.909
 4405TIP3   OH213171   0.861   4.815   2.112
 4405TIP3    H113172   0.859   4.913   2.109
 4405TIP3    H213173   0.787   4.791   2.057
 4406TIP3   OH213174   2.175   6.269   2.453
 4406TIP3    H113175   2.133   6.316   2.378
 4406TIP3    H213176   2.269   6.289   2.434
 4407TIP3   OH213177   1.251   4.536   2.981
 4407TIP3    H113178   1.220   4.501   2.895
 4407TIP3    H213179   1.240   4.459   3.040
 4408TIP3   OH213180   0.798   5.749   2.357
 4408TIP3    H113181   0.740   5.773   2.431
 4408TIP3    H213182   0.753   5.794   2.282
 4409TIP3   OH213183   0.949   6.302   3.434
 4409TIP3    H113184   1.035   6.303   3.482
 4409TIP3    H213185   0.929   6.207   3.434
 4410TIP3   OH213186   1.424   6.257   3.482
 4410TIP3    H113187   1.520   6.243   3.487
 4410TIP3    H213188   1.400   6.196   3.409
 4411TIP3   OH213189   1.410   5.834   1.607
 4411TIP3    H113190   1.355   5.763   1.646
 4411TIP3    H213191   1.485   5.783   1.573
 4412TIP3   OH213192   2.066   6.167   3.213
 4412TIP3    H113193   2.059   6.098   3.283
 4412TIP3    H213194   2.143   6.219   3.243
 4413TIP3   OH213195   1.846   5.873   1.520
 4413TIP3    H113196   1.885   5.810   1.584
 4413TIP3    H213197   1.910   5.872   1.447
 4414TIP3   OH213198   1.077   5.704   3.635
 4414TIP3    H113199   1.092   5.608   3.642
 4414TIP3    H213200   0.990   5.708   3.590
 4415TIP3   OH213201   1.055   5.356   1.829
 4415TIP3    H113202   1.108   5.314   1.898
 4415TIP3    H213203   1.120   5.357   1.755
 4416TIP3   OH213204   1.683   5.791   3.410
 4416TIP3    H113205   1.645   5.811   3.322
 4416TIP3    H213206   1.715   5.699   3.399
 4417TIP3   OH213207   1.572   5.555   1.638
 4417TIP3    H113208   1.574   5.565   1.735
 4417TIP3    H213209   1.573   5.458   1.629
 4418TIP3   OH213210   2.174   5.803   3.015
 4418TIP3    H113211   2.253   5.841   2.972
 4418TIP3    H213212   2.109   5.874   2.999
 4419TIP3   OH213213   1.198   5.439   3.619
 4419TIP3    H113214   1.277   5.390   3.592
 4419TIP3    H213215   1.226   5.474   3.706
 4420TIP3   OH213216   1.273   5.253   2.058
 4420TIP3    H113217   1.234   5.205   2.132
 4420TIP3    H213218   1.307   5.180   2.002
 4421TIP3   OH213219   1.530   5.321   3.278
 4421TIP3    H113220   1.453   5.382   3.278
 4421TIP3    H213221   1.583   5.355   3.203
 4422TIP3   OH213222   1.365   5.056   1.888
 4422TIP3    H113223   1.340   5.061   1.793
 4422TIP3    H213224   1.463   5.054   1.881
 4423TIP3   OH213225   2.049   5.724   3.411
 4423TIP3    H113226   2.129   5.696   3.366
 4423TIP3    H213227   2.043   5.660   3.484
 4424TIP3   OH213228   2.180   5.383   1.559
 4424TIP3    H113229   2.161   5.336   1.475
 4424TIP3    H213230   2.146   5.472   1.535
 4425TIP3   OH213231   1.654   5.113   3.404
 4425TIP3    H113232   1.656   5.033   3.347
 4425TIP3    H213233   1.610   5.179   3.347
 4426TIP3   OH213234   1.658   4.900   3.213
 4426TIP3    H113235   1.686   4.940   3.129
 4426TIP3    H213236   1.565   4.876   3.194
 4427TIP3   OH213237   1.680   5.429   3.084
 4427TIP3    H113238   1.768   5.443   3.047
 4427TIP3    H213239   1.626   5.496   3.038
 4428TIP3   OH213240   2.263   5.398   3.463
 4428TIP3    H113241   2.312   5.316   3.479
 4428TIP3    H213242   2.333   5.456   3.429
 4429TIP3   OH213243   2.305   5.653   3.199
 4429TIP3    H113244   2.248   5.709   3.141
 4429TIP3    H213245   2.393   5.675   3.161
 4430TIP3   OH213246   1.531   5.219   3.638
 4430TIP3    H113247   1.465   5.149   3.653
 4430TIP3    H213248   1.566   5.194   3.550
 4431TIP3   OH213249   1.789   4.659   3.280
 4431TIP3    H113250   1.739   4.740   3.259
 4431TIP3    H213251   1.720   4.590   3.271
 4432TIP3   OH213252   1.916   5.163   3.497
 4432TIP3    H113253   1.904   5.147   3.593
 4432TIP3    H213254   1.826   5.139   3.466
 4433TIP3   OH213255   2.153   5.113   3.351
 4433TIP3    H113256   2.080   5.115   3.415
 4433TIP3    H213257   2.228   5.085   3.406
 4434TIP3   OH213258   2.379   5.055   3.500
 4434TIP3    H113259   2.395   4.959   3.516
 4434TIP3    H213260   2.378   5.092   3.590
 4435TIP3   OH213261   1.372   4.999   3.693
 4435TIP3    H113262   1.376   4.907   3.660
 4435TIP3    H213263   1.412   4.987   3.782
 4436TIP3   OH213264   1.884   4.671   3.538
 4436TIP3    H113265   1.949   4.599   3.534
 4436TIP3    H213266   1.844   4.665   3.449
 4437TIP3   OH213267   1.951   4.886   3.697
 4437TIP3    H113268   1.930   4.814   3.633
 4437TIP3    H213269   1.871   4.942   3.691
 4438TIP3   OH213270   1.174   6.111   1.800
 4438TIP3    H113271   1.268   6.107   1.776
 4438TIP3    H213272   1.139   6.162   1.725
 4439TIP3   OH213273   0.649   5.493   2.016
 4439TIP3    H113274   0.743   5.515   1.997
 4439TIP3    H213275   0.641   5.406   1.972
 4440TIP3   OH213276   0.570   6.108   2.427
 4440TIP3    H113277   0.502   6.049   2.389
 4440TIP3    H213278   0.611   6.048   2.492
 4441TIP3   OH213279   0.710   5.950   2.609
 4441TIP3    H113280   0.686   5.887   2.679
 4441TIP3    H213281   0.756   6.017   2.663
 4442TIP3   OH213282   2.428   6.360   2.416
 4442TIP3    H113283   2.456   6.392   2.503
 4442TIP3    H213284   2.495   6.399   2.357
 4443TIP3   OH213285   2.456   6.378   2.698
 4443TIP3    H113286   2.414   6.290   2.694
 4443TIP3    H213287   2.533   6.357   2.753
 4444TIP3   OH213288   2.503   6.056   3.270
 4444TIP3    H113289   2.432   6.066   3.336
 4444TIP3    H213290   2.547   6.143   3.273
 4445TIP3   OH213291   2.319   5.570   1.888
 4445TIP3    H113292   2.387   5.634   1.856
 4445TIP3    H213293   2.365   5.532   1.967
 4446TIP3   OH213294   2.447   5.437   2.092
 4446TIP3    H113295   2.383   5.396   2.153
 4446TIP3    H213296   2.516   5.471   2.153
 4447TIP3   OH213297   2.503   5.829   2.521
 4447TIP3    H113298   2.557   5.761   2.476
 4447TIP3    H213299   2.503   5.902   2.457
 4448TIP3   OH213300   2.331   6.128   2.718
 4448TIP3    H113301   2.260   6.171   2.769
 4448TIP3    H213302   2.282   6.083   2.646
 4449TIP3   OH213303   2.385   5.345   1.738
 4449TIP3    H113304   2.313   5.346   1.672
 4449TIP3    H213305   2.358   5.421   1.794
 4450TIP3   OH213306   2.252   5.019   1.693
 4450TIP3    H113307   2.215   5.049   1.610
 4450TIP3    H213308   2.231   4.923   1.689
 4451TIP3   OH213309   2.259   5.295   2.238
 4451TIP3    H113310   2.270   5.199   2.230
 4451TIP3    H213311   2.246   5.306   2.335
 4452TIP3   OH213312   0.887   5.365   2.987
 4452TIP3    H113313   0.884   5.332   2.895
 4452TIP3    H213314   0.984   5.367   3.003
 4453TIP3   OH213315   2.552   5.719   3.096
 4453TIP3    H113316   2.623   5.652   3.085
 4453TIP3    H213317   2.580   5.788   3.033
 4454TIP3   OH213318   2.733   5.518   3.106
 4454TIP3    H113319   2.660   5.468   3.148
 4454TIP3    H213320   2.807   5.457   3.122
 4455TIP3   OH213321   2.198   4.754   1.679
 4455TIP3    H113322   2.273   4.718   1.731
 4455TIP3    H213323   2.126   4.691   1.695
 4456TIP3   OH213324   2.259   5.010   2.129
 4456TIP3    H113325   2.299   4.921   2.144
 4456TIP3    H213326   2.317   5.043   2.058
 4457TIP3   OH213327   2.417   5.181   2.627
 4457TIP3    H113328   2.503   5.205   2.585
 4457TIP3    H213329   2.433   5.218   2.716
 4458TIP3   OH213330   2.489   5.326   2.858
 4458TIP3    H113331   2.413   5.362   2.907
 4458TIP3    H213332   2.523   5.407   2.813
 4459TIP3   OH213333   1.106   5.052   3.661
 4459TIP3    H113334   1.204   5.046   3.664
 4459TIP3    H213335   1.082   4.965   3.698
 4460TIP3   OH213336   2.936   4.918   3.414
 4460TIP3    H113337   3.000   4.855   3.374
 4460TIP3    H213338   2.909   4.971   3.336
 4461TIP3   OH213339   2.366   4.761   2.171
 4461TIP3    H113340   2.415   4.745   2.254
 4461TIP3    H213341   2.306   4.684   2.170
 4462TIP3   OH213342   1.067   4.745   2.990
 4462TIP3    H113343   1.128   4.669   2.999
 4462TIP3    H213344   1.130   4.819   2.982
 4463TIP3   OH213345   0.867   5.017   3.062
 4463TIP3    H113346   0.917   5.014   2.979
 4463TIP3    H213347   0.896   5.101   3.099
 4464TIP3   OH213348   2.809   5.056   3.217
 4464TIP3    H113349   2.724   5.099   3.239
 4464TIP3    H213350   2.776   4.983   3.161
 4465TIP3   OH213351   2.445   4.690   1.805
 4465TIP3    H113352   2.484   4.621   1.748
 4465TIP3    H213353   2.512   4.761   1.802
 4466TIP3   OH213354   0.854   4.524   2.567
 4466TIP3    H113355   0.760   4.515   2.593
 4466TIP3    H213356   0.847   4.582   2.488
 4467TIP3   OH213357   2.009   6.226   2.069
 4467TIP3    H113358   2.063   6.218   1.988
 4467TIP3    H213359   2.059   6.291   2.121
 4468TIP3   OH213360   1.074   4.603   3.378
 4468TIP3    H113361   1.022   4.597   3.460
 4468TIP3    H213362   1.008   4.639   3.317
 4469TIP3   OH213363   1.112   6.028   3.452
 4469TIP3    H113364   1.018   6.006   3.439
 4469TIP3    H213365   1.124   6.015   3.546
 4470TIP3   OH213366   1.295   6.064   3.000
 4470TIP3    H113367   1.245   6.139   2.963
 4470TIP3    H213368   1.381   6.081   2.956
 4471TIP3   OH213369   1.733   6.307   3.139
 4471TIP3    H113370   1.774   6.306   3.228
 4471TIP3    H213371   1.799   6.359   3.088
 4472TIP3   OH213372   1.914   6.460   3.002
 4472TIP3    H113373   1.986   6.411   2.960
 4472TIP3    H213374   1.965   6.518   3.063
 4473TIP3   OH213375   2.710   4.819   3.100
 4473TIP3    H113376   2.620   4.810   3.064
 4473TIP3    H213377   2.744   4.727   3.090
 4474TIP3   OH213378   0.966   6.317   3.030
 4474TIP3    H113379   0.875   6.348   3.007
 4474TIP3    H213380   0.981   6.368   3.110
 4475TIP3   OH213381   1.202   6.296   2.885
 4475TIP3    H113382   1.115   6.309   2.930
 4475TIP3    H213383   1.183   6.332   2.796
 4476TIP3   OH213384   1.628   6.325   2.684
 4476TIP3    H113385   1.559   6.346   2.618
 4476TIP3    H213386   1.641   6.412   2.727
 4477TIP3   OH213387   1.899   6.262   2.734
 4477TIP3    H113388   1.805   6.284   2.715
 4477TIP3    H213389   1.945   6.337   2.693
 4478TIP3   OH213390   2.100   6.453   2.647
 4478TIP3    H113391   2.089   6.539   2.601
 4478TIP3    H213392   2.130   6.395   2.574
 4479TIP3   OH213393   0.882   6.113   2.765
 4479TIP3    H113394   0.903   6.086   2.857
 4479TIP3    H213395   0.955   6.067   2.719
 4480TIP3   OH213396   1.077   5.981   2.624
 4480TIP3    H113397   1.090   5.901   2.681
 4480TIP3    H213398   1.166   6.022   2.629
 4481TIP3   OH213399   1.338   6.073   2.638
 4481TIP3    H113400   1.377   5.985   2.626
 4481TIP3    H213401   1.387   6.103   2.717
 4482TIP3   OH213402   1.909   4.732   2.715
 4482TIP3    H113403   1.871   4.662   2.769
 4482TIP3    H213404   1.988   4.689   2.676
 4483TIP3   OH213405   2.434   4.612   2.621
 4483TIP3    H113406   2.472   4.666   2.548
 4483TIP3    H213407   2.340   4.637   2.618
 4484TIP3   OH213408   2.531   4.713   2.387
 4484TIP3    H113409   2.605   4.662   2.348
 4484TIP3    H213410   2.565   4.805   2.373
 4485TIP3   OH213411   1.163   4.442   2.733
 4485TIP3    H113412   1.070   4.410   2.737
 4485TIP3    H213413   1.211   4.357   2.728
 4486TIP3   OH213414   0.949   4.316   2.386
 4486TIP3    H113415   0.979   4.373   2.312
 4486TIP3    H213416   0.922   4.382   2.453
 4487TIP3   OH213417   1.611   4.472   2.617
 4487TIP3    H113418   1.665   4.522   2.554
 4487TIP3    H213419   1.636   4.513   2.701
 4488TIP3   OH213420   2.147   4.624   2.600
 4488TIP3    H113421   2.154   4.585   2.512
 4488TIP3    H213422   2.137   4.543   2.656
 4489TIP3   OH213423   2.183   4.547   2.163
 4489TIP3    H113424   2.097   4.591   2.177
 4489TIP3    H213425   2.168   4.462   2.208
 4490TIP3   OH213426   0.668   5.886   2.166
 4490TIP3    H113427   0.581   5.856   2.133
 4490TIP3    H213428   0.665   5.978   2.132
 4491TIP3   OH213429   1.069   4.469   2.144
 4491TIP3    H113430   1.117   4.406   2.088
 4491TIP3    H213431   1.142   4.523   2.180
 4492TIP3   OH213432   1.578   4.650   2.247
 4492TIP3    H113433   1.640   4.605   2.307
 4492TIP3    H213434   1.599   4.743   2.269
 4493TIP3   OH213435   1.440   6.070   1.744
 4493TIP3    H113436   1.529   6.092   1.708
 4493TIP3    H213437   1.418   5.995   1.684
 4494TIP3   OH213438   2.156   6.193   1.838
 4494TIP3    H113439   2.147   6.095   1.827
 4494TIP3    H213440   2.113   6.224   1.757
 4495TIP3   OH213441   1.370   4.724   3.627
 4495TIP3    H113442   1.335   4.652   3.682
 4495TIP3    H213443   1.464   4.723   3.655
 4496TIP3   OH213444   1.621   4.722   3.745
 4496TIP3    H113445   1.706   4.695   3.707
 4496TIP3    H213446   1.608   4.654   3.814
 4497TIP3   OH213447   0.733   5.887   1.810
 4497TIP3    H113448   0.732   5.926   1.899
 4497TIP3    H213449   0.825   5.854   1.801
 4498TIP3   OH213450   2.448   4.785   3.531
 4498TIP3    H113451   2.465   4.754   3.623
 4498TIP3    H213452   2.537   4.780   3.492
 4499TIP3   OH213453   2.381   6.335   3.025
 4499TIP3    H113454   2.303   6.306   2.974
 4499TIP3    H213455   2.363   6.432   3.030
 4500TIP3   OH213456   3.650   5.707   1.790
 4500TIP3    H113457   3.619   5.798   1.769
 4500TIP3    H213458   3.575   5.656   1.754
 4501TIP3   OH213459   3.648   5.712   2.177
 4501TIP3    H113460   3.684   5.684   2.263
 4501TIP3    H213461   3.611   5.629   2.143
 4502TIP3   OH213462   2.945   5.602   2.541
 4502TIP3    H113463   2.976   5.533   2.603
 4502TIP3    H213464   3.026   5.652   2.528
 4503TIP3   OH213465   3.895   6.012   1.856
 4503TIP3    H113466   3.880   5.942   1.922
 4503TIP3    H213467   3.927   6.086   1.910
 4504TIP3   OH213468   2.921   6.012   2.258
 4504TIP3    H113469   2.913   5.914   2.260
 4504TIP3    H213470   3.017   6.022   2.251
 4505TIP3   OH213471   2.626   5.211   2.042
 4505TIP3    H113472   2.582   5.295   2.061
 4505TIP3    H213473   2.554   5.162   1.999
 4506TIP3   OH213474   2.683   5.501   2.220
 4506TIP3    H113475   2.733   5.424   2.254
 4506TIP3    H213476   2.748   5.542   2.162
 4507TIP3   OH213477   3.546   6.473   1.873
 4507TIP3    H113478   3.586   6.403   1.817
 4507TIP3    H213479   3.539   6.428   1.958
 4508TIP3   OH213480   3.447   5.935   2.221
 4508TIP3    H113481   3.489   5.858   2.179
 4508TIP3    H213482   3.529   5.983   2.246
 4509TIP3   OH213483   4.464   5.253   2.218
 4509TIP3    H113484   4.494   5.337   2.257
 4509TIP3    H213485   4.489   5.265   2.125
 4510TIP3   OH213486   3.858   5.434   2.250
 4510TIP3    H113487   3.904   5.350   2.271
 4510TIP3    H213488   3.829   5.416   2.159
 4511TIP3   OH213489   3.200   5.095   2.217
 4511TIP3    H113490   3.183   5.168   2.154
 4511TIP3    H213491   3.152   5.022   2.172
 4512TIP3   OH213492   3.895   5.189   1.835
 4512TIP3    H113493   3.965   5.174   1.902
 4512TIP3    H213494   3.949   5.221   1.761
 4513TIP3   OH213495   2.832   5.296   2.324
 4513TIP3    H113496   2.915   5.279   2.372
 4513TIP3    H213497   2.848   5.241   2.244
 4514TIP3   OH213498   3.272   5.493   2.123
 4514TIP3    H113499   3.367   5.471   2.132
 4514TIP3    H213500   3.235   5.410   2.088
 4515TIP3   OH213501   4.538   5.464   2.388
 4515TIP3    H113502   4.454   5.508   2.367
 4515TIP3    H213503   4.553   5.495   2.478
 4516TIP3   OH213504   3.195   5.078   2.651
 4516TIP3    H113505   3.136   5.116   2.583
 4516TIP3    H213506   3.143   5.096   2.732
 4517TIP3   OH213507   3.530   5.924   1.663
 4517TIP3    H113508   3.502   5.917   1.571
 4517TIP3    H213509   3.490   6.009   1.689
 4518TIP3   OH213510   3.302   5.854   2.442
 4518TIP3    H113511   3.243   5.924   2.479
 4518TIP3    H213512   3.346   5.902   2.369
 4519TIP3   OH213513   4.097   5.194   2.015
 4519TIP3    H113514   4.094   5.145   2.097
 4519TIP3    H213515   4.153   5.270   2.039
 4520TIP3   OH213516   3.066   5.194   2.435
 4520TIP3    H113517   3.128   5.266   2.459
 4520TIP3    H213518   3.116   5.154   2.360
 4521TIP3   OH213519   3.131   6.052   2.544
 4521TIP3    H113520   3.106   6.139   2.507
 4521TIP3    H213521   3.052   6.034   2.598
 4522TIP3   OH213522   2.520   5.740   1.779
 4522TIP3    H113523   2.484   5.772   1.694
 4522TIP3    H213524   2.555   5.823   1.818
 4523TIP3   OH213525   3.962   6.258   2.021
 4523TIP3    H113526   3.872   6.247   2.059
 4523TIP3    H213527   3.953   6.342   1.974
 4524TIP3   OH213528   4.257   5.153   2.384
 4524TIP3    H113529   4.170   5.180   2.350
 4524TIP3    H213530   4.318   5.186   2.315
 4525TIP3   OH213531   3.546   4.794   2.364
 4525TIP3    H113532   3.533   4.700   2.384
 4525TIP3    H213533   3.471   4.834   2.413
 4526TIP3   OH213534   3.660   6.301   1.689
 4526TIP3    H113535   3.708   6.216   1.671
 4526TIP3    H213536   3.725   6.364   1.652
 4527TIP3   OH213537   3.801   6.083   1.607
 4527TIP3    H113538   3.789   6.003   1.554
 4527TIP3    H213539   3.839   6.048   1.690
 4528TIP3   OH213540   4.188   6.165   2.364
 4528TIP3    H113541   4.176   6.088   2.304
 4528TIP3    H213542   4.171   6.240   2.302
 4529TIP3   OH213543   3.481   5.561   1.623
 4529TIP3    H113544   3.404   5.616   1.600
 4529TIP3    H213545   3.529   5.557   1.538
 4530TIP3   OH213546   3.440   5.346   1.335
 4530TIP3    H113547   3.506   5.400   1.382
 4530TIP3    H213548   3.499   5.284   1.287
 4531TIP3   OH213549   4.384   5.807   2.212
 4531TIP3    H113550   4.299   5.857   2.214
 4531TIP3    H213551   4.414   5.829   2.121
 4532TIP3   OH213552   3.829   5.643   1.591
 4532TIP3    H113553   3.776   5.666   1.671
 4532TIP3    H213554   3.914   5.618   1.633
 4533TIP3   OH213555   4.062   5.680   2.510
 4533TIP3    H113556   4.060   5.763   2.561
 4533TIP3    H213557   3.977   5.685   2.463
 4534TIP3   OH213558   3.061   5.639   2.013
 4534TIP3    H113559   3.021   5.581   1.945
 4534TIP3    H213560   3.137   5.586   2.043
 4535TIP3   OH213561   3.189   6.050   2.159
 4535TIP3    H113562   3.172   6.018   2.069
 4535TIP3    H213563   3.279   6.014   2.176
 4536TIP3   OH213564   3.190   5.614   2.364
 4536TIP3    H113565   3.227   5.586   2.278
 4536TIP3    H213566   3.238   5.697   2.382
 4537TIP3   OH213567   3.721   6.250   2.142
 4537TIP3    H113568   3.710   6.329   2.197
 4537TIP3    H213569   3.705   6.177   2.204
 4538TIP3   OH213570   3.337   6.169   2.688
 4538TIP3    H113571   3.275   6.229   2.735
 4538TIP3    H213572   3.273   6.115   2.637
 4539TIP3   OH213573   3.664   5.504   1.418
 4539TIP3    H113574   3.725   5.563   1.468
 4539TIP3    H213575   3.691   5.523   1.325
 4540TIP3   OH213576   3.092   5.723   2.795
 4540TIP3    H113577   3.096   5.812   2.835
 4540TIP3    H213578   2.997   5.703   2.805
 4541TIP3   OH213579   3.412   6.181   1.696
 4541TIP3    H113580   3.496   6.229   1.702
 4541TIP3    H213581   3.355   6.244   1.651
 4542TIP3   OH213582   3.129   6.333   2.775
 4542TIP3    H113583   3.094   6.337   2.685
 4542TIP3    H213584   3.048   6.313   2.828
 4543TIP3   OH213585   4.183   4.740   1.466
 4543TIP3    H113586   4.103   4.766   1.516
 4543TIP3    H213587   4.201   4.821   1.415
 4544TIP3   OH213588   2.927   5.484   1.816
 4544TIP3    H113589   2.859   5.526   1.759
 4544TIP3    H213590   2.893   5.394   1.824
 4545TIP3   OH213591   3.985   6.106   1.021
 4545TIP3    H113592   3.995   6.201   1.000
 4545TIP3    H213593   4.078   6.075   1.007
 4546TIP3   OH213594   2.707   5.868   2.723
 4546TIP3    H113595   2.643   5.844   2.653
 4546TIP3    H213596   2.747   5.781   2.746
 4547TIP3   OH213597   2.564   6.059   2.354
 4547TIP3    H113598   2.660   6.051   2.344
 4547TIP3    H213599   2.558   6.137   2.412
 4548TIP3   OH213600   4.425   6.514   2.411
 4548TIP3    H113601   4.425   6.418   2.425
 4548TIP3    H213602   4.343   6.539   2.458
 4549TIP3   OH213603   3.532   6.297   2.545
 4549TIP3    H113604   3.528   6.389   2.578
 4549TIP3    H213605   3.461   6.255   2.599
 4550TIP3   OH213606   3.294   6.421   1.500
 4550TIP3    H113607   3.252   6.407   1.414
 4550TIP3    H213608   3.263   6.511   1.524
 4551TIP3   OH213609   2.731   6.273   1.885
 4551TIP3    H113610   2.781   6.267   1.969
 4551TIP3    H213611   2.680   6.191   1.888
 4552TIP3   OH213612   3.493   6.327   1.136
 4552TIP3    H113613   3.552   6.257   1.098
 4552TIP3    H213614   3.531   6.338   1.225
 4553TIP3   OH213615   3.546   6.377   1.406
 4553TIP3    H113616   3.458   6.385   1.450
 4553TIP3    H213617   3.599   6.338   1.477
 4554TIP3   OH213618   4.315   5.641   2.687
 4554TIP3    H113619   4.232   5.650   2.638
 4554TIP3    H213620   4.332   5.545   2.677
 4555TIP3   OH213621   2.912   6.051   2.708
 4555TIP3    H113622   2.962   6.034   2.790
 4555TIP3    H213623   2.837   5.987   2.716
 4556TIP3   OH213624   3.311   4.872   2.498
 4556TIP3    H113625   3.222   4.844   2.468
 4556TIP3    H213626   3.287   4.954   2.545
 4557TIP3   OH213627   3.849   4.986   2.690
 4557TIP3    H113628   3.919   4.959   2.753
 4557TIP3    H213629   3.767   4.968   2.739
 4558TIP3   OH213630   4.082   5.416   2.608
 4558TIP3    H113631   4.031   5.414   2.692
 4558TIP3    H213632   4.060   5.505   2.572
 4559TIP3   OH213633   3.742   5.545   1.164
 4559TIP3    H113634   3.709   5.522   1.076
 4559TIP3    H213635   3.828   5.585   1.140
 4560TIP3   OH213636   3.452   4.922   1.467
 4560TIP3    H113637   3.420   4.917   1.559
 4560TIP3    H213638   3.417   4.839   1.432
 4561TIP3   OH213639   3.242   5.391   2.513
 4561TIP3    H113640   3.195   5.414   2.596
 4561TIP3    H213641   3.226   5.472   2.460
 4562TIP3   OH213642   3.128   5.275   2.028
 4562TIP3    H113643   3.035   5.249   2.046
 4562TIP3    H213644   3.140   5.234   1.939
 4563TIP3   OH213645   3.617   5.358   1.756
 4563TIP3    H113646   3.568   5.430   1.711
 4563TIP3    H213647   3.675   5.326   1.684
 4564TIP3   OH213648   3.793   5.636   2.839
 4564TIP3    H113649   3.772   5.563   2.902
 4564TIP3    H213650   3.887   5.652   2.862
 4565TIP3   OH213651   3.772   5.386   1.993
 4565TIP3    H113652   3.711   5.414   1.922
 4565TIP3    H213653   3.810   5.307   1.949
 4566TIP3   OH213654   3.061   5.418   2.723
 4566TIP3    H113655   3.100   5.480   2.787
 4566TIP3    H213656   3.054   5.336   2.776
 4567TIP3   OH213657   3.109   4.894   1.432
 4567TIP3    H113658   3.103   4.895   1.529
 4567TIP3    H213659   3.034   4.950   1.407
 4568TIP3   OH213660   2.657   4.936   2.306
 4568TIP3    H113661   2.730   4.972   2.360
 4568TIP3    H213662   2.700   4.912   2.223
 4569TIP3   OH213663   2.621   4.918   1.824
 4569TIP3    H113664   2.668   4.953   1.745
 4569TIP3    H213665   2.562   4.993   1.841
 4570TIP3   OH213666   3.782   5.632   2.415
 4570TIP3    H113667   3.816   5.561   2.356
 4570TIP3    H213668   3.753   5.578   2.491
 4571TIP3   OH213669   3.459   5.097   2.088
 4571TIP3    H113670   3.380   5.096   2.146
 4571TIP3    H213671   3.531   5.089   2.152
 4572TIP3   OH213672   2.889   5.154   2.096
 4572TIP3    H113673   2.795   5.159   2.066
 4572TIP3    H213674   2.915   5.063   2.072
 4573TIP3   OH213675   3.153   5.148   1.787
 4573TIP3    H113676   3.248   5.162   1.768
 4573TIP3    H213677   3.110   5.170   1.701
 4574TIP3   OH213678   3.949   5.175   2.294
 4574TIP3    H113679   3.914   5.187   2.385
 4574TIP3    H213680   3.883   5.114   2.257
 4575TIP3   OH213681   3.003   5.184   1.560
 4575TIP3    H113682   2.935   5.139   1.508
 4575TIP3    H213683   3.057   5.223   1.488
 4576TIP3   OH213684   4.120   6.863   2.512
 4576TIP3    H113685   4.119   6.883   2.417
 4576TIP3    H213686   4.201   6.907   2.541
 4577TIP3   OH213687   3.075   5.973   2.930
 4577TIP3    H113688   3.156   6.001   2.978
 4577TIP3    H213689   3.011   5.972   3.004
 4578TIP3   OH213690   3.537   5.426   2.184
 4578TIP3    H113691   3.612   5.391   2.133
 4578TIP3    H213692   3.547   5.380   2.270
 4579TIP3   OH213693   3.056   4.915   2.066
 4579TIP3    H113694   3.023   4.836   2.115
 4579TIP3    H213695   3.106   4.875   1.994
 4580TIP3   OH213696   3.513   5.323   2.479
 4580TIP3    H113697   3.425   5.362   2.490
 4580TIP3    H213698   3.572   5.386   2.526
 4581TIP3   OH213699   3.248   5.713   1.568
 4581TIP3    H113700   3.176   5.647   1.557
 4581TIP3    H213701   3.229   5.747   1.659
 4582TIP3   OH213702   4.149   5.950   2.197
 4582TIP3    H113703   4.173   6.000   2.117
 4582TIP3    H213704   4.065   5.906   2.170
 4583TIP3   OH213705   3.709   5.020   1.443
 4583TIP3    H113706   3.611   5.005   1.445
 4583TIP3    H213707   3.718   5.116   1.461
 4584TIP3   OH213708   3.647   6.030   2.569
 4584TIP3    H113709   3.684   6.014   2.656
 4584TIP3    H213710   3.611   6.120   2.576
 4585TIP3   OH213711   3.777   5.275   1.539
 4585TIP3    H113712   3.874   5.279   1.553
 4585TIP3    H213713   3.760   5.354   1.485
 4586TIP3   OH213714   2.941   5.732   2.245
 4586TIP3    H113715   2.980   5.706   2.158
 4586TIP3    H213716   2.994   5.679   2.306
 4587TIP3   OH213717   3.397   5.862   1.392
 4587TIP3    H113718   3.348   5.947   1.396
 4587TIP3    H213719   3.344   5.807   1.455
 4588TIP3   OH213720   2.826   5.658   2.862
 4588TIP3    H113721   2.848   5.645   2.956
 4588TIP3    H213722   2.760   5.588   2.847
 4589TIP3   OH213723   3.554   5.772   2.878
 4589TIP3    H113724   3.495   5.712   2.830
 4589TIP3    H213725   3.642   5.737   2.852
 4590TIP3   OH213726   3.808   6.293   2.465
 4590TIP3    H113727   3.712   6.291   2.479
 4590TIP3    H213728   3.837   6.344   2.544
 4591TIP3   OH213729   4.215   5.369   1.375
 4591TIP3    H113730   4.154   5.324   1.312
 4591TIP3    H213731   4.214   5.458   1.333
 4592TIP3   OH213732   4.439   6.225   2.451
 4592TIP3    H113733   4.342   6.217   2.444
 4592TIP3    H213734   4.465   6.193   2.362
 4593TIP3   OH213735   3.919   6.182   1.282
 4593TIP3    H113736   3.897   6.106   1.336
 4593TIP3    H213737   3.937   6.142   1.194
 4594TIP3   OH213738   3.916   5.813   2.115
 4594TIP3    H113739   3.822   5.789   2.128
 4594TIP3    H213740   3.949   5.732   2.071
 4595TIP3   OH213741   3.048   6.042   1.875
 4595TIP3    H113742   3.048   6.121   1.818
 4595TIP3    H213743   2.954   6.023   1.882
 4596TIP3   OH213744   2.608   5.343   1.574
 4596TIP3    H113745   2.655   5.426   1.597
 4596TIP3    H213746   2.533   5.345   1.638
 4597TIP3   OH213747   3.174   5.801   1.812
 4597TIP3    H113748   3.145   5.892   1.833
 4597TIP3    H213749   3.143   5.752   1.890
 4598TIP3   OH213750   3.315   6.382   2.339
 4598TIP3    H113751   3.358   6.455   2.289
 4598TIP3    H213752   3.391   6.344   2.386
 4599TIP3   OH213753   2.962   6.280   1.722
 4599TIP3    H113754   2.878   6.290   1.770
 4599TIP3    H213755   2.997   6.372   1.725
 4600TIP3   OH213756   3.699   6.018   2.300
 4600TIP3    H113757   3.688   6.014   2.398
 4600TIP3    H213758   3.778   5.964   2.287
 4601TIP3   OH213759   3.679   5.912   1.188
 4601TIP3    H113760   3.734   5.887   1.266
 4601TIP3    H213761   3.591   5.883   1.218
 4602TIP3   OH213762   3.949   6.550   2.350
 4602TIP3    H113763   3.869   6.493   2.343
 4602TIP3    H213764   3.933   6.613   2.276
 4603TIP3   OH213765   4.014   6.380   1.004
 4603TIP3    H113766   4.045   6.438   0.933
 4603TIP3    H213767   3.937   6.431   1.036
 4604TIP3   OH213768   3.035   5.160   2.866
 4604TIP3    H113769   2.939   5.162   2.880
 4604TIP3    H213770   3.066   5.107   2.941
 4605TIP3   OH213771   3.840   5.851   1.406
 4605TIP3    H113772   3.829   5.779   1.472
 4605TIP3    H213773   3.936   5.843   1.388
 4606TIP3   OH213774   2.751   6.243   2.499
 4606TIP3    H113775   2.807   6.173   2.534
 4606TIP3    H213776   2.779   6.319   2.552
 4607TIP3   OH213777   3.038   5.891   1.184
 4607TIP3    H113778   3.058   5.800   1.157
 4607TIP3    H213779   3.019   5.880   1.279
 4608TIP3   OH213780   2.984   5.895   1.458
 4608TIP3    H113781   3.064   5.869   1.506
 4608TIP3    H213782   2.988   5.993   1.464
 4609TIP3   OH213783   2.718   5.585   1.659
 4609TIP3    H113784   2.653   5.633   1.715
 4609TIP3    H213785   2.736   5.654   1.592
 4610TIP3   OH213786   3.872   5.226   2.553
 4610TIP3    H113787   3.955   5.264   2.588
 4610TIP3    H213788   3.862   5.145   2.608
 4611TIP3   OH213789   3.752   4.973   1.721
 4611TIP3    H113790   3.741   4.993   1.626
 4611TIP3    H213791   3.793   5.056   1.754
 4612TIP3   OH213792   3.252   6.089   1.403
 4612TIP3    H113793   3.165   6.117   1.439
 4612TIP3    H213794   3.271   6.164   1.344
 4613TIP3   OH213795   3.435   5.159   1.818
 4613TIP3    H113796   3.500   5.229   1.799
 4613TIP3    H213797   3.445   5.149   1.915
 4614TIP3   OH213798   3.712   5.472   2.623
 4614TIP3    H113799   3.737   5.523   2.702
 4614TIP3    H213800   3.765   5.391   2.633
 4615TIP3   OH213801   3.583   4.875   1.916
 4615TIP3    H113802   3.581   4.951   1.978
 4615TIP3    H213803   3.645   4.910   1.848
 4616TIP3   OH213804   2.997   6.167   1.472
 4616TIP3    H113805   2.969   6.238   1.410
 4616TIP3    H213806   2.983   6.211   1.559
 4617TIP3   OH213807   3.097   4.883   1.709
 4617TIP3    H113808   3.096   4.974   1.746
 4617TIP3    H213809   3.193   4.864   1.716
 4618TIP3   OH213810   4.350   5.375   2.607
 4618TIP3    H113811   4.252   5.373   2.614
 4618TIP3    H213812   4.362   5.330   2.522
 4619TIP3   OH213813   4.001   5.569   1.995
 4619TIP3    H113814   3.926   5.507   2.005
 4619TIP3    H213815   4.073   5.522   2.042
 4620TIP3   OH213816   2.716   5.794   1.461
 4620TIP3    H113817   2.788   5.859   1.472
 4620TIP3    H213818   2.760   5.735   1.395
 4621TIP3   OH213819   2.654   5.072   1.601
 4621TIP3    H113820   2.659   5.170   1.596
 4621TIP3    H213821   2.580   5.052   1.544
 4622TIP3   OH213822   3.970   6.529   1.942
 4622TIP3    H113823   3.927   6.577   1.868
 4622TIP3    H213824   4.064   6.547   1.920
 4623TIP3   OH213825   3.044   4.794   2.469
 4623TIP3    H113826   3.017   4.760   2.381
 4623TIP3    H213827   3.036   4.716   2.526
 4624TIP3   OH213828   2.581   6.006   1.847
 4624TIP3    H113829   2.518   6.041   1.910
 4624TIP3    H213830   2.553   6.051   1.764
 4625TIP3   OH213831   2.745   6.559   2.923
 4625TIP3    H113832   2.832   6.561   2.969
 4625TIP3    H213833   2.728   6.464   2.921
 4626TIP3   OH213834   3.220   6.515   2.966
 4626TIP3    H113835   3.315   6.497   2.974
 4626TIP3    H213836   3.196   6.453   2.894
 4627TIP3   OH213837   3.204   6.093   1.092
 4627TIP3    H113838   3.151   6.019   1.130
 4627TIP3    H213839   3.281   6.044   1.057
 4628TIP3   OH213840   3.861   6.425   2.701
 4628TIP3    H113841   3.854   6.355   2.770
 4628TIP3    H213842   3.939   6.476   2.732
 4629TIP3   OH213843   3.637   6.131   1.006
 4629TIP3    H113844   3.685   6.070   1.066
 4629TIP3    H213845   3.692   6.129   0.926
 4630TIP3   OH213846   2.873   5.961   3.122
 4630TIP3    H113847   2.888   5.865   3.131
 4630TIP3    H213848   2.786   5.963   3.076
 4631TIP3   OH213849   2.849   5.606   1.319
 4631TIP3    H113850   2.908   5.577   1.391
 4631TIP3    H213851   2.915   5.611   1.246
 4632TIP3   OH213852   3.478   6.048   2.897
 4632TIP3    H113853   3.440   6.067   2.809
 4632TIP3    H213854   3.511   5.956   2.886
 4633TIP3   OH213855   3.358   5.807   1.125
 4633TIP3    H113856   3.366   5.819   1.221
 4633TIP3    H213857   3.363   5.710   1.118
 4634TIP3   OH213858   3.972   6.060   2.504
 4634TIP3    H113859   4.049   6.100   2.459
 4634TIP3    H213860   3.904   6.128   2.486
 4635TIP3   OH213861   2.994   5.695   3.105
 4635TIP3    H113862   3.073   5.648   3.077
 4635TIP3    H213863   3.021   5.728   3.193
 4636TIP3   OH213864   3.051   5.516   1.533
 4636TIP3    H113865   3.033   5.474   1.618
 4636TIP3    H213866   3.094   5.443   1.483
 4637TIP3   OH213867   3.323   5.574   2.762
 4637TIP3    H113868   3.249   5.638   2.765
 4637TIP3    H213869   3.378   5.611   2.689
 4638TIP3   OH213870   3.162   5.312   1.378
 4638TIP3    H113871   3.138   5.318   1.283
 4638TIP3    H213872   3.259   5.312   1.372
 4639TIP3   OH213873   3.845   5.981   2.898
 4639TIP3    H113874   3.924   5.951   2.852
 4639TIP3    H213875   3.839   5.918   2.972
 4640TIP3   OH213876   3.974   5.636   1.048
 4640TIP3    H113877   3.963   5.594   0.961
 4640TIP3    H213878   3.944   5.727   1.025
 4641TIP3   OH213879   3.450   5.369   2.891
 4641TIP3    H113880   3.453   5.290   2.833
 4641TIP3    H213881   3.406   5.435   2.833
 4642TIP3   OH213882   3.454   5.155   2.701
 4642TIP3    H113883   3.483   5.197   2.618
 4642TIP3    H213884   3.360   5.133   2.680
 4643TIP3   OH213885   3.476   5.688   2.573
 4643TIP3    H113886   3.563   5.700   2.534
 4643TIP3    H213887   3.422   5.754   2.526
 4644TIP3   OH213888   4.058   5.655   2.950
 4644TIP3    H113889   4.107   5.573   2.968
 4644TIP3    H213890   4.128   5.712   2.915
 4645TIP3   OH213891   4.102   5.910   2.688
 4645TIP3    H113892   4.044   5.965   2.630
 4645TIP3    H213893   4.190   5.931   2.649
 4646TIP3   OH213894   3.327   5.476   3.123
 4646TIP3    H113895   3.260   5.406   3.139
 4646TIP3    H213896   3.362   5.449   3.036
 4647TIP3   OH213897   3.585   4.916   2.769
 4647TIP3    H113898   3.536   4.997   2.746
 4647TIP3    H213899   3.517   4.847   2.758
 4648TIP3   OH213900   3.712   5.419   2.984
 4648TIP3    H113901   3.701   5.405   3.080
 4648TIP3    H213902   3.622   5.395   2.954
 4649TIP3   OH213903   3.949   5.370   2.838
 4649TIP3    H113904   3.876   5.372   2.903
 4649TIP3    H213905   4.025   5.341   2.893
 4650TIP3   OH213906   4.180   5.312   2.985
 4650TIP3    H113907   4.193   5.216   3.002
 4650TIP3    H213908   4.175   5.350   3.075
 4651TIP3   OH213909   3.166   5.255   3.179
 4651TIP3    H113910   3.174   5.164   3.147
 4651TIP3    H213911   3.206   5.246   3.269
 4652TIP3   OH213912   3.677   4.926   3.028
 4652TIP3    H113913   3.744   4.856   3.022
 4652TIP3    H213914   3.639   4.922   2.938
 4653TIP3   OH213915   3.745   5.142   3.185
 4653TIP3    H113916   3.725   5.070   3.121
 4653TIP3    H213917   3.667   5.199   3.178
 4654TIP3   OH213918   2.968   6.369   1.284
 4654TIP3    H113919   3.064   6.360   1.267
 4654TIP3    H213920   2.943   6.422   1.206
 4655TIP3   OH213921   2.447   5.755   1.496
 4655TIP3    H113922   2.542   5.778   1.483
 4655TIP3    H213923   2.445   5.664   1.459
 4656TIP3   OH213924   2.363   6.363   1.916
 4656TIP3    H113925   2.298   6.301   1.877
 4656TIP3    H213926   2.408   6.304   1.981
 4657TIP3   OH213927   2.498   6.209   2.101
 4657TIP3    H113928   2.488   6.140   2.169
 4657TIP3    H213929   2.551   6.274   2.151
 4658TIP3   OH213930   4.224   6.619   1.903
 4658TIP3    H113931   4.258   6.646   1.990
 4658TIP3    H213932   4.294   6.650   1.842
 4659TIP3   OH213933   4.255   6.637   2.186
 4659TIP3    H113934   4.208   6.551   2.179
 4659TIP3    H213935   4.329   6.609   2.242
 4660TIP3   OH213936   4.299   6.312   2.757
 4660TIP3    H113937   4.228   6.322   2.823
 4660TIP3    H213938   4.342   6.400   2.761
 4661TIP3   OH213939   4.115   5.826   1.376
 4661TIP3    H113940   4.181   5.889   1.341
 4661TIP3    H213941   4.163   5.789   1.453
 4662TIP3   OH213942   4.245   5.694   1.580
 4662TIP3    H113943   4.178   5.652   1.638
 4662TIP3    H213944   4.310   5.729   1.645
 4663TIP3   OH213945   4.301   6.087   2.011
 4663TIP3    H113946   4.352   6.017   1.965
 4663TIP3    H213947   4.299   6.158   1.945
 4664TIP3   OH213948   4.129   6.388   2.205
 4664TIP3    H113949   4.055   6.427   2.256
 4664TIP3    H213950   4.081   6.340   2.133
 4665TIP3   OH213951   4.181   5.602   1.225
 4665TIP3    H113952   4.110   5.602   1.156
 4665TIP3    H213953   4.151   5.678   1.278
 4666TIP3   OH213954   4.048   5.276   1.183
 4666TIP3    H113955   4.013   5.310   1.099
 4666TIP3    H213956   4.026   5.181   1.175
 4667TIP3   OH213957   4.056   5.552   1.725
 4667TIP3    H113958   4.066   5.456   1.714
 4667TIP3    H213959   4.042   5.562   1.821
 4668TIP3   OH213960   2.682   5.624   2.473
 4668TIP3    H113961   2.681   5.590   2.381
 4668TIP3    H213962   2.779   5.625   2.490
 4669TIP3   OH213963   4.349   5.976   2.583
 4669TIP3    H113964   4.419   5.908   2.572
 4669TIP3    H213965   4.373   6.042   2.517
 4670TIP3   OH213966   4.531   5.776   2.592
 4670TIP3    H113967   4.456   5.727   2.633
 4670TIP3    H213968   4.604   5.713   2.610
 4671TIP3   OH213969   3.995   5.010   1.166
 4671TIP3    H113970   4.074   4.977   1.214
 4671TIP3    H213971   3.927   4.944   1.184
 4672TIP3   OH213972   4.055   5.268   1.616
 4672TIP3    H113973   4.096   5.179   1.631
 4672TIP3    H213974   4.113   5.300   1.544
 4673TIP3   OH213975   4.214   5.438   2.115
 4673TIP3    H113976   4.300   5.462   2.073
 4673TIP3    H213977   4.231   5.475   2.204
 4674TIP3   OH213978   4.287   5.584   2.345
 4674TIP3    H113979   4.210   5.618   2.393
 4674TIP3    H213980   4.320   5.665   2.300
 4675TIP3   OH213981   2.900   5.306   3.141
 4675TIP3    H113982   2.998   5.303   3.149
 4675TIP3    H213983   2.878   5.221   3.183
 4676TIP3   OH213984   4.738   5.177   2.901
 4676TIP3    H113985   4.798   5.113   2.859
 4676TIP3    H213986   4.706   5.228   2.823
 4677TIP3   OH213987   4.160   5.018   1.659
 4677TIP3    H113988   4.211   5.001   1.741
 4677TIP3    H213989   4.102   4.940   1.657
 4678TIP3   OH213990   2.861   5.003   2.480
 4678TIP3    H113991   2.923   4.928   2.487
 4678TIP3    H213992   2.924   5.077   2.469
 4679TIP3   OH213993   2.662   5.274   2.547
 4679TIP3    H113994   2.713   5.272   2.464
 4679TIP3    H213995   2.693   5.356   2.587
 4680TIP3   OH213996   4.604   5.312   2.705
 4680TIP3    H113997   4.519   5.355   2.724
 4680TIP3    H213998   4.573   5.239   2.648
 4681TIP3   OH213999   4.240   4.949   1.290
 4681TIP3    H114000   4.286   4.877   1.243
 4681TIP3    H214001   4.309   5.019   1.290
 4682TIP3   OH214002   2.649   4.774   2.050
 4682TIP3    H114003   2.557   4.772   2.078
 4682TIP3    H214004   2.645   4.835   1.973
 4683TIP3   OH214005   3.809   6.486   1.559
 4683TIP3    H114006   3.855   6.470   1.473
 4683TIP3    H214007   3.868   6.551   1.600
 4684TIP3   OH214008   2.868   4.855   2.863
 4684TIP3    H114009   2.819   4.855   2.946
 4684TIP3    H214010   2.803   4.895   2.802
 4685TIP3   OH214011   2.908   6.291   2.940
 4685TIP3    H114012   2.815   6.263   2.926
 4685TIP3    H214013   2.922   6.269   3.032
 4686TIP3   OH214014   3.088   6.322   2.489
 4686TIP3    H114015   3.043   6.400   2.449
 4686TIP3    H214016   3.175   6.334   2.445
 4687TIP3   OH214017   3.528   6.564   2.627
 4687TIP3    H114018   3.571   6.562   2.715
 4687TIP3    H214019   3.595   6.616   2.576
 4688TIP3   OH214020   3.709   6.718   2.488
 4688TIP3    H114021   3.778   6.666   2.445
 4688TIP3    H214022   3.762   6.773   2.549
 4689TIP3   OH214023   4.505   5.075   2.587
 4689TIP3    H114024   4.416   5.065   2.550
 4689TIP3    H214025   4.540   4.983   2.578
 4690TIP3   OH214026   2.761   6.574   2.515
 4690TIP3    H114027   2.671   6.607   2.493
 4690TIP3    H214028   2.778   6.622   2.597
 4691TIP3   OH214029   2.999   6.556   2.373
 4691TIP3    H114030   2.911   6.567   2.415
 4691TIP3    H214031   2.982   6.587   2.282
 4692TIP3   OH214032   3.424   6.581   2.172
 4692TIP3    H114033   3.357   6.599   2.104
 4692TIP3    H214034   3.436   6.670   2.212
 4693TIP3   OH214035   3.694   6.522   2.225
 4693TIP3    H114036   3.600   6.538   2.203
 4693TIP3    H214037   3.738   6.593   2.176
 4694TIP3   OH214038   3.903   6.715   2.134
 4694TIP3    H114039   3.886   6.797   2.084
 4694TIP3    H214040   3.928   6.653   2.063
 4695TIP3   OH214041   2.673   6.367   2.257
 4695TIP3    H114042   2.700   6.341   2.348
 4695TIP3    H214043   2.746   6.325   2.206
 4696TIP3   OH214044   2.870   6.242   2.118
 4696TIP3    H114045   2.886   6.158   2.166
 4696TIP3    H214046   2.961   6.278   2.113
 4697TIP3   OH214047   3.136   6.334   2.123
 4697TIP3    H114048   3.168   6.242   2.110
 4697TIP3    H214049   3.185   6.356   2.204
 4698TIP3   OH214050   3.707   4.990   2.202
 4698TIP3    H114051   3.668   4.918   2.254
 4698TIP3    H214052   3.785   4.948   2.161
 4699TIP3   OH214053   4.229   4.876   2.114
 4699TIP3    H114054   4.267   4.924   2.037
 4699TIP3    H214055   4.134   4.893   2.103
 4700TIP3   OH214056   4.324   4.971   1.877
 4700TIP3    H114057   4.397   4.917   1.838
 4700TIP3    H214058   4.360   5.062   1.861
 4701TIP3   OH214059   2.959   4.700   2.220
 4701TIP3    H114060   2.867   4.668   2.224
 4701TIP3    H214061   3.007   4.615   2.214
 4702TIP3   OH214062   2.751   4.571   1.872
 4702TIP3    H114063   2.780   4.626   1.798
 4702TIP3    H214064   2.723   4.638   1.937
 4703TIP3   OH214065   3.405   4.732   2.106
 4703TIP3    H114066   3.458   4.777   2.038
 4703TIP3    H214067   3.439   4.772   2.187
 4704TIP3   OH214068   3.942   4.880   2.086
 4704TIP3    H114069   3.953   4.840   1.999
 4704TIP3    H214070   3.932   4.800   2.143
 4705TIP3   OH214071   3.979   4.805   1.649
 4705TIP3    H114072   3.892   4.846   1.664
 4705TIP3    H214073   3.966   4.718   1.693
 4706TIP3   OH214074   2.461   6.145   1.649
 4706TIP3    H114075   2.376   6.115   1.615
 4706TIP3    H214076   2.455   6.240   1.628
 4707TIP3   OH214077   2.866   4.726   1.634
 4707TIP3    H114078   2.913   4.664   1.574
 4707TIP3    H214079   2.940   4.781   1.667
 4708TIP3   OH214080   3.373   4.907   1.733
 4708TIP3    H114081   3.437   4.861   1.791
 4708TIP3    H214082   3.395   5.000   1.756
 4709TIP3   OH214083   3.236   6.326   1.233
 4709TIP3    H114084   3.324   6.349   1.197
 4709TIP3    H214085   3.214   6.252   1.172
 4710TIP3   OH214086   3.952   6.449   1.327
 4710TIP3    H114087   3.945   6.351   1.315
 4710TIP3    H214088   3.909   6.480   1.244
 4711TIP3   OH214089   3.167   4.978   3.109
 4711TIP3    H114090   3.131   4.909   3.168
 4711TIP3    H214091   3.261   4.978   3.139
 4712TIP3   OH214092   3.416   4.977   3.230
 4712TIP3    H114093   3.502   4.955   3.192
 4712TIP3    H214094   3.406   4.907   3.297
 4713TIP3   OH214095   2.538   6.163   1.286
 4713TIP3    H114096   2.548   6.187   1.379
 4713TIP3    H214097   2.624   6.120   1.267
 4714TIP3   OH214098   4.244   5.041   3.018
 4714TIP3    H114099   4.261   5.010   3.110
 4714TIP3    H214100   4.333   5.036   2.978
 4715TIP3   OH214101   4.178   6.592   2.511
 4715TIP3    H114102   4.100   6.561   2.461
 4715TIP3    H214103   4.157   6.687   2.519
 4716TIP3   OH214104   5.448   5.969   1.274
 4716TIP3    H114105   5.415   6.058   1.250
 4716TIP3    H214106   5.374   5.915   1.240
 4717TIP3   OH214107   5.449   5.967   1.662
 4717TIP3    H114108   5.482   5.938   1.749
 4717TIP3    H214109   5.407   5.886   1.628
 4718TIP3   OH214110   4.743   5.859   2.026
 4718TIP3    H114111   4.773   5.789   2.087
 4718TIP3    H214112   4.825   5.907   2.010
 4719TIP3   OH214113   5.693   6.270   1.340
 4719TIP3    H114114   5.672   6.200   1.403
 4719TIP3    H214115   5.721   6.343   1.398
 4720TIP3   OH214116   4.718   6.272   1.749
 4720TIP3    H114117   4.710   6.174   1.748
 4720TIP3    H214118   4.815   6.281   1.738
 4721TIP3   OH214119   4.423   5.470   1.530
 4721TIP3    H114120   4.374   5.553   1.545
 4721TIP3    H214121   4.354   5.418   1.486
 4722TIP3   OH214122   4.481   5.760   1.711
 4722TIP3    H114123   4.530   5.680   1.742
 4722TIP3    H214124   4.536   5.789   1.637
 4723TIP3   OH214125   5.344   6.730   1.359
 4723TIP3    H114126   5.386   6.660   1.306
 4723TIP3    H214127   5.331   6.686   1.443
 4724TIP3   OH214128   5.243   6.193   1.708
 4724TIP3    H114129   5.281   6.115   1.663
 4724TIP3    H214130   5.326   6.239   1.732
 4725TIP3   OH214131   6.261   5.510   1.706
 4725TIP3    H114132   6.291   5.594   1.746
 4725TIP3    H214133   6.279   5.527   1.612
 4726TIP3   OH214134   5.659   5.692   1.736
 4726TIP3    H114135   5.700   5.606   1.756
 4726TIP3    H214136   5.624   5.675   1.646
 4727TIP3   OH214137   4.999   5.350   1.701
 4727TIP3    H114138   4.977   5.422   1.638
 4727TIP3    H214139   4.952   5.276   1.658
 4728TIP3   OH214140   5.692   5.447   1.324
 4728TIP3    H114141   5.763   5.429   1.390
 4728TIP3    H214142   5.745   5.479   1.249
 4729TIP3   OH214143   4.629   5.552   1.811
 4729TIP3    H114144   4.712   5.532   1.858
 4729TIP3    H214145   4.642   5.496   1.731
 4730TIP3   OH214146   5.067   5.750   1.611
 4730TIP3    H114147   5.161   5.726   1.620
 4730TIP3    H214148   5.029   5.667   1.576
 4731TIP3   OH214149   6.335   5.721   1.873
 4731TIP3    H114150   6.249   5.765   1.854
 4731TIP3    H214151   6.348   5.749   1.965
 4732TIP3   OH214152   4.992   5.336   2.139
 4732TIP3    H114153   4.932   5.371   2.070
 4732TIP3    H214154   4.938   5.354   2.219
 4733TIP3   OH214155   5.339   6.189   1.142
 4733TIP3    H114156   5.294   6.170   1.058
 4733TIP3    H214157   5.290   6.269   1.171
 4734TIP3   OH214158   5.100   6.112   1.930
 4734TIP3    H114159   5.039   6.180   1.966
 4734TIP3    H214160   5.140   6.159   1.854
 4735TIP3   OH214161   5.898   5.449   1.500
 4735TIP3    H114162   5.883   5.399   1.582
 4735TIP3    H214163   5.948   5.526   1.531
 4736TIP3   OH214164   4.865   5.449   1.920
 4736TIP3    H114165   4.928   5.520   1.944
 4736TIP3    H214166   4.912   5.408   1.844
 4737TIP3   OH214167   4.928   6.308   2.032
 4737TIP3    H114168   4.902   6.394   1.993
 4737TIP3    H214169   4.849   6.289   2.086
 4738TIP3   OH214170   4.314   5.994   1.266
 4738TIP3    H114171   4.279   6.016   1.177
 4738TIP3    H214172   4.348   6.081   1.296
 4739TIP3   OH214173   5.760   6.513   1.505
 4739TIP3    H114174   5.671   6.503   1.546
 4739TIP3    H214175   5.749   6.599   1.460
 4740TIP3   OH214176   6.051   5.412   1.872
 4740TIP3    H114177   5.964   5.435   1.837
 4740TIP3    H214178   6.111   5.443   1.801
 4741TIP3   OH214179   5.345   5.050   1.854
 4741TIP3    H114180   5.328   4.955   1.872
 4741TIP3    H214181   5.268   5.090   1.900
 4742TIP3   OH214182   5.460   6.557   1.176
 4742TIP3    H114183   5.508   6.472   1.160
 4742TIP3    H214184   5.528   6.619   1.141
 4743TIP3   OH214185   5.606   6.342   1.088
 4743TIP3    H114186   5.558   6.264   1.055
 4743TIP3    H214187   5.643   6.307   1.172
 4744TIP3   OH214188   5.984   6.422   1.850
 4744TIP3    H114189   5.972   6.343   1.793
 4744TIP3    H214190   5.966   6.495   1.789
 4745TIP3   OH214191   5.279   5.819   1.111
 4745TIP3    H114192   5.198   5.869   1.092
 4745TIP3    H214193   5.320   5.812   1.023
 4746TIP3   OH214194   5.236   5.604   0.819
 4746TIP3    H114195   5.304   5.655   0.867
 4746TIP3    H214196   5.293   5.541   0.771
 4747TIP3   OH214197   6.179   6.063   1.697
 4747TIP3    H114198   6.095   6.113   1.701
 4747TIP3    H214199   6.210   6.087   1.607
 4748TIP3   OH214200   5.627   5.901   1.078
 4748TIP3    H114201   5.571   5.924   1.156
 4748TIP3    H214202   5.710   5.875   1.124
 4749TIP3   OH214203   5.859   5.937   1.995
 4749TIP3    H114204   5.855   6.021   2.045
 4749TIP3    H214205   5.772   5.939   1.950
 4750TIP3   OH214206   4.857   5.897   1.498
 4750TIP3    H114207   4.813   5.840   1.431
 4750TIP3    H214208   4.932   5.842   1.527
 4751TIP3   OH214209   4.985   6.309   1.644
 4751TIP3    H114210   4.964   6.276   1.556
 4751TIP3    H214211   5.074   6.270   1.660
 4752TIP3   OH214212   4.990   5.868   1.854
 4752TIP3    H114213   5.021   5.840   1.765
 4752TIP3    H214214   5.035   5.953   1.868
 4753TIP3   OH214215   5.521   6.507   1.629
 4753TIP3    H114216   5.507   6.586   1.685
 4753TIP3    H214217   5.503   6.433   1.690
 4754TIP3   OH214218   5.132   6.425   2.176
 4754TIP3    H114219   5.070   6.485   2.221
 4754TIP3    H214220   5.069   6.371   2.124
 4755TIP3   OH214221   5.463   5.759   0.904
 4755TIP3    H114222   5.522   5.820   0.953
 4755TIP3    H214223   5.484   5.781   0.810
 4756TIP3   OH214224   4.889   5.979   2.283
 4756TIP3    H114225   4.891   6.068   2.323
 4756TIP3    H214226   4.793   5.958   2.291
 4757TIP3   OH214227   5.209   6.433   1.187
 4757TIP3    H114228   5.288   6.489   1.193
 4757TIP3    H214229   5.148   6.486   1.135
 4758TIP3   OH214230   4.925   6.590   2.263
 4758TIP3    H114231   4.891   6.593   2.172
 4758TIP3    H214232   4.845   6.569   2.315
 4759TIP3   OH214233   5.983   4.997   0.957
 4759TIP3    H114234   5.900   5.018   1.004
 4759TIP3    H214235   5.997   5.078   0.904
 4760TIP3   OH214236   4.720   5.742   1.307
 4760TIP3    H114237   4.654   5.785   1.249
 4760TIP3    H214238   4.688   5.651   1.308
 4761TIP3   OH214239   4.504   6.125   2.209
 4761TIP3    H114240   4.437   6.103   2.140
 4761TIP3    H214241   4.542   6.037   2.230
 4762TIP3   OH214242   4.359   6.316   1.842
 4762TIP3    H114243   4.454   6.307   1.829
 4762TIP3    H214244   4.354   6.394   1.898
 4763TIP3   OH214245   6.220   6.761   1.900
 4763TIP3    H114246   6.222   6.664   1.913
 4763TIP3    H214247   6.140   6.785   1.950
 4764TIP3   OH214248   5.328   6.552   2.034
 4764TIP3    H114249   5.324   6.644   2.066
 4764TIP3    H214250   5.256   6.511   2.087
 4765TIP3   OH214251   5.087   6.682   0.986
 4765TIP3    H114252   5.040   6.661   0.904
 4765TIP3    H214253   5.052   6.770   1.009
 4766TIP3   OH214254   4.528   6.531   1.370
 4766TIP3    H114255   4.573   6.520   1.457
 4766TIP3    H214256   4.479   6.447   1.364
 4767TIP3   OH214257   5.304   6.545   0.669
 4767TIP3    H114258   5.382   6.488   0.668
 4767TIP3    H214259   5.312   6.581   0.760
 4768TIP3   OH214260   5.342   6.631   0.923
 4768TIP3    H114261   5.251   6.645   0.957
 4768TIP3    H214262   5.386   6.595   1.002
 4769TIP3   OH214263   6.109   5.896   2.173
 4769TIP3    H114264   6.027   5.906   2.123
 4769TIP3    H214265   6.127   5.801   2.163
 4770TIP3   OH214266   4.708   6.308   2.195
 4770TIP3    H114267   4.757   6.289   2.277
 4770TIP3    H214268   4.634   6.244   2.202
 4771TIP3   OH214269   5.108   5.129   1.984
 4771TIP3    H114270   5.021   5.098   1.952
 4771TIP3    H214271   5.080   5.209   2.032
 4772TIP3   OH214272   5.643   5.245   2.177
 4772TIP3    H114273   5.712   5.215   2.240
 4772TIP3    H214274   5.560   5.224   2.224
 4773TIP3   OH214275   5.880   5.675   2.097
 4773TIP3    H114276   5.828   5.672   2.180
 4773TIP3    H214277   5.855   5.761   2.059
 4774TIP3   OH214278   5.520   5.807   0.640
 4774TIP3    H114279   5.518   5.760   0.556
 4774TIP3    H214280   5.608   5.848   0.633
 4775TIP3   OH214281   5.258   5.183   0.957
 4775TIP3    H114282   5.217   5.171   1.045
 4775TIP3    H214283   5.218   5.106   0.910
 4776TIP3   OH214284   5.041   5.646   2.002
 4776TIP3    H114285   4.989   5.666   2.082
 4776TIP3    H214286   5.025   5.727   1.949
 4777TIP3   OH214287   4.923   5.533   1.516
 4777TIP3    H114288   4.831   5.506   1.533
 4777TIP3    H214289   4.936   5.494   1.426
 4778TIP3   OH214290   5.416   5.620   1.247
 4778TIP3    H114291   5.365   5.689   1.201
 4778TIP3    H214292   5.469   5.583   1.174
 4779TIP3   OH214293   5.589   5.893   2.329
 4779TIP3    H114294   5.567   5.820   2.390
 4779TIP3    H214295   5.684   5.906   2.350
 4780TIP3   OH214296   5.571   5.645   1.479
 4780TIP3    H114297   5.507   5.669   1.409
 4780TIP3    H214298   5.608   5.565   1.436
 4781TIP3   OH214299   4.860   5.674   2.208
 4781TIP3    H114300   4.889   5.736   2.276
 4781TIP3    H214301   4.848   5.591   2.260
 4782TIP3   OH214302   4.909   5.149   0.923
 4782TIP3    H114303   4.896   5.147   1.019
 4782TIP3    H214304   4.832   5.201   0.895
 4783TIP3   OH214305   4.451   5.194   1.795
 4783TIP3    H114306   4.529   5.226   1.844
 4783TIP3    H214307   4.486   5.164   1.710
 4784TIP3   OH214308   4.417   5.175   1.311
 4784TIP3    H114309   4.465   5.207   1.232
 4784TIP3    H214310   4.357   5.251   1.326
 4785TIP3   OH214311   5.585   5.889   1.903
 4785TIP3    H114312   5.617   5.818   1.842
 4785TIP3    H214313   5.552   5.834   1.977
 4786TIP3   OH214314   5.259   5.357   1.577
 4786TIP3    H114315   5.175   5.352   1.627
 4786TIP3    H214316   5.325   5.346   1.647
 4787TIP3   OH214317   4.685   5.409   1.584
 4787TIP3    H114318   4.591   5.416   1.554
 4787TIP3    H214319   4.709   5.318   1.559
 4788TIP3   OH214320   4.951   5.410   1.274
 4788TIP3    H114321   5.045   5.418   1.247
 4788TIP3    H214322   4.902   5.428   1.190
 4789TIP3   OH214323   5.742   5.430   1.780
 4789TIP3    H114324   5.708   5.443   1.871
 4789TIP3    H214325   5.676   5.368   1.745
 4790TIP3   OH214326   4.799   5.443   1.052
 4790TIP3    H114327   4.729   5.395   1.004
 4790TIP3    H214328   4.851   5.478   0.976
 4791TIP3   OH214329   4.871   6.230   2.417
 4791TIP3    H114330   4.951   6.258   2.465
 4791TIP3    H214331   4.806   6.226   2.490
 4792TIP3   OH214332   5.333   5.685   1.675
 4792TIP3    H114333   5.402   5.642   1.624
 4792TIP3    H214334   5.337   5.637   1.760
 4793TIP3   OH214335   4.856   5.168   1.554
 4793TIP3    H114336   4.819   5.092   1.603
 4793TIP3    H214337   4.898   5.125   1.479
 4794TIP3   OH214338   5.310   5.582   1.960
 4794TIP3    H114339   5.219   5.615   1.975
 4794TIP3    H214340   5.366   5.644   2.011
 4795TIP3   OH214341   5.048   5.970   1.059
 4795TIP3    H114342   4.978   5.903   1.046
 4795TIP3    H214343   5.026   6.003   1.149
 4796TIP3   OH214344   5.945   6.206   1.684
 4796TIP3    H114345   5.967   6.257   1.604
 4796TIP3    H214346   5.861   6.162   1.658
 4797TIP3   OH214347   5.506   5.277   0.927
 4797TIP3    H114348   5.410   5.256   0.934
 4797TIP3    H214349   5.508   5.373   0.947
 4798TIP3   OH214350   5.451   6.292   2.053
 4798TIP3    H114351   5.472   6.267   2.144
 4798TIP3    H214352   5.407   6.378   2.063
 4799TIP3   OH214353   5.571   5.532   1.031
 4799TIP3    H114354   5.668   5.535   1.041
 4799TIP3    H214355   5.552   5.610   0.975
 4800TIP3   OH214356   4.742   5.996   1.731
 4800TIP3    H114357   4.777   5.966   1.645
 4800TIP3    H214358   4.783   5.933   1.791
 4801TIP3   OH214359   5.194   6.118   0.881
 4801TIP3    H114360   5.147   6.205   0.886
 4801TIP3    H214361   5.138   6.063   0.940
 4802TIP3   OH214362   4.622   5.912   2.347
 4802TIP3    H114363   4.638   5.896   2.442
 4802TIP3    H214364   4.553   5.846   2.327
 4803TIP3   OH214365   5.348   6.029   2.366
 4803TIP3    H114366   5.286   5.969   2.321
 4803TIP3    H214367   5.434   5.991   2.337
 4804TIP3   OH214368   5.606   6.557   1.948
 4804TIP3    H114369   5.511   6.547   1.963
 4804TIP3    H214370   5.633   6.604   2.030
 4805TIP3   OH214371   6.012   5.618   0.859
 4805TIP3    H114372   5.951   5.576   0.793
 4805TIP3    H214373   6.006   5.709   0.825
 4806TIP3   OH214374   6.235   6.481   1.938
 4806TIP3    H114375   6.137   6.471   1.929
 4806TIP3    H214376   6.262   6.449   1.848
 4807TIP3   OH214377   5.743   6.427   0.755
 4807TIP3    H114378   5.707   6.381   0.833
 4807TIP3    H214379   5.686   6.394   0.684
 4808TIP3   OH214380   5.713   6.068   1.602
 4808TIP3    H114381   5.619   6.044   1.616
 4808TIP3    H214382   5.745   5.987   1.557
 4809TIP3   OH214383   4.842   6.300   1.364
 4809TIP3    H114384   4.838   6.379   1.306
 4809TIP3    H214385   4.750   6.273   1.365
 4810TIP3   OH214386   4.406   5.598   1.062
 4810TIP3    H114387   4.450   5.683   1.080
 4810TIP3    H214388   4.328   5.604   1.121
 4811TIP3   OH214389   4.975   6.062   1.302
 4811TIP3    H114390   4.942   6.151   1.323
 4811TIP3    H214391   4.938   6.009   1.376
 4812TIP3   OH214392   5.111   6.639   1.827
 4812TIP3    H114393   5.153   6.711   1.776
 4812TIP3    H214394   5.188   6.601   1.872
 4813TIP3   OH214395   4.759   6.536   1.211
 4813TIP3    H114396   4.673   6.545   1.257
 4813TIP3    H214397   4.791   6.628   1.212
 4814TIP3   OH214398   5.497   6.274   1.785
 4814TIP3    H114399   5.487   6.272   1.883
 4814TIP3    H214400   5.572   6.215   1.773
 4815TIP3   OH214401   5.459   6.158   0.673
 4815TIP3    H114402   5.516   6.134   0.749
 4815TIP3    H214403   5.371   6.140   0.708
 4816TIP3   OH214404   5.743   6.808   1.839
 4816TIP3    H114405   5.665   6.749   1.835
 4816TIP3    H214406   5.725   6.868   1.763
 4817TIP3   OH214407   4.828   5.419   2.352
 4817TIP3    H114408   4.731   5.419   2.363
 4817TIP3    H214409   4.856   5.359   2.424
 4818TIP3   OH214410   5.633   6.099   0.885
 4818TIP3    H114411   5.624   6.035   0.958
 4818TIP3    H214412   5.730   6.097   0.872
 4819TIP3   OH214413   4.547   6.501   1.986
 4819TIP3    H114414   4.601   6.425   2.015
 4819TIP3    H214415   4.580   6.570   2.045
 4820TIP3   OH214416   4.827   6.149   0.669
 4820TIP3    H114417   4.854   6.059   0.640
 4820TIP3    H214418   4.808   6.134   0.764
 4821TIP3   OH214419   4.782   6.157   0.944
 4821TIP3    H114420   4.856   6.128   0.998
 4821TIP3    H214421   4.788   6.254   0.950
 4822TIP3   OH214422   4.518   5.844   1.146
 4822TIP3    H114423   4.450   5.890   1.199
 4822TIP3    H214424   4.531   5.909   1.074
 4823TIP3   OH214425   5.669   5.484   2.041
 4823TIP3    H114426   5.753   5.518   2.077
 4823TIP3    H214427   5.656   5.402   2.093
 4824TIP3   OH214428   5.551   5.229   1.206
 4824TIP3    H114429   5.534   5.249   1.112
 4824TIP3    H214430   5.588   5.314   1.239
 4825TIP3   OH214431   5.056   6.350   0.897
 4825TIP3    H114432   4.968   6.379   0.929
 4825TIP3    H214433   5.060   6.396   0.812
 4826TIP3   OH214434   5.239   5.414   1.307
 4826TIP3    H114435   5.301   5.487   1.290
 4826TIP3    H214436   5.243   5.407   1.404
 4827TIP3   OH214437   5.508   5.729   2.109
 4827TIP3    H114438   5.533   5.778   2.189
 4827TIP3    H214439   5.560   5.647   2.117
 4828TIP3   OH214440   5.381   5.138   1.408
 4828TIP3    H114441   5.368   5.220   1.458
 4828TIP3    H214442   5.443   5.169   1.337
 4829TIP3   OH214443   4.801   6.429   0.958
 4829TIP3    H114444   4.766   6.496   0.896
 4829TIP3    H214445   4.781   6.470   1.045
 4830TIP3   OH214446   4.890   5.143   1.199
 4830TIP3    H114447   4.893   5.233   1.236
 4830TIP3    H214448   4.985   5.120   1.204
 4831TIP3   OH214449   6.147   5.630   2.093
 4831TIP3    H114450   6.049   5.631   2.101
 4831TIP3    H214451   6.155   5.581   2.010
 4832TIP3   OH214452   5.798   5.825   1.480
 4832TIP3    H114453   5.721   5.766   1.491
 4832TIP3    H214454   5.868   5.776   1.529
 4833TIP3   OH214455   4.511   6.052   0.951
 4833TIP3    H114456   4.582   6.118   0.954
 4833TIP3    H214457   4.554   5.988   0.889
 4834TIP3   OH214458   4.452   5.329   1.088
 4834TIP3    H114459   4.454   5.427   1.083
 4834TIP3    H214460   4.380   5.308   1.028
 4835TIP3   OH214461   5.768   6.784   1.429
 4835TIP3    H114462   5.723   6.831   1.354
 4835TIP3    H214463   5.862   6.802   1.406
 4836TIP3   OH214464   4.842   5.050   1.955
 4836TIP3    H114465   4.813   5.017   1.868
 4836TIP3    H214466   4.831   4.971   2.012
 4837TIP3   OH214467   4.383   6.274   1.333
 4837TIP3    H114468   4.313   6.299   1.394
 4837TIP3    H214469   4.350   6.313   1.249
 4838TIP3   OH214470   4.541   6.816   2.409
 4838TIP3    H114471   4.627   6.816   2.455
 4838TIP3    H214472   4.521   6.721   2.407
 4839TIP3   OH214473   5.017   6.771   2.453
 4839TIP3    H114474   5.111   6.753   2.459
 4839TIP3    H214475   4.990   6.710   2.382
 4840TIP3   OH214476   5.016   6.337   0.599
 4840TIP3    H114477   4.936   6.283   0.615
 4840TIP3    H214478   5.080   6.264   0.588
 4841TIP3   OH214479   5.662   6.681   2.189
 4841TIP3    H114480   5.650   6.610   2.256
 4841TIP3    H214481   5.738   6.729   2.224
 4842TIP3   OH214482   4.669   6.218   2.609
 4842TIP3    H114483   4.685   6.122   2.616
 4842TIP3    H214484   4.582   6.220   2.563
 4843TIP3   OH214485   4.662   5.876   0.819
 4843TIP3    H114486   4.729   5.837   0.876
 4843TIP3    H214487   4.707   5.878   0.733
 4844TIP3   OH214488   5.275   6.305   2.383
 4844TIP3    H114489   5.234   6.324   2.297
 4844TIP3    H214490   5.306   6.212   2.372
 4845TIP3   OH214491   5.143   6.076   0.608
 4845TIP3    H114492   5.157   6.080   0.704
 4845TIP3    H214493   5.144   5.980   0.593
 4846TIP3   OH214494   5.770   6.314   1.992
 4846TIP3    H114495   5.844   6.358   1.947
 4846TIP3    H214496   5.697   6.377   1.974
 4847TIP3   OH214497   4.789   5.956   2.593
 4847TIP3    H114498   4.865   5.904   2.564
 4847TIP3    H214499   4.819   5.987   2.681
 4848TIP3   OH214500   4.862   5.771   1.027
 4848TIP3    H114501   4.826   5.727   1.106
 4848TIP3    H214502   4.896   5.695   0.975
 4849TIP3   OH214503   5.125   5.837   2.255
 4849TIP3    H114504   5.046   5.894   2.254
 4849TIP3    H214505   5.176   5.871   2.178
 4850TIP3   OH214506   4.957   5.568   0.866
 4850TIP3    H114507   4.930   5.572   0.772
 4850TIP3    H214508   5.055   5.567   0.857
 4851TIP3   OH214509   5.644   6.239   2.386
 4851TIP3    H114510   5.718   6.205   2.336
 4851TIP3    H214511   5.635   6.173   2.457
 4852TIP3   OH214512   5.777   5.857   0.537
 4852TIP3    H114513   5.799   5.793   0.466
 4852TIP3    H214514   5.774   5.942   0.487
 4853TIP3   OH214515   5.248   5.626   2.377
 4853TIP3    H114516   5.248   5.547   2.318
 4853TIP3    H214517   5.204   5.692   2.320
 4854TIP3   OH214518   5.250   5.414   2.187
 4854TIP3    H114519   5.279   5.452   2.102
 4854TIP3    H214520   5.157   5.389   2.168
 4855TIP3   OH214521   5.274   5.948   2.062
 4855TIP3    H114522   5.358   5.956   2.016
 4855TIP3    H214523   5.217   6.011   2.014
 4856TIP3   OH214524   5.857   5.911   2.438
 4856TIP3    H114525   5.903   5.826   2.447
 4856TIP3    H214526   5.926   5.967   2.401
 4857TIP3   OH214527   5.899   6.168   2.179
 4857TIP3    H114528   5.841   6.222   2.119
 4857TIP3    H214529   5.987   6.188   2.139
 4858TIP3   OH214530   5.127   5.731   2.612
 4858TIP3    H114531   5.059   5.662   2.627
 4858TIP3    H214532   5.159   5.708   2.523
 4859TIP3   OH214533   5.382   5.174   2.257
 4859TIP3    H114534   5.331   5.254   2.233
 4859TIP3    H214535   5.314   5.104   2.244
 4860TIP3   OH214536   5.507   5.675   2.470
 4860TIP3    H114537   5.490   5.660   2.565
 4860TIP3    H214538   5.418   5.652   2.435
 4861TIP3   OH214539   5.747   5.631   2.327
 4861TIP3    H114540   5.672   5.629   2.390
 4861TIP3    H214541   5.821   5.599   2.382
 4862TIP3   OH214542   5.977   5.570   2.475
 4862TIP3    H114543   5.990   5.474   2.489
 4862TIP3    H214544   5.973   5.605   2.566
 4863TIP3   OH214545   4.964   5.513   2.666
 4863TIP3    H114546   4.967   5.421   2.632
 4863TIP3    H214547   5.002   5.500   2.755
 4864TIP3   OH214548   5.474   5.183   2.515
 4864TIP3    H114549   5.540   5.111   2.508
 4864TIP3    H214550   5.435   5.179   2.425
 4865TIP3   OH214551   5.543   5.398   2.672
 4865TIP3    H114552   5.522   5.326   2.608
 4865TIP3    H214553   5.464   5.456   2.665
 4866TIP3   OH214554   4.762   6.634   0.773
 4866TIP3    H114555   4.856   6.626   0.750
 4866TIP3    H214556   4.729   6.675   0.691
 4867TIP3   OH214557   4.244   6.008   0.996
 4867TIP3    H114558   4.336   6.030   0.973
 4867TIP3    H214559   4.233   5.921   0.951
 4868TIP3   OH214560   4.157   6.622   1.403
 4868TIP3    H114561   4.094   6.560   1.361
 4868TIP3    H214562   4.203   6.562   1.466
 4869TIP3   OH214563   4.291   6.470   1.590
 4869TIP3    H114564   4.281   6.396   1.652
 4869TIP3    H214565   4.346   6.531   1.642
 4870TIP3   OH214566   6.024   6.870   1.389
 4870TIP3    H114567   6.047   6.907   1.477
 4870TIP3    H214568   6.085   6.918   1.331
 4871TIP3   OH214569   6.047   6.889   1.679
 4871TIP3    H114570   6.003   6.802   1.670
 4871TIP3    H214571   6.132   6.861   1.717
 4872TIP3   OH214572   6.090   6.568   2.239
 4872TIP3    H114573   6.022   6.578   2.308
 4872TIP3    H214574   6.138   6.653   2.247
 4873TIP3   OH214575   5.914   6.080   0.870
 4873TIP3    H114576   5.987   6.141   0.851
 4873TIP3    H214577   5.950   6.034   0.949
 4874TIP3   OH214578   6.041   5.946   1.070
 4874TIP3    H114579   5.974   5.904   1.128
 4874TIP3    H214580   6.105   5.983   1.134
 4875TIP3   OH214581   6.098   6.344   1.498
 4875TIP3    H114582   6.150   6.275   1.453
 4875TIP3    H214583   6.090   6.413   1.430
 4876TIP3   OH214584   5.922   6.642   1.691
 4876TIP3    H114585   5.847   6.681   1.739
 4876TIP3    H214586   5.876   6.594   1.618
 4877TIP3   OH214587   5.977   5.854   0.723
 4877TIP3    H114588   5.901   5.840   0.661
 4877TIP3    H214589   5.945   5.932   0.772
 4878TIP3   OH214590   5.855   5.537   0.652
 4878TIP3    H114591   5.826   5.557   0.561
 4878TIP3    H214592   5.820   5.446   0.661
 4879TIP3   OH214593   5.854   5.806   1.212
 4879TIP3    H114594   5.858   5.709   1.201
 4879TIP3    H214595   5.839   5.816   1.308
 4880TIP3   OH214596   4.478   5.879   1.961
 4880TIP3    H114597   4.475   5.845   1.869
 4880TIP3    H214598   4.575   5.880   1.977
 4881TIP3   OH214599   6.145   6.232   2.070
 4881TIP3    H114600   6.215   6.164   2.060
 4881TIP3    H214601   6.170   6.297   2.003
 4882TIP3   OH214602   6.325   6.032   2.080
 4882TIP3    H114603   6.251   5.981   2.120
 4882TIP3    H214604   6.399   5.969   2.097
 4883TIP3   OH214605   5.777   5.278   0.672
 4883TIP3    H114606   5.855   5.235   0.711
 4883TIP3    H214607   5.704   5.215   0.688
 4884TIP3   OH214608   5.853   5.524   1.105
 4884TIP3    H114609   5.891   5.434   1.121
 4884TIP3    H214610   5.909   5.552   1.030
 4885TIP3   OH214611   6.010   5.693   1.603
 4885TIP3    H114612   6.096   5.718   1.561
 4885TIP3    H214613   6.025   5.731   1.691
 4886TIP3   OH214614   6.083   5.840   1.832
 4886TIP3    H114615   6.005   5.874   1.880
 4886TIP3    H214616   6.115   5.922   1.787
 4887TIP3   OH214617   4.698   5.565   2.636
 4887TIP3    H114618   4.796   5.559   2.638
 4887TIP3    H214619   4.674   5.478   2.673
 4888TIP3   OH214620   6.533   5.434   2.387
 4888TIP3    H114621   6.594   5.369   2.346
 4888TIP3    H214622   6.502   5.485   2.310
 4889TIP3   OH214623   5.958   5.274   1.145
 4889TIP3    H114624   6.005   5.256   1.229
 4889TIP3    H214625   5.896   5.198   1.142
 4890TIP3   OH214626   4.659   5.260   1.971
 4890TIP3    H114627   4.719   5.182   1.974
 4890TIP3    H214628   4.723   5.332   1.957
 4891TIP3   OH214629   4.459   5.532   2.035
 4891TIP3    H114630   4.508   5.524   1.951
 4891TIP3    H214631   4.491   5.616   2.068
 4892TIP3   OH214632   6.401   5.568   2.191
 4892TIP3    H114633   6.315   5.612   2.208
 4892TIP3    H214634   6.370   5.494   2.134
 4893TIP3   OH214635   6.038   5.201   0.777
 4893TIP3    H114636   6.068   5.129   0.717
 4893TIP3    H214637   6.105   5.269   0.761
 4894TIP3   OH214638   4.448   5.046   1.546
 4894TIP3    H114639   4.354   5.031   1.564
 4894TIP3    H214640   4.444   5.097   1.462
 4895TIP3   OH214641   5.620   6.734   1.049
 4895TIP3    H114642   5.658   6.729   0.959
 4895TIP3    H214643   5.662   6.813   1.085
 4896TIP3   OH214644   4.667   5.118   2.354
 4896TIP3    H114645   4.613   5.112   2.434
 4896TIP3    H214646   4.602   5.153   2.290
 4897TIP3   OH214647   4.704   6.549   2.428
 4897TIP3    H114648   4.612   6.520   2.411
 4897TIP3    H214649   4.716   6.523   2.520
 4898TIP3   OH214650   4.885   6.580   1.977
 4898TIP3    H114651   4.838   6.656   1.937
 4898TIP3    H214652   4.971   6.592   1.932
 4899TIP3   OH214653   5.322   6.818   2.115
 4899TIP3    H114654   5.366   6.818   2.203
 4899TIP3    H214655   5.386   6.870   2.062
 4900TIP3   OH214656   5.497   6.973   1.974
 4900TIP3    H114657   5.566   6.924   1.927
 4900TIP3    H214658   5.550   7.027   2.036
 4901TIP3   OH214659   6.302   5.331   2.073
 4901TIP3    H114660   6.212   5.320   2.038
 4901TIP3    H214661   6.336   5.239   2.064
 4902TIP3   OH214662   4.559   6.835   1.999
 4902TIP3    H114663   4.469   6.869   1.977
 4902TIP3    H214664   4.571   6.873   2.087
 4903TIP3   OH214665   4.797   6.814   1.860
 4903TIP3    H114666   4.709   6.825   1.902
 4903TIP3    H214667   4.779   6.843   1.769
 4904TIP3   OH214668   5.221   6.837   1.658
 4904TIP3    H114669   5.152   6.854   1.591
 4904TIP3    H214670   5.232   6.926   1.697
 4905TIP3   OH214671   5.490   6.779   1.711
 4905TIP3    H114672   5.397   6.796   1.690
 4905TIP3    H214673   5.535   6.850   1.662
 4906TIP3   OH214674   5.697   6.969   1.622
 4906TIP3    H114675   5.684   7.054   1.575
 4906TIP3    H214676   5.723   6.909   1.549
 4907TIP3   OH214677   4.469   6.625   1.747
 4907TIP3    H114678   4.499   6.598   1.836
 4907TIP3    H214679   4.541   6.583   1.694
 4908TIP3   OH214680   4.665   6.500   1.606
 4908TIP3    H114681   4.681   6.415   1.654
 4908TIP3    H214682   4.756   6.534   1.598
 4909TIP3   OH214683   4.934   6.592   1.608
 4909TIP3    H114684   4.963   6.499   1.594
 4909TIP3    H214685   4.982   6.611   1.691
 4910TIP3   OH214686   5.509   5.249   1.701
 4910TIP3    H114687   5.464   5.177   1.748
 4910TIP3    H214688   5.576   5.201   1.649
 4911TIP3   OH214689   6.028   5.133   1.599
 4911TIP3    H114690   6.063   5.183   1.522
 4911TIP3    H214691   5.932   5.146   1.589
 4912TIP3   OH214692   6.124   5.229   1.361
 4912TIP3    H114693   6.198   5.178   1.322
 4912TIP3    H214694   6.155   5.321   1.346
 4913TIP3   OH214695   4.752   4.959   1.709
 4913TIP3    H114696   4.659   4.928   1.710
 4913TIP3    H214697   4.799   4.873   1.703
 4914TIP3   OH214698   4.512   4.825   1.352
 4914TIP3    H114699   4.577   4.861   1.289
 4914TIP3    H214700   4.512   4.891   1.423
 4915TIP3   OH214701   5.201   4.995   1.582
 4915TIP3    H114702   5.261   5.043   1.523
 4915TIP3    H214703   5.230   5.025   1.670
 4916TIP3   OH214704   5.746   5.136   1.570
 4916TIP3    H114705   5.741   5.095   1.483
 4916TIP3    H214706   5.734   5.059   1.629
 4917TIP3   OH214707   5.776   5.061   1.136
 4917TIP3    H114708   5.689   5.103   1.150
 4917TIP3    H214709   5.761   4.975   1.180
 4918TIP3   OH214710   4.257   6.406   1.135
 4918TIP3    H114711   4.172   6.370   1.103
 4918TIP3    H214712   4.248   6.497   1.101
 4919TIP3   OH214713   4.663   4.988   1.112
 4919TIP3    H114714   4.710   4.911   1.073
 4919TIP3    H214715   4.738   5.037   1.152
 4920TIP3   OH214716   5.167   5.163   1.219
 4920TIP3    H114717   5.224   5.110   1.276
 4920TIP3    H214718   5.196   5.254   1.244
 4921TIP3   OH214719   5.028   6.587   0.713
 4921TIP3    H114720   5.122   6.598   0.688
 4921TIP3    H214721   5.007   6.510   0.657
 4922TIP3   OH214722   5.758   6.702   0.806
 4922TIP3    H114723   5.745   6.608   0.785
 4922TIP3    H214724   5.744   6.745   0.719
 4923TIP3   OH214725   4.962   5.239   2.602
 4923TIP3    H114726   4.926   5.167   2.656
 4923TIP3    H214727   5.056   5.237   2.629
 4924TIP3   OH214728   5.214   5.236   2.718
 4924TIP3    H114729   5.298   5.210   2.676
 4924TIP3    H214730   5.202   5.164   2.784
 4925TIP3   OH214731   4.340   6.423   0.779
 4925TIP3    H114732   4.344   6.438   0.874
 4925TIP3    H214733   4.425   6.376   0.760
 4926TIP3   OH214734   6.040   5.299   2.505
 4926TIP3    H114735   6.057   5.267   2.596
 4926TIP3    H214736   6.129   5.293   2.464
 4927TIP3   OH214737   5.970   6.862   1.992
 4927TIP3    H114738   5.889   6.814   1.964
 4927TIP3    H214739   5.977   6.924   1.919
 4928TIP3   OH214740   7.225   6.206   1.148
 4928TIP3    H114741   7.271   6.203   1.234
 4928TIP3    H214742   7.183   6.119   1.146
 4929TIP3   OH214743   6.539   6.115   1.511
 4929TIP3    H114744   6.568   6.045   1.573
 4929TIP3    H214745   6.618   6.172   1.512
 4930TIP3   OH214746   6.513   6.525   1.231
 4930TIP3    H114747   6.507   6.427   1.234
 4930TIP3    H214748   6.610   6.536   1.232
 4931TIP3   OH214749   6.223   5.732   1.010
 4931TIP3    H114750   6.170   5.811   1.033
 4931TIP3    H214751   6.153   5.673   0.979
 4932TIP3   OH214752   6.277   6.016   1.197
 4932TIP3    H114753   6.325   5.938   1.230
 4932TIP3    H214754   6.342   6.054   1.136
 4933TIP3   OH214755   7.039   6.446   1.192
 4933TIP3    H114756   7.086   6.370   1.153
 4933TIP3    H214757   7.118   6.499   1.218
 4934TIP3   OH214758   8.046   5.778   1.195
 4934TIP3    H114759   8.080   5.853   1.245
 4934TIP3    H214760   8.073   5.799   1.105
 4935TIP3   OH214761   7.454   5.949   1.235
 4935TIP3    H114762   7.497   5.864   1.256
 4935TIP3    H214763   7.421   5.932   1.145
 4936TIP3   OH214764   6.796   5.607   1.189
 4936TIP3    H114765   6.772   5.679   1.127
 4936TIP3    H214766   6.746   5.532   1.148
 4937TIP3   OH214767   7.459   5.700   0.843
 4937TIP3    H114768   7.542   5.684   0.893
 4937TIP3    H214769   7.495   5.719   0.754
 4938TIP3   OH214770   6.425   5.809   1.296
 4938TIP3    H114771   6.507   5.791   1.345
 4938TIP3    H214772   6.438   5.751   1.218
 4939TIP3   OH214773   6.864   6.005   1.091
 4939TIP3    H114774   6.958   5.981   1.106
 4939TIP3    H214775   6.826   5.920   1.060
 4940TIP3   OH214776   6.788   5.591   1.625
 4940TIP3    H114777   6.728   5.630   1.558
 4940TIP3    H214778   6.736   5.608   1.706
 4941TIP3   OH214779   6.893   6.368   1.417
 4941TIP3    H114780   6.834   6.437   1.455
 4941TIP3    H214781   6.938   6.417   1.346
 4942TIP3   OH214782   7.695   5.705   0.987
 4942TIP3    H114783   7.671   5.666   1.073
 4942TIP3    H214784   7.739   5.788   1.015
 4943TIP3   OH214785   6.660   5.707   1.407
 4943TIP3    H114786   6.721   5.780   1.433
 4943TIP3    H214787   6.712   5.666   1.334
 4944TIP3   OH214788   6.720   6.564   1.516
 4944TIP3    H114789   6.699   6.653   1.481
 4944TIP3    H214790   6.641   6.550   1.572
 4945TIP3   OH214791   6.113   6.247   0.753
 4945TIP3    H114792   6.024   6.275   0.726
 4945TIP3    H214793   6.149   6.331   0.788
 4946TIP3   OH214794   7.851   5.656   1.355
 4946TIP3    H114795   7.766   5.696   1.335
 4946TIP3    H214796   7.910   5.696   1.287
 4947TIP3   OH214797   7.139   5.307   1.340
 4947TIP3    H114798   7.126   5.213   1.362
 4947TIP3    H214799   7.063   5.347   1.388
 4948TIP3   OH214800   8.013   6.290   1.215
 4948TIP3    H114801   7.921   6.321   1.221
 4948TIP3    H214802   8.040   6.340   1.137
 4949TIP3   OH214803   7.653   6.191   1.485
 4949TIP3    H114804   7.653   6.268   1.545
 4949TIP3    H214805   7.570   6.206   1.437
 4950TIP3   OH214806   6.656   6.152   0.986
 4950TIP3    H114807   6.616   6.090   0.922
 4950TIP3    H214808   6.733   6.100   1.018
 4951TIP3   OH214809   6.783   6.563   1.143
 4951TIP3    H114810   6.762   6.531   1.054
 4951TIP3    H214811   6.874   6.529   1.157
 4952TIP3   OH214812   6.788   6.126   1.337
 4952TIP3    H114813   6.824   6.105   1.249
 4952TIP3    H214814   6.832   6.212   1.358
 4953TIP3   OH214815   7.271   6.742   1.095
 4953TIP3    H114816   7.301   6.825   1.137
 4953TIP3    H214817   7.285   6.676   1.165
 4954TIP3   OH214818   6.929   6.679   1.663
 4954TIP3    H114819   6.870   6.740   1.712
 4954TIP3    H214820   6.864   6.627   1.613
 4955TIP3   OH214821   6.683   6.236   1.767
 4955TIP3    H114822   6.689   6.325   1.807
 4955TIP3    H214823   6.588   6.216   1.782
 4956TIP3   OH214824   6.721   6.844   1.746
 4956TIP3    H114825   6.687   6.849   1.655
 4956TIP3    H214826   6.639   6.828   1.798
 4957TIP3   OH214827   6.518   5.984   0.810
 4957TIP3    H114828   6.456   6.029   0.750
 4957TIP3    H214829   6.466   5.907   0.837
 4958TIP3   OH214830   6.300   6.380   1.696
 4958TIP3    H114831   6.233   6.359   1.628
 4958TIP3    H214832   6.338   6.293   1.719
 4959TIP3   OH214833   6.156   6.578   1.320
 4959TIP3    H114834   6.251   6.567   1.320
 4959TIP3    H214835   6.145   6.652   1.382
 4960TIP3   OH214836   7.112   6.817   1.512
 4960TIP3    H114837   7.115   6.909   1.546
 4960TIP3    H214838   7.049   6.775   1.574
 4961TIP3   OH214839   6.297   6.772   0.872
 4961TIP3    H114840   6.372   6.775   0.936
 4961TIP3    H214841   6.223   6.761   0.935
 4962TIP3   OH214842   7.916   6.160   1.672
 4962TIP3    H114843   7.853   6.178   1.601
 4962TIP3    H214844   7.948   6.071   1.650
 4963TIP3   OH214845   6.503   6.565   1.682
 4963TIP3    H114846   6.555   6.547   1.763
 4963TIP3    H214847   6.430   6.500   1.691
 4964TIP3   OH214848   6.904   5.387   1.469
 4964TIP3    H114849   6.815   5.356   1.441
 4964TIP3    H214850   6.877   5.466   1.520
 4965TIP3   OH214851   7.440   5.498   1.664
 4965TIP3    H114852   7.510   5.473   1.728
 4965TIP3    H214853   7.357   5.482   1.714
 4966TIP3   OH214854   7.666   5.924   1.574
 4966TIP3    H114855   7.624   5.924   1.663
 4966TIP3    H214856   7.657   6.017   1.546
 4967TIP3   OH214857   6.835   5.904   1.486
 4967TIP3    H114858   6.788   5.926   1.569
 4967TIP3    H214859   6.820   5.986   1.434
 4968TIP3   OH214860   6.719   5.783   0.998
 4968TIP3    H114861   6.626   5.761   1.024
 4968TIP3    H214862   6.721   5.743   0.909
 4969TIP3   OH214863   7.384   6.147   1.809
 4969TIP3    H114864   7.368   6.077   1.875
 4969TIP3    H214865   7.475   6.173   1.832
 4970TIP3   OH214866   7.359   5.906   0.986
 4970TIP3    H114867   7.327   5.960   0.914
 4970TIP3    H214868   7.390   5.825   0.939
 4971TIP3   OH214869   6.654   5.930   1.695
 4971TIP3    H114870   6.690   5.993   1.759
 4971TIP3    H214871   6.644   5.849   1.749
 4972TIP3   OH214872   6.245   5.456   1.278
 4972TIP3    H114873   6.325   5.481   1.328
 4972TIP3    H214874   6.279   5.417   1.196
 4973TIP3   OH214875   6.223   5.438   0.803
 4973TIP3    H114876   6.270   5.468   0.724
 4973TIP3    H214877   6.156   5.509   0.815
 4974TIP3   OH214878   7.359   6.149   1.388
 4974TIP3    H114879   7.403   6.081   1.332
 4974TIP3    H214880   7.338   6.094   1.466
 4975TIP3   OH214881   7.043   5.610   1.055
 4975TIP3    H114882   6.964   5.609   1.113
 4975TIP3    H214883   7.115   5.608   1.120
 4976TIP3   OH214884   6.481   5.666   1.066
 4976TIP3    H114885   6.386   5.677   1.040
 4976TIP3    H214886   6.497   5.572   1.048
 4977TIP3   OH214887   6.751   5.672   0.743
 4977TIP3    H114888   6.848   5.675   0.756
 4977TIP3    H214889   6.736   5.743   0.680
 4978TIP3   OH214890   7.539   5.685   1.255
 4978TIP3    H114891   7.516   5.698   1.350
 4978TIP3    H214892   7.469   5.625   1.228
 4979TIP3   OH214893   6.667   6.486   1.904
 4979TIP3    H114894   6.749   6.513   1.950
 4979TIP3    H214895   6.605   6.484   1.979
 4980TIP3   OH214896   7.127   5.936   1.163
 4980TIP3    H114897   7.210   5.906   1.124
 4980TIP3    H214898   7.130   5.898   1.252
 4981TIP3   OH214899   6.656   5.420   1.043
 4981TIP3    H114900   6.609   5.351   1.095
 4981TIP3    H214901   6.709   5.366   0.984
 4982TIP3   OH214902   7.107   5.844   1.444
 4982TIP3    H114903   7.018   5.878   1.464
 4982TIP3    H214904   7.166   5.901   1.498
 4983TIP3   OH214905   7.755   6.364   1.152
 4983TIP3    H114906   7.745   6.460   1.149
 4983TIP3    H214907   7.661   6.336   1.155
 4984TIP3   OH214908   7.236   6.530   1.551
 4984TIP3    H114909   7.277   6.521   1.638
 4984TIP3    H214910   7.208   6.623   1.552
 4985TIP3   OH214911   6.533   6.246   1.218
 4985TIP3    H114912   6.575   6.217   1.135
 4985TIP3    H214913   6.580   6.193   1.284
 4986TIP3   OH214914   6.418   6.169   1.835
 4986TIP3    H114915   6.437   6.155   1.930
 4986TIP3    H214916   6.350   6.102   1.819
 4987TIP3   OH214917   7.147   6.282   1.854
 4987TIP3    H114918   7.089   6.223   1.804
 4987TIP3    H214919   7.235   6.250   1.826
 4988TIP3   OH214920   7.386   6.777   1.468
 4988TIP3    H114921   7.291   6.795   1.453
 4988TIP3    H214922   7.401   6.829   1.550
 4989TIP3   OH214923   7.488   6.305   1.117
 4989TIP3    H114924   7.392   6.294   1.109
 4989TIP3    H214925   7.520   6.236   1.056
 4990TIP3   OH214926   6.636   6.558   0.883
 4990TIP3    H114927   6.647   6.609   0.801
 4990TIP3    H214928   6.554   6.594   0.919
 4991TIP3   OH214929   6.197   5.855   0.566
 4991TIP3    H114930   6.241   5.932   0.606
 4991TIP3    H214931   6.118   5.847   0.624
 4992TIP3   OH214932   6.756   6.330   0.795
 4992TIP3    H114933   6.735   6.414   0.840
 4992TIP3    H214934   6.742   6.265   0.866
 4993TIP3   OH214935   6.904   6.881   1.321
 4993TIP3    H114936   6.944   6.949   1.262
 4993TIP3    H214937   6.984   6.851   1.368
 4994TIP3   OH214938   7.292   6.517   1.278
 4994TIP3    H114939   7.280   6.514   1.376
 4994TIP3    H214940   7.377   6.473   1.267
 4995TIP3   OH214941   6.626   5.673   1.838
 4995TIP3    H114942   6.529   5.676   1.850
 4995TIP3    H214943   6.653   5.617   1.913
 4996TIP3   OH214944   6.344   6.757   1.472
 4996TIP3    H114945   6.399   6.686   1.510
 4996TIP3    H214946   6.377   6.833   1.522
 4997TIP3   OH214947   6.319   6.096   0.651
 4997TIP3    H114948   6.243   6.133   0.701
 4997TIP3    H214949   6.355   6.178   0.615
 4998TIP3   OH214950   7.474   5.728   1.513
 4998TIP3    H114951   7.545   5.782   1.554
 4998TIP3    H214952   7.462   5.655   1.577
 4999TIP3   OH214953   7.026   5.664   0.789
 4999TIP3    H114954   7.095   5.731   0.779
 4999TIP3    H214955   7.030   5.650   0.887
 5000TIP3   OH214956   7.305   5.984   1.599
 5000TIP3    H114957   7.327   6.043   1.674
 5000TIP3    H214958   7.362   5.908   1.617
 5001TIP3   OH214959   7.194   5.404   0.903
 5001TIP3    H114960   7.186   5.459   0.984
 5001TIP3    H214961   7.271   5.447   0.863
 5002TIP3   OH214962   6.696   5.389   0.661
 5002TIP3    H114963   6.680   5.475   0.702
 5002TIP3    H214964   6.784   5.368   0.700
 5003TIP3   OH214965   7.941   5.904   1.564
 5003TIP3    H114966   7.844   5.898   1.577
 5003TIP3    H214967   7.951   5.861   1.480
 5004TIP3   OH214968   7.586   6.088   0.976
 5004TIP3    H114969   7.520   6.019   0.995
 5004TIP3    H214970   7.667   6.047   1.010
 5005TIP3   OH214971   6.262   5.584   0.567
 5005TIP3    H114972   6.238   5.679   0.569
 5005TIP3    H214973   6.181   5.544   0.532
 5006TIP3   OH214974   6.641   5.305   1.440
 5006TIP3    H114975   6.609   5.269   1.355
 5006TIP3    H214976   6.630   5.228   1.500
 5007TIP3   OH214977   6.165   6.505   0.828
 5007TIP3    H114978   6.117   6.544   0.902
 5007TIP3    H214979   6.241   6.564   0.823
 5008TIP3   OH214980   6.327   7.068   1.922
 5008TIP3    H114981   6.415   7.077   1.964
 5008TIP3    H214982   6.327   6.973   1.903
 5009TIP3   OH214983   6.804   7.030   1.940
 5009TIP3    H114984   6.899   7.023   1.956
 5009TIP3    H214985   6.793   6.965   1.868
 5010TIP3   OH214986   7.457   6.926   1.684
 5010TIP3    H114987   7.457   6.862   1.758
 5010TIP3    H214988   7.537   6.978   1.704
 5011TIP3   OH214989   6.464   6.474   2.096
 5011TIP3    H114990   6.481   6.379   2.104
 5011TIP3    H214991   6.378   6.475   2.049
 5012TIP3   OH214992   7.065   6.554   1.874
 5012TIP3    H114993   7.036   6.582   1.785
 5012TIP3    H214994   7.103   6.465   1.858
 5013TIP3   OH214995   7.561   6.566   1.468
 5013TIP3    H114996   7.626   6.630   1.438
 5013TIP3    H214997   7.480   6.623   1.471
 5014TIP3   OH214998   6.586   6.210   2.079
 5014TIP3    H114999   6.665   6.164   2.050
 5014TIP3    H215000   6.614   6.243   2.167
 5015TIP3   OH215001   6.917   6.087   1.734
 5015TIP3    H115002   6.843   6.151   1.737
 5015TIP3    H215003   6.971   6.123   1.661
 5016TIP3   OH215004   7.434   6.488   1.864
 5016TIP3    H115005   7.521   6.469   1.826
 5016TIP3    H215006   7.434   6.432   1.944
 5017TIP3   OH215007   7.043   5.883   1.865
 5017TIP3    H115008   7.045   5.804   1.807
 5017TIP3    H215009   7.000   5.949   1.807
 5018TIP3   OH215010   7.047   5.669   1.672
 5018TIP3    H115011   7.075   5.711   1.589
 5018TIP3    H215012   6.953   5.647   1.653
 5019TIP3   OH215013   7.069   6.198   1.543
 5019TIP3    H115014   7.157   6.218   1.510
 5019TIP3    H215015   7.015   6.267   1.500
 5020TIP3   OH215016   7.657   6.170   1.926
 5020TIP3    H115017   7.713   6.091   1.927
 5020TIP3    H215018   7.719   6.236   1.892
 5021TIP3   OH215019   7.667   6.418   1.671
 5021TIP3    H115020   7.614   6.472   1.607
 5021TIP3    H215021   7.756   6.429   1.630
 5022TIP3   OH215022   6.920   5.988   2.098
 5022TIP3    H115023   6.853   5.918   2.112
 5022TIP3    H215024   6.954   5.964   2.010
 5023TIP3   OH215025   7.177   5.429   1.743
 5023TIP3    H115026   7.127   5.511   1.720
 5023TIP3    H215027   7.108   5.361   1.732
 5024TIP3   OH215028   7.306   5.930   1.958
 5024TIP3    H115029   7.293   5.921   2.054
 5024TIP3    H215030   7.216   5.909   1.927
 5025TIP3   OH215031   7.540   5.877   1.809
 5025TIP3    H115032   7.468   5.885   1.874
 5025TIP3    H215033   7.617   5.854   1.866
 5026TIP3   OH215034   7.770   5.827   1.962
 5026TIP3    H115035   7.782   5.731   1.978
 5026TIP3    H215036   7.767   5.864   2.053
 5027TIP3   OH215037   6.760   5.768   2.153
 5027TIP3    H115038   6.764   5.676   2.120
 5027TIP3    H215039   6.798   5.758   2.242
 5028TIP3   OH215040   7.269   5.438   2.001
 5028TIP3    H115041   7.337   5.368   1.993
 5028TIP3    H215042   7.230   5.435   1.912
 5029TIP3   OH215043   7.336   5.652   2.162
 5029TIP3    H115044   7.316   5.583   2.095
 5029TIP3    H215045   7.259   5.712   2.153
 5030TIP3   OH215046   5.953   6.880   0.895
 5030TIP3    H115047   5.886   6.826   0.848
 5030TIP3    H215048   5.991   6.813   0.956
 5031TIP3   OH215049   6.107   6.717   1.065
 5031TIP3    H115050   6.081   6.651   1.132
 5031TIP3    H215051   6.149   6.783   1.125
 5032TIP3   OH215052   6.275   6.137   1.447
 5032TIP3    H115053   6.272   6.103   1.355
 5032TIP3    H215054   6.372   6.138   1.464
 5033TIP3   OH215055   7.895   6.462   1.533
 5033TIP3    H115056   7.984   6.434   1.559
 5033TIP3    H215057   7.916   6.525   1.463
 5034TIP3   OH215058   7.807   5.948   1.073
 5034TIP3    H115059   7.888   5.988   1.039
 5034TIP3    H215060   7.810   5.982   1.166
 5035TIP3   OH215061   7.851   6.076   1.308
 5035TIP3    H115062   7.784   6.120   1.364
 5035TIP3    H215063   7.917   6.146   1.297
 5036TIP3   OH215064   6.494   5.821   2.122
 5036TIP3    H115065   6.591   5.816   2.125
 5036TIP3    H215066   6.470   5.734   2.159
 5037TIP3   OH215067   6.457   5.514   1.447
 5037TIP3    H115068   6.518   5.438   1.458
 5037TIP3    H215069   6.520   5.588   1.442
 5038TIP3   OH215070   6.256   5.787   1.523
 5038TIP3    H115071   6.305   5.784   1.439
 5038TIP3    H215072   6.287   5.870   1.560
 5039TIP3   OH215073   6.242   5.302   1.035
 5039TIP3    H115074   6.147   5.286   1.054
 5039TIP3    H215075   6.238   5.354   0.952
 5040TIP3   OH215076   6.462   5.372   1.838
 5040TIP3    H115077   6.411   5.366   1.920
 5040TIP3    H215078   6.396   5.409   1.777
 5041TIP3   OH215079   6.497   6.809   1.909
 5041TIP3    H115080   6.408   6.771   1.901
 5041TIP3    H215081   6.524   6.781   1.997
 5042TIP3   OH215082   6.677   6.833   1.462
 5042TIP3    H115083   6.635   6.911   1.420
 5042TIP3    H215084   6.766   6.842   1.420
 5043TIP3   OH215085   7.137   7.092   1.595
 5043TIP3    H115086   7.169   7.081   1.687
 5043TIP3    H215087   7.211   7.144   1.558
 5044TIP3   OH215088   8.078   5.558   1.578
 5044TIP3    H115089   8.012   5.606   1.526
 5044TIP3    H215090   8.132   5.516   1.510
 5045TIP3   OH215091   6.352   7.090   1.488
 5045TIP3    H115092   6.260   7.121   1.469
 5045TIP3    H215093   6.372   7.143   1.566
 5046TIP3   OH215094   6.583   7.060   1.343
 5046TIP3    H115095   6.495   7.073   1.385
 5046TIP3    H215096   6.567   7.093   1.252
 5047TIP3   OH215097   6.994   7.071   1.159
 5047TIP3    H115098   6.965   7.115   1.078
 5047TIP3    H215099   7.027   7.146   1.212
 5048TIP3   OH215100   6.268   6.880   1.228
 5048TIP3    H115101   6.290   6.855   1.320
 5048TIP3    H215102   6.344   6.837   1.182
 5049TIP3   OH215103   6.466   6.750   1.087
 5049TIP3    H115104   6.479   6.670   1.144
 5049TIP3    H215105   6.556   6.790   1.092
 5050TIP3   OH215106   6.725   6.842   1.103
 5050TIP3    H115107   6.762   6.752   1.099
 5050TIP3    H215108   6.779   6.876   1.177
 5051TIP3   OH215109   7.290   5.491   1.160
 5051TIP3    H115110   7.256   5.428   1.227
 5051TIP3    H215111   7.375   5.452   1.135
 5052TIP3   OH215112   7.828   5.380   1.084
 5052TIP3    H115113   7.869   5.432   1.012
 5052TIP3    H215114   7.735   5.408   1.080
 5053TIP3   OH215115   6.306   3.844   9.036
 5053TIP3    H115116   6.360   3.801   8.970
 5053TIP3    H215117   6.312   3.937   9.012
 5054TIP3   OH215118   6.551   5.213   1.192
 5054TIP3    H115119   6.458   5.182   1.195
 5054TIP3    H215120   6.597   5.127   1.188
 5055TIP3   OH215121   6.354   5.084   0.852
 5055TIP3    H115122   6.379   5.142   0.777
 5055TIP3    H215123   6.315   5.148   0.913
 5056TIP3   OH215124   6.994   5.246   1.078
 5056TIP3    H115125   7.062   5.295   1.029
 5056TIP3    H215126   7.010   5.277   1.168
 5057TIP3   OH215127   7.538   5.390   1.056
 5057TIP3    H115128   7.556   5.342   0.975
 5057TIP3    H215129   7.527   5.315   1.120
 5058TIP3   OH215130   6.458   5.238   0.645
 5058TIP3    H115131   6.460   5.185   0.565
 5058TIP3    H215132   6.544   5.283   0.646
 5059TIP3   OH215133   6.951   5.398   0.753
 5059TIP3    H115134   7.015   5.343   0.799
 5059TIP3    H215135   6.976   5.486   0.787
 5060TIP3   OH215136   6.758   5.494   2.086
 5060TIP3    H115137   6.722   5.423   2.142
 5060TIP3    H215138   6.852   5.493   2.115
 5061TIP3   OH215139   7.008   5.492   2.205
 5061TIP3    H115140   7.094   5.468   2.165
 5061TIP3    H215141   6.996   5.422   2.271
 5062TIP3   OH215142   7.831   5.555   1.993
 5062TIP3    H115143   7.852   5.524   2.084
 5062TIP3    H215144   7.920   5.553   1.951
 5063TIP3   OH215145   0.511   6.555   2.882
 5063TIP3    H115146   0.536   6.639   2.927
 5063TIP3    H215147   0.529   6.577   2.789
 5064TIP3   OH215148  -0.059   6.455   2.497
 5064TIP3    H115149   0.006   6.470   2.568
 5064TIP3    H215150  -0.033   6.521   2.432
 5065TIP3   OH215151   0.575   6.765   3.057
 5065TIP3    H115152   0.491   6.813   3.041
 5065TIP3    H215153   0.604   6.806   3.140
 5066TIP3   OH215154   0.145   6.504   2.670
 5066TIP3    H115155   0.151   6.426   2.726
 5066TIP3    H215156   0.201   6.570   2.714
 5067TIP3   OH215157   0.306   6.464   3.049
 5067TIP3    H115158   0.225   6.505   3.016
 5067TIP3    H215159   0.372   6.489   2.981
 5068TIP3   OH215160   0.223   7.481   3.031
 5068TIP3    H115161   0.208   7.396   2.988
 5068TIP3    H215162   0.260   7.537   2.960
 5069TIP3   OH215163   0.431   7.102   2.871
 5069TIP3    H115164   0.348   7.155   2.880
 5069TIP3    H215165   0.461   7.131   2.782
 5070TIP3   OH215166   0.238   6.041   2.139
 5070TIP3    H115167   0.157   6.063   2.190
 5070TIP3    H215168   0.266   6.129   2.106
 5071TIP3   OH215169   0.378   6.943   3.356
 5071TIP3    H115170   0.298   6.971   3.310
 5071TIP3    H215171   0.375   6.846   3.343
 5072TIP3   OH215172   0.200   7.253   2.870
 5072TIP3    H115173   0.234   7.304   2.793
 5072TIP3    H215174   0.109   7.236   2.845
 5073TIP3   OH215175   0.475   7.504   3.128
 5073TIP3    H115176   0.379   7.516   3.111
 5073TIP3    H215177   0.507   7.491   3.036
 5074TIP3   OH215178   0.373   6.677   3.276
 5074TIP3    H115179   0.291   6.631   3.298
 5074TIP3    H215180   0.392   6.644   3.188
 5075TIP3   OH215181   0.046   6.848   2.647
 5075TIP3    H115182  -0.021   6.784   2.673
 5075TIP3    H215183   0.124   6.815   2.696
 5076TIP3   OH215184   0.306   6.597   3.697
 5076TIP3    H115185   0.301   6.499   3.691
 5076TIP3    H215186   0.208   6.617   3.699
 5077TIP3   OH215187   0.300   6.991   2.225
 5077TIP3    H115188   0.231   6.952   2.283
 5077TIP3    H215189   0.364   7.027   2.290
 5078TIP3   OH215190   0.331   7.383   2.675
 5078TIP3    H115191   0.395   7.328   2.625
 5078TIP3    H215192   0.331   7.467   2.627
 5079TIP3   OH215193   0.132   6.836   2.383
 5079TIP3    H115194   0.124   6.739   2.381
 5079TIP3    H215195   0.102   6.855   2.475
 5080TIP3   OH215196   0.384   7.266   3.248
 5080TIP3    H115197   0.460   7.206   3.238
 5080TIP3    H215198   0.406   7.340   3.190
 5081TIP3   OH215199   0.583   7.078   3.248
 5081TIP3    H115200   0.510   7.034   3.298
 5081TIP3    H215201   0.655   7.015   3.266
 5082TIP3   OH215202   0.134   6.566   2.311
 5082TIP3    H115203   0.148   6.478   2.350
 5082TIP3    H215204   0.159   6.547   2.220
 5083TIP3   OH215205   0.261   6.739   2.785
 5083TIP3    H115206   0.345   6.763   2.740
 5083TIP3    H215207   0.276   6.784   2.871
 5084TIP3   OH215208   0.320   6.888   3.010
 5084TIP3    H115209   0.237   6.918   3.052
 5084TIP3    H215210   0.355   6.971   2.971
 5085TIP3   OH215211   0.786   6.482   3.563
 5085TIP3    H115212   0.844   6.415   3.520
 5085TIP3    H215213   0.751   6.531   3.486
 5086TIP3   OH215214   0.221   6.302   2.318
 5086TIP3    H115215   0.261   6.292   2.406
 5086TIP3    H215216   0.148   6.237   2.323
 5087TIP3   OH215217   0.645   6.613   3.370
 5087TIP3    H115218   0.566   6.659   3.405
 5087TIP3    H215219   0.604   6.545   3.313
 5088TIP3   OH215220   0.346   6.250   1.993
 5088TIP3    H115221   0.361   6.192   1.916
 5088TIP3    H215222   0.356   6.339   1.954
 5089TIP3   OH215223   0.549   6.376   3.249
 5089TIP3    H115224   0.459   6.358   3.216
 5089TIP3    H215225   0.587   6.285   3.242
 5090TIP3   OH215226   0.299   6.167   2.769
 5090TIP3    H115227   0.333   6.220   2.694
 5090TIP3    H215228   0.203   6.189   2.765
 5091TIP3   OH215229   0.380   6.280   2.538
 5091TIP3    H115230   0.453   6.229   2.498
 5091TIP3    H215231   0.409   6.372   2.521
 5092TIP3   OH215232   0.038   6.215   2.739
 5092TIP3    H115233  -0.037   6.221   2.679
 5092TIP3    H215234   0.016   6.134   2.791
 5093TIP3   OH215235   0.031   6.100   2.310
 5093TIP3    H115236  -0.055   6.131   2.276
 5093TIP3    H215237   0.005   6.015   2.351
 5094TIP3   OH215238   0.298   6.324   3.682
 5094TIP3    H115239   0.315   6.301   3.773
 5094TIP3    H215240   0.386   6.320   3.641
 5095TIP3   OH215241   1.495   7.252   1.948
 5095TIP3    H115242   1.452   7.338   1.931
 5095TIP3    H215243   1.425   7.193   1.914
 5096TIP3   OH215244   1.496   7.264   2.322
 5096TIP3    H115245   1.528   7.244   2.412
 5096TIP3    H215246   1.450   7.181   2.299
 5097TIP3   OH215247   0.788   7.160   2.686
 5097TIP3    H115248   0.818   7.092   2.748
 5097TIP3    H215249   0.860   7.224   2.693
 5098TIP3   OH215250   1.713   7.569   2.009
 5098TIP3    H115251   1.709   7.499   2.077
 5098TIP3    H215252   1.766   7.636   2.054
 5099TIP3   OH215253   0.816   7.510   2.484
 5099TIP3    H115254   0.788   7.424   2.451
 5099TIP3    H215255   0.900   7.523   2.435
 5100TIP3   OH215256   0.456   6.749   2.185
 5100TIP3    H115257   0.420   6.838   2.174
 5100TIP3    H215258   0.410   6.720   2.264
 5101TIP3   OH215259   0.530   7.062   2.368
 5101TIP3    H115260   0.575   6.983   2.403
 5101TIP3    H215261   0.605   7.119   2.345
 5102TIP3   OH215262   1.307   7.481   2.366
 5102TIP3    H115263   1.356   7.405   2.330
 5102TIP3    H215264   1.383   7.536   2.393
 5103TIP3   OH215265   2.304   6.812   2.369
 5103TIP3    H115266   2.334   6.895   2.411
 5103TIP3    H215267   2.329   6.828   2.276
 5104TIP3   OH215268   1.701   6.992   2.401
 5104TIP3    H115269   1.745   6.907   2.422
 5104TIP3    H215270   1.670   6.974   2.310
 5105TIP3   OH215271   1.043   6.652   2.366
 5105TIP3    H115272   1.023   6.726   2.305
 5105TIP3    H215273   0.993   6.580   2.322
 5106TIP3   OH215274   1.738   6.743   1.986
 5106TIP3    H115275   1.807   6.729   2.054
 5106TIP3    H215276   1.792   6.779   1.914
 5107TIP3   OH215277   0.673   6.853   2.474
 5107TIP3    H115278   0.755   6.838   2.525
 5107TIP3    H215279   0.692   6.799   2.394
 5108TIP3   OH215280   1.115   7.053   2.268
 5108TIP3    H115281   1.209   7.028   2.281
 5108TIP3    H215282   1.075   6.968   2.238
 5109TIP3   OH215283   2.377   7.020   2.541
 5109TIP3    H115284   2.293   7.067   2.521
 5109TIP3    H215285   2.399   7.058   2.627
 5110TIP3   OH215286   1.036   6.636   2.802
 5110TIP3    H115287   0.977   6.675   2.735
 5110TIP3    H215288   0.984   6.653   2.883
 5111TIP3   OH215289   1.364   7.462   1.825
 5111TIP3    H115290   1.348   7.447   1.731
 5111TIP3    H215291   1.402   7.552   1.827
 5112TIP3   OH215292   1.139   7.417   2.595
 5112TIP3    H115293   1.076   7.484   2.628
 5112TIP3    H215294   1.174   7.462   2.515
 5113TIP3   OH215295   1.940   6.750   2.167
 5113TIP3    H115296   1.922   6.711   2.253
 5113TIP3    H215297   1.993   6.828   2.190
 5114TIP3   OH215298   0.909   6.752   2.585
 5114TIP3    H115299   0.969   6.826   2.610
 5114TIP3    H215300   0.960   6.713   2.511
 5115TIP3   OH215301   0.970   7.628   2.698
 5115TIP3    H115302   0.924   7.626   2.612
 5115TIP3    H215303   0.892   7.626   2.758
 5116TIP3   OH215304   2.098   6.707   2.532
 5116TIP3    H115305   2.012   6.739   2.501
 5116TIP3    H215306   2.159   6.743   2.465
 5117TIP3   OH215307   1.389   6.355   2.517
 5117TIP3    H115308   1.373   6.261   2.534
 5117TIP3    H215309   1.313   6.396   2.565
 5118TIP3   OH215310   1.740   7.576   1.728
 5118TIP3    H115311   1.704   7.496   1.687
 5118TIP3    H215312   1.752   7.551   1.821
 5119TIP3   OH215313   2.022   7.721   2.517
 5119TIP3    H115314   2.011   7.644   2.459
 5119TIP3    H215315   2.051   7.790   2.454
 5120TIP3   OH215316   1.335   7.107   1.776
 5120TIP3    H115317   1.259   7.168   1.770
 5120TIP3    H215318   1.376   7.119   1.689
 5121TIP3   OH215319   1.306   6.897   1.507
 5121TIP3    H115320   1.372   6.952   1.553
 5121TIP3    H215321   1.364   6.839   1.455
 5122TIP3   OH215322   2.227   7.360   2.359
 5122TIP3    H115323   2.143   7.411   2.365
 5122TIP3    H215324   2.257   7.387   2.270
 5123TIP3   OH215325   1.672   7.194   1.749
 5123TIP3    H115326   1.617   7.215   1.827
 5123TIP3    H215327   1.757   7.170   1.793
 5124TIP3   OH215328   1.903   7.238   2.660
 5124TIP3    H115329   1.903   7.321   2.711
 5124TIP3    H215330   1.817   7.245   2.615
 5125TIP3   OH215331   0.908   7.194   2.151
 5125TIP3    H115332   0.867   7.130   2.090
 5125TIP3    H215333   0.985   7.145   2.186
 5126TIP3   OH215334   1.042   7.561   2.354
 5126TIP3    H115335   1.018   7.549   2.262
 5126TIP3    H215336   1.138   7.577   2.350
 5127TIP3   OH215337   1.036   7.174   2.511
 5127TIP3    H115338   1.073   7.151   2.423
 5127TIP3    H215339   1.079   7.259   2.531
 5128TIP3   OH215340   1.218   7.626   2.839
 5128TIP3    H115341   1.185   7.715   2.858
 5128TIP3    H215342   1.144   7.593   2.786
 5129TIP3   OH215343   1.519   7.054   1.570
 5129TIP3    H115344   1.573   7.119   1.620
 5129TIP3    H215345   1.544   7.076   1.477
 5130TIP3   OH215346   0.932   7.278   2.940
 5130TIP3    H115347   0.939   7.367   2.980
 5130TIP3    H215348   0.838   7.258   2.960
 5131TIP3   OH215349   2.024   6.298   1.618
 5131TIP3    H115350   1.944   6.322   1.668
 5131TIP3    H215351   2.041   6.381   1.568
 5132TIP3   OH215352   0.762   7.033   1.959
 5132TIP3    H115353   0.700   7.090   1.911
 5132TIP3    H215354   0.716   6.948   1.958
 5133TIP3   OH215355   0.565   7.426   2.882
 5133TIP3    H115356   0.496   7.408   2.815
 5133TIP3    H215357   0.599   7.337   2.903
 5134TIP3   OH215358   2.157   7.198   2.838
 5134TIP3    H115359   2.074   7.210   2.790
 5134TIP3    H215360   2.172   7.102   2.828
 5135TIP3   OH215361   0.758   7.625   2.871
 5135TIP3    H115362   0.810   7.589   2.946
 5135TIP3    H215363   0.683   7.561   2.868
 5136TIP3   OH215364   1.153   6.430   2.648
 5136TIP3    H115365   1.064   6.402   2.619
 5136TIP3    H215366   1.128   6.512   2.696
 5137TIP3   OH215367   1.689   6.543   2.841
 5137TIP3    H115368   1.759   6.518   2.905
 5137TIP3    H215369   1.606   6.527   2.890
 5138TIP3   OH215370   1.921   6.974   2.757
 5138TIP3    H115371   1.872   6.972   2.842
 5138TIP3    H215372   1.901   7.063   2.723
 5139TIP3   OH215373   1.579   7.088   1.311
 5139TIP3    H115374   1.556   7.069   1.218
 5139TIP3    H215375   1.646   7.158   1.299
 5140TIP3   OH215376   1.287   6.487   1.611
 5140TIP3    H115377   1.264   6.481   1.705
 5140TIP3    H215378   1.255   6.399   1.581
 5141TIP3   OH215379   1.083   6.951   2.662
 5141TIP3    H115380   1.035   6.972   2.744
 5141TIP3    H215381   1.067   7.033   2.609
 5142TIP3   OH215382   0.968   6.834   2.180
 5142TIP3    H115383   0.874   6.811   2.197
 5142TIP3    H215384   0.979   6.795   2.090
 5143TIP3   OH215385   1.464   6.909   1.909
 5143TIP3    H115386   1.413   6.980   1.863
 5143TIP3    H215387   1.521   6.877   1.837
 5144TIP3   OH215388   1.637   7.190   2.986
 5144TIP3    H115389   1.615   7.120   3.051
 5144TIP3    H215390   1.729   7.209   3.011
 5145TIP3   OH215391   1.616   6.943   2.145
 5145TIP3    H115392   1.554   6.973   2.076
 5145TIP3    H215393   1.650   6.864   2.099
 5146TIP3   OH215394   0.905   6.975   2.871
 5146TIP3    H115395   0.927   7.042   2.936
 5146TIP3    H215396   0.894   6.895   2.926
 5147TIP3   OH215397   0.936   6.436   1.574
 5147TIP3    H115398   0.949   6.437   1.670
 5147TIP3    H215399   0.864   6.500   1.568
 5148TIP3   OH215400   0.494   6.509   2.452
 5148TIP3    H115401   0.575   6.530   2.503
 5148TIP3    H215402   0.527   6.471   2.369
 5149TIP3   OH215403   0.461   6.511   1.956
 5149TIP3    H115404   0.544   6.527   1.910
 5149TIP3    H215405   0.456   6.585   2.017
 5150TIP3   OH215406   1.623   7.191   2.565
 5150TIP3    H115407   1.658   7.119   2.506
 5150TIP3    H215408   1.593   7.137   2.641
 5151TIP3   OH215409   1.299   6.650   2.237
 5151TIP3    H115410   1.218   6.653   2.293
 5151TIP3    H215411   1.369   6.650   2.304
 5152TIP3   OH215412   0.727   6.712   2.243
 5152TIP3    H115413   0.635   6.714   2.210
 5152TIP3    H215414   0.754   6.620   2.228
 5153TIP3   OH215415   1.004   6.709   1.938
 5153TIP3    H115416   1.100   6.721   1.928
 5153TIP3    H215417   0.971   6.713   1.846
 5154TIP3   OH215418   1.788   6.730   2.438
 5154TIP3    H115419   1.760   6.744   2.532
 5154TIP3    H215420   1.718   6.671   2.407
 5155TIP3   OH215421   0.868   6.690   1.704
 5155TIP3    H115422   0.777   6.716   1.726
 5155TIP3    H215423   0.889   6.751   1.631
 5156TIP3   OH215424   0.922   7.526   3.076
 5156TIP3    H115425   0.999   7.555   3.129
 5156TIP3    H215426   0.856   7.514   3.148
 5157TIP3   OH215427   1.377   6.983   2.335
 5157TIP3    H115428   1.455   6.948   2.289
 5157TIP3    H215429   1.384   6.941   2.423
 5158TIP3   OH215430   0.896   6.472   2.218
 5158TIP3    H115431   0.858   6.396   2.268
 5158TIP3    H215432   0.940   6.428   2.145
 5159TIP3   OH215433   1.354   6.884   2.627
 5159TIP3    H115434   1.264   6.921   2.640
 5159TIP3    H215435   1.411   6.946   2.676
 5160TIP3   OH215436   1.122   7.271   1.751
 5160TIP3    H115437   1.058   7.197   1.757
 5160TIP3    H215438   1.095   7.324   1.830
 5161TIP3   OH215439   1.992   7.502   2.350
 5161TIP3    H115440   2.020   7.553   2.271
 5161TIP3    H215441   1.908   7.462   2.322
 5162TIP3   OH215442   1.544   6.585   1.578
 5162TIP3    H115443   1.448   6.569   1.591
 5162TIP3    H215444   1.557   6.677   1.610
 5163TIP3   OH215445   1.501   7.612   2.718
 5163TIP3    H115446   1.534   7.564   2.795
 5163TIP3    H215447   1.419   7.650   2.753
 5164TIP3   OH215448   1.621   6.827   1.690
 5164TIP3    H115449   1.717   6.834   1.707
 5164TIP3    H215450   1.602   6.911   1.642
 5165TIP3   OH215451   0.760   7.239   2.384
 5165TIP3    H115452   0.816   7.237   2.304
 5165TIP3    H215453   0.821   7.208   2.453
 5166TIP3   OH215454   1.295   7.378   1.562
 5166TIP3    H115455   1.238   7.441   1.514
 5166TIP3    H215456   1.229   7.338   1.621
 5167TIP3   OH215457   0.672   7.202   3.010
 5167TIP3    H115458   0.683   7.190   3.107
 5167TIP3    H215459   0.597   7.142   2.993
 5168TIP3   OH215460   1.398   7.316   3.035
 5168TIP3    H115461   1.333   7.265   2.983
 5168TIP3    H215462   1.483   7.282   3.000
 5169TIP3   OH215463   2.055   6.924   1.527
 5169TIP3    H115464   1.995   6.880   1.462
 5169TIP3    H215465   2.054   7.014   1.486
 5170TIP3   OH215466   2.280   7.760   2.607
 5170TIP3    H115467   2.183   7.775   2.597
 5170TIP3    H215468   2.304   7.746   2.512
 5171TIP3   OH215469   1.756   7.376   2.253
 5171TIP3    H115470   1.664   7.351   2.275
 5171TIP3    H215471   1.789   7.291   2.216
 5172TIP3   OH215472   1.023   7.384   1.981
 5172TIP3    H115473   0.987   7.464   2.022
 5172TIP3    H215474   0.990   7.317   2.044
 5173TIP3   OH215475   1.547   7.570   2.449
 5173TIP3    H115476   1.533   7.585   2.545
 5173TIP3    H215477   1.635   7.532   2.447
 5174TIP3   OH215478   1.516   7.405   1.335
 5174TIP3    H115479   1.573   7.398   1.414
 5174TIP3    H215480   1.429   7.406   1.378
 5175TIP3   OH215481   0.875   6.715   3.016
 5175TIP3    H115482   0.779   6.720   3.032
 5175TIP3    H215483   0.905   6.663   3.092
 5176TIP3   OH215484   1.683   7.369   1.545
 5176TIP3    H115485   1.679   7.302   1.615
 5176TIP3    H215486   1.780   7.377   1.531
 5177TIP3   OH215487   1.719   6.778   2.698
 5177TIP3    H115488   1.795   6.823   2.739
 5177TIP3    H215489   1.706   6.700   2.755
 5178TIP3   OH215490   1.598   6.531   1.869
 5178TIP3    H115491   1.586   6.558   1.776
 5178TIP3    H215492   1.638   6.612   1.908
 5179TIP3   OH215493   1.280   6.715   1.970
 5179TIP3    H115494   1.345   6.786   1.953
 5179TIP3    H215495   1.287   6.705   2.067
 5180TIP3   OH215496   1.552   7.030   2.773
 5180TIP3    H115497   1.576   7.085   2.850
 5180TIP3    H215498   1.606   6.950   2.788
 5181TIP3   OH215499   1.425   6.433   2.068
 5181TIP3    H115500   1.420   6.509   2.129
 5181TIP3    H215501   1.488   6.469   2.001
 5182TIP3   OH215502   0.952   6.436   1.857
 5182TIP3    H115503   0.942   6.528   1.886
 5182TIP3    H215504   1.049   6.426   1.866
 5183TIP3   OH215505   2.189   6.932   2.760
 5183TIP3    H115506   2.091   6.928   2.764
 5183TIP3    H215507   2.205   6.895   2.672
 5184TIP3   OH215508   1.842   7.127   2.146
 5184TIP3    H115509   1.767   7.067   2.160
 5184TIP3    H215510   1.914   7.080   2.194
 5185TIP3   OH215511   0.891   6.351   2.617
 5185TIP3    H115512   0.857   6.317   2.531
 5185TIP3    H215513   0.878   6.273   2.676
 5186TIP3   OH215514   0.716   7.493   3.253
 5186TIP3    H115515   0.736   7.398   3.266
 5186TIP3    H215516   0.624   7.489   3.218
 5187TIP3   OH215517   1.341   7.580   3.078
 5187TIP3    H115518   1.306   7.596   2.988
 5187TIP3    H215519   1.374   7.489   3.069
 5188TIP3   OH215520   1.810   7.604   2.650
 5188TIP3    H115521   1.879   7.659   2.609
 5188TIP3    H215522   1.735   7.666   2.648
 5189TIP3   OH215523   0.843   7.245   3.258
 5189TIP3    H115524   0.922   7.195   3.236
 5189TIP3    H215525   0.867   7.282   3.346
 5190TIP3   OH215526   0.945   7.067   1.744
 5190TIP3    H115527   0.891   7.036   1.818
 5190TIP3    H215528   0.936   6.996   1.679
 5191TIP3   OH215529   1.169   7.136   2.914
 5191TIP3    H115530   1.091   7.194   2.916
 5191TIP3    H215531   1.220   7.172   2.838
 5192TIP3   OH215532   1.028   6.854   1.511
 5192TIP3    H115533   1.048   6.820   1.423
 5192TIP3    H215534   1.118   6.884   1.537
 5193TIP3   OH215535   1.690   7.526   3.048
 5193TIP3    H115536   1.773   7.507   3.004
 5193TIP3    H215537   1.689   7.464   3.123
 5194TIP3   OH215538   1.826   7.201   1.189
 5194TIP3    H115539   1.805   7.162   1.102
 5194TIP3    H215540   1.795   7.293   1.177
 5195TIP3   OH215541   1.294   6.927   3.039
 5195TIP3    H115542   1.293   6.849   2.981
 5195TIP3    H215543   1.249   6.995   2.983
 5196TIP3   OH215544   1.295   6.711   2.849
 5196TIP3    H115545   1.323   6.755   2.766
 5196TIP3    H215546   1.201   6.691   2.831
 5197TIP3   OH215547   1.316   7.249   2.720
 5197TIP3    H115548   1.401   7.264   2.677
 5197TIP3    H215549   1.259   7.316   2.678
 5198TIP3   OH215550   1.901   7.213   3.101
 5198TIP3    H115551   1.955   7.133   3.111
 5198TIP3    H215552   1.967   7.277   3.069
 5199TIP3   OH215553   1.943   7.463   2.838
 5199TIP3    H115554   1.885   7.518   2.779
 5199TIP3    H215555   2.031   7.486   2.800
 5200TIP3   OH215556   1.172   7.032   3.275
 5200TIP3    H115557   1.103   6.965   3.291
 5200TIP3    H215558   1.203   7.007   3.186
 5201TIP3   OH215559   1.425   6.473   2.919
 5201TIP3    H115560   1.377   6.555   2.896
 5201TIP3    H215561   1.356   6.405   2.908
 5202TIP3   OH215562   1.554   6.976   3.134
 5202TIP3    H115563   1.538   6.963   3.229
 5202TIP3    H215564   1.464   6.954   3.101
 5203TIP3   OH215565   1.789   6.924   2.987
 5203TIP3    H115566   1.716   6.929   3.051
 5203TIP3    H215567   1.865   6.898   3.044
 5204TIP3   OH215568   2.019   6.870   3.137
 5204TIP3    H115569   2.033   6.775   3.154
 5204TIP3    H215570   2.016   6.907   3.228
 5205TIP3   OH215571   1.008   6.813   3.328
 5205TIP3    H115572   1.014   6.721   3.297
 5205TIP3    H215573   1.044   6.804   3.419
 5206TIP3   OH215574   1.519   6.483   3.178
 5206TIP3    H115575   1.586   6.413   3.171
 5206TIP3    H215576   1.479   6.479   3.088
 5207TIP3   OH215577   1.586   6.699   3.336
 5207TIP3    H115578   1.565   6.628   3.272
 5207TIP3    H215579   1.508   6.758   3.330
 5208TIP3   OH215580   2.175   7.888   2.884
 5208TIP3    H115581   2.097   7.871   2.943
 5208TIP3    H215582   2.209   7.971   2.920
 5209TIP3   OH215583   1.953   7.373   1.530
 5209TIP3    H115584   2.023   7.433   1.497
 5209TIP3    H215585   1.998   7.336   1.610
 5210TIP3   OH215586   2.084   7.247   1.730
 5210TIP3    H115587   2.022   7.207   1.795
 5210TIP3    H215588   2.156   7.282   1.788
 5211TIP3   OH215589   2.125   7.638   2.157
 5211TIP3    H115590   2.189   7.581   2.110
 5211TIP3    H215591   2.130   7.722   2.109
 5212TIP3   OH215592   2.024   7.156   1.377
 5212TIP3    H115593   1.954   7.160   1.308
 5212TIP3    H215594   1.996   7.230   1.433
 5213TIP3   OH215595   1.892   6.830   1.331
 5213TIP3    H115596   1.849   6.869   1.254
 5213TIP3    H215597   1.870   6.735   1.319
 5214TIP3   OH215598   1.898   7.108   1.879
 5214TIP3    H115599   1.909   7.012   1.870
 5214TIP3    H215600   1.883   7.119   1.976
 5215TIP3   OH215601   0.524   7.185   2.623
 5215TIP3    H115602   0.521   7.152   2.531
 5215TIP3    H215603   0.621   7.185   2.640
 5216TIP3   OH215604   2.187   7.529   2.735
 5216TIP3    H115605   2.260   7.465   2.723
 5216TIP3    H215606   2.212   7.602   2.675
 5217TIP3   OH215607   2.372   7.332   2.742
 5217TIP3    H115608   2.298   7.285   2.785
 5217TIP3    H215609   2.445   7.270   2.760
 5218TIP3   OH215610   1.839   6.563   1.309
 5218TIP3    H115611   1.915   6.536   1.364
 5218TIP3    H215612   1.768   6.503   1.337
 5219TIP3   OH215613   1.896   6.825   1.767
 5219TIP3    H115614   1.937   6.736   1.781
 5219TIP3    H215615   1.954   6.859   1.697
 5220TIP3   OH215616   2.054   6.995   2.265
 5220TIP3    H115617   2.140   7.019   2.223
 5220TIP3    H215618   2.070   7.033   2.354
 5221TIP3   OH215619   2.126   7.141   2.495
 5221TIP3    H115620   2.050   7.176   2.544
 5221TIP3    H215621   2.160   7.221   2.450
 5222TIP3   OH215622   0.742   6.860   3.286
 5222TIP3    H115623   0.839   6.858   3.297
 5222TIP3    H215624   0.717   6.777   3.331
 5223TIP3   OH215625   2.576   6.734   3.051
 5223TIP3    H115626   2.638   6.670   3.010
 5223TIP3    H215627   2.546   6.786   2.974
 5224TIP3   OH215628   2.003   6.575   1.807
 5224TIP3    H115629   2.053   6.560   1.890
 5224TIP3    H215630   1.944   6.498   1.807
 5225TIP3   OH215631   0.706   6.558   2.623
 5225TIP3    H115632   0.769   6.484   2.635
 5225TIP3    H215633   0.766   6.634   2.619
 5226TIP3   OH215634   0.505   6.829   2.701
 5226TIP3    H115635   0.555   6.831   2.617
 5226TIP3    H215636   0.528   6.914   2.740
 5227TIP3   OH215637   2.445   6.870   2.855
 5227TIP3    H115638   2.360   6.914   2.875
 5227TIP3    H215639   2.413   6.797   2.798
 5228TIP3   OH215640   2.080   6.508   1.440
 5228TIP3    H115641   2.125   6.438   1.389
 5228TIP3    H215642   2.147   6.579   1.442
 5229TIP3   OH215643   0.488   6.369   2.209
 5229TIP3    H115644   0.401   6.335   2.237
 5229TIP3    H215645   0.470   6.387   2.116
 5230TIP3   OH215646   0.709   6.409   3.011
 5230TIP3    H115647   0.659   6.410   3.095
 5230TIP3    H215648   0.645   6.454   2.952
 5231TIP3   OH215649   2.347   6.633   2.737
 5231TIP3    H115650   2.257   6.625   2.700
 5231TIP3    H215651   2.380   6.541   2.727
 5232TIP3   OH215652   1.550   6.549   2.353
 5232TIP3    H115653   1.509   6.478   2.406
 5232TIP3    H215654   1.627   6.504   2.314
 5233TIP3   OH215655   2.070   6.425   2.257
 5233TIP3    H115656   2.109   6.479   2.185
 5233TIP3    H215657   1.977   6.452   2.255
 5234TIP3   OH215658   2.168   6.527   2.023
 5234TIP3    H115659   2.242   6.475   1.986
 5234TIP3    H215660   2.203   6.618   2.009
 5235TIP3   OH215661   0.800   6.259   2.370
 5235TIP3    H115662   0.707   6.228   2.372
 5235TIP3    H215663   0.847   6.173   2.362
 5236TIP3   OH215664   0.620   6.119   2.036
 5236TIP3    H115665   0.646   6.174   1.959
 5236TIP3    H215666   0.553   6.176   2.077
 5237TIP3   OH215667   1.250   6.276   2.254
 5237TIP3    H115668   1.300   6.329   2.190
 5237TIP3    H215669   1.266   6.325   2.336
 5238TIP3   OH215670   1.784   6.438   2.237
 5238TIP3    H115671   1.792   6.398   2.149
 5238TIP3    H215672   1.773   6.358   2.294
 5239TIP3   OH215673   1.819   6.362   1.799
 5239TIP3    H115674   1.735   6.407   1.818
 5239TIP3    H215675   1.806   6.276   1.843
 5240TIP3   OH215676   0.717   6.280   1.827
 5240TIP3    H115677   0.748   6.217   1.759
 5240TIP3    H215678   0.800   6.330   1.843
 5241TIP3   OH215679   1.224   6.466   1.878
 5241TIP3    H115680   1.282   6.419   1.941
 5241TIP3    H215681   1.244   6.558   1.905
 5242TIP3   OH215682   1.008   6.536   3.260
 5242TIP3    H115683   0.970   6.468   3.318
 5242TIP3    H215684   1.101   6.536   3.291
 5243TIP3   OH215685   1.257   6.535   3.381
 5243TIP3    H115686   1.344   6.512   3.343
 5243TIP3    H215687   1.245   6.464   3.448
 5244TIP3   OH215688   2.084   6.599   3.169
 5244TIP3    H115689   2.102   6.568   3.260
 5244TIP3    H215690   2.174   6.595   3.129
 5245TIP3   OH215691   3.271   7.505   1.460
 5245TIP3    H115692   3.239   7.589   1.425
 5245TIP3    H215693   3.233   7.445   1.394
 5246TIP3   OH215694   3.293   7.531   1.809
 5246TIP3    H115695   3.318   7.486   1.891
 5246TIP3    H215696   3.256   7.459   1.755
 5247TIP3   OH215697   2.582   7.417   2.178
 5247TIP3    H115698   2.616   7.349   2.239
 5247TIP3    H215699   2.661   7.473   2.166
 5248TIP3   OH215700   3.508   7.825   1.489
 5248TIP3    H115701   3.501   7.748   1.547
 5248TIP3    H215702   3.559   7.887   1.543
 5249TIP3   OH215703   2.621   7.757   1.987
 5249TIP3    H115704   2.584   7.678   1.945
 5249TIP3    H215705   2.700   7.775   1.931
 5250TIP3   OH215706   2.265   7.022   1.679
 5250TIP3    H115707   2.226   7.108   1.699
 5250TIP3    H215708   2.190   6.978   1.636
 5251TIP3   OH215709   2.320   7.316   1.856
 5251TIP3    H115710   2.370   7.238   1.889
 5251TIP3    H215711   2.392   7.374   1.825
 5252TIP3   OH215712   3.102   7.740   1.856
 5252TIP3    H115713   3.151   7.664   1.819
 5252TIP3    H215714   3.179   7.796   1.880
 5253TIP3   OH215715   4.107   7.078   1.858
 5253TIP3    H115716   4.132   7.170   1.870
 5253TIP3    H215717   4.123   7.068   1.762
 5254TIP3   OH215718   3.494   7.246   1.889
 5254TIP3    H115719   3.539   7.162   1.907
 5254TIP3    H215720   3.466   7.233   1.796
 5255TIP3   OH215721   2.838   6.909   1.853
 5255TIP3    H115722   2.820   6.982   1.791
 5255TIP3    H215723   2.789   6.837   1.809
 5256TIP3   OH215724   3.530   7.003   1.474
 5256TIP3    H115725   3.602   6.988   1.539
 5256TIP3    H215726   3.582   7.036   1.398
 5257TIP3   OH215727   2.469   7.111   1.962
 5257TIP3    H115728   2.552   7.094   2.009
 5257TIP3    H215729   2.485   7.057   1.881
 5258TIP3   OH215730   2.908   7.308   1.761
 5258TIP3    H115731   3.003   7.286   1.769
 5258TIP3    H215732   2.871   7.225   1.725
 5259TIP3   OH215733   4.173   7.319   2.038
 5259TIP3    H115734   4.083   7.341   2.000
 5259TIP3    H215735   4.141   7.264   2.114
 5260TIP3   OH215736   2.832   6.894   2.289
 5260TIP3    H115737   2.773   6.931   2.220
 5260TIP3    H215738   2.779   6.912   2.369
 5261TIP3   OH215739   3.164   7.712   1.303
 5261TIP3    H115740   3.151   7.693   1.209
 5261TIP3    H215741   3.200   7.802   1.302
 5262TIP3   OH215742   2.938   7.674   2.081
 5262TIP3    H115743   2.871   7.740   2.109
 5262TIP3    H215744   2.972   7.716   2.000
 5263TIP3   OH215745   3.736   7.005   1.651
 5263TIP3    H115746   3.728   6.958   1.735
 5263TIP3    H215747   3.788   7.084   1.676
 5264TIP3   OH215748   2.704   7.008   2.072
 5264TIP3    H115749   2.766   7.081   2.095
 5264TIP3    H215750   2.753   6.968   1.997
 5265TIP3   OH215751   2.764   7.890   2.190
 5265TIP3    H115752   2.722   7.879   2.102
 5265TIP3    H215753   2.684   7.887   2.246
 5266TIP3   OH215754   2.163   7.516   1.430
 5266TIP3    H115755   2.132   7.552   1.345
 5266TIP3    H215756   2.185   7.599   1.473
 5267TIP3   OH215757   3.894   6.978   2.026
 5267TIP3    H115758   3.805   6.993   1.989
 5267TIP3    H215759   3.951   7.006   1.952
 5268TIP3   OH215760   3.184   6.608   2.003
 5268TIP3    H115761   3.170   6.514   2.022
 5268TIP3    H215762   3.108   6.648   2.050
 5269TIP3   OH215763   3.511   7.803   1.198
 5269TIP3    H115764   3.496   7.713   1.166
 5269TIP3    H215765   3.538   7.789   1.290
 5270TIP3   OH215766   3.818   7.975   2.004
 5270TIP3    H115767   3.806   7.898   1.945
 5270TIP3    H215768   3.843   8.046   1.941
 5271TIP3   OH215769   3.132   7.372   1.261
 5271TIP3    H115770   3.051   7.422   1.236
 5271TIP3    H215771   3.191   7.395   1.185
 5272TIP3   OH215772   3.072   7.157   0.976
 5272TIP3    H115773   3.126   7.219   1.028
 5272TIP3    H215774   3.142   7.106   0.930
 5273TIP3   OH215775   4.035   7.631   1.857
 5273TIP3    H115776   3.950   7.680   1.860
 5273TIP3    H215777   4.062   7.648   1.764
 5274TIP3   OH215778   3.700   7.496   2.143
 5274TIP3    H115779   3.694   7.580   2.191
 5274TIP3    H215780   3.613   7.495   2.099
 5275TIP3   OH215781   2.703   7.455   1.642
 5275TIP3    H115782   2.662   7.395   1.576
 5275TIP3    H215783   2.780   7.402   1.673
 5276TIP3   OH215784   2.838   7.818   1.846
 5276TIP3    H115785   2.801   7.821   1.757
 5276TIP3    H215786   2.934   7.821   1.831
 5277TIP3   OH215787   2.826   7.432   2.000
 5277TIP3    H115788   2.862   7.403   1.914
 5277TIP3    H215789   2.873   7.516   2.016
 5278TIP3   OH215790   3.016   7.885   2.324
 5278TIP3    H115791   2.978   7.972   2.343
 5278TIP3    H215792   2.944   7.848   2.270
 5279TIP3   OH215793   2.730   7.534   2.432
 5279TIP3    H115794   2.735   7.624   2.471
 5279TIP3    H215795   2.635   7.515   2.444
 5280TIP3   OH215796   3.823   6.556   1.107
 5280TIP3    H115797   3.741   6.580   1.154
 5280TIP3    H215798   3.838   6.637   1.053
 5281TIP3   OH215799   2.566   7.297   1.454
 5281TIP3    H115800   2.502   7.338   1.392
 5281TIP3    H215801   2.527   7.209   1.466
 5282TIP3   OH215802   2.363   7.681   2.360
 5282TIP3    H115803   2.294   7.662   2.295
 5282TIP3    H215804   2.396   7.593   2.384
 5283TIP3   OH215805   3.964   7.467   2.308
 5283TIP3    H115806   3.877   7.479   2.274
 5283TIP3    H215807   3.977   7.372   2.303
 5284TIP3   OH215808   2.547   7.888   2.367
 5284TIP3    H115809   2.605   7.845   2.434
 5284TIP3    H215810   2.478   7.819   2.354
 5285TIP3   OH215811   2.949   6.686   2.135
 5285TIP3    H115812   2.860   6.657   2.105
 5285TIP3    H215813   2.923   6.768   2.182
 5286TIP3   OH215814   3.485   6.802   2.327
 5286TIP3    H115815   3.554   6.773   2.390
 5286TIP3    H215816   3.402   6.782   2.375
 5287TIP3   OH215817   3.731   7.239   2.254
 5287TIP3    H115818   3.672   7.231   2.333
 5287TIP3    H215819   3.698   7.321   2.212
 5288TIP3   OH215820   3.092   6.735   1.103
 5288TIP3    H115821   3.059   6.731   1.195
 5288TIP3    H215822   3.055   6.652   1.069
 5289TIP3   OH215823   2.880   7.208   2.148
 5289TIP3    H115824   2.830   7.228   2.230
 5289TIP3    H215825   2.862   7.289   2.096
 5290TIP3   OH215826   2.766   7.089   1.665
 5290TIP3    H115827   2.673   7.065   1.683
 5290TIP3    H215828   2.778   7.049   1.576
 5291TIP3   OH215829   3.257   7.167   1.384
 5291TIP3    H115830   3.205   7.240   1.344
 5291TIP3    H215831   3.315   7.145   1.309
 5292TIP3   OH215832   3.434   7.447   2.475
 5292TIP3    H115833   3.410   7.376   2.539
 5292TIP3    H215834   3.527   7.462   2.499
 5293TIP3   OH215835   3.410   7.205   1.629
 5293TIP3    H115836   3.351   7.240   1.559
 5293TIP3    H215837   3.442   7.125   1.582
 5294TIP3   OH215838   2.702   7.232   2.358
 5294TIP3    H115839   2.729   7.297   2.424
 5294TIP3    H215840   2.692   7.151   2.412
 5295TIP3   OH215841   2.744   6.707   1.069
 5295TIP3    H115842   2.739   6.709   1.167
 5295TIP3    H215843   2.672   6.768   1.045
 5296TIP3   OH215844   2.295   6.749   1.942
 5296TIP3    H115845   2.366   6.786   1.998
 5296TIP3    H215846   2.342   6.728   1.860
 5297TIP3   OH215847   2.257   6.732   1.460
 5297TIP3    H115848   2.304   6.767   1.382
 5297TIP3    H215849   2.199   6.808   1.479
 5298TIP3   OH215850   3.431   7.446   2.057
 5298TIP3    H115851   3.459   7.374   1.995
 5298TIP3    H215852   3.394   7.391   2.130
 5299TIP3   OH215853   3.097   6.908   1.725
 5299TIP3    H115854   3.016   6.909   1.780
 5299TIP3    H215855   3.167   6.906   1.792
 5300TIP3   OH215856   2.527   6.968   1.734
 5300TIP3    H115857   2.433   6.975   1.704
 5300TIP3    H215858   2.552   6.878   1.709
 5301TIP3   OH215859   2.791   6.962   1.423
 5301TIP3    H115860   2.886   6.977   1.405
 5301TIP3    H215861   2.747   6.984   1.338
 5302TIP3   OH215862   3.589   6.987   1.933
 5302TIP3    H115863   3.552   7.001   2.023
 5302TIP3    H215864   3.523   6.928   1.894
 5303TIP3   OH215865   2.641   6.995   1.196
 5303TIP3    H115866   2.572   6.953   1.141
 5303TIP3    H215867   2.695   7.038   1.127
 5304TIP3   OH215868   2.716   7.783   2.565
 5304TIP3    H115869   2.794   7.811   2.617
 5304TIP3    H215870   2.651   7.773   2.638
 5305TIP3   OH215871   3.172   7.238   1.822
 5305TIP3    H115872   3.248   7.207   1.769
 5305TIP3    H215873   3.185   7.191   1.907
 5306TIP3   OH215874   2.693   6.729   1.704
 5306TIP3    H115875   2.660   6.650   1.752
 5306TIP3    H215876   2.743   6.689   1.632
 5307TIP3   OH215877   3.150   7.136   2.117
 5307TIP3    H115878   3.060   7.175   2.126
 5307TIP3    H215879   3.207   7.201   2.164
 5308TIP3   OH215880   2.893   7.510   1.214
 5308TIP3    H115881   2.814   7.455   1.199
 5308TIP3    H215882   2.871   7.554   1.300
 5309TIP3   OH215883   3.792   7.755   1.839
 5309TIP3    H115884   3.817   7.806   1.758
 5309TIP3    H215885   3.707   7.713   1.811
 5310TIP3   OH215886   3.347   6.846   1.086
 5310TIP3    H115887   3.250   6.829   1.082
 5310TIP3    H215888   3.353   6.943   1.090
 5311TIP3   OH215889   3.300   7.869   2.205
 5311TIP3    H115890   3.328   7.816   2.281
 5311TIP3    H215891   3.215   7.903   2.235
 5312TIP3   OH215892   3.413   7.121   1.156
 5312TIP3    H115893   3.508   7.114   1.177
 5312TIP3    H215894   3.409   7.208   1.110
 5313TIP3   OH215895   2.556   7.497   1.871
 5313TIP3    H115896   2.607   7.492   1.787
 5313TIP3    H215897   2.621   7.464   1.935
 5314TIP3   OH215898   2.986   7.705   1.044
 5314TIP3    H115899   2.948   7.767   1.109
 5314TIP3    H215900   2.965   7.620   1.088
 5315TIP3   OH215901   2.466   7.461   2.499
 5315TIP3    H115902   2.479   7.446   2.594
 5315TIP3    H215903   2.394   7.399   2.480
 5316TIP3   OH215904   3.194   7.573   2.522
 5316TIP3    H115905   3.129   7.524   2.468
 5316TIP3    H215906   3.279   7.538   2.488
 5317TIP3   OH215907   3.859   7.180   1.012
 5317TIP3    H115908   3.795   7.136   0.950
 5317TIP3    H215909   3.852   7.271   0.973
 5318TIP3   OH215910   4.076   8.010   2.096
 5318TIP3    H115911   3.982   8.033   2.080
 5318TIP3    H215912   4.105   7.989   2.005
 5319TIP3   OH215913   3.554   7.631   1.750
 5319TIP3    H115914   3.461   7.608   1.767
 5319TIP3    H215915   3.585   7.548   1.708
 5320TIP3   OH215916   2.246   7.156   1.210
 5320TIP3    H115917   2.295   7.239   1.231
 5320TIP3    H215918   2.173   7.161   1.276
 5321TIP3   OH215919   2.811   7.629   1.450
 5321TIP3    H115920   2.782   7.713   1.487
 5321TIP3    H215921   2.786   7.569   1.523
 5322TIP3   OH215922   3.344   7.833   1.933
 5322TIP3    H115923   3.334   7.842   2.030
 5322TIP3    H215924   3.422   7.778   1.925
 5323TIP3   OH215925   3.366   7.666   0.815
 5323TIP3    H115926   3.362   7.589   0.875
 5323TIP3    H215927   3.280   7.708   0.830
 5324TIP3   OH215928   2.671   6.975   2.503
 5324TIP3    H115929   2.574   6.976   2.516
 5324TIP3    H215930   2.700   6.918   2.577
 5325TIP3   OH215931   2.655   7.677   0.841
 5325TIP3    H115932   2.718   7.629   0.785
 5325TIP3    H215933   2.706   7.683   0.921
 5326TIP3   OH215934   2.364   7.393   1.290
 5326TIP3    H115935   2.299   7.433   1.353
 5326TIP3    H215936   2.372   7.465   1.225
 5327TIP3   OH215937   3.512   7.042   2.193
 5327TIP3    H115938   3.594   7.074   2.232
 5327TIP3    H215939   3.496   6.959   2.244
 5328TIP3   OH215940   3.391   6.787   1.358
 5328TIP3    H115941   3.376   6.809   1.263
 5328TIP3    H215942   3.429   6.870   1.392
 5329TIP3   OH215943   3.072   6.972   1.454
 5329TIP3    H115944   3.138   7.042   1.432
 5329TIP3    H215945   3.084   6.966   1.551
 5330TIP3   OH215946   3.347   7.286   2.260
 5330TIP3    H115947   3.374   7.337   2.339
 5330TIP3    H215948   3.399   7.204   2.268
 5331TIP3   OH215949   3.219   6.691   1.554
 5331TIP3    H115950   3.211   6.770   1.611
 5331TIP3    H215951   3.282   6.725   1.486
 5332TIP3   OH215952   2.734   6.698   1.346
 5332TIP3    H115953   2.733   6.789   1.383
 5332TIP3    H215954   2.830   6.679   1.353
 5333TIP3   OH215955   3.992   7.187   2.215
 5333TIP3    H115956   3.898   7.201   2.242
 5333TIP3    H215957   3.977   7.113   2.154
 5334TIP3   OH215958   3.635   7.387   1.636
 5334TIP3    H115959   3.559   7.325   1.639
 5334TIP3    H215960   3.707   7.335   1.676
 5335TIP3   OH215961   2.350   7.606   1.106
 5335TIP3    H115962   2.379   7.698   1.097
 5335TIP3    H215963   2.409   7.560   1.043
 5336TIP3   OH215964   2.291   6.887   1.238
 5336TIP3    H115965   2.301   6.984   1.234
 5336TIP3    H215966   2.211   6.873   1.187
 5337TIP3   OH215967   2.682   6.608   2.106
 5337TIP3    H115968   2.654   6.574   2.018
 5337TIP3    H215969   2.673   6.530   2.163
 5338TIP3   OH215970   2.512   7.754   2.745
 5338TIP3    H115971   2.532   7.659   2.753
 5338TIP3    H215972   2.422   7.752   2.706
 5339TIP3   OH215973   2.491   7.424   0.962
 5339TIP3    H115974   2.547   7.387   1.033
 5339TIP3    H215975   2.559   7.431   0.891
 5340TIP3   OH215976   3.135   7.837   2.565
 5340TIP3    H115977   3.101   7.852   2.474
 5340TIP3    H215978   3.168   7.746   2.556
 5341TIP3   OH215979   2.916   7.586   0.768
 5341TIP3    H115980   2.970   7.615   0.842
 5341TIP3    H215981   2.953   7.498   0.751
 5342TIP3   OH215982   3.607   7.860   2.143
 5342TIP3    H115983   3.672   7.918   2.099
 5342TIP3    H215984   3.527   7.913   2.135
 5343TIP3   OH215985   2.634   7.504   2.746
 5343TIP3    H115986   2.714   7.458   2.716
 5343TIP3    H215987   2.662   7.539   2.833
 5344TIP3   OH215988   2.680   7.328   1.167
 5344TIP3    H115989   2.667   7.284   1.252
 5344TIP3    H215990   2.727   7.259   1.115
 5345TIP3   OH215991   2.965   7.392   2.402
 5345TIP3    H115992   2.887   7.451   2.403
 5345TIP3    H215993   3.016   7.429   2.326
 5346TIP3   OH215994   2.798   7.125   1.017
 5346TIP3    H115995   2.775   7.128   0.922
 5346TIP3    H215996   2.896   7.127   1.010
 5347TIP3   OH215997   3.488   7.786   2.537
 5347TIP3    H115998   3.565   7.758   2.486
 5347TIP3    H215999   3.485   7.720   2.609
 5348TIP3   OH216000   3.647   7.485   0.686
 5348TIP3    H116001   3.598   7.417   0.635
 5348TIP3    H216002   3.592   7.562   0.666
 5349TIP3   OH216003   3.089   7.184   2.527
 5349TIP3    H116004   3.089   7.105   2.469
 5349TIP3    H216005   3.045   7.251   2.470
 5350TIP3   OH216006   3.091   6.969   2.339
 5350TIP3    H116007   3.119   7.012   2.256
 5350TIP3    H216008   2.997   6.947   2.319
 5351TIP3   OH216009   3.113   7.510   2.212
 5351TIP3    H116010   3.195   7.517   2.162
 5351TIP3    H216011   3.055   7.575   2.166
 5352TIP3   OH216012   3.695   7.470   2.589
 5352TIP3    H116013   3.746   7.388   2.601
 5352TIP3    H216014   3.763   7.533   2.561
 5353TIP3   OH216015   3.741   7.721   2.330
 5353TIP3    H116016   3.683   7.775   2.271
 5353TIP3    H216017   3.828   7.740   2.289
 5354TIP3   OH216018   2.968   7.289   2.763
 5354TIP3    H116019   2.900   7.220   2.777
 5354TIP3    H216020   3.000   7.267   2.674
 5355TIP3   OH216021   3.223   6.731   2.406
 5355TIP3    H116022   3.173   6.812   2.383
 5355TIP3    H216023   3.155   6.661   2.395
 5356TIP3   OH216024   3.349   7.233   2.621
 5356TIP3    H116025   3.333   7.218   2.715
 5356TIP3    H216026   3.259   7.211   2.586
 5357TIP3   OH216027   3.587   7.184   2.476
 5357TIP3    H116028   3.512   7.186   2.539
 5357TIP3    H216029   3.661   7.154   2.533
 5358TIP3   OH216030   3.820   7.128   2.624
 5358TIP3    H116031   3.832   7.032   2.639
 5358TIP3    H216032   3.814   7.163   2.715
 5359TIP3   OH216033   2.805   7.070   2.816
 5359TIP3    H116034   2.809   6.979   2.783
 5359TIP3    H216035   2.843   7.059   2.906
 5360TIP3   OH216036   3.315   6.741   2.665
 5360TIP3    H116037   3.381   6.670   2.659
 5360TIP3    H216038   3.276   6.737   2.575
 5361TIP3   OH216039   3.384   6.957   2.821
 5361TIP3    H116040   3.363   6.885   2.758
 5361TIP3    H216041   3.305   7.014   2.815
 5362TIP3   OH216042   2.078   7.529   1.107
 5362TIP3    H116043   2.167   7.569   1.104
 5362TIP3    H216044   2.093   7.440   1.070
 5363TIP3   OH216045   3.972   8.143   2.373
 5363TIP3    H116046   3.895   8.128   2.432
 5363TIP3    H216047   4.006   8.228   2.407
 5364TIP3   OH216048   3.767   7.641   1.010
 5364TIP3    H116049   3.849   7.694   1.007
 5364TIP3    H216050   3.781   7.593   1.094
 5365TIP3   OH216051   3.884   7.508   1.216
 5365TIP3    H116052   3.824   7.455   1.274
 5365TIP3    H216053   3.949   7.542   1.280
 5366TIP3   OH216054   3.928   7.901   1.650
 5366TIP3    H116055   3.985   7.842   1.597
 5366TIP3    H216056   3.917   7.979   1.594
 5367TIP3   OH216057   3.828   7.413   0.871
 5367TIP3    H116058   3.760   7.423   0.800
 5367TIP3    H216059   3.797   7.488   0.927
 5368TIP3   OH216060   3.696   7.086   0.819
 5368TIP3    H116061   3.667   7.127   0.737
 5368TIP3    H216062   3.666   6.994   0.807
 5369TIP3   OH216063   3.731   7.354   1.374
 5369TIP3    H116064   3.699   7.266   1.351
 5369TIP3    H216065   3.686   7.374   1.458
 5370TIP3   OH216066   2.319   7.441   2.110
 5370TIP3    H116067   2.318   7.408   2.019
 5370TIP3    H216068   2.416   7.442   2.127
 5371TIP3   OH216069   3.986   7.780   2.219
 5371TIP3    H116070   4.062   7.733   2.186
 5371TIP3    H216071   3.991   7.862   2.166
 5372TIP3   OH216072   4.184   7.583   2.208
 5372TIP3    H116073   4.096   7.564   2.242
 5372TIP3    H216074   4.239   7.566   2.283
 5373TIP3   OH216075   3.631   6.822   0.801
 5373TIP3    H116076   3.706   6.790   0.855
 5373TIP3    H216077   3.560   6.760   0.820
 5374TIP3   OH216078   3.685   7.081   1.256
 5374TIP3    H116079   3.727   6.993   1.267
 5374TIP3    H216080   3.742   7.117   1.186
 5375TIP3   OH216081   3.853   7.249   1.751
 5375TIP3    H116082   3.937   7.276   1.709
 5375TIP3    H216083   3.866   7.290   1.839
 5376TIP3   OH216084   3.923   7.405   1.976
 5376TIP3    H116085   3.845   7.434   2.028
 5376TIP3    H216086   3.952   7.489   1.935
 5377TIP3   OH216087   2.538   7.120   2.780
 5377TIP3    H116088   2.636   7.116   2.786
 5377TIP3    H216089   2.515   7.034   2.821
 5378TIP3   OH216090   4.369   6.992   2.533
 5378TIP3    H116091   4.433   6.927   2.497
 5378TIP3    H216092   4.348   7.046   2.454
 5379TIP3   OH216093   3.800   6.832   1.295
 5379TIP3    H116094   3.848   6.815   1.378
 5379TIP3    H216095   3.739   6.756   1.292
 5380TIP3   OH216096   2.498   6.818   2.117
 5380TIP3    H116097   2.560   6.742   2.124
 5380TIP3    H216098   2.561   6.891   2.106
 5381TIP3   OH216099   2.299   7.088   2.185
 5381TIP3    H116100   2.351   7.087   2.102
 5381TIP3    H216101   2.327   7.172   2.224
 5382TIP3   OH216102   4.246   7.136   2.331
 5382TIP3    H116103   4.163   7.172   2.366
 5382TIP3    H216104   4.213   7.058   2.283
 5383TIP3   OH216105   3.878   6.762   0.931
 5383TIP3    H116106   3.912   6.692   0.871
 5383TIP3    H216107   3.946   6.832   0.921
 5384TIP3   OH216108   2.286   6.585   1.684
 5384TIP3    H116109   2.195   6.587   1.717
 5384TIP3    H216110   2.282   6.648   1.609
 5385TIP3   OH216111   2.507   6.672   2.502
 5385TIP3    H116112   2.455   6.670   2.584
 5385TIP3    H216113   2.441   6.710   2.440
 5386TIP3   OH216114   4.142   6.888   2.225
 5386TIP3    H116115   4.053   6.873   2.191
 5386TIP3    H216116   4.180   6.798   2.218
 5387TIP3   OH216117   3.350   6.807   1.846
 5387TIP3    H116118   3.306   6.734   1.894
 5387TIP3    H216119   3.423   6.761   1.800
 5388TIP3   OH216120   3.867   6.696   1.754
 5388TIP3    H116121   3.903   6.740   1.674
 5388TIP3    H216122   3.771   6.706   1.740
 5389TIP3   OH216123   3.963   6.783   1.515
 5389TIP3    H116124   4.036   6.731   1.474
 5389TIP3    H216125   3.997   6.874   1.498
 5390TIP3   OH216126   2.595   6.513   1.858
 5390TIP3    H116127   2.503   6.481   1.862
 5390TIP3    H216128   2.644   6.428   1.854
 5391TIP3   OH216129   2.378   6.385   1.505
 5391TIP3    H116130   2.413   6.442   1.434
 5391TIP3    H216131   2.355   6.451   1.573
 5392TIP3   OH216132   3.042   6.546   1.742
 5392TIP3    H116133   3.095   6.592   1.675
 5392TIP3    H216134   3.073   6.587   1.824
 5393TIP3   OH216135   3.583   6.694   1.723
 5393TIP3    H116136   3.587   6.655   1.634
 5393TIP3    H216137   3.571   6.614   1.779
 5394TIP3   OH216138   3.616   6.620   1.287
 5394TIP3    H116139   3.530   6.663   1.301
 5394TIP3    H216140   3.601   6.534   1.330
 5395TIP3   OH216141   2.503   6.542   1.270
 5395TIP3    H116142   2.552   6.481   1.211
 5395TIP3    H216143   2.576   6.597   1.304
 5396TIP3   OH216144   3.010   6.720   1.369
 5396TIP3    H116145   3.074   6.675   1.427
 5396TIP3    H216146   3.032   6.814   1.393
 5397TIP3   OH216147   2.803   6.794   2.749
 5397TIP3    H116148   2.767   6.724   2.806
 5397TIP3    H216149   2.897   6.794   2.778
 5398TIP3   OH216150   3.054   6.793   2.868
 5398TIP3    H116151   3.139   6.768   2.828
 5398TIP3    H216152   3.043   6.722   2.935
 5399TIP3   OH216153   3.881   6.857   2.656
 5399TIP3    H116154   3.897   6.825   2.747
 5399TIP3    H216155   3.970   6.851   2.616
 5400TIP3   OH216156   5.076   7.773   0.923
 5400TIP3    H116157   5.052   7.862   0.894
 5400TIP3    H216158   5.009   7.719   0.876
 5401TIP3   OH216159   5.086   7.780   1.297
 5401TIP3    H116160   5.120   7.755   1.385
 5401TIP3    H216161   5.046   7.697   1.267
 5402TIP3   OH216162   4.391   7.687   1.686
 5402TIP3    H116163   4.459   7.619   1.687
 5402TIP3    H216164   4.436   7.759   1.642
 5403TIP3   OH216165   5.301   8.082   0.986
 5403TIP3    H116166   5.309   8.003   1.040
 5403TIP3    H216167   5.360   8.143   1.031
 5404TIP3   OH216168   4.416   8.014   1.474
 5404TIP3    H116169   4.384   7.932   1.433
 5404TIP3    H216170   4.496   8.033   1.420
 5405TIP3   OH216171   4.062   7.287   1.167
 5405TIP3    H116172   4.011   7.368   1.184
 5405TIP3    H216173   3.992   7.233   1.125
 5406TIP3   OH216174   4.114   7.573   1.352
 5406TIP3    H116175   4.164   7.494   1.378
 5406TIP3    H216176   4.174   7.616   1.290
 5407TIP3   OH216177   4.898   7.992   1.343
 5407TIP3    H116178   4.949   7.917   1.307
 5407TIP3    H216179   4.974   8.049   1.369
 5408TIP3   OH216180   5.897   7.326   1.345
 5408TIP3    H116181   5.926   7.409   1.387
 5408TIP3    H216182   5.914   7.345   1.251
 5409TIP3   OH216183   5.292   7.504   1.376
 5409TIP3    H116184   5.337   7.419   1.396
 5409TIP3    H216185   5.263   7.489   1.284
 5410TIP3   OH216186   4.635   7.165   1.339
 5410TIP3    H116187   4.614   7.237   1.275
 5410TIP3    H216188   4.590   7.090   1.294
 5411TIP3   OH216189   5.326   7.262   0.957
 5411TIP3    H116190   5.398   7.244   1.022
 5411TIP3    H216191   5.380   7.287   0.879
 5412TIP3   OH216192   4.265   7.365   1.448
 5412TIP3    H116193   4.349   7.343   1.493
 5412TIP3    H216194   4.275   7.312   1.366
 5413TIP3   OH216195   4.701   7.563   1.254
 5413TIP3    H116196   4.796   7.541   1.259
 5413TIP3    H216197   4.663   7.481   1.216
 5414TIP3   OH216198   5.971   7.536   1.513
 5414TIP3    H116199   5.885   7.580   1.497
 5414TIP3    H216200   5.996   7.574   1.599
 5415TIP3   OH216201   4.629   7.152   1.778
 5415TIP3    H116202   4.568   7.185   1.710
 5415TIP3    H216203   4.579   7.171   1.859
 5416TIP3   OH216204   4.959   7.975   0.742
 5416TIP3    H116205   4.876   7.927   0.732
 5416TIP3    H216206   4.926   8.052   0.790
 5417TIP3   OH216207   4.732   7.927   1.568
 5417TIP3    H116208   4.671   7.998   1.597
 5417TIP3    H216209   4.771   7.968   1.488
 5418TIP3   OH216210   5.530   7.265   1.138
 5418TIP3    H116211   5.518   7.216   1.220
 5418TIP3    H216212   5.582   7.342   1.168
 5419TIP3   OH216213   4.501   7.263   1.558
 5419TIP3    H116214   4.565   7.333   1.583
 5419TIP3    H216215   4.549   7.222   1.482
 5420TIP3   OH216216   4.560   8.147   1.677
 5420TIP3    H116217   4.517   8.139   1.590
 5420TIP3    H216218   4.482   8.142   1.735
 5421TIP3   OH216219   3.981   7.788   0.923
 5421TIP3    H116220   3.914   7.768   0.857
 5421TIP3    H216221   3.981   7.885   0.916
 5422TIP3   OH216222   5.687   7.223   1.508
 5422TIP3    H116223   5.601   7.249   1.473
 5422TIP3    H216224   5.749   7.256   1.439
 5423TIP3   OH216225   4.982   6.864   1.492
 5423TIP3    H116226   4.966   6.770   1.508
 5423TIP3    H216227   4.905   6.904   1.538
 5424TIP3   OH216228   5.615   8.235   1.490
 5424TIP3    H116229   5.604   8.156   1.433
 5424TIP3    H216230   5.645   8.303   1.426
 5425TIP3   OH216231   4.921   7.633   0.740
 5425TIP3    H116232   4.835   7.680   0.734
 5425TIP3    H216233   4.948   7.637   0.648
 5426TIP3   OH216234   5.816   7.872   1.330
 5426TIP3    H116235   5.732   7.922   1.338
 5426TIP3    H216236   5.843   7.899   1.240
 5427TIP3   OH216237   5.261   7.720   0.727
 5427TIP3    H116238   5.208   7.742   0.805
 5427TIP3    H216239   5.345   7.691   0.768
 5428TIP3   OH216240   5.496   7.750   1.634
 5428TIP3    H116241   5.497   7.832   1.686
 5428TIP3    H216242   5.410   7.759   1.588
 5429TIP3   OH216243   4.495   7.709   1.127
 5429TIP3    H116244   4.455   7.650   1.059
 5429TIP3    H216245   4.572   7.657   1.158
 5430TIP3   OH216246   4.633   8.073   1.333
 5430TIP3    H116247   4.596   8.075   1.243
 5430TIP3    H216248   4.729   8.077   1.318
 5431TIP3   OH216249   4.615   7.687   1.488
 5431TIP3    H116250   4.653   7.659   1.403
 5431TIP3    H216251   4.661   7.772   1.505
 5432TIP3   OH216252   4.809   8.138   1.814
 5432TIP3    H116253   4.776   8.228   1.834
 5432TIP3    H216254   4.734   8.107   1.761
 5433TIP3   OH216255   4.362   7.550   0.940
 5433TIP3    H116256   4.294   7.591   0.883
 5433TIP3    H216257   4.327   7.461   0.950
 5434TIP3   OH216258   4.147   7.921   1.847
 5434TIP3    H116259   4.077   7.956   1.789
 5434TIP3    H216260   4.147   7.827   1.823
 5435TIP3   OH216261   5.755   7.707   1.803
 5435TIP3    H116262   5.668   7.722   1.764
 5435TIP3    H216263   5.767   7.611   1.791
 5436TIP3   OH216264   4.343   8.129   1.850
 5436TIP3    H116265   4.403   8.097   1.921
 5436TIP3    H216266   4.279   8.056   1.845
 5437TIP3   OH216267   4.745   6.944   1.621
 5437TIP3    H116268   4.657   6.913   1.590
 5437TIP3    H216269   4.717   7.024   1.669
 5438TIP3   OH216270   5.279   7.060   1.813
 5438TIP3    H116271   5.348   7.030   1.876
 5438TIP3    H216272   5.196   7.039   1.860
 5439TIP3   OH216273   5.519   7.488   1.732
 5439TIP3    H116274   5.466   7.486   1.815
 5439TIP3    H216275   5.496   7.576   1.696
 5440TIP3   OH216276   4.905   7.000   0.593
 5440TIP3    H116277   4.862   6.984   0.678
 5440TIP3    H216278   4.873   6.924   0.541
 5441TIP3   OH216279   4.675   7.468   1.641
 5441TIP3    H116280   4.691   7.515   1.725
 5441TIP3    H216281   4.657   7.542   1.580
 5442TIP3   OH216282   4.560   7.347   1.153
 5442TIP3    H116283   4.467   7.320   1.170
 5442TIP3    H216284   4.573   7.307   1.064
 5443TIP3   OH216285   5.050   7.436   0.880
 5443TIP3    H116286   4.992   7.503   0.838
 5443TIP3    H216287   5.123   7.435   0.818
 5444TIP3   OH216288   5.233   7.704   1.962
 5444TIP3    H116289   5.213   7.633   2.026
 5444TIP3    H216290   5.326   7.724   1.985
 5445TIP3   OH216291   5.209   7.460   1.118
 5445TIP3    H116292   5.147   7.490   1.049
 5445TIP3    H216293   5.245   7.381   1.071
 5446TIP3   OH216294   4.533   6.938   0.577
 5446TIP3    H116295   4.525   6.948   0.673
 5446TIP3    H216296   4.487   7.017   0.544
 5447TIP3   OH216297   4.089   7.007   1.434
 5447TIP3    H116298   4.169   7.039   1.479
 5447TIP3    H216299   4.119   6.979   1.346
 5448TIP3   OH216300   4.058   6.991   0.945
 5448TIP3    H116301   4.106   7.026   0.868
 5448TIP3    H216302   3.996   7.065   0.962
 5449TIP3   OH216303   5.213   7.702   1.539
 5449TIP3    H116304   5.249   7.632   1.480
 5449TIP3    H216305   5.187   7.648   1.616
 5450TIP3   OH216306   4.894   7.169   1.213
 5450TIP3    H116307   4.812   7.165   1.265
 5450TIP3    H216308   4.963   7.161   1.281
 5451TIP3   OH216309   4.321   7.225   1.220
 5451TIP3    H116310   4.227   7.234   1.191
 5451TIP3    H216311   4.342   7.133   1.196
 5452TIP3   OH216312   4.589   7.224   0.912
 5452TIP3    H116313   4.684   7.232   0.888
 5452TIP3    H216314   4.542   7.252   0.830
 5453TIP3   OH216315   5.381   7.244   1.418
 5453TIP3    H116316   5.346   7.257   1.509
 5453TIP3    H216317   5.314   7.183   1.382
 5454TIP3   OH216318   4.421   7.272   0.699
 5454TIP3    H116319   4.341   7.228   0.668
 5454TIP3    H216320   4.485   7.247   0.630
 5455TIP3   OH216321   4.509   8.053   2.056
 5455TIP3    H116322   4.590   8.069   2.107
 5455TIP3    H216323   4.447   8.030   2.128
 5456TIP3   OH216324   4.971   7.497   1.309
 5456TIP3    H116325   5.043   7.461   1.256
 5456TIP3    H216326   4.982   7.449   1.393
 5457TIP3   OH216327   4.494   6.982   1.191
 5457TIP3    H116328   4.457   6.905   1.239
 5457TIP3    H216329   4.529   6.939   1.111
 5458TIP3   OH216330   4.950   7.391   1.599
 5458TIP3    H116331   4.862   7.430   1.608
 5458TIP3    H216332   5.008   7.453   1.648
 5459TIP3   OH216333   4.700   7.785   0.706
 5459TIP3    H116334   4.629   7.720   0.687
 5459TIP3    H216335   4.667   7.825   0.790
 5460TIP3   OH216336   5.583   8.014   1.326
 5460TIP3    H116337   5.610   8.064   1.247
 5460TIP3    H216338   5.498   7.973   1.298
 5461TIP3   OH216339   5.094   8.122   1.693
 5461TIP3    H116340   5.131   8.081   1.771
 5461TIP3    H216341   5.012   8.161   1.727
 5462TIP3   OH216342   4.370   7.761   1.363
 5462TIP3    H116343   4.400   7.756   1.270
 5462TIP3    H216344   4.445   7.719   1.408
 5463TIP3   OH216345   4.993   7.827   1.995
 5463TIP3    H116346   4.956   7.805   1.908
 5463TIP3    H216347   5.085   7.796   1.983
 5464TIP3   OH216348   5.873   8.272   1.581
 5464TIP3    H116349   5.777   8.286   1.569
 5464TIP3    H216350   5.900   8.259   1.486
 5465TIP3   OH216351   5.350   7.888   1.232
 5465TIP3    H116352   5.256   7.865   1.250
 5465TIP3    H216353   5.383   7.804   1.195
 5466TIP3   OH216354   4.050   7.404   0.712
 5466TIP3    H116355   4.090   7.492   0.727
 5466TIP3    H216356   3.969   7.411   0.769
 5467TIP3   OH216357   4.617   7.879   0.944
 5467TIP3    H116358   4.586   7.968   0.966
 5467TIP3    H216359   4.580   7.827   1.018
 5468TIP3   OH216360   5.139   8.085   1.422
 5468TIP3    H116361   5.128   8.097   1.519
 5468TIP3    H216362   5.225   8.044   1.416
 5469TIP3   OH216363   4.470   7.220   2.001
 5469TIP3    H116364   4.374   7.206   2.005
 5469TIP3    H216365   4.502   7.160   2.071
 5470TIP3   OH216366   4.166   7.651   0.780
 5470TIP3    H116367   4.107   7.694   0.846
 5470TIP3    H216368   4.179   7.725   0.717
 5471TIP3   OH216369   5.304   7.300   1.678
 5471TIP3    H116370   5.388   7.336   1.712
 5471TIP3    H216371   5.293   7.218   1.731
 5472TIP3   OH216372   5.176   7.049   0.847
 5472TIP3    H116373   5.141   7.079   0.762
 5472TIP3    H216374   5.228   7.126   0.878
 5473TIP3   OH216375   4.873   7.229   0.943
 5473TIP3    H116376   4.937   7.301   0.925
 5473TIP3    H216377   4.880   7.220   1.040
 5474TIP3   OH216378   5.142   7.543   1.748
 5474TIP3    H116379   5.172   7.594   1.826
 5474TIP3    H216380   5.196   7.462   1.754
 5475TIP3   OH216381   5.015   6.949   1.044
 5475TIP3    H116382   5.007   7.029   1.099
 5475TIP3    H216383   5.077   6.982   0.975
 5476TIP3   OH216384   4.529   6.957   0.851
 5476TIP3    H116385   4.534   7.049   0.883
 5476TIP3    H216386   4.625   6.936   0.849
 5477TIP3   OH216387   5.788   7.440   1.735
 5477TIP3    H116388   5.690   7.439   1.738
 5477TIP3    H216389   5.803   7.402   1.647
 5478TIP3   OH216390   5.436   7.644   1.127
 5478TIP3    H116391   5.361   7.582   1.130
 5478TIP3    H216392   5.507   7.593   1.171
 5479TIP3   OH216393   4.163   7.866   0.599
 5479TIP3    H116394   4.190   7.957   0.621
 5479TIP3    H216395   4.148   7.876   0.505
 5480TIP3   OH216396   4.099   7.140   0.716
 5480TIP3    H116397   4.093   7.238   0.724
 5480TIP3    H216398   4.010   7.118   0.687
 5481TIP3   OH216399   4.478   6.865   1.592
 5481TIP3    H116400   4.450   6.830   1.505
 5481TIP3    H216401   4.469   6.786   1.649
 5482TIP3   OH216402   4.310   8.008   2.240
 5482TIP3    H116403   4.308   7.940   2.308
 5482TIP3    H216404   4.222   8.000   2.198
 5483TIP3   OH216405   4.932   8.091   2.052
 5483TIP3    H116406   4.896   8.108   1.963
 5483TIP3    H216407   4.967   8.001   2.041
 5484TIP3   OH216408   5.403   8.120   1.624
 5484TIP3    H116409   5.474   8.172   1.582
 5484TIP3    H216410   5.329   8.182   1.617
 5485TIP3   OH216411   4.514   7.580   0.680
 5485TIP3    H116412   4.462   7.549   0.756
 5485TIP3    H216413   4.531   7.498   0.632
 5486TIP3   OH216414   4.737   7.626   1.854
 5486TIP3    H116415   4.713   7.696   1.916
 5486TIP3    H216416   4.803   7.674   1.799
 5487TIP3   OH216417   5.281   8.039   2.020
 5487TIP3    H116418   5.368   8.025   1.980
 5487TIP3    H216419   5.284   7.979   2.097
 5488TIP3   OH216420   4.882   7.440   2.010
 5488TIP3    H116421   4.889   7.356   1.961
 5488TIP3    H216422   4.833   7.495   1.946
 5489TIP3   OH216423   4.888   7.226   1.827
 5489TIP3    H116424   4.918   7.264   1.742
 5489TIP3    H216425   4.795   7.203   1.806
 5490TIP3   OH216426   4.910   7.772   1.713
 5490TIP3    H116427   4.992   7.770   1.662
 5490TIP3    H216428   4.855   7.834   1.660
 5491TIP3   OH216429   5.495   7.731   2.074
 5491TIP3    H116430   5.548   7.652   2.088
 5491TIP3    H216431   5.563   7.797   2.052
 5492TIP3   OH216432   5.537   7.975   1.808
 5492TIP3    H116433   5.479   8.030   1.750
 5492TIP3    H216434   5.625   7.998   1.770
 5493TIP3   OH216435   4.767   7.545   2.244
 5493TIP3    H116436   4.697   7.480   2.263
 5493TIP3    H216437   4.800   7.513   2.157
 5494TIP3   OH216438   5.019   6.987   1.893
 5494TIP3    H116439   4.968   7.068   1.871
 5494TIP3    H216440   4.951   6.918   1.881
 5495TIP3   OH216441   5.147   7.489   2.108
 5495TIP3    H116442   5.134   7.476   2.204
 5495TIP3    H216443   5.056   7.469   2.076
 5496TIP3   OH216444   5.383   7.440   1.961
 5496TIP3    H116445   5.308   7.443   2.025
 5496TIP3    H216446   5.458   7.413   2.018
 5497TIP3   OH216447   5.610   7.384   2.115
 5497TIP3    H116448   5.615   7.288   2.135
 5497TIP3    H216449   5.602   7.424   2.204
 5498TIP3   OH216450   4.609   7.325   2.306
 5498TIP3    H116451   4.613   7.234   2.272
 5498TIP3    H216452   4.650   7.313   2.395
 5499TIP3   OH216453   5.111   6.998   2.151
 5499TIP3    H116454   5.176   6.925   2.145
 5499TIP3    H216455   5.072   6.993   2.062
 5500TIP3   OH216456   5.180   7.213   2.309
 5500TIP3    H116457   5.159   7.141   2.245
 5500TIP3    H216458   5.101   7.270   2.302
 5501TIP3   OH216459   3.888   7.804   0.593
 5501TIP3    H116460   3.983   7.815   0.609
 5501TIP3    H216461   3.883   7.708   0.573
 5502TIP3   OH216462   5.759   8.410   1.851
 5502TIP3    H116463   5.686   8.392   1.915
 5502TIP3    H216464   5.813   8.472   1.901
 5503TIP3   OH216465   5.719   8.149   1.134
 5503TIP3    H116466   5.780   8.093   1.083
 5503TIP3    H216467   5.719   8.233   1.086
 5504TIP3   OH216468   5.471   7.610   0.856
 5504TIP3    H116469   5.501   7.519   0.851
 5504TIP3    H216470   5.474   7.630   0.951
 5505TIP3   OH216471   4.120   7.688   1.603
 5505TIP3    H116472   4.114   7.656   1.510
 5505TIP3    H216473   4.217   7.698   1.612
 5506TIP3   OH216474   5.780   8.039   1.703
 5506TIP3    H116475   5.856   7.978   1.696
 5506TIP3    H216476   5.808   8.114   1.647
 5507TIP3   OH216477   5.972   7.846   1.720
 5507TIP3    H116478   5.894   7.799   1.756
 5507TIP3    H216479   6.041   7.779   1.738
 5508TIP3   OH216480   5.478   7.324   0.732
 5508TIP3    H116481   5.520   7.236   0.751
 5508TIP3    H216482   5.551   7.369   0.687
 5509TIP3   OH216483   5.647   7.505   1.241
 5509TIP3    H116484   5.733   7.530   1.200
 5509TIP3    H216485   5.661   7.543   1.330
 5510TIP3   OH216486   5.719   7.653   1.470
 5510TIP3    H116487   5.642   7.688   1.519
 5510TIP3    H216488   5.750   7.733   1.422
 5511TIP3   OH216489   4.356   7.384   2.254
 5511TIP3    H116490   4.451   7.374   2.277
 5511TIP3    H216491   4.321   7.301   2.296
 5512TIP3   OH216492   5.582   7.086   0.792
 5512TIP3    H116493   5.639   7.065   0.868
 5512TIP3    H216494   5.529   7.004   0.785
 5513TIP3   OH216495   4.296   7.074   1.611
 5513TIP3    H116496   4.355   6.996   1.612
 5513TIP3    H216497   4.361   7.145   1.594
 5514TIP3   OH216498   4.103   7.350   1.680
 5514TIP3    H116499   4.146   7.329   1.595
 5514TIP3    H216500   4.114   7.446   1.682
 5515TIP3   OH216501   6.038   7.348   1.878
 5515TIP3    H116502   5.960   7.406   1.884
 5515TIP3    H216503   6.011   7.289   1.805
 5516TIP3   OH216504   4.082   6.863   1.182
 5516TIP3    H116505   3.988   6.847   1.201
 5516TIP3    H216506   4.078   6.914   1.098
 5517TIP3   OH216507   4.306   6.939   1.995
 5517TIP3    H116508   4.250   6.922   2.073
 5517TIP3    H216509   4.239   6.970   1.930
 5518TIP3   OH216510   5.948   7.150   1.704
 5518TIP3    H116511   5.854   7.144   1.682
 5518TIP3    H216512   5.975   7.056   1.696
 5519TIP3   OH216513   5.144   7.063   1.333
 5519TIP3    H116514   5.102   6.990   1.382
 5519TIP3    H216515   5.217   7.017   1.286
 5520TIP3   OH216516   5.663   6.947   1.239
 5520TIP3    H116517   5.698   6.998   1.163
 5520TIP3    H216518   5.567   6.962   1.230
 5521TIP3   OH216519   5.759   7.043   1.004
 5521TIP3    H116520   5.833   6.993   0.964
 5521TIP3    H216521   5.788   7.135   0.983
 5522TIP3   OH216522   4.391   6.771   1.346
 5522TIP3    H116523   4.298   6.740   1.347
 5522TIP3    H216524   4.438   6.685   1.340
 5523TIP3   OH216525   4.192   6.644   1.001
 5523TIP3    H116526   4.214   6.695   0.921
 5523TIP3    H216527   4.159   6.713   1.061
 5524TIP3   OH216528   4.840   6.802   1.228
 5524TIP3    H116529   4.894   6.848   1.162
 5524TIP3    H216530   4.868   6.843   1.310
 5525TIP3   OH216531   5.381   6.951   1.207
 5525TIP3    H116532   5.381   6.913   1.118
 5525TIP3    H216533   5.368   6.871   1.263
 5526TIP3   OH216534   5.413   6.876   0.815
 5526TIP3    H116535   5.323   6.908   0.801
 5526TIP3    H216536   5.398   6.784   0.847
 5527TIP3   OH216537   4.297   6.802   0.761
 5527TIP3    H116538   4.339   6.739   0.699
 5527TIP3    H216539   4.374   6.849   0.797
 5528TIP3   OH216540   4.805   6.978   0.855
 5528TIP3    H116541   4.865   6.927   0.912
 5528TIP3    H216542   4.832   7.069   0.880
 5529TIP3   OH216543   4.598   7.052   2.239
 5529TIP3    H116544   4.564   6.979   2.293
 5529TIP3    H216545   4.693   7.051   2.265
 5530TIP3   OH216546   4.850   7.049   2.355
 5530TIP3    H116547   4.935   7.024   2.316
 5530TIP3    H216548   4.838   6.980   2.422
 5531TIP3   OH216549   5.666   7.106   2.150
 5531TIP3    H116550   5.672   7.079   2.244
 5531TIP3    H216551   5.754   7.082   2.119
 5532TIP3   OH216552   6.172   7.923   1.139
 5532TIP3    H116553   6.226   7.883   1.208
 5532TIP3    H216554   6.240   7.954   1.075
 5533TIP3   OH216555   6.053   7.621   0.948
 5533TIP3    H116556   6.144   7.596   0.972
 5533TIP3    H216557   6.042   7.580   0.861
 5534TIP3   OH216558   6.413   7.402   1.269
 5534TIP3    H116559   6.356   7.440   1.199
 5534TIP3    H216560   6.357   7.419   1.348
 5535TIP3   OH216561   6.301   7.510   1.031
 5535TIP3    H116562   6.351   7.590   1.061
 5535TIP3    H216563   6.364   7.475   0.966
 5536TIP3   OH216564   6.769   7.127   0.982
 5536TIP3    H116565   6.760   7.032   0.998
 5536TIP3    H216566   6.687   7.161   1.023
 5537TIP3   OH216567   6.281   8.062   1.402
 5537TIP3    H116568   6.267   8.138   1.461
 5537TIP3    H216569   6.193   8.021   1.410
 5538TIP3   OH216570   5.944   8.189   1.336
 5538TIP3    H116571   5.876   8.175   1.268
 5538TIP3    H216572   5.976   8.099   1.356
 5539TIP3   OH216573   6.532   7.205   1.113
 5539TIP3    H116574   6.445   7.172   1.084
 5539TIP3    H216575   6.501   7.279   1.170
 5540TIP3   OH216576   7.051   7.277   1.332
 5540TIP3    H116577   7.086   7.313   1.414
 5540TIP3    H216578   6.956   7.269   1.352
 5541TIP3   OH216579   6.453   7.714   1.122
 5541TIP3    H116580   6.409   7.745   1.203
 5541TIP3    H216581   6.494   7.794   1.087
 5542TIP3   OH216582   6.311   7.753   1.351
 5542TIP3    H116583   6.289   7.818   1.420
 5542TIP3    H216584   6.292   7.669   1.396
 5543TIP3   OH216585   5.889   7.264   0.916
 5543TIP3    H116586   5.958   7.295   0.979
 5543TIP3    H216587   5.935   7.260   0.833
 5544TIP3   OH216588   6.041   7.961   1.476
 5544TIP3    H116589   6.046   7.945   1.573
 5544TIP3    H216590   5.963   7.909   1.452
 5545TIP3   OH216591   6.262   7.488   1.479
 5545TIP3    H116592   6.165   7.491   1.494
 5545TIP3    H216593   6.292   7.437   1.556
 5546TIP3   OH216594   6.273   7.124   1.088
 5546TIP3    H116595   6.240   7.091   1.001
 5546TIP3    H216596   6.264   7.044   1.143
 5547TIP3   OH216597   6.116   8.274   1.701
 5547TIP3    H116598   6.149   8.182   1.702
 5547TIP3    H216599   6.027   8.263   1.663
 5548TIP3   OH216600   6.239   8.025   1.712
 5548TIP3    H116601   6.279   7.938   1.723
 5548TIP3    H216602   6.252   8.060   1.803
 5549TIP3   OH216603   6.647   7.708   1.498
 5549TIP3    H116604   6.685   7.622   1.476
 5549TIP3    H216605   6.595   7.730   1.420
 5550TIP3   OH216606   6.662   7.506   1.281
 5550TIP3    H116607   6.637   7.538   1.193
 5550TIP3    H216608   6.576   7.466   1.307
 5551TIP3   OH216609   6.560   7.800   1.743
 5551TIP3    H116610   6.483   7.741   1.756
 5551TIP3    H216611   6.591   7.773   1.654
 5552TIP3   OH216612   6.782   7.249   1.387
 5552TIP3    H116613   6.727   7.321   1.353
 5552TIP3    H216614   6.724   7.171   1.373
 5553TIP3   OH216615   6.392   7.579   1.786
 5553TIP3    H116616   6.407   7.488   1.754
 5553TIP3    H216617   6.435   7.575   1.874
 5554TIP3   OH216618   6.903   7.245   1.634
 5554TIP3    H116619   6.978   7.182   1.625
 5554TIP3    H216620   6.857   7.233   1.549
 5555TIP3   OH216621   6.970   7.452   1.801
 5555TIP3    H116622   6.951   7.387   1.731
 5555TIP3    H216623   6.902   7.521   1.787
 5556TIP3   OH216624   5.912   7.949   1.080
 5556TIP3    H116625   5.920   7.905   0.994
 5556TIP3    H216626   6.007   7.950   1.107
 5557TIP3   OH216627   6.123   7.616   1.747
 5557TIP3    H116628   6.220   7.630   1.757
 5557TIP3    H216629   6.110   7.541   1.805
 5558TIP3   OH216630   6.090   7.330   1.090
 5558TIP3    H116631   6.150   7.254   1.100
 5558TIP3    H216632   6.154   7.402   1.078
 5559TIP3   OH216633   5.892   7.602   1.169
 5559TIP3    H116634   5.943   7.605   1.085
 5559TIP3    H216635   5.915   7.686   1.209
 5560TIP3   OH216636   6.098   7.182   1.471
 5560TIP3    H116637   6.049   7.182   1.555
 5560TIP3    H216638   6.031   7.223   1.411
 5561TIP3   OH216639   6.181   7.027   0.852
 5561TIP3    H116640   6.089   6.995   0.850
 5561TIP3    H216641   6.229   6.946   0.830
 5562TIP3   OH216642   6.396   7.306   1.718
 5562TIP3    H116643   6.356   7.244   1.780
 5562TIP3    H216644   6.490   7.301   1.747
 5563TIP3   OH216645   6.644   7.299   1.839
 5563TIP3    H116646   6.734   7.298   1.803
 5563TIP3    H216647   6.648   7.226   1.903
 5564TIP3   OH216648   1.850   0.489   5.754
 5564TIP3    H116649   1.787   0.462   5.821
 5564TIP3    H216650   1.871   0.579   5.781
 5565TIP3   OH216651   1.490   0.961   5.761
 5565TIP3    H116652   1.550   0.892   5.723
 5565TIP3    H216653   1.473   0.927   5.849
 5566TIP3   OH216654   2.433  -0.061   6.311
 5566TIP3    H116655   2.362  -0.005   6.276
 5566TIP3    H216656   2.498   0.003   6.340
 5567TIP3   OH216657   1.528   0.423   5.522
 5567TIP3    H116658   1.439   0.391   5.501
 5567TIP3    H216659   1.505   0.498   5.577
 5568TIP3   OH216660   1.907   0.740   5.912
 5568TIP3    H116661   1.814   0.740   5.943
 5568TIP3    H216662   1.906   0.821   5.857
 5569TIP3   OH216663   1.653   0.789   5.626
 5569TIP3    H116664   1.686   0.709   5.581
 5569TIP3    H216665   1.691   0.858   5.567
 5570TIP3   OH216666   1.761   0.574   5.495
 5570TIP3    H116667   1.693   0.511   5.465
 5570TIP3    H216668   1.804   0.525   5.567
 5571TIP3   OH216669   2.128   0.654   6.261
 5571TIP3    H116670   2.125   0.577   6.200
 5571TIP3    H216671   2.090   0.724   6.206
 5572TIP3   OH216672   2.323   0.294   6.104
 5572TIP3    H116673   2.243   0.349   6.103
 5572TIP3    H216674   2.360   0.315   6.015
 5573TIP3   OH216675   1.765   0.151   5.490
 5573TIP3    H116676   1.704   0.157   5.564
 5573TIP3    H216677   1.843   0.107   5.528
 5574TIP3   OH216678   1.662   0.766   6.017
 5574TIP3    H116679   1.641   0.850   6.063
 5574TIP3    H216680   1.641   0.698   6.084
 5575TIP3   OH216681   1.365   0.735   5.528
 5575TIP3    H116682   1.418   0.749   5.607
 5575TIP3    H216683   1.284   0.697   5.561
 5576TIP3   OH216684   1.926   0.594   4.901
 5576TIP3    H116685   1.932   0.691   4.890
 5576TIP3    H216686   2.020   0.567   4.896
 5577TIP3   OH216687   1.521   0.795   6.425
 5577TIP3    H116688   1.494   0.888   6.436
 5577TIP3    H216689   1.434   0.752   6.439
 5578TIP3   OH216690   1.165   0.914   5.381
 5578TIP3    H116691   1.187   0.907   5.287
 5578TIP3    H216692   1.195   1.003   5.404
 5579TIP3   OH216693   1.470   0.917   5.353
 5579TIP3    H116694   1.404   0.873   5.411
 5579TIP3    H216695   1.524   0.840   5.332
 5580TIP3   OH216696   2.262   0.115   6.582
 5580TIP3    H116697   2.181   0.166   6.572
 5580TIP3    H216698   2.234   0.026   6.556
 5581TIP3   OH216699   1.693   0.009   5.052
 5581TIP3    H116700   1.658  -0.001   4.962
 5581TIP3    H216701   1.735   0.095   5.050
 5582TIP3   OH216702   2.070   1.300   6.390
 5582TIP3    H116703   2.054   1.356   6.312
 5582TIP3    H216704   2.144   1.351   6.431
 5583TIP3   OH216705   2.091   0.447   6.084
 5583TIP3    H116706   2.129   0.497   6.008
 5583TIP3    H216707   2.011   0.408   6.044
 5584TIP3   OH216708   1.375   0.399   5.216
 5584TIP3    H116709   1.325   0.479   5.241
 5584TIP3    H216710   1.370   0.345   5.297
 5585TIP3   OH216711   1.790   0.789   6.381
 5585TIP3    H116712   1.693   0.783   6.362
 5585TIP3    H216713   1.784   0.848   6.458
 5586TIP3   OH216714   2.173  -0.139   5.251
 5586TIP3    H116715   2.111  -0.195   5.201
 5586TIP3    H216716   2.149  -0.051   5.214
 5587TIP3   OH216717   2.389   0.701   6.347
 5587TIP3    H116718   2.292   0.706   6.338
 5587TIP3    H216719   2.415   0.684   6.254
 5588TIP3   OH216720   1.883   0.666   5.179
 5588TIP3    H116721   1.831   0.610   5.238
 5588TIP3    H216722   1.869   0.624   5.092
 5589TIP3   OH216723   1.872   0.285   5.999
 5589TIP3    H116724   1.776   0.275   6.005
 5589TIP3    H216725   1.891   0.250   5.912
 5590TIP3   OH216726   1.295   0.925   6.290
 5590TIP3    H116727   1.213   0.934   6.240
 5590TIP3    H216728   1.331   0.844   6.254
 5591TIP3   OH216729   1.691   0.546   6.192
 5591TIP3    H116730   1.659   0.525   6.280
 5591TIP3    H216731   1.786   0.542   6.204
 5592TIP3   OH216732   1.601   0.366   5.069
 5592TIP3    H116733   1.664   0.354   5.143
 5592TIP3    H216734   1.521   0.389   5.120
 5593TIP3   OH216735   1.958   0.870   4.893
 5593TIP3    H116736   1.989   0.947   4.842
 5593TIP3    H216737   1.877   0.909   4.931
 5594TIP3   OH216738   1.779   0.329   5.274
 5594TIP3    H116739   1.761   0.269   5.349
 5594TIP3    H216740   1.877   0.327   5.272
 5595TIP3   OH216741   1.191   0.594   5.272
 5595TIP3    H116742   1.143   0.599   5.355
 5595TIP3    H216743   1.220   0.686   5.261
 5596TIP3   OH216744   1.918   1.015   5.838
 5596TIP3    H116745   1.869   1.060   5.766
 5596TIP3    H216746   2.010   1.041   5.815
 5597TIP3   OH216747   1.142   0.557   4.997
 5597TIP3    H116748   1.152   0.548   5.094
 5597TIP3    H216749   1.232   0.535   4.966
 5598TIP3   OH216750   1.810   0.915   6.630
 5598TIP3    H116751   1.845   0.833   6.665
 5598TIP3    H216752   1.887   0.974   6.633
 5599TIP3   OH216753   1.915   0.549   6.404
 5599TIP3    H116754   2.000   0.576   6.363
 5599TIP3    H216755   1.868   0.635   6.399
 5600TIP3   OH216756   1.935   0.132   4.922
 5600TIP3    H116757   1.901   0.089   4.842
 5600TIP3    H216758   1.890   0.220   4.914
 5601TIP3   OH216759   2.077   0.381   6.567
 5601TIP3    H116760   2.021   0.436   6.509
 5601TIP3    H216761   2.165   0.406   6.532
 5602TIP3   OH216762   0.918   0.870   5.151
 5602TIP3    H116763   1.015   0.858   5.158
 5602TIP3    H216764   0.912   0.923   5.070
 5603TIP3   OH216765   2.174   1.119   5.811
 5603TIP3    H116766   2.206   1.206   5.841
 5603TIP3    H216767   2.218   1.113   5.725
 5604TIP3   OH216768   2.204   1.098   6.129
 5604TIP3    H116769   2.163   1.043   6.059
 5604TIP3    H216770   2.292   1.111   6.087
 5605TIP3   OH216771   2.235   0.805   6.641
 5605TIP3    H116772   2.166   0.812   6.709
 5605TIP3    H216773   2.279   0.892   6.647
 5606TIP3   OH216774   2.059   0.312   5.264
 5606TIP3    H116775   2.122   0.381   5.234
 5606TIP3    H216776   2.105   0.275   5.342
 5607TIP3   OH216777   2.183   0.178   5.466
 5607TIP3    H116778   2.115   0.148   5.529
 5607TIP3    H216779   2.251   0.219   5.523
 5608TIP3   OH216780   2.243   0.574   5.902
 5608TIP3    H116781   2.295   0.508   5.852
 5608TIP3    H216782   2.243   0.650   5.839
 5609TIP3   OH216783   2.019   0.891   6.125
 5609TIP3    H116784   1.925   0.907   6.107
 5609TIP3    H216785   2.035   0.833   6.047
 5610TIP3   OH216786   2.118   0.090   5.114
 5610TIP3    H116787   2.050   0.098   5.043
 5610TIP3    H216788   2.090   0.166   5.170
 5611TIP3   OH216789   2.000  -0.248   5.059
 5611TIP3    H116790   1.953  -0.168   5.031
 5611TIP3    H216791   1.935  -0.316   5.037
 5612TIP3   OH216792   1.994   0.038   5.631
 5612TIP3    H116793   2.018  -0.051   5.602
 5612TIP3    H216794   2.015   0.037   5.724
 5613TIP3   OH216795   2.310   0.466   6.464
 5613TIP3    H116796   2.381   0.399   6.457
 5613TIP3    H216797   2.343   0.539   6.408
 5614TIP3   OH216798   2.476   0.258   6.488
 5614TIP3    H116799   2.402   0.207   6.527
 5614TIP3    H216800   2.551   0.199   6.509
 5615TIP3   OH216801   2.149  -0.065   6.018
 5615TIP3    H116802   2.232  -0.042   5.970
 5615TIP3    H216803   2.166  -0.020   6.102
 5616TIP3   OH216804   2.203   0.090   6.242
 5616TIP3    H116805   2.119   0.131   6.266
 5616TIP3    H216806   2.250   0.164   6.197
 5617TIP3   OH216807   1.766   0.974   5.459
 5617TIP3    H116808   1.796   0.951   5.369
 5617TIP3    H216809   1.825   1.046   5.481
 5618TIP3   OH216810   1.473   1.059   6.533
 5618TIP3    H116811   1.518   1.055   6.619
 5618TIP3    H216812   1.535   1.112   6.478
 5619TIP3   OH216813   1.645   1.205   6.380
 5619TIP3    H116814   1.692   1.168   6.305
 5619TIP3    H216815   1.713   1.256   6.429
 5620TIP3   OH216816   1.390   1.090   6.029
 5620TIP3    H116817   1.302   1.088   5.987
 5620TIP3    H216818   1.380   1.163   6.092
 5621TIP3   OH216819   1.640   1.020   6.123
 5621TIP3    H116820   1.546   1.037   6.099
 5621TIP3    H216821   1.685   1.088   6.071
 5622TIP3   OH216822   1.862   1.206   6.032
 5622TIP3    H116823   1.834   1.285   5.981
 5622TIP3    H216824   1.875   1.141   5.960
 5623TIP3   OH216825   1.192   0.832   5.117
 5623TIP3    H116826   1.288   0.838   5.095
 5623TIP3    H216827   1.169   0.760   5.057
 5624TIP3   OH216828   1.897   0.935   5.220
 5624TIP3    H116829   1.897   0.837   5.208
 5624TIP3    H216830   1.849   0.963   5.140
 5625TIP3   OH216831   3.386   0.451   5.170
 5625TIP3    H116832   3.359   0.543   5.149
 5625TIP3    H216833   3.309   0.404   5.133
 5626TIP3   OH216834   3.398   0.451   5.548
 5626TIP3    H116835   3.420   0.429   5.640
 5626TIP3    H216836   3.345   0.376   5.520
 5627TIP3   OH216837   2.681   0.354   5.932
 5627TIP3    H116838   2.724   0.281   5.978
 5627TIP3    H216839   2.757   0.405   5.901
 5628TIP3   OH216840   3.635   0.753   5.235
 5628TIP3    H116841   3.611   0.691   5.305
 5628TIP3    H216842   3.662   0.832   5.285
 5629TIP3   OH216843   2.348  -0.040   5.443
 5629TIP3    H116844   2.305   0.047   5.447
 5629TIP3    H216845   2.287  -0.086   5.383
 5630TIP3   OH216846   2.412   0.257   5.597
 5630TIP3    H116847   2.456   0.174   5.625
 5630TIP3    H216848   2.490   0.313   5.581
 5631TIP3   OH216849   3.283   1.219   5.250
 5631TIP3    H116850   3.327   1.148   5.199
 5631TIP3    H216851   3.265   1.175   5.334
 5632TIP3   OH216852   3.183   0.675   5.605
 5632TIP3    H116853   3.220   0.607   5.548
 5632TIP3    H216854   3.266   0.721   5.631
 5633TIP3   OH216855   3.606   0.178   5.647
 5633TIP3    H116856   3.614   0.085   5.672
 5633TIP3    H216857   3.565   0.173   5.558
 5634TIP3   OH216858   2.914  -0.198   5.572
 5634TIP3    H116859   2.898  -0.112   5.528
 5634TIP3    H216860   2.832  -0.245   5.554
 5635TIP3   OH216861   3.593  -0.041   5.270
 5635TIP3    H116862   3.656  -0.091   5.326
 5635TIP3    H216863   3.643  -0.039   5.187
 5636TIP3   OH216864   2.543   0.036   5.697
 5636TIP3    H116865   2.635   0.043   5.730
 5636TIP3    H216866   2.558  -0.023   5.620
 5637TIP3   OH216867   3.004   0.240   5.506
 5637TIP3    H116868   3.098   0.214   5.518
 5637TIP3    H216869   2.965   0.155   5.476
 5638TIP3   OH216870   4.239   0.193   5.795
 5638TIP3    H116871   4.163   0.244   5.760
 5638TIP3    H216872   4.291   0.261   5.838
 5639TIP3   OH216873   3.280   0.673   5.035
 5639TIP3    H116874   3.235   0.660   4.951
 5639TIP3    H216875   3.236   0.755   5.066
 5640TIP3   OH216876   3.039   0.599   5.828
 5640TIP3    H116877   2.977   0.666   5.865
 5640TIP3    H216878   3.077   0.646   5.752
 5641TIP3   OH216879   2.801   0.008   5.764
 5641TIP3    H116880   2.873   0.048   5.816
 5641TIP3    H216881   2.838  -0.080   5.747
 5642TIP3   OH216882   2.858   0.788   5.929
 5642TIP3    H116883   2.811   0.818   5.848
 5642TIP3    H216884   2.782   0.792   5.989
 5643TIP3   OH216885   2.260   0.485   5.159
 5643TIP3    H116886   2.215   0.513   5.077
 5643TIP3    H216887   2.291   0.570   5.195
 5644TIP3   OH216888   3.703   1.000   5.397
 5644TIP3    H116889   3.614   0.992   5.439
 5644TIP3    H216890   3.693   1.086   5.352
 5645TIP3   OH216891   3.404   1.044   5.074
 5645TIP3    H116892   3.452   0.961   5.053
 5645TIP3    H216893   3.467   1.109   5.035
 5646TIP3   OH216894   3.545   0.827   4.984
 5646TIP3    H116895   3.496   0.751   4.951
 5646TIP3    H216896   3.584   0.791   5.067
 5647TIP3   OH216897   3.927   0.909   5.744
 5647TIP3    H116898   3.912   0.833   5.684
 5647TIP3    H216899   3.905   0.985   5.686
 5648TIP3   OH216900   3.218   0.309   5.000
 5648TIP3    H116901   3.136   0.360   4.985
 5648TIP3    H216902   3.257   0.308   4.911
 5649TIP3   OH216903   3.175   0.088   4.716
 5649TIP3    H116904   3.245   0.141   4.759
 5649TIP3    H216905   3.228   0.023   4.668
 5650TIP3   OH216906   4.122   0.552   5.590
 5650TIP3    H116907   4.037   0.601   5.593
 5650TIP3    H216908   4.153   0.577   5.500
 5651TIP3   OH216909   3.564   0.387   4.971
 5651TIP3    H116910   3.508   0.411   5.049
 5651TIP3    H216911   3.650   0.370   5.015
 5652TIP3   OH216912   3.798   0.428   5.888
 5652TIP3    H116913   3.792   0.511   5.938
 5652TIP3    H216914   3.710   0.428   5.844
 5653TIP3   OH216915   2.807   0.390   5.377
 5653TIP3    H116916   2.762   0.327   5.317
 5653TIP3    H216917   2.877   0.334   5.416
 5654TIP3   OH216918   2.958   0.828   5.514
 5654TIP3    H116919   2.898   0.767   5.470
 5654TIP3    H216920   3.034   0.772   5.536
 5655TIP3   OH216921   2.927   0.356   5.751
 5655TIP3    H116922   2.957   0.328   5.662
 5655TIP3    H216923   2.974   0.441   5.764
 5656TIP3   OH216924   3.465   0.994   5.523
 5656TIP3    H116925   3.446   1.075   5.572
 5656TIP3    H216926   3.442   0.923   5.586
 5657TIP3   OH216927   3.069   0.910   6.068
 5657TIP3    H116928   3.009   0.973   6.114
 5657TIP3    H216929   3.003   0.862   6.013
 5658TIP3   OH216930   3.406   0.241   4.797
 5658TIP3    H116931   3.461   0.307   4.846
 5658TIP3    H216932   3.433   0.261   4.704
 5659TIP3   OH216933   2.824   0.468   6.176
 5659TIP3    H116934   2.828   0.555   6.222
 5659TIP3    H216935   2.727   0.451   6.177
 5660TIP3   OH216936   3.154   0.919   5.072
 5660TIP3    H116937   3.231   0.977   5.084
 5660TIP3    H216938   3.090   0.977   5.030
 5661TIP3   OH216939   2.865   1.080   6.159
 5661TIP3    H116940   2.847   1.088   6.063
 5661TIP3    H216941   2.776   1.062   6.193
 5662TIP3   OH216942   2.666   0.223   5.185
 5662TIP3    H116943   2.599   0.274   5.136
 5662TIP3    H216944   2.615   0.144   5.209
 5663TIP3   OH216945   3.720   0.853   4.397
 5663TIP3    H116946   3.726   0.950   4.379
 5663TIP3    H216947   3.813   0.826   4.386
 5664TIP3   OH216948   2.450   0.616   6.099
 5664TIP3    H116949   2.394   0.600   6.020
 5664TIP3    H216950   2.487   0.528   6.117
 5665TIP3   OH216951   2.286   0.800   5.747
 5665TIP3    H116952   2.383   0.786   5.733
 5665TIP3    H216953   2.287   0.886   5.790
 5666TIP3   OH216954   4.165   1.260   5.796
 5666TIP3    H116955   4.160   1.164   5.807
 5666TIP3    H216956   4.080   1.287   5.839
 5667TIP3   OH216957   3.272   1.037   5.930
 5667TIP3    H116958   3.267   1.131   5.958
 5667TIP3    H216959   3.196   0.999   5.980
 5668TIP3   OH216960   3.033   1.168   4.878
 5668TIP3    H116961   2.988   1.152   4.793
 5668TIP3    H216962   3.000   1.256   4.903
 5669TIP3   OH216963   2.465   1.018   5.256
 5669TIP3    H116964   2.516   1.011   5.340
 5669TIP3    H216965   2.418   0.932   5.256
 5670TIP3   OH216966   3.229   1.075   4.519
 5670TIP3    H116967   3.286   1.007   4.477
 5670TIP3    H216968   3.269   1.082   4.608
 5671TIP3   OH216969   3.285   1.119   4.791
 5671TIP3    H116970   3.195   1.130   4.828
 5671TIP3    H216971   3.333   1.081   4.866
 5672TIP3   OH216972   4.051   0.370   6.069
 5672TIP3    H116973   3.974   0.412   6.029
 5672TIP3    H216974   4.027   0.277   6.056
 5673TIP3   OH216975   2.642   0.816   6.137
 5673TIP3    H116976   2.705   0.761   6.187
 5673TIP3    H216977   2.578   0.751   6.103
 5674TIP3   OH216978   3.844   0.178   6.014
 5674TIP3    H116979   3.789   0.197   6.091
 5674TIP3    H216980   3.814   0.245   5.951
 5675TIP3   OH216981   3.485   0.276   4.541
 5675TIP3    H116982   3.446   0.262   4.453
 5675TIP3    H216983   3.557   0.338   4.519
 5676TIP3   OH216984   3.003   0.141   5.908
 5676TIP3    H116985   2.942   0.156   5.982
 5676TIP3    H216986   2.985   0.219   5.851
 5677TIP3   OH216987   2.866   0.018   5.415
 5677TIP3    H116988   2.770   0.007   5.424
 5677TIP3    H216989   2.880  -0.011   5.321
 5678TIP3   OH216990   3.350   0.112   5.137
 5678TIP3    H116991   3.302   0.184   5.090
 5678TIP3    H216992   3.415   0.084   5.070
 5679TIP3   OH216993   3.538   0.411   6.206
 5679TIP3    H116994   3.513   0.330   6.257
 5679TIP3    H216995   3.633   0.418   6.230
 5680TIP3   OH216996   3.491   0.176   5.397
 5680TIP3    H116997   3.436   0.224   5.332
 5680TIP3    H216998   3.514   0.097   5.344
 5681TIP3   OH216999   2.809   0.166   6.102
 5681TIP3    H117000   2.817   0.235   6.170
 5681TIP3    H217001   2.785   0.087   6.153
 5682TIP3   OH217002   2.440  -0.220   5.235
 5682TIP3    H117003   2.447  -0.222   5.138
 5682TIP3    H217004   2.346  -0.195   5.244
 5683TIP3   OH217005   3.522   0.383   5.797
 5683TIP3    H117006   3.559   0.313   5.740
 5683TIP3    H217007   3.495   0.329   5.874
 5684TIP3   OH217008   2.608  -0.108   5.456
 5684TIP3    H117009   2.516  -0.074   5.449
 5684TIP3    H217010   2.601  -0.178   5.390
 5685TIP3   OH217011   2.907  -0.086   5.165
 5685TIP3    H117012   2.995  -0.096   5.125
 5685TIP3    H217013   2.847  -0.094   5.089
 5686TIP3   OH217014   2.742  -0.106   4.941
 5686TIP3    H117015   2.666  -0.117   4.881
 5686TIP3    H217016   2.801  -0.056   4.881
 5687TIP3   OH217017   3.858   1.605   5.891
 5687TIP3    H117018   3.853   1.630   5.797
 5687TIP3    H217019   3.936   1.655   5.921
 5688TIP3   OH217020   2.818   0.707   6.318
 5688TIP3    H117021   2.898   0.741   6.364
 5688TIP3    H217022   2.754   0.709   6.391
 5689TIP3   OH217023   3.261   0.168   5.568
 5689TIP3    H117024   3.347   0.147   5.529
 5689TIP3    H217025   3.269   0.134   5.660
 5690TIP3   OH217026   3.275   0.097   5.830
 5690TIP3    H117027   3.184   0.095   5.865
 5690TIP3    H217028   3.323   0.145   5.900
 5691TIP3   OH217029   2.990   0.454   4.950
 5691TIP3    H117030   2.914   0.392   4.939
 5691TIP3    H217031   2.970   0.492   5.039
 5692TIP3   OH217032   3.887   0.691   5.578
 5692TIP3    H117033   3.909   0.745   5.498
 5692TIP3    H217034   3.802   0.650   5.552
 5693TIP3   OH217035   3.425  -0.160   4.769
 5693TIP3    H117036   3.365  -0.211   4.827
 5693TIP3    H217037   3.460  -0.095   4.833
 5694TIP3   OH217038   3.389   0.778   5.947
 5694TIP3    H117039   3.410   0.761   6.039
 5694TIP3    H217040   3.349   0.867   5.950
 5695TIP3   OH217041   3.523   0.034   4.935
 5695TIP3    H117042   3.620   0.048   4.942
 5695TIP3    H217043   3.495   0.111   4.882
 5696TIP3   OH217044   2.651   0.387   5.616
 5696TIP3    H117045   2.692   0.427   5.538
 5696TIP3    H217046   2.725   0.386   5.678
 5697TIP3   OH217047   3.134   0.607   4.776
 5697TIP3    H117048   3.085   0.693   4.777
 5697TIP3    H217049   3.078   0.553   4.836
 5698TIP3   OH217050   2.561   0.399   6.242
 5698TIP3    H117051   2.580   0.382   6.336
 5698TIP3    H217052   2.489   0.336   6.223
 5699TIP3   OH217053   3.287   0.518   6.263
 5699TIP3    H117054   3.223   0.465   6.212
 5699TIP3    H217055   3.373   0.488   6.227
 5700TIP3   OH217056   3.548   1.032   5.848
 5700TIP3    H117057   3.451   1.033   5.859
 5700TIP3    H217058   3.575   1.088   5.924
 5701TIP3   OH217059   3.956   0.108   4.742
 5701TIP3    H117060   3.898   0.057   4.681
 5701TIP3    H217061   3.941   0.198   4.705
 5702TIP3   OH217062   4.177   0.966   5.833
 5702TIP3    H117063   4.079   0.962   5.823
 5702TIP3    H217064   4.203   0.937   5.743
 5703TIP3   OH217065   3.666   0.926   4.664
 5703TIP3    H117066   3.627   0.859   4.721
 5703TIP3    H217067   3.673   0.882   4.577
 5704TIP3   OH217068   3.655   0.558   5.497
 5704TIP3    H117069   3.561   0.532   5.510
 5704TIP3    H217070   3.688   0.480   5.448
 5705TIP3   OH217071   2.777   0.780   5.240
 5705TIP3    H117072   2.774   0.864   5.190
 5705TIP3    H217073   2.685   0.771   5.269
 5706TIP3   OH217074   2.344   0.088   4.957
 5706TIP3    H117075   2.388   0.173   4.977
 5706TIP3    H217076   2.266   0.093   5.017
 5707TIP3   OH217077   2.923   0.552   5.189
 5707TIP3    H117078   2.884   0.640   5.208
 5707TIP3    H217079   2.885   0.500   5.262
 5708TIP3   OH217080   3.052   1.129   5.721
 5708TIP3    H117081   3.093   1.200   5.667
 5708TIP3    H217082   3.129   1.090   5.763
 5709TIP3   OH217083   2.699   1.025   5.101
 5709TIP3    H117084   2.613   1.034   5.146
 5709TIP3    H217085   2.731   1.117   5.104
 5710TIP3   OH217086   3.435   0.758   5.680
 5710TIP3    H117087   3.426   0.760   5.778
 5710TIP3    H217088   3.517   0.707   5.669
 5711TIP3   OH217089   3.416   0.647   4.561
 5711TIP3    H117090   3.466   0.624   4.643
 5711TIP3    H217091   3.325   0.630   4.589
 5712TIP3   OH217092   3.687   1.293   5.726
 5712TIP3    H117093   3.605   1.240   5.719
 5712TIP3    H217094   3.672   1.359   5.655
 5713TIP3   OH217095   3.751   1.129   4.375
 5713TIP3    H117096   3.774   1.198   4.311
 5713TIP3    H217097   3.673   1.173   4.416
 5714TIP3   OH217098   3.576   0.583   4.776
 5714TIP3    H117099   3.567   0.521   4.850
 5714TIP3    H217100   3.674   0.583   4.765
 5715TIP3   OH217101   2.455   1.019   5.933
 5715TIP3    H117102   2.490   0.943   5.882
 5715TIP3    H217103   2.540   1.056   5.961
 5716TIP3   OH217104   2.781   0.633   4.562
 5716TIP3    H117105   2.792   0.540   4.537
 5716TIP3    H217106   2.760   0.626   4.657
 5717TIP3   OH217107   2.725   0.640   4.834
 5717TIP3    H117108   2.793   0.617   4.897
 5717TIP3    H217109   2.726   0.739   4.839
 5718TIP3   OH217110   2.458   0.333   5.039
 5718TIP3    H117111   2.391   0.378   5.095
 5718TIP3    H217112   2.469   0.402   4.970
 5719TIP3   OH217113   2.992   0.837   4.782
 5719TIP3    H117114   2.905   0.860   4.818
 5719TIP3    H217115   3.007   0.912   4.722
 5720TIP3   OH217116   3.200  -0.113   5.157
 5720TIP3    H117117   3.250  -0.028   5.153
 5720TIP3    H217118   3.189  -0.124   5.252
 5721TIP3   OH217119   3.463   0.222   6.008
 5721TIP3    H117120   3.456   0.289   6.078
 5721TIP3    H217121   3.503   0.149   6.057
 5722TIP3   OH217122   2.737   0.911   4.852
 5722TIP3    H117123   2.707   0.981   4.790
 5722TIP3    H217124   2.720   0.954   4.939
 5723TIP3   OH217125   3.742   0.313   5.374
 5723TIP3    H117126   3.660   0.266   5.396
 5723TIP3    H217127   3.810   0.264   5.425
 5724TIP3   OH217128   2.455   0.537   4.843
 5724TIP3    H117129   2.521   0.608   4.852
 5724TIP3    H217130   2.499   0.483   4.775
 5725TIP3   OH217131   2.392  -0.183   4.960
 5725TIP3    H117132   2.388  -0.086   4.955
 5725TIP3    H217133   2.299  -0.206   4.963
 5726TIP3   OH217134   3.709   1.270   5.321
 5726TIP3    H117135   3.664   1.318   5.248
 5726TIP3    H217136   3.803   1.288   5.299
 5727TIP3   OH217137   2.318   0.758   5.227
 5727TIP3    H117138   2.246   0.782   5.287
 5727TIP3    H217139   2.286   0.799   5.143
 5728TIP3   OH217140   2.497   1.303   6.305
 5728TIP3    H117141   2.575   1.327   6.360
 5728TIP3    H217142   2.517   1.208   6.294
 5729TIP3   OH217143   2.955   1.256   6.352
 5729TIP3    H117144   3.052   1.249   6.352
 5729TIP3    H217145   2.932   1.196   6.278
 5730TIP3   OH217146   2.941   0.838   4.471
 5730TIP3    H117147   2.886   0.765   4.508
 5730TIP3    H217148   3.018   0.788   4.438
 5731TIP3   OH217149   3.599   1.171   6.081
 5731TIP3    H117150   3.592   1.102   6.151
 5731TIP3    H217151   3.675   1.224   6.111
 5732TIP3   OH217152   3.374   0.878   4.388
 5732TIP3    H117153   3.427   0.817   4.441
 5732TIP3    H217154   3.424   0.883   4.304
 5733TIP3   OH217155   2.613   0.705   6.504
 5733TIP3    H117156   2.627   0.608   6.508
 5733TIP3    H217157   2.528   0.710   6.455
 5734TIP3   OH217158   2.589   0.352   4.696
 5734TIP3    H117159   2.646   0.326   4.771
 5734TIP3    H217160   2.656   0.358   4.625
 5735TIP3   OH217161   3.214   0.794   6.275
 5735TIP3    H117162   3.172   0.815   6.190
 5735TIP3    H217163   3.242   0.700   6.264
 5736TIP3   OH217164   3.106   0.557   4.506
 5736TIP3    H117165   3.104   0.569   4.603
 5736TIP3    H217166   3.103   0.459   4.500
 5737TIP3   OH217167   3.710   0.802   5.885
 5737TIP3    H117168   3.784   0.846   5.839
 5737TIP3    H217169   3.638   0.867   5.870
 5738TIP3   OH217170   2.733   0.442   6.487
 5738TIP3    H117171   2.817   0.404   6.456
 5738TIP3    H217172   2.758   0.474   6.576
 5739TIP3   OH217173   2.791   0.262   4.918
 5739TIP3    H117174   2.764   0.225   5.003
 5739TIP3    H217175   2.829   0.184   4.871
 5740TIP3   OH217176   3.070   0.358   6.146
 5740TIP3    H117177   2.984   0.404   6.141
 5740TIP3    H217178   3.113   0.383   6.062
 5741TIP3   OH217179   2.895   0.051   4.766
 5741TIP3    H117180   2.867   0.061   4.672
 5741TIP3    H217181   2.992   0.055   4.756
 5742TIP3   OH217182   3.586   0.729   6.283
 5742TIP3    H117183   3.650   0.690   6.222
 5742TIP3    H217184   3.572   0.657   6.346
 5743TIP3   OH217185   3.721   0.379   4.421
 5743TIP3    H117186   3.696   0.340   4.335
 5743TIP3    H217187   3.688   0.471   4.405
 5744TIP3   OH217188   3.151   0.133   6.265
 5744TIP3    H117189   3.101   0.075   6.206
 5744TIP3    H217190   3.127   0.220   6.226
 5745TIP3   OH217191   3.228   0.443   5.945
 5745TIP3    H117192   3.308   0.457   5.893
 5745TIP3    H217193   3.166   0.506   5.903
 5746TIP3   OH217194   3.789   0.404   6.311
 5746TIP3    H117195   3.824   0.348   6.385
 5746TIP3    H217196   3.865   0.459   6.289
 5747TIP3   OH217197   3.840   0.655   6.068
 5747TIP3    H117198   3.780   0.709   6.011
 5747TIP3    H217199   3.927   0.681   6.028
 5748TIP3   OH217200   3.036   0.255   6.500
 5748TIP3    H117201   2.988   0.176   6.528
 5748TIP3    H217202   3.094   0.220   6.430
 5749TIP3   OH217203   3.429   0.184   6.301
 5749TIP3    H117204   3.450   0.154   6.391
 5749TIP3    H217205   3.332   0.174   6.300
 5750TIP3   OH217206   2.705   1.114   4.665
 5750TIP3    H117207   2.801   1.106   4.647
 5750TIP3    H217208   2.678   1.166   4.587
 5751TIP3   OH217209   2.186   0.499   4.878
 5751TIP3    H117210   2.282   0.519   4.864
 5751TIP3    H217211   2.179   0.411   4.837
 5752TIP3   OH217212   2.098   1.110   5.295
 5752TIP3    H117213   2.034   1.048   5.255
 5752TIP3    H217214   2.143   1.051   5.359
 5753TIP3   OH217215   2.229   0.960   5.484
 5753TIP3    H117216   2.226   0.881   5.540
 5753TIP3    H217217   2.297   1.013   5.530
 5754TIP3   OH217218   3.966   1.351   5.283
 5754TIP3    H117219   3.989   1.392   5.368
 5754TIP3    H217220   4.021   1.402   5.221
 5755TIP3   OH217221   3.988   1.381   5.565
 5755TIP3    H117222   3.944   1.293   5.559
 5755TIP3    H217223   4.065   1.357   5.618
 5756TIP3   OH217224   4.041   1.054   6.140
 5756TIP3    H117225   3.966   1.066   6.202
 5756TIP3    H217226   4.081   1.143   6.140
 5757TIP3   OH217227   3.855   0.566   4.751
 5757TIP3    H117228   3.917   0.636   4.721
 5757TIP3    H217229   3.901   0.534   4.832
 5758TIP3   OH217230   3.982   0.443   4.958
 5758TIP3    H117231   3.913   0.403   5.016
 5758TIP3    H217232   4.044   0.482   5.024
 5759TIP3   OH217233   4.041   0.833   5.395
 5759TIP3    H117234   4.087   0.767   5.340
 5759TIP3    H217235   4.034   0.909   5.333
 5760TIP3   OH217236   3.865   1.129   5.587
 5760TIP3    H117237   3.793   1.174   5.635
 5760TIP3    H217238   3.816   1.086   5.513
 5761TIP3   OH217239   3.913   0.341   4.605
 5761TIP3    H117240   3.845   0.352   4.534
 5761TIP3    H217241   3.889   0.419   4.660
 5762TIP3   OH217242   3.781   0.000   4.543
 5762TIP3    H117243   3.768   0.088   4.506
 5762TIP3    H217244   3.722  -0.053   4.488
 5763TIP3   OH217245   3.795   0.310   5.103
 5763TIP3    H117246   3.794   0.216   5.077
 5763TIP3    H217247   3.780   0.308   5.200
 5764TIP3   OH217248   2.419   0.360   5.857
 5764TIP3    H117249   2.418   0.336   5.762
 5764TIP3    H217250   2.516   0.367   5.872
 5765TIP3   OH217251   4.084   0.721   5.962
 5765TIP3    H117252   4.156   0.656   5.949
 5765TIP3    H217253   4.105   0.790   5.897
 5766TIP3   OH217254   4.263   0.517   5.973
 5766TIP3    H117255   4.190   0.464   6.011
 5766TIP3    H217256   4.339   0.458   5.994
 5767TIP3   OH217257   3.796   0.058   4.974
 5767TIP3    H117258   3.825  -0.021   5.024
 5767TIP3    H217259   3.857   0.060   4.898
 5768TIP3   OH217260   3.953   0.185   5.502
 5768TIP3    H117261   4.038   0.210   5.459
 5768TIP3    H217262   3.966   0.225   5.591
 5769TIP3   OH217263   4.017   0.337   5.727
 5769TIP3    H117264   3.939   0.371   5.775
 5769TIP3    H217265   4.049   0.418   5.681
 5770TIP3   OH217266   2.641   0.047   6.523
 5770TIP3    H117267   2.734   0.030   6.505
 5770TIP3    H217268   2.609  -0.040   6.553
 5771TIP3   OH217269   2.394   0.022   5.928
 5771TIP3    H117270   2.441   0.019   5.843
 5771TIP3    H217271   2.423   0.108   5.962
 5772TIP3   OH217272   3.552   1.226   4.940
 5772TIP3    H117273   3.596   1.215   4.854
 5772TIP3    H217274   3.601   1.301   4.977
 5773TIP3   OH217275   2.607   1.036   6.318
 5773TIP3    H117276   2.606   0.952   6.271
 5773TIP3    H217277   2.643   1.015   6.403
 5774TIP3   OH217278   2.830   1.094   5.890
 5774TIP3    H117279   2.783   1.160   5.835
 5774TIP3    H217280   2.911   1.084   5.836
 5775TIP3   OH217281   3.266   1.306   6.006
 5775TIP3    H117282   3.308   1.309   6.095
 5775TIP3    H217283   3.330   1.359   5.954
 5776TIP3   OH217284   3.444   1.462   5.870
 5776TIP3    H117285   3.514   1.414   5.822
 5776TIP3    H217286   3.498   1.518   5.929
 5777TIP3   OH217287   2.502   1.335   5.888
 5777TIP3    H117288   2.408   1.355   5.872
 5777TIP3    H217289   2.518   1.380   5.971
 5778TIP3   OH217290   2.737   1.306   5.748
 5778TIP3    H117291   2.650   1.318   5.791
 5778TIP3    H217292   2.718   1.335   5.657
 5779TIP3   OH217293   3.163   1.325   5.550
 5779TIP3    H117294   3.092   1.340   5.484
 5779TIP3    H217295   3.172   1.414   5.589
 5780TIP3   OH217296   3.431   1.265   5.604
 5780TIP3    H117297   3.337   1.282   5.584
 5780TIP3    H217298   3.475   1.336   5.556
 5781TIP3   OH217299   3.638   1.457   5.514
 5781TIP3    H117300   3.623   1.542   5.466
 5781TIP3    H217301   3.664   1.398   5.440
 5782TIP3   OH217302   2.410   1.108   5.638
 5782TIP3    H117303   2.442   1.097   5.729
 5782TIP3    H217304   2.485   1.066   5.589
 5783TIP3   OH217305   2.611   0.994   5.485
 5783TIP3    H117306   2.617   0.927   5.557
 5783TIP3    H217307   2.703   1.027   5.482
 5784TIP3   OH217308   2.878   1.087   5.498
 5784TIP3    H117309   2.909   0.994   5.484
 5784TIP3    H217310   2.920   1.103   5.584
 5785TIP3   OH217311   2.200   0.889   5.023
 5785TIP3    H117312   2.114   0.854   4.993
 5785TIP3    H217313   2.190   0.982   4.997
 5786TIP3   OH217314   2.972   1.071   4.613
 5786TIP3    H117315   3.060   1.096   4.576
 5786TIP3    H217316   2.950   0.999   4.550
 5787TIP3   OH217317   3.691   1.195   4.705
 5787TIP3    H117318   3.686   1.098   4.693
 5787TIP3    H217319   3.642   1.227   4.626
 5788TIP3   OH217320   2.274   0.909   4.664
 5788TIP3    H117321   2.274   0.928   4.759
 5788TIP3    H217322   2.362   0.867   4.651
 5789TIP3   OH217323   3.914   1.335   5.891
 5789TIP3    H117324   3.837   1.306   5.839
 5789TIP3    H217325   3.896   1.432   5.896
 5790TIP3   OH217326   5.181   0.705   4.659
 5790TIP3    H117327   5.155   0.797   4.640
 5790TIP3    H217328   5.106   0.659   4.616
 5791TIP3   OH217329   5.187   0.712   5.038
 5791TIP3    H117330   5.216   0.689   5.129
 5791TIP3    H217331   5.144   0.631   5.008
 5792TIP3   OH217332   4.484   0.600   5.399
 5792TIP3    H117333   4.514   0.540   5.470
 5792TIP3    H217334   4.555   0.666   5.399
 5793TIP3   OH217335   5.428   1.012   4.723
 5793TIP3    H117336   5.413   0.948   4.793
 5793TIP3    H217337   5.459   1.090   4.772
 5794TIP3   OH217338   4.456   1.014   5.127
 5794TIP3    H117339   4.448   0.917   5.129
 5794TIP3    H217340   4.553   1.024   5.116
 5795TIP3   OH217341   4.146   0.226   4.934
 5795TIP3    H117342   4.095   0.309   4.940
 5795TIP3    H217343   4.091   0.176   4.871
 5796TIP3   OH217344   4.219   0.509   5.090
 5796TIP3    H117345   4.270   0.429   5.116
 5796TIP3    H217346   4.276   0.550   5.024
 5797TIP3   OH217347   5.079   1.475   4.738
 5797TIP3    H117348   5.120   1.404   4.686
 5797TIP3    H217349   5.069   1.434   4.824
 5798TIP3   OH217350   4.980   0.934   5.089
 5798TIP3    H117351   5.023   0.862   5.041
 5798TIP3    H217352   5.061   0.983   5.115
 5799TIP3   OH217353   5.391   0.433   5.136
 5799TIP3    H117354   5.425   0.346   5.157
 5799TIP3    H217355   5.360   0.423   5.044
 5800TIP3   OH217356   4.669   0.022   5.036
 5800TIP3    H117357   4.667   0.113   4.998
 5800TIP3    H217358   4.675  -0.031   4.955
 5801TIP3   OH217359   5.387   0.210   4.755
 5801TIP3    H117360   5.449   0.165   4.816
 5801TIP3    H217361   5.443   0.217   4.676
 5802TIP3   OH217362   4.370   0.295   5.187
 5802TIP3    H117363   4.460   0.287   5.223
 5802TIP3    H217364   4.375   0.234   5.111
 5803TIP3   OH217365   4.804   0.493   4.984
 5803TIP3    H117366   4.898   0.473   5.000
 5803TIP3    H217367   4.770   0.405   4.958
 5804TIP3   OH217368   6.027   0.447   5.291
 5804TIP3    H117369   5.956   0.501   5.250
 5804TIP3    H217370   6.093   0.513   5.315
 5805TIP3   OH217371   5.070   0.927   4.526
 5805TIP3    H117372   5.033   0.918   4.437
 5805TIP3    H217373   5.028   1.010   4.555
 5806TIP3   OH217374   4.833   0.854   5.309
 5806TIP3    H117375   4.774   0.924   5.346
 5806TIP3    H217376   4.876   0.901   5.235
 5807TIP3   OH217377   4.638   0.182   5.292
 5807TIP3    H117378   4.636   0.257   5.354
 5807TIP3    H217379   4.733   0.189   5.266
 5808TIP3   OH217380   4.665   1.052   5.410
 5808TIP3    H117381   4.641   1.139   5.371
 5808TIP3    H217382   4.585   1.036   5.464
 5809TIP3   OH217383   4.055   0.740   4.645
 5809TIP3    H117384   4.013   0.767   4.561
 5809TIP3    H217385   4.084   0.826   4.681
 5810TIP3   OH217386   5.496   1.257   4.884
 5810TIP3    H117387   5.406   1.249   4.924
 5810TIP3    H217388   5.488   1.343   4.839
 5811TIP3   OH217389   5.196   1.300   4.557
 5811TIP3    H117390   5.245   1.218   4.538
 5811TIP3    H217391   5.259   1.365   4.519
 5812TIP3   OH217392   5.339   1.084   4.471
 5812TIP3    H117393   5.307   1.004   4.429
 5812TIP3    H217394   5.377   1.049   4.555
 5813TIP3   OH217395   5.721   1.165   5.231
 5813TIP3    H117396   5.710   1.090   5.170
 5813TIP3    H217397   5.703   1.242   5.172
 5814TIP3   OH217398   5.014   0.566   4.487
 5814TIP3    H117399   4.934   0.619   4.469
 5814TIP3    H217400   5.055   0.562   4.398
 5815TIP3   OH217401   4.971   0.343   4.207
 5815TIP3    H117402   5.041   0.397   4.246
 5815TIP3    H217403   5.024   0.281   4.154
 5816TIP3   OH217404   5.918   0.809   5.077
 5816TIP3    H117405   5.834   0.860   5.079
 5816TIP3    H217406   5.950   0.832   4.987
 5817TIP3   OH217407   5.359   0.644   4.457
 5817TIP3    H117408   5.306   0.668   4.537
 5817TIP3    H217409   5.446   0.626   4.499
 5818TIP3   OH217410   5.594   0.683   5.379
 5818TIP3    H117411   5.591   0.765   5.431
 5818TIP3    H217412   5.509   0.689   5.332
 5819TIP3   OH217413   4.591   0.639   4.880
 5819TIP3    H117414   4.551   0.582   4.810
 5819TIP3    H217415   4.671   0.588   4.905
 5820TIP3   OH217416   4.721   1.047   5.026
 5820TIP3    H117417   4.703   1.021   4.934
 5820TIP3    H217418   4.811   1.012   5.041
 5821TIP3   OH217419   4.739   0.603   5.235
 5821TIP3    H117420   4.766   0.586   5.143
 5821TIP3    H217421   4.775   0.693   5.251
 5822TIP3   OH217422   5.256   1.250   5.008
 5822TIP3    H117423   5.242   1.333   5.058
 5822TIP3    H217424   5.237   1.180   5.074
 5823TIP3   OH217425   4.870   1.167   5.557
 5823TIP3    H117426   4.808   1.229   5.602
 5823TIP3    H217427   4.806   1.115   5.504
 5824TIP3   OH217428   5.200   0.500   4.284
 5824TIP3    H117429   5.256   0.564   4.333
 5824TIP3    H217430   5.227   0.519   4.191
 5825TIP3   OH217431   4.613   0.729   5.653
 5825TIP3    H117432   4.622   0.816   5.697
 5825TIP3    H217433   4.520   0.708   5.675
 5826TIP3   OH217434   4.948   1.178   4.563
 5826TIP3    H117435   5.029   1.231   4.570
 5826TIP3    H217436   4.887   1.238   4.518
 5827TIP3   OH217437   4.663   1.332   5.642
 5827TIP3    H117438   4.629   1.339   5.551
 5827TIP3    H217439   4.583   1.311   5.694
 5828TIP3   OH217440   4.456   0.479   4.685
 5828TIP3    H117441   4.398   0.535   4.630
 5828TIP3    H217442   4.408   0.396   4.681
 5829TIP3   OH217443   5.518   1.108   3.884
 5829TIP3    H117444   5.526   1.204   3.868
 5829TIP3    H217445   5.611   1.079   3.872
 5830TIP3   OH217446   4.240   0.867   5.590
 5830TIP3    H117447   4.171   0.854   5.521
 5830TIP3    H217448   4.276   0.778   5.603
 5831TIP3   OH217449   4.095   1.060   5.227
 5831TIP3    H117450   4.190   1.064   5.214
 5831TIP3    H217451   4.078   1.143   5.273
 5832TIP3   OH217452   5.961   1.516   5.280
 5832TIP3    H117453   5.958   1.420   5.294
 5832TIP3    H217454   5.877   1.542   5.325
 5833TIP3   OH217455   5.066   1.296   5.413
 5833TIP3    H117456   5.063   1.389   5.444
 5833TIP3    H217457   4.994   1.256   5.468
 5834TIP3   OH217458   4.831   1.425   4.365
 5834TIP3    H117459   4.783   1.409   4.282
 5834TIP3    H217460   4.796   1.511   4.393
 5835TIP3   OH217461   4.266   1.275   4.749
 5835TIP3    H117462   4.312   1.266   4.835
 5835TIP3    H217463   4.205   1.199   4.751
 5836TIP3   OH217464   5.028   1.329   4.001
 5836TIP3    H117465   5.087   1.259   3.966
 5836TIP3    H217466   5.063   1.340   4.092
 5837TIP3   OH217467   5.080   1.377   4.271
 5837TIP3    H117468   4.992   1.388   4.311
 5837TIP3    H217469   5.131   1.341   4.345
 5838TIP3   OH217470   5.846   0.627   5.559
 5838TIP3    H117471   5.770   0.662   5.510
 5838TIP3    H217472   5.840   0.533   5.538
 5839TIP3   OH217473   4.446   1.049   5.572
 5839TIP3    H117474   4.493   1.037   5.657
 5839TIP3    H217475   4.370   0.988   5.581
 5840TIP3   OH217476   5.609   0.424   5.497
 5840TIP3    H117477   5.596   0.462   5.584
 5840TIP3    H217478   5.601   0.500   5.438
 5841TIP3   OH217479   5.282   0.536   4.030
 5841TIP3    H117480   5.241   0.521   3.942
 5841TIP3    H217481   5.359   0.590   4.005
 5842TIP3   OH217482   4.783   0.389   5.399
 5842TIP3    H117483   4.728   0.423   5.473
 5842TIP3    H217484   4.773   0.463   5.335
 5843TIP3   OH217485   4.666   0.263   4.908
 5843TIP3    H117486   4.571   0.280   4.904
 5843TIP3    H217487   4.684   0.241   4.813
 5844TIP3   OH217488   5.143   0.365   4.621
 5844TIP3    H117489   5.098   0.439   4.575
 5844TIP3    H217490   5.211   0.339   4.555
 5845TIP3   OH217491   5.335   0.664   5.688
 5845TIP3    H117492   5.311   0.584   5.741
 5845TIP3    H217493   5.428   0.675   5.714
 5846TIP3   OH217494   5.285   0.430   4.881
 5846TIP3    H117495   5.236   0.480   4.814
 5846TIP3    H217496   5.307   0.350   4.828
 5847TIP3   OH217497   4.594   0.420   5.597
 5847TIP3    H117498   4.613   0.493   5.658
 5847TIP3    H217499   4.569   0.349   5.657
 5848TIP3   OH217500   4.234   0.040   4.731
 5848TIP3    H117501   4.248   0.040   4.634
 5848TIP3    H217502   4.138   0.057   4.732
 5849TIP3   OH217503   5.308   0.640   5.284
 5849TIP3    H117504   5.347   0.569   5.228
 5849TIP3    H217505   5.285   0.586   5.362
 5850TIP3   OH217506   4.396   0.137   4.962
 5850TIP3    H117507   4.302   0.167   4.954
 5850TIP3    H217508   4.398   0.082   4.882
 5851TIP3   OH217509   4.701   0.172   4.656
 5851TIP3    H117510   4.792   0.162   4.622
 5851TIP3    H217511   4.646   0.163   4.575
 5852TIP3   OH217512   4.537   0.155   4.428
 5852TIP3    H117513   4.465   0.136   4.365
 5852TIP3    H217514   4.598   0.203   4.368
 5853TIP3   OH217515   5.654   1.862   5.378
 5853TIP3    H117516   5.651   1.888   5.285
 5853TIP3    H217517   5.732   1.912   5.410
 5854TIP3   OH217518   4.608   0.970   5.798
 5854TIP3    H117519   4.689   1.001   5.845
 5854TIP3    H217520   4.543   0.975   5.871
 5855TIP3   OH217521   5.058   0.421   5.054
 5855TIP3    H117522   5.143   0.406   5.011
 5855TIP3    H217523   5.072   0.383   5.144
 5856TIP3   OH217524   5.057   0.336   5.326
 5856TIP3    H117525   4.970   0.363   5.360
 5856TIP3    H217526   5.118   0.386   5.384
 5857TIP3   OH217527   4.784   0.713   4.439
 5857TIP3    H117528   4.710   0.650   4.425
 5857TIP3    H217529   4.763   0.748   4.529
 5858TIP3   OH217530   5.683   0.950   5.064
 5858TIP3    H117531   5.708   1.002   4.984
 5858TIP3    H217532   5.598   0.909   5.036
 5859TIP3   OH217533   5.224   0.095   4.255
 5859TIP3    H117534   5.163   0.045   4.313
 5859TIP3    H217535   5.258   0.162   4.318
 5860TIP3   OH217536   5.177   1.030   5.437
 5860TIP3    H117537   5.217   1.022   5.524
 5860TIP3    H217538   5.144   1.121   5.437
 5861TIP3   OH217539   5.319   0.291   4.421
 5861TIP3    H117540   5.416   0.303   4.429
 5861TIP3    H217541   5.293   0.368   4.368
 5862TIP3   OH217542   4.478   0.734   5.114
 5862TIP3    H117543   4.514   0.708   5.027
 5862TIP3    H217544   4.524   0.674   5.174
 5863TIP3   OH217545   4.930   0.864   4.262
 5863TIP3    H117546   4.881   0.950   4.263
 5863TIP3    H217547   4.875   0.810   4.323
 5864TIP3   OH217548   4.360   0.647   5.726
 5864TIP3    H117549   4.372   0.635   5.822
 5864TIP3    H217550   4.283   0.592   5.708
 5865TIP3   OH217551   5.087   0.771   5.749
 5865TIP3    H117552   5.029   0.722   5.689
 5865TIP3    H217553   5.176   0.746   5.717
 5866TIP3   OH217554   5.341   1.285   5.336
 5866TIP3    H117555   5.245   1.291   5.347
 5866TIP3    H217556   5.372   1.341   5.410
 5867TIP3   OH217557   5.749   0.365   4.228
 5867TIP3    H117558   5.692   0.314   4.166
 5867TIP3    H217559   5.737   0.455   4.191
 5868TIP3   OH217560   5.972   1.223   5.319
 5868TIP3    H117561   5.874   1.219   5.310
 5868TIP3    H217562   5.999   1.193   5.229
 5869TIP3   OH217563   5.455   1.184   4.148
 5869TIP3    H117564   5.427   1.113   4.207
 5869TIP3    H217565   5.468   1.139   4.063
 5870TIP3   OH217566   5.449   0.816   4.983
 5870TIP3    H117567   5.355   0.791   4.995
 5870TIP3    H217568   5.483   0.737   4.935
 5871TIP3   OH217569   4.580   1.043   4.739
 5871TIP3    H117570   4.578   1.124   4.684
 5871TIP3    H217571   4.486   1.026   4.750
 5872TIP3   OH217572   4.142   0.344   4.446
 5872TIP3    H117573   4.185   0.430   4.464
 5872TIP3    H217574   4.065   0.350   4.506
 5873TIP3   OH217575   4.708   0.803   4.681
 5873TIP3    H117576   4.677   0.895   4.697
 5873TIP3    H217577   4.672   0.757   4.758
 5874TIP3   OH217578   4.849   1.383   5.205
 5874TIP3    H117579   4.889   1.457   5.155
 5874TIP3    H217580   4.926   1.349   5.253
 5875TIP3   OH217581   4.498   1.277   4.591
 5875TIP3    H117582   4.412   1.289   4.635
 5875TIP3    H217583   4.532   1.370   4.592
 5876TIP3   OH217584   5.230   1.016   5.169
 5876TIP3    H117585   5.221   1.014   5.266
 5876TIP3    H217586   5.314   0.970   5.157
 5877TIP3   OH217587   5.212   0.910   4.050
 5877TIP3    H117588   5.264   0.886   4.130
 5877TIP3    H217589   5.122   0.886   4.077
 5878TIP3   OH217590   5.482   1.548   5.213
 5878TIP3    H117591   5.399   1.497   5.204
 5878TIP3    H217592   5.469   1.615   5.142
 5879TIP3   OH217593   5.548   1.383   3.868
 5879TIP3    H117594   5.585   1.454   3.813
 5879TIP3    H217595   5.469   1.429   3.902
 5880TIP3   OH217596   5.373   0.845   4.266
 5880TIP3    H117597   5.363   0.778   4.337
 5880TIP3    H217598   5.470   0.841   4.252
 5881TIP3   OH217599   4.287   1.246   5.364
 5881TIP3    H117600   4.342   1.176   5.402
 5881TIP3    H217601   4.313   1.323   5.416
 5882TIP3   OH217602   4.576   0.891   4.048
 5882TIP3    H117603   4.588   0.798   4.023
 5882TIP3    H217604   4.555   0.883   4.143
 5883TIP3   OH217605   4.521   0.897   4.320
 5883TIP3    H117606   4.595   0.875   4.378
 5883TIP3    H217607   4.520   0.995   4.326
 5884TIP3   OH217608   4.255   0.591   4.527
 5884TIP3    H117609   4.188   0.637   4.582
 5884TIP3    H217610   4.267   0.658   4.456
 5885TIP3   OH217611   4.788   1.093   4.269
 5885TIP3    H117612   4.700   1.117   4.305
 5885TIP3    H217613   4.802   1.169   4.210
 5886TIP3   OH217614   4.986   0.148   4.649
 5886TIP3    H117615   5.035   0.232   4.633
 5886TIP3    H217616   5.012   0.130   4.739
 5887TIP3   OH217617   5.251   0.473   5.491
 5887TIP3    H117618   5.252   0.537   5.565
 5887TIP3    H217619   5.313   0.407   5.525
 5888TIP3   OH217620   4.533   1.167   4.339
 5888TIP3    H117621   4.502   1.237   4.276
 5888TIP3    H217622   4.516   1.211   4.425
 5889TIP3   OH217623   5.536   0.572   4.862
 5889TIP3    H117624   5.457   0.520   4.884
 5889TIP3    H217625   5.608   0.525   4.910
 5890TIP3   OH217626   4.248   0.792   4.331
 5890TIP3    H117627   4.311   0.866   4.338
 5890TIP3    H217628   4.294   0.739   4.262
 5891TIP3   OH217629   4.189   0.072   4.460
 5891TIP3    H117630   4.188   0.169   4.448
 5891TIP3    H217631   4.102   0.047   4.426
 5892TIP3   OH217632   5.505   1.527   4.808
 5892TIP3    H117633   5.461   1.574   4.733
 5892TIP3    H217634   5.599   1.546   4.786
 5893TIP3   OH217635   4.111   1.005   4.712
 5893TIP3    H117636   4.049   1.040   4.777
 5893TIP3    H217637   4.080   1.052   4.630
 5894TIP3   OH217638   4.278   1.560   5.789
 5894TIP3    H117639   4.364   1.562   5.836
 5894TIP3    H217640   4.258   1.465   5.787
 5895TIP3   OH217641   4.752   1.513   5.837
 5895TIP3    H117642   4.848   1.506   5.839
 5895TIP3    H217643   4.730   1.452   5.763
 5896TIP3   OH217644   4.738   1.094   3.957
 5896TIP3    H117645   4.683   1.022   3.995
 5896TIP3    H217646   4.814   1.043   3.924
 5897TIP3   OH217647   5.397   1.425   5.565
 5897TIP3    H117648   5.389   1.358   5.637
 5897TIP3    H217649   5.473   1.479   5.596
 5898TIP3   OH217650   5.173   1.133   3.873
 5898TIP3    H117651   5.219   1.071   3.932
 5898TIP3    H217652   5.228   1.131   3.792
 5899TIP3   OH217653   4.405   0.961   5.989
 5899TIP3    H117654   4.418   0.865   5.993
 5899TIP3    H217655   4.319   0.968   5.943
 5900TIP3   OH217656   4.385   0.609   4.184
 5900TIP3    H117657   4.443   0.583   4.257
 5900TIP3    H217658   4.450   0.615   4.111
 5901TIP3   OH217659   5.012   1.049   5.764
 5901TIP3    H117660   4.973   1.072   5.677
 5901TIP3    H217661   5.042   0.957   5.751
 5902TIP3   OH217662   4.901   0.813   3.992
 5902TIP3    H117663   4.900   0.825   4.089
 5902TIP3    H217664   4.901   0.715   3.986
 5903TIP3   OH217665   5.504   1.060   5.369
 5903TIP3    H117666   5.581   1.100   5.325
 5903TIP3    H217667   5.437   1.130   5.354
 5904TIP3   OH217668   4.532   0.692   5.974
 5904TIP3    H117669   4.618   0.656   5.947
 5904TIP3    H217670   4.554   0.731   6.061
 5905TIP3   OH217671   4.589   0.517   4.404
 5905TIP3    H117672   4.564   0.474   4.486
 5905TIP3    H217673   4.628   0.444   4.352
 5906TIP3   OH217674   4.854   0.605   5.622
 5906TIP3    H117675   4.774   0.661   5.618
 5906TIP3    H217676   4.906   0.637   5.545
 5907TIP3   OH217677   4.691   0.309   4.252
 5907TIP3    H117678   4.665   0.317   4.158
 5907TIP3    H217679   4.789   0.311   4.243
 5908TIP3   OH217680   5.378   0.984   5.766
 5908TIP3    H117681   5.452   0.952   5.713
 5908TIP3    H217682   5.371   0.915   5.835
 5909TIP3   OH217683   5.512   0.636   3.910
 5909TIP3    H117684   5.492   0.597   3.822
 5909TIP3    H217685   5.481   0.728   3.892
 5910TIP3   OH217686   4.949   0.394   5.755
 5910TIP3    H117687   4.901   0.338   5.693
 5910TIP3    H217688   4.924   0.482   5.718
 5911TIP3   OH217689   5.021   0.697   5.432
 5911TIP3    H117690   5.106   0.713   5.389
 5911TIP3    H217691   4.963   0.761   5.386
 5912TIP3   OH217692   5.585   0.660   5.797
 5912TIP3    H117693   5.620   0.606   5.871
 5912TIP3    H217694   5.662   0.714   5.773
 5913TIP3   OH217695   5.636   0.911   5.551
 5913TIP3    H117696   5.576   0.966   5.495
 5913TIP3    H217697   5.723   0.937   5.513
 5914TIP3   OH217698   4.823   0.512   5.986
 5914TIP3    H117699   4.787   0.430   6.021
 5914TIP3    H217700   4.888   0.481   5.921
 5915TIP3   OH217701   5.229   0.440   5.790
 5915TIP3    H117702   5.257   0.406   5.877
 5915TIP3    H217703   5.132   0.430   5.795
 5916TIP3   OH217704   4.502   1.368   4.151
 5916TIP3    H117705   4.597   1.364   4.130
 5916TIP3    H217706   4.471   1.422   4.075
 5917TIP3   OH217707   3.979   0.752   4.368
 5917TIP3    H117708   4.074   0.774   4.352
 5917TIP3    H217709   3.972   0.665   4.324
 5918TIP3   OH217710   3.897   1.365   4.781
 5918TIP3    H117711   3.831   1.306   4.739
 5918TIP3    H217712   3.941   1.304   4.843
 5919TIP3   OH217713   4.034   1.209   4.964
 5919TIP3    H117714   4.015   1.143   5.032
 5919TIP3    H217715   4.085   1.274   5.016
 5920TIP3   OH217716   5.760   1.613   4.769
 5920TIP3    H117717   5.786   1.649   4.856
 5920TIP3    H217718   5.822   1.657   4.709
 5921TIP3   OH217719   5.785   1.637   5.052
 5921TIP3    H117720   5.742   1.549   5.046
 5921TIP3    H217721   5.862   1.614   5.106
 5922TIP3   OH217722   5.835   1.311   5.626
 5922TIP3    H117723   5.761   1.323   5.689
 5922TIP3    H217724   5.876   1.399   5.626
 5923TIP3   OH217725   5.650   0.825   4.238
 5923TIP3    H117726   5.714   0.892   4.207
 5923TIP3    H217727   5.696   0.790   4.318
 5924TIP3   OH217728   5.776   0.698   4.443
 5924TIP3    H117729   5.710   0.661   4.505
 5924TIP3    H217730   5.842   0.738   4.504
 5925TIP3   OH217731   5.835   1.088   4.878
 5925TIP3    H117732   5.885   1.020   4.829
 5925TIP3    H217733   5.832   1.162   4.814
 5926TIP3   OH217734   5.661   1.385   5.073
 5926TIP3    H117735   5.589   1.430   5.122
 5926TIP3    H217736   5.612   1.342   5.000
 5927TIP3   OH217737   5.708   0.598   4.092
 5927TIP3    H117738   5.640   0.610   4.021
 5927TIP3    H217739   5.685   0.676   4.148
 5928TIP3   OH217740   5.575   0.256   4.028
 5928TIP3    H117741   5.567   0.343   3.990
 5928TIP3    H217742   5.517   0.204   3.970
 5929TIP3   OH217743   5.588   0.567   4.590
 5929TIP3    H117744   5.593   0.473   4.566
 5929TIP3    H217745   5.577   0.566   4.687
 5930TIP3   OH217746   4.218   0.617   5.343
 5930TIP3    H117747   4.212   0.590   5.249
 5930TIP3    H217748   4.315   0.620   5.354
 5931TIP3   OH217749   5.881   0.977   5.448
 5931TIP3    H117750   5.953   0.912   5.436
 5931TIP3    H217751   5.904   1.046   5.384
 5932TIP3   OH217752   6.059   0.775   5.463
 5932TIP3    H117753   5.987   0.721   5.502
 5932TIP3    H217754   6.135   0.716   5.481
 5933TIP3   OH217755   5.591   0.314   4.459
 5933TIP3    H117756   5.622   0.236   4.510
 5933TIP3    H217757   5.653   0.317   4.384
 5934TIP3   OH217758   5.744   0.445   4.990
 5934TIP3    H117759   5.829   0.467   4.946
 5934TIP3    H217760   5.761   0.482   5.078
 5935TIP3   OH217761   5.811   0.596   5.213
 5935TIP3    H117762   5.734   0.633   5.259
 5935TIP3    H217763   5.847   0.674   5.166
 5936TIP3   OH217764   4.431   0.305   6.017
 5936TIP3    H117765   4.523   0.282   6.003
 5936TIP3    H217766   4.394   0.221   6.050
 5937TIP3   OH217767   4.200   0.278   5.414
 5937TIP3    H117768   4.247   0.290   5.330
 5937TIP3    H217769   4.207   0.365   5.454
 5938TIP3   OH217770   5.343   1.483   4.425
 5938TIP3    H117771   5.393   1.474   4.341
 5938TIP3    H217772   5.394   1.552   4.470
 5939TIP3   OH217773   4.443   1.283   5.806
 5939TIP3    H117774   4.348   1.264   5.792
 5939TIP3    H217775   4.451   1.277   5.901
 5940TIP3   OH217776   4.623   1.323   5.355
 5940TIP3    H117777   4.574   1.398   5.316
 5940TIP3    H217778   4.709   1.338   5.310
 5941TIP3   OH217779   5.061   1.563   5.491
 5941TIP3    H117780   5.103   1.564   5.580
 5941TIP3    H217781   5.126   1.616   5.440
 5942TIP3   OH217782   5.242   1.718   5.355
 5942TIP3    H117783   5.314   1.670   5.312
 5942TIP3    H217784   5.293   1.775   5.417
 5943TIP3   OH217785   4.296   1.575   5.384
 5943TIP3    H117786   4.206   1.605   5.358
 5943TIP3    H217787   4.309   1.627   5.464
 5944TIP3   OH217788   4.532   1.555   5.239
 5944TIP3    H117789   4.445   1.568   5.282
 5944TIP3    H217790   4.514   1.588   5.149
 5945TIP3   OH217791   4.958   1.582   5.038
 5945TIP3    H117792   4.888   1.599   4.972
 5945TIP3    H217793   4.969   1.670   5.078
 5946TIP3   OH217794   5.228   1.520   5.089
 5946TIP3    H117795   5.134   1.540   5.070
 5946TIP3    H217796   5.272   1.593   5.045
 5947TIP3   OH217797   5.433   1.713   5.001
 5947TIP3    H117798   5.419   1.798   4.954
 5947TIP3    H217799   5.460   1.654   4.927
 5948TIP3   OH217800   4.207   1.370   5.122
 5948TIP3    H117801   4.233   1.343   5.213
 5948TIP3    H217802   4.280   1.328   5.072
 5949TIP3   OH217803   4.402   1.242   4.984
 5949TIP3    H117804   4.419   1.160   5.035
 5949TIP3    H217805   4.493   1.280   4.978
 5950TIP3   OH217806   4.668   1.335   4.989
 5950TIP3    H117807   4.701   1.245   4.976
 5950TIP3    H217808   4.716   1.359   5.070
 5951TIP3   OH217809   3.994   1.148   4.515
 5951TIP3    H117810   3.907   1.119   4.481
 5951TIP3    H217811   3.993   1.240   4.482
 5952TIP3   OH217812   4.770   1.327   4.099
 5952TIP3    H117813   4.857   1.351   4.062
 5952TIP3    H217814   4.747   1.254   4.037
 5953TIP3   OH217815   5.487   1.451   4.192
 5953TIP3    H117816   5.480   1.353   4.181
 5953TIP3    H217817   5.441   1.482   4.111
 5954TIP3   OH217818   4.068   1.162   4.150
 5954TIP3    H117819   4.066   1.199   4.240
 5954TIP3    H217820   4.159   1.125   4.143
 5955TIP3   OH217821   5.711   1.592   5.377
 5955TIP3    H117822   5.633   1.563   5.326
 5955TIP3    H217823   5.693   1.688   5.383
 5956TIP3   OH217824   6.977   0.964   4.144
 5956TIP3    H117825   6.950   1.056   4.122
 5956TIP3    H217826   6.902   0.916   4.105
 5957TIP3   OH217827   6.984   0.968   4.526
 5957TIP3    H117828   7.012   0.942   4.615
 5957TIP3    H217829   6.939   0.889   4.494
 5958TIP3   OH217830   6.275   0.862   4.892
 5958TIP3    H117831   6.308   0.791   4.949
 5958TIP3    H217832   6.357   0.910   4.874
 5959TIP3   OH217833   7.227   1.264   4.208
 5959TIP3    H117834   7.205   1.202   4.278
 5959TIP3    H217835   7.251   1.344   4.257
 5960TIP3   OH217836   6.252   1.271   4.614
 5960TIP3    H117837   6.244   1.173   4.615
 5960TIP3    H217838   6.348   1.281   4.602
 5961TIP3   OH217839   5.943   0.481   4.414
 5961TIP3    H117840   5.891   0.563   4.424
 5961TIP3    H217841   5.886   0.430   4.355
 5962TIP3   OH217842   6.008   0.771   4.572
 5962TIP3    H117843   6.050   0.688   4.601
 5962TIP3    H217844   6.075   0.807   4.512
 5963TIP3   OH217845   6.869   1.725   4.234
 5963TIP3    H117846   6.910   1.665   4.169
 5963TIP3    H217847   6.878   1.674   4.314
 5964TIP3   OH217848   6.776   1.193   4.575
 5964TIP3    H117849   6.815   1.118   4.527
 5964TIP3    H217850   6.858   1.239   4.600
 5965TIP3   OH217851   7.195   0.692   4.620
 5965TIP3    H117852   7.213   0.601   4.646
 5965TIP3    H217853   7.158   0.683   4.530
 5966TIP3   OH217854   6.509   0.313   4.546
 5966TIP3    H117855   6.489   0.401   4.507
 5966TIP3    H217856   6.431   0.262   4.520
 5967TIP3   OH217857   7.182   0.467   4.244
 5967TIP3    H117858   7.242   0.421   4.307
 5967TIP3    H217859   7.238   0.467   4.165
 5968TIP3   OH217860   6.136   0.552   4.668
 5968TIP3    H117861   6.228   0.557   4.703
 5968TIP3    H217862   6.152   0.491   4.593
 5969TIP3   OH217863   6.597   0.754   4.477
 5969TIP3    H117864   6.691   0.730   4.490
 5969TIP3    H217865   6.559   0.668   4.449
 5970TIP3   OH217866   7.822   0.703   4.769
 5970TIP3    H117867   7.748   0.759   4.738
 5970TIP3    H217868   7.886   0.766   4.801
 5971TIP3   OH217869   6.871   1.188   4.010
 5971TIP3    H117870   6.829   1.177   3.923
 5971TIP3    H217871   6.826   1.268   4.042
 5972TIP3   OH217872   6.632   1.112   4.797
 5972TIP3    H117873   6.572   1.180   4.833
 5972TIP3    H217874   6.673   1.159   4.721
 5973TIP3   OH217875   6.393   0.523   4.737
 5973TIP3    H117876   6.465   0.564   4.790
 5973TIP3    H217877   6.425   0.433   4.730
 5974TIP3   OH217878   6.462   1.309   4.898
 5974TIP3    H117879   6.436   1.395   4.859
 5974TIP3    H217880   6.382   1.291   4.951
 5975TIP3   OH217881   5.849   0.997   4.132
 5975TIP3    H117882   5.812   1.025   4.046
 5975TIP3    H217883   5.882   1.082   4.168
 5976TIP3   OH217884   7.295   1.518   4.373
 5976TIP3    H117885   7.206   1.506   4.414
 5976TIP3    H217886   7.280   1.599   4.321
 5977TIP3   OH217887   6.988   1.542   4.053
 5977TIP3    H117888   7.046   1.470   4.020
 5977TIP3    H217889   7.045   1.620   4.031
 5978TIP3   OH217890   7.142   1.334   3.953
 5978TIP3    H117891   7.086   1.260   3.926
 5978TIP3    H217892   7.178   1.301   4.038
 5979TIP3   OH217893   7.521   1.423   4.717
 5979TIP3    H117894   7.505   1.346   4.658
 5979TIP3    H217895   7.499   1.498   4.658
 5980TIP3   OH217896   6.810   0.823   3.973
 5980TIP3    H117897   6.729   0.875   3.956
 5980TIP3    H217898   6.851   0.820   3.885
 5981TIP3   OH217899   6.767   0.601   3.691
 5981TIP3    H117900   6.837   0.653   3.733
 5981TIP3    H217901   6.820   0.535   3.643
 5982TIP3   OH217902   7.706   1.059   4.558
 5982TIP3    H117903   7.625   1.113   4.562
 5982TIP3    H217904   7.742   1.087   4.471
 5983TIP3   OH217905   7.156   0.901   3.945
 5983TIP3    H117906   7.101   0.924   4.023
 5983TIP3    H217907   7.242   0.882   3.989
 5984TIP3   OH217908   7.388   0.941   4.865
 5984TIP3    H117909   7.383   1.024   4.916
 5984TIP3    H217910   7.301   0.943   4.820
 5985TIP3   OH217911   6.388   0.897   4.365
 5985TIP3    H117912   6.349   0.839   4.297
 5985TIP3    H217913   6.465   0.845   4.395
 5986TIP3   OH217914   6.516   1.305   4.513
 5986TIP3    H117915   6.498   1.278   4.421
 5986TIP3    H217916   6.606   1.269   4.528
 5987TIP3   OH217917   6.525   0.866   4.726
 5987TIP3    H117918   6.554   0.838   4.636
 5987TIP3    H217919   6.570   0.953   4.737
 5988TIP3   OH217920   7.056   1.507   4.497
 5988TIP3    H117921   7.039   1.588   4.550
 5988TIP3    H217922   7.036   1.435   4.560
 5989TIP3   OH217923   6.666   1.425   5.044
 5989TIP3    H117924   6.603   1.487   5.088
 5989TIP3    H217925   6.602   1.372   4.991
 5990TIP3   OH217926   6.998   0.756   3.771
 5990TIP3    H117927   7.053   0.820   3.820
 5990TIP3    H217928   7.025   0.775   3.678
 5991TIP3   OH217929   6.413   0.989   5.144
 5991TIP3    H117930   6.417   1.075   5.189
 5991TIP3    H217931   6.319   0.966   5.155
 5992TIP3   OH217932   6.739   1.434   4.055
 5992TIP3    H117933   6.825   1.480   4.058
 5992TIP3    H217934   6.686   1.495   4.003
 5993TIP3   OH217935   6.459   1.591   5.129
 5993TIP3    H117936   6.424   1.596   5.038
 5993TIP3    H217937   6.378   1.569   5.181
 5994TIP3   OH217938   6.256   0.740   4.168
 5994TIP3    H117939   6.190   0.788   4.113
 5994TIP3    H217940   6.214   0.653   4.175
 5995TIP3   OH217941   7.304   1.367   3.364
 5995TIP3    H117942   7.314   1.464   3.354
 5995TIP3    H217943   7.397   1.337   3.358
 5996TIP3   OH217944   6.036   1.126   5.076
 5996TIP3    H117945   5.970   1.107   5.006
 5996TIP3    H217946   6.075   1.038   5.093
 5997TIP3   OH217947   5.892   1.316   4.711
 5997TIP3    H117948   5.988   1.313   4.698
 5997TIP3    H217949   5.882   1.397   4.763
 5998TIP3   OH217950   7.760   1.776   4.768
 5998TIP3    H117951   7.759   1.679   4.779
 5998TIP3    H217952   7.675   1.799   4.811
 5999TIP3   OH217953   6.863   1.552   4.901
 5999TIP3    H117954   6.858   1.646   4.932
 5999TIP3    H217955   6.789   1.513   4.954
 6000TIP3   OH217956   6.625   1.676   3.853
 6000TIP3    H117957   6.582   1.661   3.767
 6000TIP3    H217958   6.595   1.766   3.876
 6001TIP3   OH217959   6.060   1.532   4.238
 6001TIP3    H117960   6.108   1.523   4.322
 6001TIP3    H217961   6.008   1.450   4.237
 6002TIP3   OH217962   6.822   1.588   3.488
 6002TIP3    H117963   6.882   1.518   3.455
 6002TIP3    H217964   6.855   1.600   3.580
 6003TIP3   OH217965   6.879   1.633   3.758
 6003TIP3    H117966   6.792   1.639   3.803
 6003TIP3    H217967   6.940   1.629   3.833
 6004TIP3   OH217968   7.640   0.883   5.043
 6004TIP3    H117969   7.563   0.917   4.995
 6004TIP3    H217970   7.628   0.787   5.030
 6005TIP3   OH217971   6.241   1.308   5.060
 6005TIP3    H117972   6.290   1.292   5.143
 6005TIP3    H217973   6.167   1.245   5.068
 6006TIP3   OH217974   7.424   0.685   4.986
 6006TIP3    H117975   7.385   0.713   5.068
 6006TIP3    H217976   7.401   0.758   4.925
 6007TIP3   OH217977   7.077   0.792   3.516
 6007TIP3    H117978   7.038   0.775   3.428
 6007TIP3    H217979   7.152   0.850   3.492
 6008TIP3   OH217980   6.593   0.653   4.885
 6008TIP3    H117981   6.531   0.672   4.957
 6008TIP3    H217982   6.579   0.731   4.827
 6009TIP3   OH217983   6.458   0.532   4.390
 6009TIP3    H117984   6.362   0.517   4.398
 6009TIP3    H217985   6.473   0.503   4.297
 6010TIP3   OH217986   6.941   0.624   4.109
 6010TIP3    H117987   6.894   0.696   4.062
 6010TIP3    H217988   7.007   0.596   4.043
 6011TIP3   OH217989   7.131   0.926   5.181
 6011TIP3    H117990   7.106   0.845   5.231
 6011TIP3    H217991   7.226   0.932   5.204
 6012TIP3   OH217992   7.083   0.689   4.368
 6012TIP3    H117993   7.029   0.735   4.302
 6012TIP3    H217994   7.106   0.608   4.317
 6013TIP3   OH217995   6.393   0.681   5.075
 6013TIP3    H117996   6.414   0.745   5.145
 6013TIP3    H217997   6.378   0.599   5.125
 6014TIP3   OH217998   6.027   0.293   4.215
 6014TIP3    H117999   6.043   0.297   4.118
 6014TIP3    H218000   5.931   0.312   4.215
 6015TIP3   OH218001   7.111   0.897   4.771
 6015TIP3    H118002   7.149   0.826   4.714
 6015TIP3    H218003   7.086   0.842   4.848
 6016TIP3   OH218004   6.202   0.409   4.430
 6016TIP3    H118005   6.110   0.443   4.419
 6016TIP3    H218006   6.197   0.333   4.371
 6017TIP3   OH218007   6.497   0.430   4.140
 6017TIP3    H118008   6.588   0.417   4.108
 6017TIP3    H218009   6.443   0.419   4.059
 6018TIP3   OH218010   6.332   0.411   3.913
 6018TIP3    H118011   6.260   0.394   3.850
 6018TIP3    H218012   6.393   0.460   3.854
 6019TIP3   OH218013   7.450   2.119   4.864
 6019TIP3    H118014   7.445   2.142   4.770
 6019TIP3    H218015   7.528   2.170   4.893
 6020TIP3   OH218016   6.403   1.231   5.285
 6020TIP3    H118017   6.484   1.260   5.332
 6020TIP3    H218018   6.339   1.232   5.359
 6021TIP3   OH218019   6.853   0.683   4.540
 6021TIP3    H118020   6.939   0.660   4.502
 6021TIP3    H218021   6.860   0.649   4.632
 6022TIP3   OH218022   6.866   0.614   4.802
 6022TIP3    H118023   6.776   0.608   4.840
 6022TIP3    H218024   6.916   0.658   4.873
 6023TIP3   OH218025   6.579   0.969   3.926
 6023TIP3    H118026   6.504   0.906   3.912
 6023TIP3    H218027   6.558   1.004   4.016
 6024TIP3   OH218028   7.476   1.207   4.552
 6024TIP3    H118029   7.499   1.258   4.472
 6024TIP3    H218030   7.392   1.164   4.526
 6025TIP3   OH218031   7.013   0.354   3.744
 6025TIP3    H118032   6.956   0.303   3.806
 6025TIP3    H218033   7.051   0.419   3.806
 6026TIP3   OH218034   6.980   1.291   4.921
 6026TIP3    H118035   7.006   1.272   5.011
 6026TIP3    H218036   6.941   1.380   4.927
 6027TIP3   OH218037   7.116   0.547   3.908
 6027TIP3    H118038   7.213   0.559   3.915
 6027TIP3    H218039   7.090   0.625   3.855
 6028TIP3   OH218040   6.273   0.991   4.598
 6028TIP3    H118041   6.310   0.965   4.511
 6028TIP3    H218042   6.320   0.932   4.658
 6029TIP3   OH218043   6.728   1.120   3.753
 6029TIP3    H118044   6.680   1.206   3.755
 6029TIP3    H218045   6.672   1.066   3.812
 6030TIP3   OH218046   6.155   0.912   5.215
 6030TIP3    H118047   6.173   0.897   5.309
 6030TIP3    H218048   6.082   0.850   5.196
 6031TIP3   OH218049   6.880   1.032   5.236
 6031TIP3    H118050   6.818   0.978   5.184
 6031TIP3    H218051   6.967   1.002   5.201
 6032TIP3   OH218052   7.140   1.548   4.821
 6032TIP3    H118053   7.043   1.546   4.832
 6032TIP3    H218054   7.166   1.602   4.898
 6033TIP3   OH218055   7.548   0.619   3.712
 6033TIP3    H118056   7.487   0.571   3.651
 6033TIP3    H218057   7.535   0.710   3.679
 6034TIP3   OH218058   7.772   1.487   4.802
 6034TIP3    H118059   7.674   1.476   4.792
 6034TIP3    H218060   7.801   1.456   4.713
 6035TIP3   OH218061   7.256   1.434   3.641
 6035TIP3    H118062   7.212   1.377   3.705
 6035TIP3    H218063   7.252   1.383   3.558
 6036TIP3   OH218064   7.245   1.071   4.470
 6036TIP3    H118065   7.152   1.046   4.483
 6036TIP3    H218066   7.279   0.993   4.423
 6037TIP3   OH218067   6.378   1.300   4.230
 6037TIP3    H118068   6.379   1.379   4.172
 6037TIP3    H218069   6.284   1.280   4.232
 6038TIP3   OH218070   5.937   0.602   3.931
 6038TIP3    H118071   5.983   0.686   3.949
 6038TIP3    H218072   5.861   0.608   3.993
 6039TIP3   OH218073   6.506   1.060   4.168
 6039TIP3    H118074   6.476   1.151   4.186
 6039TIP3    H218075   6.470   1.012   4.244
 6040TIP3   OH218076   6.644   1.640   4.693
 6040TIP3    H118077   6.684   1.713   4.641
 6040TIP3    H218078   6.722   1.603   4.737
 6041TIP3   OH218079   6.293   1.537   4.077
 6041TIP3    H118080   6.207   1.548   4.123
 6041TIP3    H218081   6.326   1.629   4.079
 6042TIP3   OH218082   7.028   1.273   4.653
 6042TIP3    H118083   7.018   1.272   4.751
 6042TIP3    H218084   7.107   1.220   4.641
 6043TIP3   OH218085   7.009   1.169   3.532
 6043TIP3    H118086   7.056   1.142   3.614
 6043TIP3    H218087   6.918   1.143   3.554
 6044TIP3   OH218088   7.279   1.807   4.701
 6044TIP3    H118089   7.198   1.753   4.694
 6044TIP3    H218090   7.265   1.872   4.628
 6045TIP3   OH218091   7.345   1.641   3.343
 6045TIP3    H118092   7.372   1.724   3.301
 6045TIP3    H218093   7.269   1.676   3.395
 6046TIP3   OH218094   7.167   1.093   3.745
 6046TIP3    H118095   7.157   1.032   3.821
 6046TIP3    H218096   7.264   1.097   3.736
 6047TIP3   OH218097   6.081   1.502   4.851
 6047TIP3    H118098   6.137   1.430   4.885
 6047TIP3    H218099   6.110   1.576   4.906
 6048TIP3   OH218100   6.371   1.156   3.542
 6048TIP3    H118101   6.372   1.069   3.498
 6048TIP3    H218102   6.347   1.132   3.633
 6049TIP3   OH218103   6.313   1.152   3.817
 6049TIP3    H118104   6.394   1.133   3.866
 6049TIP3    H218105   6.314   1.250   3.815
 6050TIP3   OH218106   6.049   0.845   4.013
 6050TIP3    H118107   5.983   0.893   4.067
 6050TIP3    H218108   6.065   0.912   3.943
 6051TIP3   OH218109   6.584   1.345   3.762
 6051TIP3    H118110   6.497   1.377   3.794
 6051TIP3    H218111   6.596   1.404   3.686
 6052TIP3   OH218112   6.783   0.404   4.130
 6052TIP3    H118113   6.835   0.487   4.125
 6052TIP3    H218114   6.795   0.381   4.223
 6053TIP3   OH218115   7.055   0.735   4.981
 6053TIP3    H118116   7.050   0.797   5.056
 6053TIP3    H218117   7.101   0.661   5.022
 6054TIP3   OH218118   6.328   1.424   3.824
 6054TIP3    H118119   6.298   1.493   3.761
 6054TIP3    H218120   6.313   1.469   3.910
 6055TIP3   OH218121   7.333   0.829   4.348
 6055TIP3    H118122   7.252   0.778   4.368
 6055TIP3    H218123   7.402   0.780   4.397
 6056TIP3   OH218124   6.044   1.050   3.818
 6056TIP3    H118125   6.114   1.118   3.826
 6056TIP3    H218126   6.086   0.995   3.748
 6057TIP3   OH218127   5.985   0.332   3.945
 6057TIP3    H118128   5.986   0.429   3.932
 6057TIP3    H218129   5.897   0.308   3.915
 6058TIP3   OH218130   7.286   1.790   4.276
 6058TIP3    H118131   7.241   1.792   4.189
 6058TIP3    H218132   7.378   1.815   4.252
 6059TIP3   OH218133   5.911   1.265   4.200
 6059TIP3    H118134   5.845   1.299   4.262
 6059TIP3    H218135   5.882   1.309   4.117
 6060TIP3   OH218136   6.074   1.817   5.275
 6060TIP3    H118137   6.160   1.817   5.321
 6060TIP3    H218138   6.054   1.722   5.273
 6061TIP3   OH218139   6.551   1.771   5.322
 6061TIP3    H118140   6.646   1.753   5.324
 6061TIP3    H218141   6.523   1.711   5.249
 6062TIP3   OH218142   6.547   1.347   3.460
 6062TIP3    H118143   6.485   1.278   3.491
 6062TIP3    H218144   6.609   1.295   3.406
 6063TIP3   OH218145   7.190   1.685   5.056
 6063TIP3    H118146   7.183   1.614   5.124
 6063TIP3    H218147   7.267   1.736   5.085
 6064TIP3   OH218148   6.973   1.391   3.362
 6064TIP3    H118149   7.010   1.325   3.424
 6064TIP3    H218150   7.034   1.386   3.286
 6065TIP3   OH218151   6.201   1.218   5.476
 6065TIP3    H118152   6.216   1.121   5.480
 6065TIP3    H218153   6.115   1.222   5.429
 6066TIP3   OH218154   6.179   0.865   3.672
 6066TIP3    H118155   6.241   0.841   3.743
 6066TIP3    H218156   6.240   0.870   3.595
 6067TIP3   OH218157   6.808   1.306   5.250
 6067TIP3    H118158   6.767   1.326   5.163
 6067TIP3    H218159   6.837   1.213   5.239
 6068TIP3   OH218160   6.709   1.071   3.480
 6068TIP3    H118161   6.701   1.083   3.577
 6068TIP3    H218162   6.700   0.974   3.474
 6069TIP3   OH218163   7.302   1.317   4.858
 6069TIP3    H118164   7.378   1.359   4.813
 6069TIP3    H218165   7.232   1.382   4.842
 6070TIP3   OH218166   6.326   0.950   5.460
 6070TIP3    H118167   6.410   0.912   5.432
 6070TIP3    H218168   6.350   0.987   5.548
 6071TIP3   OH218169   6.383   0.774   3.890
 6071TIP3    H118170   6.362   0.734   3.975
 6071TIP3    H218171   6.423   0.699   3.840
 6072TIP3   OH218172   6.657   0.869   5.119
 6072TIP3    H118173   6.573   0.919   5.112
 6072TIP3    H218174   6.704   0.895   5.036
 6073TIP3   OH218175   6.488   0.565   3.739
 6073TIP3    H118176   6.462   0.573   3.645
 6073TIP3    H218177   6.585   0.568   3.730
 6074TIP3   OH218178   7.179   1.242   5.254
 6074TIP3    H118179   7.246   1.203   5.197
 6074TIP3    H218180   7.164   1.171   5.319
 6075TIP3   OH218181   7.312   0.894   3.394
 6075TIP3    H118182   7.289   0.853   3.308
 6075TIP3    H218183   7.277   0.985   3.377
 6076TIP3   OH218184   6.743   0.646   5.239
 6076TIP3    H118185   6.694   0.587   5.178
 6076TIP3    H218186   6.718   0.733   5.200
 6077TIP3   OH218187   6.819   0.955   4.922
 6077TIP3    H118188   6.901   0.964   4.871
 6077TIP3    H218189   6.759   1.018   4.875
 6078TIP3   OH218190   7.382   0.917   5.285
 6078TIP3    H118191   7.416   0.861   5.359
 6078TIP3    H218192   7.461   0.966   5.258
 6079TIP3   OH218193   7.434   1.170   5.042
 6079TIP3    H118194   7.374   1.224   4.984
 6079TIP3    H218195   7.520   1.194   5.002
 6080TIP3   OH218196   6.622   0.769   5.471
 6080TIP3    H118197   6.584   0.689   5.507
 6080TIP3    H218198   6.683   0.735   5.403
 6081TIP3   OH218199   7.022   0.700   5.275
 6081TIP3    H118200   7.047   0.666   5.363
 6081TIP3    H218201   6.926   0.686   5.276
 6082TIP3   OH218202   6.298   1.631   3.639
 6082TIP3    H118203   6.393   1.620   3.620
 6082TIP3    H218204   6.271   1.679   3.559
 6083TIP3   OH218205   5.776   1.010   3.854
 6083TIP3    H118206   5.870   1.033   3.838
 6083TIP3    H218207   5.770   0.922   3.811
 6084TIP3   OH218208   5.692   1.623   4.269
 6084TIP3    H118209   5.627   1.562   4.228
 6084TIP3    H218210   5.737   1.563   4.332
 6085TIP3   OH218211   5.827   1.468   4.454
 6085TIP3    H118212   5.814   1.399   4.520
 6085TIP3    H218213   5.880   1.532   4.505
 6086TIP3   OH218214   7.552   1.867   4.254
 6086TIP3    H118215   7.580   1.903   4.340
 6086TIP3    H218216   7.617   1.905   4.193
 6087TIP3   OH218217   7.582   1.895   4.539
 6087TIP3    H118218   7.534   1.810   4.531
 6087TIP3    H218219   7.659   1.866   4.589
 6088TIP3   OH218220   7.631   1.568   5.113
 6088TIP3    H118221   7.557   1.579   5.176
 6088TIP3    H218222   7.670   1.658   5.113
 6089TIP3   OH218223   7.447   1.083   3.724
 6089TIP3    H118224   7.511   1.152   3.697
 6089TIP3    H218225   7.488   1.050   3.806
 6090TIP3   OH218226   7.567   0.966   3.937
 6090TIP3    H118227   7.496   0.919   3.988
 6090TIP3    H218228   7.620   1.004   4.009
 6091TIP3   OH218229   7.632   1.343   4.368
 6091TIP3    H118230   7.674   1.280   4.308
 6091TIP3    H218231   7.626   1.423   4.312
 6092TIP3   OH218232   7.457   1.644   4.560
 6092TIP3    H118233   7.385   1.687   4.609
 6092TIP3    H218234   7.409   1.600   4.487
 6093TIP3   OH218235   7.504   0.856   3.580
 6093TIP3    H118236   7.435   0.864   3.509
 6093TIP3    H218237   7.479   0.934   3.634
 6094TIP3   OH218238   7.375   0.519   3.520
 6094TIP3    H118239   7.351   0.597   3.470
 6094TIP3    H218240   7.327   0.450   3.471
 6095TIP3   OH218241   7.386   0.822   4.076
 6095TIP3    H118242   7.388   0.728   4.049
 6095TIP3    H218243   7.373   0.819   4.173
 6096TIP3   OH218244   6.011   0.878   4.828
 6096TIP3    H118245   6.008   0.850   4.734
 6096TIP3    H218246   6.108   0.881   4.843
 6097TIP3   OH218247   7.679   1.234   4.935
 6097TIP3    H118248   7.751   1.167   4.925
 6097TIP3    H218249   7.702   1.299   4.866
 6098TIP3   OH218250   7.854   1.029   4.958
 6098TIP3    H118251   7.780   0.975   4.992
 6098TIP3    H218252   7.929   0.967   4.973
 6099TIP3   OH218253   7.389   0.573   3.944
 6099TIP3    H118254   7.415   0.495   3.997
 6099TIP3    H218255   7.452   0.572   3.870
 6100TIP3   OH218256   7.542   0.704   4.475
 6100TIP3    H118257   7.626   0.728   4.430
 6100TIP3    H218258   7.560   0.738   4.564
 6101TIP3   OH218259   7.605   0.852   4.703
 6101TIP3    H118260   7.526   0.887   4.749
 6101TIP3    H218261   7.637   0.930   4.653
 6102TIP3   OH218262   6.227   0.562   5.502
 6102TIP3    H118263   6.317   0.539   5.480
 6102TIP3    H218264   6.193   0.478   5.538
 6103TIP3   OH218265   5.989   0.532   4.902
 6103TIP3    H118266   6.034   0.534   4.816
 6103TIP3    H218267   6.017   0.615   4.941
 6104TIP3   OH218268   6.239   1.545   5.294
 6104TIP3    H118269   6.145   1.521   5.277
 6104TIP3    H218270   6.247   1.529   5.389
 6105TIP3   OH218271   6.419   1.581   4.843
 6105TIP3    H118272   6.371   1.657   4.804
 6105TIP3    H218273   6.505   1.594   4.798
 6106TIP3   OH218274   6.858   1.820   4.981
 6106TIP3    H118275   6.901   1.821   5.069
 6106TIP3    H218276   6.922   1.872   4.929
 6107TIP3   OH218277   7.036   1.975   4.843
 6107TIP3    H118278   7.104   1.926   4.795
 6107TIP3    H218279   7.091   2.031   4.902
 6108TIP3   OH218280   6.091   1.833   4.869
 6108TIP3    H118281   6.001   1.865   4.845
 6108TIP3    H218282   6.104   1.879   4.952
 6109TIP3   OH218283   6.329   1.813   4.727
 6109TIP3    H118284   6.241   1.826   4.769
 6109TIP3    H218285   6.312   1.844   4.636
 6110TIP3   OH218286   6.753   1.837   4.529
 6110TIP3    H118287   6.691   1.851   4.455
 6110TIP3    H218288   6.763   1.927   4.564
 6111TIP3   OH218289   7.023   1.779   4.579
 6111TIP3    H118290   6.929   1.795   4.559
 6111TIP3    H218291   7.066   1.846   4.524
 6112TIP3   OH218292   7.235   1.970   4.485
 6112TIP3    H118293   7.214   2.054   4.439
 6112TIP3    H218294   7.253   1.911   4.408
 6113TIP3   OH218295   6.003   1.626   4.610
 6113TIP3    H118296   6.030   1.599   4.701
 6113TIP3    H218297   6.075   1.583   4.559
 6114TIP3   OH218298   6.198   1.499   4.471
 6114TIP3    H118299   6.215   1.415   4.520
 6114TIP3    H218300   6.289   1.536   4.465
 6115TIP3   OH218301   6.464   1.593   4.476
 6115TIP3    H118302   6.497   1.503   4.458
 6115TIP3    H218303   6.513   1.613   4.557
 6116TIP3   OH218304   5.790   1.404   4.003
 6116TIP3    H118305   5.704   1.372   3.969
 6116TIP3    H218306   5.783   1.497   3.974
 6117TIP3   OH218307   6.563   1.590   3.584
 6117TIP3    H118308   6.652   1.611   3.549
 6117TIP3    H218309   6.543   1.513   3.525
 6118TIP3   OH218310   7.333   1.702   3.639
 6118TIP3    H118311   7.306   1.610   3.660
 6118TIP3    H218312   7.250   1.738   3.603
 6119TIP3   OH218313   5.867   1.417   3.638
 6119TIP3    H118314   5.877   1.445   3.730
 6119TIP3    H218315   5.955   1.377   3.619
 6120TIP3   OH218316   7.509   1.849   4.864
 6120TIP3    H118317   7.432   1.818   4.813
 6120TIP3    H218318   7.488   1.944   4.870
 6121TIP3   OH218319   8.029   1.503   4.147
 6121TIP3    H118320   7.989   1.440   4.086
 6121TIP3    H218321   8.120   1.509   4.112
 6122TIP3   OH218322   7.755   0.764   3.920
 6122TIP3    H118323   7.679   0.822   3.905
 6122TIP3    H218324   7.734   0.689   3.863
 6123TIP3   OH218325   7.833   1.013   4.059
 6123TIP3    H118326   7.835   0.919   4.037
 6123TIP3    H218327   7.865   1.052   3.977
 6124TIP3   OH218328   7.650   1.250   3.617
 6124TIP3    H118329   7.597   1.282   3.542
 6124TIP3    H218330   7.674   1.336   3.658
 6125TIP3   OH218331   8.216   1.879   4.584
 6125TIP3    H118332   8.179   1.884   4.497
 6125TIP3    H218333   8.139   1.875   4.642
 6126TIP3   OH218334   7.840   1.390   4.556
 6126TIP3    H118335   7.766   1.364   4.497
 6126TIP3    H218336   7.871   1.304   4.593
 6127TIP3   OH218337   7.691   1.571   4.205
 6127TIP3    H118338   7.786   1.585   4.198
 6127TIP3    H218339   7.664   1.653   4.250
 6128TIP3   OH218340   7.825   1.781   3.718
 6128TIP3    H118341   7.908   1.786   3.768
 6128TIP3    H218342   7.771   1.729   3.779
 6129TIP3   OH218343   8.044   1.570   4.536
 6129TIP3    H118344   8.094   1.537   4.613
 6129TIP3    H218345   7.967   1.511   4.538
 6130TIP3   OH218346   7.816   0.547   3.688
 6130TIP3    H118347   7.829   0.554   3.592
 6130TIP3    H218348   7.720   0.562   3.695
 6131TIP3   OH218349   8.185   1.469   4.749
 6131TIP3    H118350   8.257   1.530   4.772
 6131TIP3    H218351   8.138   1.461   4.833
 6132TIP3   OH218352   7.929   1.180   4.704
 6132TIP3    H118353   7.974   1.169   4.790
 6132TIP3    H218354   7.873   1.101   4.699
 6133TIP3   OH218355   7.727   0.848   3.420
 6133TIP3    H118356   7.774   0.932   3.440
 6133TIP3    H218357   7.651   0.856   3.482
 6134TIP3   OH218358   7.877   1.759   4.338
 6134TIP3    H118359   7.933   1.689   4.376
 6134TIP3    H218360   7.908   1.837   4.385
 6135TIP3   OH218361   7.827   1.093   3.483
 6135TIP3    H118362   7.767   1.136   3.547
 6135TIP3    H218363   7.833   1.162   3.414
 6136TIP3   OH218364   7.831   1.294   3.290
 6136TIP3    H118365   7.895   1.358   3.325
 6136TIP3    H218366   7.870   1.269   3.206
 6137TIP3   OH218367   7.792   0.585   3.404
 6137TIP3    H118368   7.775   0.682   3.411
 6137TIP3    H218369   7.703   0.548   3.406
 6138TIP3   OH218370   7.687   1.505   3.689
 6138TIP3    H118371   7.633   1.552   3.753
 6138TIP3    H218372   7.677   1.563   3.610
 6139TIP3   OH218373   7.867   2.067   4.762
 6139TIP3    H118374   7.954   2.058   4.804
 6139TIP3    H218375   7.837   1.975   4.760
 6140TIP3   OH218376   7.994   1.473   4.967
 6140TIP3    H118377   8.012   1.377   4.967
 6140TIP3    H218378   7.911   1.478   4.915
 6141TIP3   OH218379   8.107   1.215   4.946
 6141TIP3    H118380   8.176   1.152   4.923
 6141TIP3    H218381   8.137   1.246   5.034
 6142TIP3   OH218382   7.559   1.264   3.331
 6142TIP3    H118383   7.655   1.280   3.322
 6142TIP3    H218384   7.552   1.172   3.298
 6143TIP3   OH218385   7.492   1.891   3.759
 6143TIP3    H118386   7.427   1.833   3.713
 6143TIP3    H218387   7.528   1.827   3.823
 6144TIP3   OH218388   7.636   1.720   3.929
 6144TIP3    H118389   7.595   1.662   3.995
 6144TIP3    H218390   7.682   1.784   3.987
 6145TIP3   OH218391   7.821   1.127   4.312
 6145TIP3    H118392   7.815   1.086   4.223
 6145TIP3    H218393   7.911   1.161   4.311
 6146TIP3   OH218394   8.025   0.819   4.991
 6146TIP3    H118395   8.119   0.796   4.988
 6146TIP3    H218396   7.987   0.734   5.022
 6147TIP3   OH218397   7.788   0.787   4.376
 6147TIP3    H118398   7.857   0.769   4.312
 6147TIP3    H218399   7.812   0.873   4.411
 6148TIP3   OH218400   8.039   1.800   4.790
 6148TIP3    H118401   7.951   1.772   4.760
 6148TIP3    H218402   8.036   1.774   4.882
 6149TIP3   OH218403   7.881   2.080   4.360
 6149TIP3    H118404   7.795   2.117   4.331
 6149TIP3    H218405   7.895   2.133   4.439
 6150TIP3   OH218406   8.141   2.069   4.229
 6150TIP3    H118407   8.049   2.073   4.262
 6150TIP3    H218408   8.129   2.103   4.138
 6151TIP3   OH218409   7.792   1.887   4.100
 6151TIP3    H118410   7.823   1.864   4.190
 6151TIP3    H218411   7.865   1.846   4.048
 6152TIP3   OH218412   7.980   1.753   3.957
 6152TIP3    H118413   7.988   1.659   3.981
 6152TIP3    H218414   8.072   1.771   3.927
 6153TIP3   OH218415   7.600   1.648   3.468
 6153TIP3    H118416   7.507   1.623   3.452
 6153TIP3    H218417   7.588   1.743   3.486
 6154TIP3   OH218418   7.672   1.697   3.152
 6154TIP3    H118419   7.624   1.736   3.227
 6154TIP3    H218420   7.713   1.621   3.194
 6155TIP3   OH218421   1.227   2.020   5.346
 6155TIP3    H118422   1.197   2.107   5.311
 6155TIP3    H218423   1.160   1.963   5.305
 6156TIP3   OH218424   0.530   1.911   6.067
 6156TIP3    H118425   0.566   1.843   6.127
 6156TIP3    H218426   0.612   1.955   6.040
 6157TIP3   OH218427   1.464   2.324   5.382
 6157TIP3    H118428   1.521   2.255   5.413
 6157TIP3    H218429   1.493   2.402   5.433
 6158TIP3   OH218430   0.499   2.319   5.794
 6158TIP3    H118431   0.494   2.221   5.793
 6158TIP3    H218432   0.595   2.331   5.784
 6159TIP3   OH218433   0.271   1.825   5.768
 6159TIP3    H118434   0.326   1.752   5.803
 6159TIP3    H218435   0.298   1.827   5.675
 6160TIP3   OH218436   1.123   2.777   5.402
 6160TIP3    H118437   1.165   2.706   5.350
 6160TIP3    H218438   1.111   2.736   5.487
 6161TIP3   OH218439   1.013   2.251   5.751
 6161TIP3    H118440   1.021   2.186   5.681
 6161TIP3    H218441   1.106   2.273   5.768
 6162TIP3   OH218442   2.045   1.556   5.746
 6162TIP3    H118443   2.074   1.640   5.786
 6162TIP3    H218444   2.072   1.568   5.653
 6163TIP3   OH218445   1.435   1.743   5.760
 6163TIP3    H118446   1.481   1.668   5.803
 6163TIP3    H218447   1.404   1.697   5.679
 6164TIP3   OH218448   0.794   1.416   5.736
 6164TIP3    H118449   0.770   1.484   5.669
 6164TIP3    H218450   0.766   1.336   5.686
 6165TIP3   OH218451   1.474   1.495   5.364
 6165TIP3    H118452   1.543   1.474   5.431
 6165TIP3    H218453   1.530   1.522   5.290
 6166TIP3   OH218454   0.419   1.616   5.868
 6166TIP3    H118455   0.500   1.578   5.908
 6166TIP3    H218456   0.400   1.552   5.798
 6167TIP3   OH218457   0.854   1.802   5.655
 6167TIP3    H118458   0.947   1.778   5.664
 6167TIP3    H218459   0.815   1.720   5.616
 6168TIP3   OH218460   2.118   1.764   5.920
 6168TIP3    H118461   2.032   1.808   5.903
 6168TIP3    H218462   2.141   1.801   6.007
 6169TIP3   OH218463   0.798   1.381   6.171
 6169TIP3    H118464   0.736   1.420   6.106
 6169TIP3    H218465   0.744   1.376   6.252
 6170TIP3   OH218466   1.114   2.226   5.194
 6170TIP3    H118467   1.079   2.213   5.105
 6170TIP3    H218468   1.072   2.311   5.218
 6171TIP3   OH218469   0.878   2.158   5.975
 6171TIP3    H118470   0.816   2.222   6.016
 6171TIP3    H218471   0.918   2.212   5.904
 6172TIP3   OH218472   1.674   1.497   5.543
 6172TIP3    H118473   1.680   1.431   5.612
 6172TIP3    H218474   1.734   1.567   5.574
 6173TIP3   OH218475   0.661   1.502   5.962
 6173TIP3    H118476   0.721   1.575   5.990
 6173TIP3    H218477   0.712   1.468   5.885
 6174TIP3   OH218478   0.707   2.353   6.077
 6174TIP3    H118479   0.682   2.440   6.038
 6174TIP3    H218480   0.627   2.336   6.130
 6175TIP3   OH218481   0.115   2.038   5.307
 6175TIP3    H118482   0.063   2.064   5.229
 6175TIP3    H218483   0.137   2.124   5.347
 6176TIP3   OH218484   1.536   2.552   5.545
 6176TIP3    H118485   1.447   2.547   5.587
 6176TIP3    H218486   1.531   2.640   5.501
 6177TIP3   OH218487   1.833   1.461   5.916
 6177TIP3    H118488   1.745   1.481   5.880
 6177TIP3    H218489   1.893   1.490   5.843
 6178TIP3   OH218490   1.135   1.101   5.905
 6178TIP3    H118491   1.105   1.019   5.949
 6178TIP3    H218492   1.058   1.158   5.928
 6179TIP3   OH218493   1.241   2.603   5.223
 6179TIP3    H118494   1.288   2.519   5.201
 6179TIP3    H218495   1.304   2.667   5.184
 6180TIP3   OH218496   1.378   2.387   5.128
 6180TIP3    H118497   1.363   2.307   5.077
 6180TIP3    H218498   1.406   2.352   5.215
 6181TIP3   OH218499   1.764   2.474   5.900
 6181TIP3    H118500   1.765   2.397   5.839
 6181TIP3    H218501   1.749   2.549   5.839
 6182TIP3   OH218502   1.070   1.874   5.159
 6182TIP3    H118503   0.988   1.923   5.138
 6182TIP3    H218504   1.110   1.863   5.071
 6183TIP3   OH218505   1.018   1.651   4.864
 6183TIP3    H118506   1.086   1.703   4.909
 6183TIP3    H218507   1.073   1.585   4.817
 6184TIP3   OH218508   1.965   2.101   5.740
 6184TIP3    H118509   1.885   2.158   5.745
 6184TIP3    H218510   1.998   2.126   5.651
 6185TIP3   OH218511   1.403   1.950   5.127
 6185TIP3    H118512   1.353   1.973   5.209
 6185TIP3    H218513   1.488   1.920   5.165
 6186TIP3   OH218514   1.640   1.983   6.042
 6186TIP3    H118515   1.642   2.063   6.098
 6186TIP3    H218516   1.553   1.993   5.999
 6187TIP3   OH218517   0.640   1.944   5.539
 6187TIP3    H118518   0.596   1.885   5.474
 6187TIP3    H218519   0.714   1.887   5.570
 6188TIP3   OH218520   0.759   2.362   5.686
 6188TIP3    H118521   0.740   2.323   5.599
 6188TIP3    H218522   0.847   2.326   5.707
 6189TIP3   OH218523   0.774   1.913   5.899
 6189TIP3    H118524   0.803   1.887   5.809
 6189TIP3    H218525   0.816   2.001   5.911
 6190TIP3   OH218526   1.302   2.551   5.680
 6190TIP3    H118527   1.288   2.641   5.715
 6190TIP3    H218528   1.284   2.496   5.758
 6191TIP3   OH218529   0.915   2.471   6.216
 6191TIP3    H118530   0.854   2.532   6.263
 6191TIP3    H218531   0.851   2.417   6.166
 6192TIP3   OH218532   1.243   1.807   4.948
 6192TIP3    H118533   1.301   1.867   4.998
 6192TIP3    H218534   1.270   1.827   4.855
 6193TIP3   OH218535   0.689   2.038   6.314
 6193TIP3    H118536   0.681   2.124   6.358
 6193TIP3    H218537   0.597   2.004   6.318
 6194TIP3   OH218538   0.993   2.479   5.227
 6194TIP3    H118539   1.074   2.533   5.234
 6194TIP3    H218540   0.932   2.538   5.182
 6195TIP3   OH218541   0.707   2.636   6.306
 6195TIP3    H118542   0.672   2.641   6.215
 6195TIP3    H218543   0.626   2.619   6.359
 6196TIP3   OH218544   1.768   1.039   4.998
 6196TIP3    H118545   1.677   1.037   5.034
 6196TIP3    H218546   1.770   1.125   4.953
 6197TIP3   OH218547   0.505   1.790   5.348
 6197TIP3    H118548   0.434   1.823   5.289
 6197TIP3    H218549   0.482   1.696   5.358
 6198TIP3   OH218550   1.564   2.410   4.548
 6198TIP3    H118551   1.573   2.507   4.531
 6198TIP3    H218552   1.656   2.380   4.535
 6199TIP3   OH218553   0.308   2.155   6.247
 6199TIP3    H118554   0.247   2.137   6.174
 6199TIP3    H218555   0.335   2.065   6.271
 6200TIP3   OH218556   0.147   2.390   5.866
 6200TIP3    H118557   0.224   2.334   5.854
 6200TIP3    H218558   0.176   2.446   5.940
 6201TIP3   OH218559   2.004   2.815   5.942
 6201TIP3    H118560   2.004   2.719   5.960
 6201TIP3    H218561   1.921   2.841   5.988
 6202TIP3   OH218562   1.109   2.602   6.074
 6202TIP3    H118563   1.105   2.694   6.108
 6202TIP3    H218564   1.038   2.559   6.128
 6203TIP3   OH218565   0.874   2.726   5.028
 6203TIP3    H118566   0.827   2.709   4.944
 6203TIP3    H218567   0.840   2.813   5.055
 6204TIP3   OH218568   0.310   2.577   5.413
 6204TIP3    H118569   0.356   2.569   5.500
 6204TIP3    H218570   0.264   2.491   5.410
 6205TIP3   OH218571   1.071   2.630   4.665
 6205TIP3    H118572   1.130   2.560   4.629
 6205TIP3    H218573   1.107   2.640   4.755
 6206TIP3   OH218574   1.125   2.679   4.934
 6206TIP3    H118575   1.036   2.688   4.977
 6206TIP3    H218576   1.176   2.640   5.006
 6207TIP3   OH218577   1.892   1.941   6.215
 6207TIP3    H118578   1.810   1.946   6.165
 6207TIP3    H218579   1.912   1.845   6.210
 6208TIP3   OH218580   0.487   2.359   6.247
 6208TIP3    H118581   0.545   2.332   6.322
 6208TIP3    H218582   0.419   2.289   6.248
 6209TIP3   OH218583   0.901   1.212   5.977
 6209TIP3    H118584   0.856   1.128   5.994
 6209TIP3    H218585   0.870   1.264   6.054
 6210TIP3   OH218586   1.443   1.301   6.215
 6210TIP3    H118587   1.504   1.262   6.281
 6210TIP3    H218588   1.355   1.276   6.251
 6211TIP3   OH218589   1.660   1.719   6.139
 6211TIP3    H118590   1.610   1.716   6.224
 6211TIP3    H218591   1.637   1.808   6.106
 6212TIP3   OH218592   1.324   1.851   4.696
 6212TIP3    H118593   1.286   1.826   4.609
 6212TIP3    H218594   1.409   1.889   4.668
 6213TIP3   OH218595   1.034   1.226   4.992
 6213TIP3    H118596   1.006   1.218   5.086
 6213TIP3    H218597   0.995   1.145   4.955
 6214TIP3   OH218598   0.836   1.696   6.046
 6214TIP3    H118599   0.785   1.717   6.128
 6214TIP3    H218600   0.815   1.776   5.992
 6215TIP3   OH218601   0.716   1.592   5.544
 6215TIP3    H118602   0.625   1.556   5.556
 6215TIP3    H218603   0.736   1.548   5.458
 6216TIP3   OH218604   1.200   1.668   5.290
 6216TIP3    H118605   1.150   1.737   5.242
 6216TIP3    H218606   1.254   1.629   5.217
 6217TIP3   OH218607   1.371   1.939   6.372
 6217TIP3    H118608   1.347   1.867   6.433
 6217TIP3    H218609   1.465   1.952   6.395
 6218TIP3   OH218610   1.354   1.692   5.512
 6218TIP3    H118611   1.285   1.703   5.442
 6218TIP3    H218612   1.395   1.611   5.476
 6219TIP3   OH218613   0.650   1.734   6.240
 6219TIP3    H118614   0.675   1.783   6.320
 6219TIP3    H218615   0.599   1.660   6.275
 6220TIP3   OH218616   0.695   1.188   4.964
 6220TIP3    H118617   0.682   1.184   5.061
 6220TIP3    H218618   0.621   1.247   4.938
 6221TIP3   OH218619   1.369   1.941   5.915
 6221TIP3    H118620   1.403   1.853   5.888
 6221TIP3    H218621   1.335   1.914   6.004
 6222TIP3   OH218622   1.055   1.421   5.622
 6222TIP3    H118623   0.972   1.408   5.672
 6222TIP3    H218624   1.121   1.383   5.682
 6223TIP3   OH218625   0.487   1.449   5.575
 6223TIP3    H118626   0.394   1.437   5.600
 6223TIP3    H218627   0.527   1.368   5.612
 6224TIP3   OH218628   0.739   1.463   5.309
 6224TIP3    H118629   0.833   1.466   5.284
 6224TIP3    H218630   0.691   1.477   5.225
 6225TIP3   OH218631   1.519   1.485   5.826
 6225TIP3    H118632   1.484   1.490   5.917
 6225TIP3    H218633   1.464   1.415   5.788
 6226TIP3   OH218634   0.572   1.501   5.094
 6226TIP3    H118635   0.506   1.444   5.051
 6226TIP3    H218636   0.627   1.525   5.016
 6227TIP3   OH218637   1.698   3.164   6.041
 6227TIP3    H118638   1.697   3.189   5.947
 6227TIP3    H218639   1.779   3.211   6.072
 6228TIP3   OH218640   0.653   2.279   6.460
 6228TIP3    H118641   0.735   2.303   6.507
 6228TIP3    H218642   0.590   2.276   6.534
 6229TIP3   OH218643   1.132   1.747   5.723
 6229TIP3    H118644   1.161   1.671   5.672
 6229TIP3    H218645   1.114   1.705   5.811
 6230TIP3   OH218646   0.722   1.224   5.557
 6230TIP3    H118647   0.667   1.150   5.585
 6230TIP3    H218648   0.806   1.176   5.540
 6231TIP3   OH218649   1.096   1.648   5.977
 6231TIP3    H118650   1.004   1.661   6.008
 6231TIP3    H218651   1.148   1.691   6.047
 6232TIP3   OH218652   0.827   2.015   5.102
 6232TIP3    H118653   0.756   1.948   5.091
 6232TIP3    H218654   0.808   2.048   5.193
 6233TIP3   OH218655   1.743   2.263   5.727
 6233TIP3    H118656   1.777   2.313   5.649
 6233TIP3    H218657   1.652   2.245   5.701
 6234TIP3   OH218658   1.286   1.328   4.969
 6234TIP3    H118659   1.190   1.305   4.977
 6234TIP3    H218660   1.288   1.422   4.996
 6235TIP3   OH218661   1.216   2.331   6.083
 6235TIP3    H118662   1.251   2.305   6.169
 6235TIP3    H218663   1.187   2.423   6.098
 6236TIP3   OH218664   1.354   1.580   5.074
 6236TIP3    H118665   1.451   1.580   5.084
 6236TIP3    H218666   1.338   1.657   5.016
 6237TIP3   OH218667   0.531   2.050   5.774
 6237TIP3    H118668   0.562   2.013   5.688
 6237TIP3    H218669   0.549   1.976   5.834
 6238TIP3   OH218670   0.974   2.164   4.926
 6238TIP3    H118671   0.926   2.250   4.929
 6238TIP3    H218672   0.920   2.110   4.986
 6239TIP3   OH218673   0.446   1.925   6.396
 6239TIP3    H118674   0.480   1.948   6.484
 6239TIP3    H218675   0.350   1.924   6.414
 6240TIP3   OH218676   1.131   2.076   6.409
 6240TIP3    H118677   1.068   2.014   6.369
 6240TIP3    H218678   1.216   2.037   6.381
 6241TIP3   OH218679   1.382   2.585   5.997
 6241TIP3    H118680   1.286   2.592   6.014
 6241TIP3    H218681   1.416   2.641   6.070
 6242TIP3   OH218682   1.794   1.669   4.903
 6242TIP3    H118683   1.732   1.624   4.840
 6242TIP3    H218684   1.793   1.758   4.862
 6243TIP3   OH218685   2.017   2.524   5.985
 6243TIP3    H118686   1.919   2.520   5.979
 6243TIP3    H218687   2.041   2.495   5.894
 6244TIP3   OH218688   1.498   2.484   4.811
 6244TIP3    H118689   1.472   2.412   4.869
 6244TIP3    H218690   1.513   2.440   4.725
 6245TIP3   OH218691   0.624   2.343   5.403
 6245TIP3    H118692   0.619   2.423   5.347
 6245TIP3    H218693   0.531   2.322   5.415
 6246TIP3   OH218694   0.164   1.650   5.125
 6246TIP3    H118695   0.233   1.720   5.123
 6246TIP3    H218696   0.112   1.684   5.200
 6247TIP3   OH218697   0.761   2.107   5.348
 6247TIP3    H118698   0.724   2.195   5.366
 6247TIP3    H218699   0.722   2.054   5.419
 6248TIP3   OH218700   0.893   2.685   5.870
 6248TIP3    H118701   0.934   2.758   5.820
 6248TIP3    H218702   0.969   2.651   5.920
 6249TIP3   OH218703   0.540   2.582   5.253
 6249TIP3    H118704   0.455   2.592   5.301
 6249TIP3    H218705   0.573   2.675   5.255
 6250TIP3   OH218706   1.304   2.268   5.837
 6250TIP3    H118707   1.258   2.276   5.923
 6250TIP3    H218708   1.393   2.291   5.866
 6251TIP3   OH218709   1.258   2.216   4.714
 6251TIP3    H118710   1.310   2.191   4.794
 6251TIP3    H218711   1.170   2.184   4.739
 6252TIP3   OH218712   1.525   2.850   5.876
 6252TIP3    H118713   1.443   2.798   5.867
 6252TIP3    H218714   1.513   2.916   5.805
 6253TIP3   OH218715   1.594   2.686   4.531
 6253TIP3    H118716   1.633   2.761   4.483
 6253TIP3    H218717   1.513   2.730   4.564
 6254TIP3   OH218718   1.417   2.154   4.935
 6254TIP3    H118719   1.405   2.083   5.001
 6254TIP3    H218720   1.514   2.145   4.918
 6255TIP3   OH218721   0.323   2.542   6.032
 6255TIP3    H118722   0.387   2.477   6.064
 6255TIP3    H218723   0.351   2.622   6.078
 6256TIP3   OH218724   0.617   2.193   4.712
 6256TIP3    H118725   0.633   2.100   4.686
 6256TIP3    H218726   0.598   2.182   4.808
 6257TIP3   OH218727   0.563   2.198   4.985
 6257TIP3    H118728   0.639   2.170   5.037
 6257TIP3    H218729   0.568   2.296   4.994
 6258TIP3   OH218730   0.302   1.884   5.181
 6258TIP3    H118731   0.238   1.931   5.239
 6258TIP3    H218732   0.319   1.955   5.116
 6259TIP3   OH218733   1.446   1.540   6.085
 6259TIP3    H118734   1.532   1.573   6.117
 6259TIP3    H218735   1.437   1.456   6.135
 6260TIP3   OH218736   1.316   1.290   5.250
 6260TIP3    H118737   1.317   1.302   5.153
 6260TIP3    H218738   1.367   1.368   5.281
 6261TIP3   OH218739   0.832   2.394   4.933
 6261TIP3    H118740   0.745   2.420   4.970
 6261TIP3    H218741   0.847   2.467   4.872
 6262TIP3   OH218742   1.020   1.464   5.350
 6262TIP3    H118743   1.086   1.534   5.334
 6262TIP3    H218744   1.026   1.454   5.448
 6263TIP3   OH218745   1.303   1.792   6.137
 6263TIP3    H118746   1.319   1.831   6.225
 6263TIP3    H218747   1.342   1.703   6.146
 6264TIP3   OH218748   1.171   1.186   5.454
 6264TIP3    H118749   1.170   1.263   5.512
 6264TIP3    H218750   1.226   1.220   5.379
 6265TIP3   OH218751   0.578   2.471   5.002
 6265TIP3    H118752   0.547   2.541   4.941
 6265TIP3    H218753   0.561   2.513   5.089
 6266TIP3   OH218754   0.694   1.199   5.239
 6266TIP3    H118755   0.700   1.285   5.283
 6266TIP3    H218756   0.787   1.171   5.245
 6267TIP3   OH218757   1.926   1.674   6.138
 6267TIP3    H118758   1.829   1.674   6.144
 6267TIP3    H218759   1.938   1.632   6.052
 6268TIP3   OH218760   1.553   1.884   5.545
 6268TIP3    H118761   1.503   1.803   5.523
 6268TIP3    H218762   1.638   1.847   5.577
 6269TIP3   OH218763   0.298   2.098   4.988
 6269TIP3    H118764   0.371   2.162   5.000
 6269TIP3    H218765   0.342   2.039   4.922
 6270TIP3   OH218766   0.281   1.406   5.038
 6270TIP3    H118767   0.277   1.488   5.089
 6270TIP3    H218768   0.225   1.348   5.092
 6271TIP3   OH218769   1.550   2.824   5.471
 6271TIP3    H118770   1.506   2.872   5.397
 6271TIP3    H218771   1.644   2.845   5.451
 6272TIP3   OH218772   0.165   2.323   5.379
 6272TIP3    H118773   0.098   2.352   5.442
 6272TIP3    H218774   0.131   2.362   5.295
 6273TIP3   OH218775   0.346   2.877   6.427
 6273TIP3    H118776   0.424   2.885   6.487
 6273TIP3    H218777   0.321   2.786   6.443
 6274TIP3   OH218778   0.800   2.817   6.498
 6274TIP3    H118779   0.895   2.800   6.504
 6274TIP3    H218780   0.775   2.757   6.425
 6275TIP3   OH218781   0.782   2.394   4.623
 6275TIP3    H118782   0.728   2.322   4.660
 6275TIP3    H218783   0.859   2.344   4.589
 6276TIP3   OH218784   1.445   2.722   6.225
 6276TIP3    H118785   1.434   2.656   6.297
 6276TIP3    H218786   1.520   2.776   6.258
 6277TIP3   OH218787   1.218   2.433   4.537
 6277TIP3    H118788   1.259   2.369   4.598
 6277TIP3    H218789   1.276   2.429   4.459
 6278TIP3   OH218790   0.447   2.255   6.648
 6278TIP3    H118791   0.479   2.162   6.649
 6278TIP3    H218792   0.352   2.242   6.637
 6279TIP3   OH218793   0.429   1.907   4.847
 6279TIP3    H118794   0.486   1.876   4.920
 6279TIP3    H218795   0.496   1.913   4.776
 6280TIP3   OH218796   1.056   2.350   6.426
 6280TIP3    H118797   1.018   2.368   6.338
 6280TIP3    H218798   1.089   2.258   6.417
 6281TIP3   OH218799   0.944   2.112   4.656
 6281TIP3    H118800   0.946   2.123   4.753
 6281TIP3    H218801   0.946   2.015   4.648
 6282TIP3   OH218802   1.540   2.354   6.008
 6282TIP3    H118803   1.622   2.399   5.979
 6282TIP3    H218804   1.479   2.431   6.013
 6283TIP3   OH218805   0.557   2.002   6.640
 6283TIP3    H118806   0.625   1.935   6.627
 6283TIP3    H218807   0.574   2.023   6.734
 6284TIP3   OH218808   0.634   1.818   5.066
 6284TIP3    H118809   0.609   1.774   5.149
 6284TIP3    H218810   0.673   1.744   5.015
 6285TIP3   OH218811   0.912   1.881   6.300
 6285TIP3    H118812   0.834   1.942   6.299
 6285TIP3    H218813   0.963   1.916   6.224
 6286TIP3   OH218814   0.739   1.616   4.907
 6286TIP3    H118815   0.714   1.618   4.812
 6286TIP3    H218816   0.837   1.614   4.900
 6287TIP3   OH218817   1.425   2.285   6.428
 6287TIP3    H118818   1.508   2.255   6.389
 6287TIP3    H218819   1.413   2.220   6.500
 6288TIP3   OH218820   1.556   1.941   4.575
 6288TIP3    H118821   1.538   1.896   4.490
 6288TIP3    H218822   1.521   2.030   4.553
 6289TIP3   OH218823   1.035   1.665   6.411
 6289TIP3    H118824   1.039   1.588   6.350
 6289TIP3    H218825   0.989   1.732   6.356
 6290TIP3   OH218826   1.051   1.471   6.219
 6290TIP3    H118827   1.066   1.487   6.124
 6290TIP3    H218828   0.963   1.428   6.218
 6291TIP3   OH218829   1.055   1.996   6.108
 6291TIP3    H118830   1.131   1.988   6.051
 6291TIP3    H218831   0.998   2.060   6.061
 6292TIP3   OH218832   1.639   1.958   6.480
 6292TIP3    H118833   1.683   1.872   6.490
 6292TIP3    H218834   1.712   2.015   6.451
 6293TIP3   OH218835   1.676   2.216   6.207
 6293TIP3    H118836   1.619   2.269   6.147
 6293TIP3    H218837   1.765   2.238   6.172
 6294TIP3   OH218838   0.940   1.775   6.646
 6294TIP3    H118839   0.847   1.760   6.669
 6294TIP3    H218840   0.951   1.733   6.558
 6295TIP3   OH218841   1.187   1.226   6.271
 6295TIP3    H118842   1.122   1.299   6.269
 6295TIP3    H218843   1.136   1.152   6.233
 6296TIP3   OH218844   1.286   1.723   6.514
 6296TIP3    H118845   1.269   1.707   6.609
 6296TIP3    H218846   1.199   1.696   6.477
 6297TIP3   OH218847   1.529   1.680   6.371
 6297TIP3    H118848   1.453   1.675   6.432
 6297TIP3    H218849   1.602   1.645   6.427
 6298TIP3   OH218850   1.756   1.613   6.519
 6298TIP3    H118851   1.769   1.518   6.536
 6298TIP3    H218852   1.753   1.651   6.609
 6299TIP3   OH218853   1.247   1.211   6.541
 6299TIP3    H118854   1.322   1.148   6.538
 6299TIP3    H218855   1.228   1.221   6.446
 6300TIP3   OH218856   1.325   1.441   6.694
 6300TIP3    H118857   1.292   1.368   6.637
 6300TIP3    H218858   1.246   1.499   6.699
 6301TIP3   OH218859   0.547   2.675   4.815
 6301TIP3    H118860   0.642   2.665   4.796
 6301TIP3    H218861   0.520   2.725   4.736
 6302TIP3   OH218862   0.035   2.045   5.030
 6302TIP3    H118863   0.128   2.071   5.017
 6302TIP3    H218864   0.031   1.959   4.985
 6303TIP3   OH218865  -0.069   2.666   5.449
 6303TIP3    H118866  -0.119   2.600   5.399
 6303TIP3    H218867  -0.025   2.611   5.517
 6304TIP3   OH218868   0.067   2.521   5.638
 6304TIP3    H118869   0.074   2.452   5.707
 6304TIP3    H218870   0.121   2.589   5.680
 6305TIP3   OH218871   1.802   2.918   5.433
 6305TIP3    H118872   1.832   2.953   5.519
 6305TIP3    H218873   1.867   2.956   5.372
 6306TIP3   OH218874   1.831   2.939   5.716
 6306TIP3    H118875   1.789   2.850   5.710
 6306TIP3    H218876   1.908   2.916   5.771
 6307TIP3   OH218877   1.875   2.615   6.285
 6307TIP3    H118878   1.805   2.625   6.353
 6307TIP3    H218879   1.920   2.702   6.289
 6308TIP3   OH218880   1.693   2.129   4.906
 6308TIP3    H118881   1.760   2.193   4.873
 6308TIP3    H218882   1.740   2.091   4.984
 6309TIP3   OH218883   1.820   1.997   5.111
 6309TIP3    H118884   1.756   1.953   5.171
 6309TIP3    H218885   1.890   2.029   5.173
 6310TIP3   OH218886   1.872   2.386   5.528
 6310TIP3    H118887   1.931   2.321   5.486
 6310TIP3    H218888   1.880   2.463   5.468
 6311TIP3   OH218889   1.705   2.687   5.735
 6311TIP3    H118890   1.634   2.733   5.785
 6311TIP3    H218891   1.655   2.644   5.662
 6312TIP3   OH218892   1.759   1.904   4.755
 6312TIP3    H118893   1.688   1.904   4.687
 6312TIP3    H218894   1.729   1.980   4.809
 6313TIP3   OH218895   1.626   1.578   4.710
 6313TIP3    H118896   1.587   1.606   4.627
 6313TIP3    H218897   1.606   1.482   4.707
 6314TIP3   OH218898   1.631   1.852   5.258
 6314TIP3    H118899   1.641   1.756   5.241
 6314TIP3    H218900   1.621   1.856   5.354
 6315TIP3   OH218901   0.261   1.927   6.027
 6315TIP3    H118902   0.253   1.907   5.931
 6315TIP3    H218903   0.359   1.929   6.036
 6316TIP3   OH218904   1.925   2.278   6.110
 6316TIP3    H118905   1.996   2.210   6.103
 6316TIP3    H218906   1.959   2.348   6.051
 6317TIP3   OH218907   2.107   2.079   6.124
 6317TIP3    H118908   2.034   2.027   6.164
 6317TIP3    H218909   2.182   2.019   6.141
 6318TIP3   OH218910   1.573   1.313   4.693
 6318TIP3    H118911   1.647   1.279   4.747
 6318TIP3    H218912   1.500   1.252   4.714
 6319TIP3   OH218913   1.636   1.571   5.146
 6319TIP3    H118914   1.674   1.481   5.163
 6319TIP3    H218915   1.693   1.599   5.072
 6320TIP3   OH218916   1.785   1.758   5.639
 6320TIP3    H118917   1.873   1.775   5.598
 6320TIP3    H218918   1.806   1.783   5.730
 6321TIP3   OH218919   1.866   1.883   5.876
 6321TIP3    H118920   1.791   1.921   5.927
 6321TIP3    H218921   1.902   1.963   5.832
 6322TIP3   OH218922   2.298   1.456   6.427
 6322TIP3    H118923   2.370   1.405   6.384
 6322TIP3    H218924   2.275   1.522   6.359
 6323TIP3   OH218925   1.739   1.321   5.190
 6323TIP3    H118926   1.785   1.300   5.273
 6323TIP3    H218927   1.678   1.243   5.183
 6324TIP3   OH218928   2.184   1.616   6.238
 6324TIP3    H118929   2.101   1.663   6.260
 6324TIP3    H218930   2.147   1.545   6.182
 6325TIP3   OH218931   1.818   1.254   4.818
 6325TIP3    H118932   1.856   1.180   4.767
 6325TIP3    H218933   1.889   1.321   4.814
 6326TIP3   OH218934   1.386   2.787   5.087
 6326TIP3    H118935   1.436   2.774   5.004
 6326TIP3    H218936   1.440   2.853   5.133
 6327TIP3   OH218937   0.482   2.593   6.476
 6327TIP3    H118938   0.433   2.514   6.451
 6327TIP3    H218939   0.498   2.580   6.570
 6328TIP3   OH218940   0.665   2.624   6.018
 6328TIP3    H118941   0.619   2.701   5.980
 6328TIP3    H218942   0.752   2.637   5.974
 6329TIP3   OH218943   1.107   2.866   6.156
 6329TIP3    H118944   1.149   2.865   6.244
 6329TIP3    H218945   1.174   2.918   6.105
 6330TIP3   OH218946   1.289   3.019   6.018
 6330TIP3    H118947   1.362   2.970   5.978
 6330TIP3    H218948   1.339   3.077   6.080
 6331TIP3   OH218949   2.075   1.385   6.118
 6331TIP3    H118950   1.985   1.383   6.080
 6331TIP3    H218951   2.100   1.292   6.110
 6332TIP3   OH218952   0.340   2.876   6.046
 6332TIP3    H118953   0.249   2.905   6.024
 6332TIP3    H218954   0.352   2.922   6.130
 6333TIP3   OH218955   0.578   2.858   5.904
 6333TIP3    H118956   0.490   2.870   5.947
 6333TIP3    H218957   0.559   2.889   5.813
 6334TIP3   OH218958   1.003   2.884   5.701
 6334TIP3    H118959   0.933   2.901   5.635
 6334TIP3    H218960   1.014   2.972   5.742
 6335TIP3   OH218961   1.273   2.817   5.746
 6335TIP3    H118962   1.179   2.840   5.730
 6335TIP3    H218963   1.319   2.892   5.705
 6336TIP3   OH218964   1.475   3.012   5.663
 6336TIP3    H118965   1.462   3.098   5.617
 6336TIP3    H218966   1.504   2.954   5.589
 6337TIP3   OH218967   0.254   2.673   5.781
 6337TIP3    H118968   0.267   2.646   5.874
 6337TIP3    H218969   0.326   2.622   5.737
 6338TIP3   OH218970   0.449   2.542   5.645
 6338TIP3    H118971   0.464   2.459   5.697
 6338TIP3    H218972   0.540   2.578   5.641
 6339TIP3   OH218973   0.716   2.639   5.651
 6339TIP3    H118974   0.742   2.545   5.641
 6339TIP3    H218975   0.763   2.660   5.734
 6340TIP3   OH218976   1.283   1.290   5.735
 6340TIP3    H118977   1.244   1.221   5.792
 6340TIP3    H218978   1.355   1.241   5.691
 6341TIP3   OH218979   1.810   1.193   5.656
 6341TIP3    H118980   1.845   1.231   5.573
 6341TIP3    H218981   1.715   1.185   5.635
 6342TIP3   OH218982   1.906   1.272   5.410
 6342TIP3    H118983   1.977   1.220   5.366
 6342TIP3    H218984   1.938   1.363   5.392
 6343TIP3   OH218985   0.950   1.074   5.601
 6343TIP3    H118986   1.035   1.086   5.556
 6343TIP3    H218987   0.978   1.059   5.693
 6344TIP3   OH218988   1.532   1.176   5.605
 6344TIP3    H118989   1.528   1.129   5.520
 6344TIP3    H218990   1.515   1.100   5.667
 6345TIP3   OH218991   1.559   1.109   5.179
 6345TIP3    H118992   1.465   1.132   5.172
 6345TIP3    H218993   1.549   1.028   5.235
 6346TIP3   OH218994   0.030   2.446   5.179
 6346TIP3    H118995  -0.040   2.397   5.135
 6346TIP3    H218996   0.021   2.535   5.138
 6347TIP3   OH218997   0.970   1.210   5.259
 6347TIP3    H118998   1.024   1.158   5.321
 6347TIP3    H218999   0.992   1.301   5.289
 6348TIP3   OH219000   0.813   2.629   4.761
 6348TIP3    H119001   0.901   2.652   4.725
 6348TIP3    H219002   0.791   2.555   4.701
 6349TIP3   OH219003   1.530   2.751   4.855
 6349TIP3    H119004   1.523   2.653   4.844
 6349TIP3    H219005   1.486   2.782   4.774
 6350TIP3   OH219006   0.119   2.471   4.816
 6350TIP3    H119007   0.121   2.497   4.909
 6350TIP3    H219008   0.206   2.427   4.804
 6351TIP3   OH219009   1.831   1.341   6.545
 6351TIP3    H119010   1.845   1.313   6.638
 6351TIP3    H219011   1.920   1.329   6.508
 6352TIP3   OH219012   1.755   2.894   6.041
 6352TIP3    H119013   1.677   2.865   5.990
 6352TIP3    H219014   1.737   2.990   6.047
 6353TIP3   OH219015   3.023   2.267   4.809
 6353TIP3    H119016   2.992   2.357   4.787
 6353TIP3    H219017   2.951   2.214   4.771
 6354TIP3   OH219018   3.023   2.272   5.193
 6354TIP3    H119019   3.058   2.240   5.278
 6354TIP3    H219020   2.985   2.191   5.155
 6355TIP3   OH219021   2.318   2.161   5.559
 6355TIP3    H119022   2.349   2.092   5.620
 6355TIP3    H219023   2.400   2.209   5.542
 6356TIP3   OH219024   3.268   2.573   4.872
 6356TIP3    H119025   3.253   2.501   4.934
 6356TIP3    H219026   3.300   2.644   4.928
 6357TIP3   OH219027   2.295   2.572   5.276
 6357TIP3    H119028   2.288   2.474   5.277
 6357TIP3    H219029   2.392   2.582   5.268
 6358TIP3   OH219030   2.000   1.773   5.059
 6358TIP3    H119031   1.952   1.856   5.073
 6358TIP3    H219032   1.931   1.719   5.017
 6359TIP3   OH219033   2.056   2.060   5.241
 6359TIP3    H119034   2.106   1.982   5.273
 6359TIP3    H219035   2.117   2.097   5.175
 6360TIP3   OH219036   2.920   3.033   4.889
 6360TIP3    H119037   2.960   2.963   4.834
 6360TIP3    H219038   2.910   2.989   4.974
 6361TIP3   OH219039   2.821   2.495   5.238
 6361TIP3    H119040   2.861   2.418   5.195
 6361TIP3    H219041   2.904   2.542   5.262
 6362TIP3   OH219042   3.840   1.811   5.235
 6362TIP3    H119043   3.869   1.897   5.272
 6362TIP3    H219044   3.860   1.824   5.141
 6363TIP3   OH219045   3.233   1.992   5.267
 6363TIP3    H119046   3.278   1.908   5.286
 6363TIP3    H219047   3.202   1.976   5.176
 6364TIP3   OH219048   2.576   1.654   5.232
 6364TIP3    H119049   2.556   1.726   5.169
 6364TIP3    H219050   2.528   1.580   5.188
 6365TIP3   OH219051   3.270   1.750   4.854
 6365TIP3    H119052   3.343   1.733   4.918
 6365TIP3    H219053   3.323   1.781   4.777
 6366TIP3   OH219054   2.206   1.854   5.340
 6366TIP3    H119055   2.290   1.836   5.387
 6366TIP3    H219056   2.221   1.800   5.260
 6367TIP3   OH219057   2.645   2.053   5.142
 6367TIP3    H119058   2.740   2.030   5.150
 6367TIP3    H219059   2.608   1.969   5.106
 6368TIP3   OH219060   3.913   2.023   5.405
 6368TIP3    H119061   3.829   2.068   5.382
 6368TIP3    H219062   3.926   2.055   5.496
 6369TIP3   OH219063   2.570   1.638   5.667
 6369TIP3    H119064   2.510   1.674   5.599
 6369TIP3    H219065   2.517   1.654   5.748
 6370TIP3   OH219066   2.904   2.483   4.682
 6370TIP3    H119067   2.877   2.474   4.590
 6370TIP3    H219068   2.863   2.569   4.705
 6371TIP3   OH219069   2.676   2.413   5.459
 6371TIP3    H119070   2.617   2.482   5.496
 6371TIP3    H219071   2.719   2.461   5.385
 6372TIP3   OH219072   3.475   1.750   5.032
 6372TIP3    H119073   3.464   1.704   5.116
 6372TIP3    H219074   3.528   1.828   5.057
 6373TIP3   OH219075   2.441   1.752   5.451
 6373TIP3    H119076   2.504   1.824   5.475
 6373TIP3    H219077   2.490   1.712   5.375
 6374TIP3   OH219078   2.506   2.611   5.561
 6374TIP3    H119079   2.480   2.697   5.524
 6374TIP3    H219080   2.426   2.592   5.616
 6375TIP3   OH219081   1.893   2.299   4.796
 6375TIP3    H119082   1.856   2.327   4.710
 6375TIP3    H219083   1.927   2.383   4.831
 6376TIP3   OH219084   3.337   2.817   5.039
 6376TIP3    H119085   3.247   2.807   5.077
 6376TIP3    H219086   3.328   2.901   4.991
 6377TIP3   OH219087   3.630   1.713   5.401
 6377TIP3    H119088   3.542   1.737   5.367
 6377TIP3    H219089   3.690   1.745   5.331
 6378TIP3   OH219090   2.923   1.350   5.385
 6378TIP3    H119091   2.907   1.255   5.405
 6378TIP3    H219092   2.846   1.390   5.430
 6379TIP3   OH219093   3.034   2.860   4.707
 6379TIP3    H119094   3.082   2.775   4.689
 6379TIP3    H219095   3.099   2.923   4.668
 6380TIP3   OH219096   3.176   2.643   4.621
 6380TIP3    H119097   3.166   2.563   4.567
 6380TIP3    H219098   3.214   2.608   4.704
 6381TIP3   OH219099   3.563   2.724   5.380
 6381TIP3    H119100   3.550   2.647   5.321
 6381TIP3    H219101   3.545   2.799   5.319
 6382TIP3   OH219102   2.857   2.121   4.640
 6382TIP3    H119103   2.779   2.175   4.616
 6382TIP3    H219104   2.904   2.115   4.555
 6383TIP3   OH219105   2.813   1.907   4.349
 6383TIP3    H119106   2.879   1.960   4.396
 6383TIP3    H219107   2.872   1.841   4.306
 6384TIP3   OH219108   3.758   2.367   5.230
 6384TIP3    H119109   3.673   2.416   5.232
 6384TIP3    H219110   3.788   2.389   5.139
 6385TIP3   OH219111   3.200   2.202   4.608
 6385TIP3    H119112   3.149   2.225   4.689
 6385TIP3    H219113   3.287   2.178   4.647
 6386TIP3   OH219114   3.436   2.239   5.525
 6386TIP3    H119115   3.432   2.324   5.574
 6386TIP3    H219116   3.350   2.241   5.479
 6387TIP3   OH219117   2.435   2.199   5.029
 6387TIP3    H119118   2.393   2.141   4.962
 6387TIP3    H219119   2.510   2.145   5.059
 6388TIP3   OH219120   2.563   2.609   5.175
 6388TIP3    H119121   2.544   2.577   5.086
 6388TIP3    H219122   2.652   2.573   5.192
 6389TIP3   OH219123   2.563   2.172   5.382
 6389TIP3    H119124   2.599   2.143   5.296
 6389TIP3    H219125   2.611   2.256   5.399
 6390TIP3   OH219126   3.095   2.810   5.159
 6390TIP3    H119127   3.084   2.888   5.215
 6390TIP3    H219128   3.080   2.735   5.220
 6391TIP3   OH219129   2.710   2.728   5.706
 6391TIP3    H119130   2.648   2.788   5.751
 6391TIP3    H219131   2.647   2.673   5.654
 6392TIP3   OH219132   3.035   2.068   4.433
 6392TIP3    H119133   3.098   2.124   4.484
 6392TIP3    H219134   3.065   2.086   4.341
 6393TIP3   OH219135   2.467   2.284   5.810
 6393TIP3    H119136   2.471   2.370   5.854
 6393TIP3    H219137   2.373   2.262   5.821
 6394TIP3   OH219138   2.786   2.740   4.711
 6394TIP3    H119139   2.870   2.788   4.719
 6394TIP3    H219140   2.729   2.804   4.669
 6395TIP3   OH219141   2.503   2.893   5.792
 6395TIP3    H119142   2.468   2.897   5.701
 6395TIP3    H219143   2.422   2.872   5.845
 6396TIP3   OH219144   3.559   1.294   4.486
 6396TIP3    H119145   3.475   1.322   4.528
 6396TIP3    H219146   3.582   1.375   4.435
 6397TIP3   OH219147   2.300   2.043   4.835
 6397TIP3    H119148   2.231   2.084   4.778
 6397TIP3    H219149   2.269   1.952   4.840
 6398TIP3   OH219150   3.361   2.666   4.033
 6398TIP3    H119151   3.374   2.761   4.016
 6398TIP3    H219152   3.453   2.633   4.020
 6399TIP3   OH219153   2.080   2.425   5.741
 6399TIP3    H119154   2.027   2.398   5.665
 6399TIP3    H219155   2.124   2.341   5.768
 6400TIP3   OH219156   1.939   2.615   5.377
 6400TIP3    H119157   2.034   2.610   5.360
 6400TIP3    H219158   1.934   2.696   5.430
 6401TIP3   OH219159   3.800   3.074   5.428
 6401TIP3    H119160   3.799   2.977   5.441
 6401TIP3    H219161   3.716   3.098   5.475
 6402TIP3   OH219162   2.906   2.855   5.563
 6402TIP3    H119163   2.902   2.948   5.595
 6402TIP3    H219164   2.834   2.814   5.616
 6403TIP3   OH219165   2.671   2.983   4.515
 6403TIP3    H119166   2.623   2.969   4.432
 6403TIP3    H219167   2.637   3.070   4.544
 6404TIP3   OH219168   2.106   2.831   4.901
 6404TIP3    H119169   2.154   2.824   4.986
 6404TIP3    H219170   2.055   2.748   4.901
 6405TIP3   OH219171   2.868   2.885   4.151
 6405TIP3    H119172   2.928   2.815   4.116
 6405TIP3    H219173   2.903   2.897   4.242
 6406TIP3   OH219174   2.921   2.936   4.420
 6406TIP3    H119175   2.833   2.946   4.463
 6406TIP3    H219176   2.972   2.895   4.490
 6407TIP3   OH219177   3.688   2.199   5.703
 6407TIP3    H119178   3.606   2.210   5.653
 6407TIP3    H219179   3.705   2.103   5.692
 6408TIP3   OH219180   2.285   2.609   5.725
 6408TIP3    H119181   2.336   2.593   5.806
 6408TIP3    H219182   2.211   2.546   5.734
 6409TIP3   OH219183   2.684   1.433   5.510
 6409TIP3    H119184   2.596   1.402   5.480
 6409TIP3    H219185   2.658   1.513   5.560
 6410TIP3   OH219186   3.221   1.547   5.707
 6410TIP3    H119187   3.289   1.518   5.771
 6410TIP3    H219188   3.137   1.527   5.753
 6411TIP3   OH219189   3.458   1.977   5.627
 6411TIP3    H119190   3.405   1.974   5.710
 6411TIP3    H219191   3.434   2.063   5.589
 6412TIP3   OH219192   3.118   2.105   4.179
 6412TIP3    H119193   3.087   2.081   4.090
 6412TIP3    H219194   3.205   2.145   4.158
 6413TIP3   OH219195   2.819   1.485   4.476
 6413TIP3    H119196   2.793   1.481   4.570
 6413TIP3    H219197   2.788   1.398   4.446
 6414TIP3   OH219198   2.617   1.950   5.530
 6414TIP3    H119199   2.568   1.971   5.613
 6414TIP3    H219200   2.601   2.031   5.477
 6415TIP3   OH219201   2.501   1.835   5.045
 6415TIP3    H119202   2.409   1.808   5.063
 6415TIP3    H219203   2.514   1.795   4.956
 6416TIP3   OH219204   2.992   1.918   4.776
 6416TIP3    H119205   2.943   1.990   4.730
 6416TIP3    H219206   3.050   1.885   4.704
 6417TIP3   OH219207   3.167   2.196   5.858
 6417TIP3    H119208   3.144   2.123   5.920
 6417TIP3    H219209   3.261   2.209   5.880
 6418TIP3   OH219210   3.147   1.947   5.010
 6418TIP3    H119211   3.085   1.973   4.939
 6418TIP3    H219212   3.186   1.868   4.965
 6419TIP3   OH219213   2.436   1.977   5.740
 6419TIP3    H119214   2.474   2.037   5.805
 6419TIP3    H219215   2.427   1.894   5.790
 6420TIP3   OH219216   2.483   1.451   4.448
 6420TIP3    H119217   2.477   1.452   4.545
 6420TIP3    H219218   2.406   1.506   4.424
 6421TIP3   OH219219   2.027   1.497   5.325
 6421TIP3    H119220   2.107   1.528   5.372
 6421TIP3    H219221   2.061   1.466   5.239
 6422TIP3   OH219222   1.998   1.477   4.840
 6422TIP3    H119223   2.045   1.512   4.761
 6422TIP3    H219224   1.936   1.550   4.856
 6423TIP3   OH219225   3.161   2.191   5.432
 6423TIP3    H119226   3.193   2.120   5.372
 6423TIP3    H219227   3.129   2.137   5.508
 6424TIP3   OH219228   2.835   1.656   5.105
 6424TIP3    H119229   2.754   1.654   5.159
 6424TIP3    H219230   2.905   1.649   5.173
 6425TIP3   OH219231   2.263   1.711   5.113
 6425TIP3    H119232   2.169   1.718   5.084
 6425TIP3    H219233   2.287   1.620   5.090
 6426TIP3   OH219234   2.528   1.709   4.804
 6426TIP3    H119235   2.622   1.720   4.784
 6426TIP3    H219236   2.483   1.729   4.718
 6427TIP3   OH219237   3.323   1.732   5.312
 6427TIP3    H119238   3.287   1.746   5.402
 6427TIP3    H219239   3.257   1.672   5.274
 6428TIP3   OH219240   2.377   1.745   4.578
 6428TIP3    H119241   2.307   1.699   4.529
 6428TIP3    H219242   2.430   1.782   4.504
 6429TIP3   OH219243   3.494   3.421   5.529
 6429TIP3    H119244   3.492   3.443   5.434
 6429TIP3    H219245   3.575   3.468   5.558
 6430TIP3   OH219246   2.448   2.534   5.946
 6430TIP3    H119247   2.529   2.561   5.994
 6430TIP3    H219248   2.385   2.529   6.021
 6431TIP3   OH219249   2.910   1.985   5.202
 6431TIP3    H119250   2.983   1.948   5.150
 6431TIP3    H219251   2.919   1.939   5.287
 6432TIP3   OH219252   2.431   1.472   5.085
 6432TIP3    H119253   2.395   1.394   5.134
 6432TIP3    H219254   2.478   1.429   5.012
 6433TIP3   OH219255   2.887   1.883   5.493
 6433TIP3    H119256   2.798   1.919   5.506
 6433TIP3    H219257   2.944   1.946   5.542
 6434TIP3   OH219258   2.622   2.273   4.585
 6434TIP3    H119259   2.551   2.206   4.575
 6434TIP3    H219260   2.604   2.306   4.676
 6435TIP3   OH219261   3.523   2.508   5.214
 6435TIP3    H119262   3.547   2.559   5.134
 6435TIP3    H219263   3.439   2.464   5.187
 6436TIP3   OH219264   3.080   1.582   4.474
 6436TIP3    H119265   2.987   1.560   4.455
 6436TIP3    H219266   3.081   1.679   4.480
 6437TIP3   OH219267   3.024   2.591   5.584
 6437TIP3    H119268   3.053   2.572   5.674
 6437TIP3    H219269   2.985   2.680   5.592
 6438TIP3   OH219270   3.151   1.843   4.562
 6438TIP3    H119271   3.248   1.839   4.571
 6438TIP3    H219272   3.138   1.920   4.504
 6439TIP3   OH219273   2.316   2.294   5.261
 6439TIP3    H119274   2.353   2.267   5.174
 6439TIP3    H219275   2.368   2.238   5.321
 6440TIP3   OH219276   2.768   2.420   4.406
 6440TIP3    H119277   2.720   2.506   4.412
 6440TIP3    H219278   2.717   2.366   4.470
 6441TIP3   OH219279   2.201   2.218   5.879
 6441TIP3    H119280   2.225   2.206   5.973
 6441TIP3    H219281   2.137   2.146   5.866
 6442TIP3   OH219282   2.927   2.332   5.894
 6442TIP3    H119283   2.865   2.271   5.850
 6442TIP3    H219284   3.013   2.294   5.866
 6443TIP3   OH219285   3.183   2.854   5.481
 6443TIP3    H119286   3.087   2.849   5.495
 6443TIP3    H219287   3.210   2.905   5.560
 6444TIP3   OH219288   3.589   1.909   4.399
 6444TIP3    H119289   3.534   1.860   4.334
 6444TIP3    H219290   3.574   1.999   4.360
 6445TIP3   OH219291   3.814   2.785   5.467
 6445TIP3    H119292   3.716   2.777   5.460
 6445TIP3    H219293   3.840   2.752   5.378
 6446TIP3   OH219294   3.287   2.741   4.294
 6446TIP3    H119295   3.281   2.668   4.357
 6446TIP3    H219296   3.312   2.695   4.212
 6447TIP3   OH219297   3.290   2.371   5.133
 6447TIP3    H119298   3.196   2.347   5.145
 6447TIP3    H219299   3.323   2.290   5.088
 6448TIP3   OH219300   2.421   2.602   4.892
 6448TIP3    H119301   2.420   2.681   4.835
 6448TIP3    H219302   2.328   2.580   4.898
 6449TIP3   OH219303   1.983   1.902   4.593
 6449TIP3    H119304   2.028   1.986   4.615
 6449TIP3    H219305   1.907   1.905   4.655
 6450TIP3   OH219306   2.548   2.361   4.829
 6450TIP3    H119307   2.519   2.452   4.851
 6450TIP3    H219308   2.517   2.311   4.906
 6451TIP3   OH219309   2.689   2.941   5.356
 6451TIP3    H119310   2.731   3.014   5.306
 6451TIP3    H219311   2.766   2.903   5.402
 6452TIP3   OH219312   2.337   2.838   4.739
 6452TIP3    H119313   2.252   2.849   4.786
 6452TIP3    H219314   2.372   2.930   4.742
 6453TIP3   OH219315   3.074   2.577   5.316
 6453TIP3    H119316   3.064   2.574   5.414
 6453TIP3    H219317   3.150   2.520   5.302
 6454TIP3   OH219318   3.053   2.473   4.202
 6454TIP3    H119319   3.109   2.450   4.280
 6454TIP3    H219320   2.968   2.440   4.234
 6455TIP3   OH219321   3.323   3.109   5.367
 6455TIP3    H119322   3.243   3.052   5.361
 6455TIP3    H219323   3.307   3.172   5.294
 6456TIP3   OH219324   3.391   2.946   4.015
 6456TIP3    H119325   3.436   3.025   3.982
 6456TIP3    H219326   3.308   2.986   4.048
 6457TIP3   OH219327   2.407   1.718   5.880
 6457TIP3    H119328   2.312   1.726   5.899
 6457TIP3    H219329   2.439   1.671   5.959
 6458TIP3   OH219330   3.205   2.410   4.423
 6458TIP3    H119331   3.197   2.337   4.488
 6458TIP3    H219332   3.302   2.406   4.407
 6459TIP3   OH219333   2.125   2.803   5.516
 6459TIP3    H119334   2.181   2.731   5.550
 6459TIP3    H219335   2.155   2.877   5.569
 6460TIP3   OH219336   2.412   2.450   4.200
 6460TIP3    H119337   2.430   2.358   4.174
 6460TIP3    H219338   2.393   2.440   4.295
 6461TIP3   OH219339   2.359   2.455   4.473
 6461TIP3    H119340   2.436   2.426   4.522
 6461TIP3    H219341   2.364   2.553   4.481
 6462TIP3   OH219342   2.093   2.146   4.676
 6462TIP3    H119343   2.027   2.192   4.732
 6462TIP3    H219344   2.109   2.214   4.608
 6463TIP3   OH219345   3.246   1.787   5.572
 6463TIP3    H119346   3.330   1.822   5.606
 6463TIP3    H219347   3.234   1.705   5.624
 6464TIP3   OH219348   3.120   1.534   4.740
 6464TIP3    H119349   3.108   1.548   4.643
 6464TIP3    H219350   3.162   1.617   4.767
 6465TIP3   OH219351   2.626   2.650   4.418
 6465TIP3    H119352   2.540   2.675   4.456
 6465TIP3    H219353   2.644   2.728   4.364
 6466TIP3   OH219354   2.810   1.718   4.835
 6466TIP3    H119355   2.876   1.788   4.816
 6466TIP3    H219356   2.820   1.709   4.933
 6467TIP3   OH219357   3.085   2.031   5.639
 6467TIP3    H119358   3.111   2.081   5.719
 6467TIP3    H219359   3.137   1.950   5.647
 6468TIP3   OH219360   2.956   1.437   4.936
 6468TIP3    H119361   2.947   1.517   4.991
 6468TIP3    H219362   3.017   1.469   4.866
 6469TIP3   OH219363   2.372   2.727   4.489
 6469TIP3    H119364   2.342   2.798   4.427
 6469TIP3    H219365   2.357   2.770   4.576
 6470TIP3   OH219366   2.472   1.443   4.725
 6470TIP3    H119367   2.471   1.532   4.764
 6470TIP3    H219368   2.568   1.424   4.732
 6471TIP3   OH219369   3.725   1.933   5.624
 6471TIP3    H119370   3.627   1.932   5.632
 6471TIP3    H219371   3.735   1.891   5.537
 6472TIP3   OH219372   3.375   2.127   5.013
 6472TIP3    H119373   3.300   2.067   5.020
 6472TIP3    H219374   3.446   2.078   5.059
 6473TIP3   OH219375   2.091   2.353   4.478
 6473TIP3    H119376   2.163   2.417   4.489
 6473TIP3    H219377   2.133   2.293   4.412
 6474TIP3   OH219378   2.030   1.631   4.617
 6474TIP3    H119379   2.031   1.729   4.612
 6474TIP3    H219380   1.954   1.609   4.561
 6475TIP3   OH219381   3.345   3.089   4.959
 6475TIP3    H119382   3.302   3.136   4.885
 6475TIP3    H219383   3.439   3.107   4.938
 6476TIP3   OH219384   2.418   1.351   5.486
 6476TIP3    H119385   2.391   1.317   5.398
 6476TIP3    H219386   2.411   1.271   5.541
 6477TIP3   OH219387   1.956   2.569   4.864
 6477TIP3    H119388   1.889   2.601   4.925
 6477TIP3    H219389   1.927   2.611   4.780
 6478TIP3   OH219390   2.119   3.118   5.940
 6478TIP3    H119391   2.206   3.119   5.986
 6478TIP3    H219392   2.102   3.023   5.937
 6479TIP3   OH219393   2.595   3.073   5.984
 6479TIP3    H119394   2.689   3.056   5.989
 6479TIP3    H219395   2.569   3.012   5.911
 6480TIP3   OH219396   2.577   2.650   4.107
 6480TIP3    H119397   2.522   2.579   4.147
 6480TIP3    H219398   2.655   2.598   4.081
 6481TIP3   OH219399   3.234   2.985   5.719
 6481TIP3    H119400   3.228   2.915   5.787
 6481TIP3    H219401   3.312   3.035   5.748
 6482TIP3   OH219402   3.015   2.688   4.025
 6482TIP3    H119403   3.053   2.625   4.090
 6482TIP3    H219404   3.079   2.682   3.951
 6483TIP3   OH219405   2.248   2.521   6.140
 6483TIP3    H119406   2.266   2.426   6.148
 6483TIP3    H219407   2.161   2.521   6.093
 6484TIP3   OH219408   2.225   2.166   4.336
 6484TIP3    H119409   2.282   2.135   4.408
 6484TIP3    H219410   2.292   2.171   4.263
 6485TIP3   OH219411   2.853   2.607   5.913
 6485TIP3    H119412   2.813   2.627   5.826
 6485TIP3    H219413   2.884   2.514   5.902
 6486TIP3   OH219414   2.734   2.368   4.139
 6486TIP3    H119415   2.740   2.380   4.236
 6486TIP3    H219416   2.738   2.270   4.132
 6487TIP3   OH219417   3.347   2.618   5.522
 6487TIP3    H119418   3.423   2.659   5.477
 6487TIP3    H219419   3.277   2.683   5.504
 6488TIP3   OH219420   2.368   2.260   6.119
 6488TIP3    H119421   2.437   2.194   6.106
 6488TIP3    H219422   2.391   2.289   6.210
 6489TIP3   OH219423   2.428   2.075   4.551
 6489TIP3    H119424   2.406   2.032   4.635
 6489TIP3    H219425   2.469   2.001   4.500
 6490TIP3   OH219426   2.699   2.135   5.780
 6490TIP3    H119427   2.623   2.197   5.783
 6490TIP3    H219428   2.753   2.172   5.706
 6491TIP3   OH219429   2.535   1.871   4.394
 6491TIP3    H119430   2.512   1.877   4.299
 6491TIP3    H219431   2.633   1.871   4.388
 6492TIP3   OH219432   3.221   2.541   5.916
 6492TIP3    H119433   3.295   2.507   5.865
 6492TIP3    H219434   3.213   2.475   5.987
 6493TIP3   OH219435   3.348   2.198   4.057
 6493TIP3    H119436   3.330   2.154   3.972
 6493TIP3    H219437   3.316   2.289   4.036
 6494TIP3   OH219438   2.827   1.927   5.903
 6494TIP3    H119439   2.827   1.848   5.845
 6494TIP3    H219440   2.782   1.994   5.847
 6495TIP3   OH219441   2.828   1.714   5.717
 6495TIP3    H119442   2.857   1.755   5.633
 6495TIP3    H219443   2.735   1.690   5.697
 6496TIP3   OH219444   2.851   2.248   5.590
 6496TIP3    H119445   2.937   2.259   5.548
 6496TIP3    H219446   2.795   2.313   5.543
 6497TIP3   OH219447   3.435   2.214   5.968
 6497TIP3    H119448   3.482   2.130   5.976
 6497TIP3    H219449   3.502   2.271   5.930
 6498TIP3   OH219450   3.476   2.470   5.708
 6498TIP3    H119451   3.419   2.525   5.649
 6498TIP3    H219452   3.564   2.491   5.669
 6499TIP3   OH219453   2.712   2.035   6.137
 6499TIP3    H119454   2.635   1.979   6.159
 6499TIP3    H219455   2.737   2.001   6.048
 6500TIP3   OH219456   2.960   1.476   5.787
 6500TIP3    H119457   2.909   1.557   5.763
 6500TIP3    H219458   2.893   1.406   5.774
 6501TIP3   OH219459   3.085   1.977   5.998
 6501TIP3    H119460   3.066   1.963   6.093
 6501TIP3    H219461   2.997   1.955   5.962
 6502TIP3   OH219462   3.325   1.932   5.857
 6502TIP3    H119463   3.249   1.932   5.919
 6502TIP3    H219464   3.398   1.901   5.913
 6503TIP3   OH219465   3.557   1.873   6.005
 6503TIP3    H119466   3.568   1.777   6.020
 6503TIP3    H219467   3.552   1.909   6.096
 6504TIP3   OH219468   2.540   1.815   6.190
 6504TIP3    H119469   2.547   1.723   6.161
 6504TIP3    H219470   2.576   1.809   6.281
 6505TIP3   OH219471   3.051   1.483   6.046
 6505TIP3    H119472   3.117   1.412   6.036
 6505TIP3    H219473   3.011   1.482   5.956
 6506TIP3   OH219474   3.121   1.700   6.202
 6506TIP3    H119475   3.099   1.629   6.138
 6506TIP3    H219476   3.043   1.759   6.194
 6507TIP3   OH219477   2.342   2.929   4.299
 6507TIP3    H119478   2.438   2.920   4.282
 6507TIP3    H219479   2.317   2.984   4.222
 6508TIP3   OH219480   1.821   2.312   4.515
 6508TIP3    H119481   1.916   2.333   4.500
 6508TIP3    H219482   1.815   2.223   4.475
 6509TIP3   OH219483   1.736   2.922   4.932
 6509TIP3    H119484   1.671   2.860   4.892
 6509TIP3    H219485   1.781   2.863   4.996
 6510TIP3   OH219486   1.871   2.770   5.118
 6510TIP3    H119487   1.860   2.699   5.184
 6510TIP3    H219488   1.925   2.833   5.168
 6511TIP3   OH219489   3.598   3.181   4.919
 6511TIP3    H119490   3.633   3.207   5.006
 6511TIP3    H219491   3.670   3.207   4.859
 6512TIP3   OH219492   3.630   3.195   5.203
 6512TIP3    H119493   3.581   3.110   5.196
 6512TIP3    H219494   3.704   3.167   5.258
 6513TIP3   OH219495   3.675   2.871   5.775
 6513TIP3    H119496   3.602   2.881   5.840
 6513TIP3    H219497   3.717   2.959   5.778
 6514TIP3   OH219498   3.474   2.404   4.407
 6514TIP3    H119499   3.540   2.466   4.372
 6514TIP3    H219500   3.529   2.347   4.464
 6515TIP3   OH219501   3.620   2.249   4.593
 6515TIP3    H119502   3.549   2.209   4.647
 6515TIP3    H219503   3.677   2.291   4.660
 6516TIP3   OH219504   3.676   2.646   5.029
 6516TIP3    H119505   3.726   2.576   4.982
 6516TIP3    H219506   3.672   2.717   4.963
 6517TIP3   OH219507   3.503   2.947   5.222
 6517TIP3    H119508   3.429   2.986   5.273
 6517TIP3    H219509   3.455   2.900   5.150
 6518TIP3   OH219510   3.525   2.131   4.262
 6518TIP3    H119511   3.465   2.152   4.187
 6518TIP3    H219512   3.583   2.208   4.261
 6519TIP3   OH219513   3.427   1.802   4.203
 6519TIP3    H119514   3.394   1.861   4.134
 6519TIP3    H219515   3.386   1.718   4.179
 6520TIP3   OH219516   3.429   2.112   4.740
 6520TIP3    H119517   3.438   2.016   4.727
 6520TIP3    H219518   3.416   2.119   4.837
 6521TIP3   OH219519   2.056   2.187   5.490
 6521TIP3    H119520   2.055   2.150   5.399
 6521TIP3    H219521   2.153   2.187   5.507
 6522TIP3   OH219522   3.722   2.535   5.601
 6522TIP3    H119523   3.793   2.467   5.589
 6522TIP3    H219524   3.745   2.600   5.533
 6523TIP3   OH219525   3.904   2.335   5.610
 6523TIP3    H119526   3.829   2.285   5.650
 6523TIP3    H219527   3.977   2.271   5.628
 6524TIP3   OH219528   3.431   1.828   4.634
 6524TIP3    H119529   3.470   1.739   4.649
 6524TIP3    H219530   3.488   1.858   4.560
 6525TIP3   OH219531   3.589   1.995   5.133
 6525TIP3    H119532   3.674   2.019   5.090
 6525TIP3    H219533   3.605   2.034   5.221
 6526TIP3   OH219534   3.662   2.143   5.362
 6526TIP3    H119535   3.584   2.177   5.409
 6526TIP3    H219536   3.695   2.224   5.317
 6527TIP3   OH219537   2.273   1.865   6.153
 6527TIP3    H119538   2.370   1.869   6.165
 6527TIP3    H219539   2.254   1.782   6.201
 6528TIP3   OH219540   4.111   1.737   5.918
 6528TIP3    H119541   4.172   1.673   5.875
 6528TIP3    H219542   4.079   1.788   5.841
 6529TIP3   OH219543   3.533   1.578   4.679
 6529TIP3    H119544   3.583   1.558   4.760
 6529TIP3    H219545   3.474   1.500   4.673
 6530TIP3   OH219546   2.237   1.562   5.501
 6530TIP3    H119547   2.297   1.484   5.504
 6530TIP3    H219548   2.300   1.634   5.487
 6531TIP3   OH219549   2.037   1.834   5.563
 6531TIP3    H119550   2.087   1.826   5.480
 6531TIP3    H219551   2.077   1.912   5.602
 6532TIP3   OH219552   3.978   1.871   5.722
 6532TIP3    H119553   3.893   1.915   5.739
 6532TIP3    H219554   3.947   1.798   5.664
 6533TIP3   OH219555   3.657   1.500   4.335
 6533TIP3    H119556   3.670   1.441   4.258
 6533TIP3    H219557   3.693   1.584   4.303
 6534TIP3   OH219558   2.023   1.347   5.076
 6534TIP3    H119559   1.929   1.331   5.096
 6534TIP3    H219560   2.018   1.400   4.993
 6535TIP3   OH219561   3.183   3.044   4.574
 6535TIP3    H119562   3.231   3.028   4.490
 6535TIP3    H219563   3.242   3.107   4.618
 6536TIP3   OH219564   2.230   1.392   5.881
 6536TIP3    H119565   2.187   1.420   5.964
 6536TIP3    H219566   2.178   1.444   5.817
 6537TIP3   OH219567   2.282   2.851   5.957
 6537TIP3    H119568   2.190   2.822   5.942
 6537TIP3    H219569   2.296   2.826   6.049
 6538TIP3   OH219570   2.462   2.882   5.506
 6538TIP3    H119571   2.417   2.959   5.466
 6538TIP3    H219572   2.549   2.894   5.462
 6539TIP3   OH219573   2.902   3.122   5.644
 6539TIP3    H119574   2.945   3.122   5.733
 6539TIP3    H219575   2.968   3.174   5.592
 6540TIP3   OH219576   3.082   3.276   5.506
 6540TIP3    H119577   3.151   3.225   5.461
 6540TIP3    H219578   3.136   3.332   5.566
 6541TIP3   OH219579   3.878   1.635   5.603
 6541TIP3    H119580   3.789   1.628   5.565
 6541TIP3    H219581   3.911   1.543   5.593
 6542TIP3   OH219582   2.136   3.134   5.532
 6542TIP3    H119583   2.046   3.166   5.509
 6542TIP3    H219584   2.150   3.181   5.614
 6543TIP3   OH219585   2.373   3.115   5.390
 6543TIP3    H119586   2.285   3.127   5.432
 6543TIP3    H219587   2.356   3.146   5.299
 6544TIP3   OH219588   2.799   3.140   5.189
 6544TIP3    H119589   2.731   3.157   5.120
 6544TIP3    H219590   2.810   3.229   5.228
 6545TIP3   OH219591   3.068   3.082   5.242
 6545TIP3    H119592   2.974   3.097   5.221
 6545TIP3    H219593   3.111   3.153   5.192
 6546TIP3   OH219594   3.279   3.275   5.152
 6546TIP3    H119595   3.260   3.356   5.102
 6546TIP3    H219596   3.304   3.212   5.080
 6547TIP3   OH219597   2.046   2.926   5.274
 6547TIP3    H119598   2.075   2.900   5.365
 6547TIP3    H219599   2.119   2.884   5.223
 6548TIP3   OH219600   2.244   2.801   5.135
 6548TIP3    H119601   2.260   2.717   5.183
 6548TIP3    H219602   2.335   2.837   5.129
 6549TIP3   OH219603   2.510   2.892   5.139
 6549TIP3    H119604   2.541   2.801   5.126
 6549TIP3    H219605   2.559   2.915   5.221
 6550TIP3   OH219606   3.085   1.551   5.228
 6550TIP3    H119607   3.042   1.478   5.276
 6550TIP3    H219608   3.157   1.506   5.180
 6551TIP3   OH219609   3.605   1.436   5.133
 6551TIP3    H119610   3.642   1.484   5.056
 6551TIP3    H219611   3.510   1.450   5.122
 6552TIP3   OH219612   3.702   1.525   4.895
 6552TIP3    H119613   3.775   1.477   4.851
 6552TIP3    H219614   3.732   1.617   4.880
 6553TIP3   OH219615   2.332   1.259   5.238
 6553TIP3    H119616   2.239   1.227   5.241
 6553TIP3    H219617   2.378   1.173   5.231
 6554TIP3   OH219618   2.124   1.131   4.887
 6554TIP3    H119619   2.152   1.187   4.813
 6554TIP3    H219620   2.096   1.196   4.953
 6555TIP3   OH219621   2.779   1.291   5.120
 6555TIP3    H119622   2.834   1.338   5.055
 6555TIP3    H219623   2.809   1.329   5.204
 6556TIP3   OH219624   3.323   1.441   5.102
 6556TIP3    H119625   3.319   1.405   5.012
 6556TIP3    H219626   3.310   1.359   5.156
 6557TIP3   OH219627   3.357   1.361   4.668
 6557TIP3    H119628   3.268   1.399   4.661
 6557TIP3    H219629   3.338   1.277   4.714
 6558TIP3   OH219630   1.836   2.705   4.664
 6558TIP3    H119631   1.750   2.672   4.631
 6558TIP3    H219632   1.827   2.799   4.642
 6559TIP3   OH219633   2.240   1.289   4.648
 6559TIP3    H119634   2.286   1.224   4.591
 6559TIP3    H219635   2.315   1.341   4.682
 6560TIP3   OH219636   2.749   1.466   4.747
 6560TIP3    H119637   2.810   1.418   4.805
 6560TIP3    H219638   2.773   1.558   4.772
 6561TIP3   OH219639   2.609   2.885   4.247
 6561TIP3    H119640   2.698   2.907   4.212
 6561TIP3    H219641   2.587   2.810   4.188
 6562TIP3   OH219642   3.324   3.005   4.340
 6562TIP3    H119643   3.316   2.907   4.330
 6562TIP3    H219644   3.281   3.035   4.258
 6563TIP3   OH219645   2.541   1.538   6.125
 6563TIP3    H119646   2.506   1.471   6.185
 6563TIP3    H219647   2.636   1.539   6.151
 6564TIP3   OH219648   2.793   1.534   6.240
 6564TIP3    H119649   2.879   1.511   6.200
 6564TIP3    H219650   2.784   1.465   6.309
 6565TIP3   OH219651   1.912   2.725   4.302
 6565TIP3    H119652   1.917   2.745   4.396
 6565TIP3    H219653   2.000   2.682   4.286
 6566TIP3   OH219654   3.618   1.601   6.034
 6566TIP3    H119655   3.635   1.570   6.126
 6566TIP3    H219656   3.707   1.595   5.995
 6567TIP3   OH219657   3.551   3.150   5.529
 6567TIP3    H119658   3.474   3.120   5.477
 6567TIP3    H219659   3.531   3.246   5.535
 6568TIP3   OH219660   4.821   2.526   4.292
 6568TIP3    H119661   4.789   2.616   4.269
 6568TIP3    H219662   4.747   2.473   4.257
 6569TIP3   OH219663   4.824   2.526   4.678
 6569TIP3    H119664   4.855   2.497   4.765
 6569TIP3    H219665   4.780   2.447   4.644
 6570TIP3   OH219666   4.118   2.419   5.042
 6570TIP3    H119667   4.148   2.349   5.102
 6570TIP3    H219668   4.200   2.467   5.025
 6571TIP3   OH219669   5.068   2.826   4.358
 6571TIP3    H119670   5.046   2.758   4.423
 6571TIP3    H219671   5.096   2.901   4.414
 6572TIP3   OH219672   4.093   2.833   4.767
 6572TIP3    H119673   4.085   2.734   4.766
 6572TIP3    H219674   4.189   2.842   4.755
 6573TIP3   OH219675   3.796   2.029   4.548
 6573TIP3    H119676   3.745   2.111   4.559
 6573TIP3    H219677   3.730   1.974   4.502
 6574TIP3   OH219678   3.857   2.322   4.730
 6574TIP3    H119679   3.906   2.242   4.758
 6574TIP3    H219680   3.899   2.343   4.645
 6575TIP3   OH219681   4.717   3.289   4.376
 6575TIP3    H119682   4.758   3.219   4.322
 6575TIP3    H219683   4.703   3.244   4.460
 6576TIP3   OH219684   4.616   2.752   4.725
 6576TIP3    H119685   4.654   2.676   4.678
 6576TIP3    H219686   4.700   2.797   4.749
 6577TIP3   OH219687   5.635   2.069   4.722
 6577TIP3    H119688   5.664   2.153   4.762
 6577TIP3    H219689   5.656   2.084   4.629
 6578TIP3   OH219690   5.031   2.250   4.753
 6578TIP3    H119691   5.074   2.164   4.773
 6578TIP3    H219692   4.999   2.233   4.663
 6579TIP3   OH219693   4.375   1.911   4.718
 6579TIP3    H119694   4.351   1.983   4.656
 6579TIP3    H219695   4.327   1.836   4.675
 6580TIP3   OH219696   5.066   2.004   4.340
 6580TIP3    H119697   5.137   1.988   4.406
 6580TIP3    H219698   5.119   2.038   4.266
 6581TIP3   OH219699   4.002   2.110   4.829
 6581TIP3    H119700   4.086   2.091   4.874
 6581TIP3    H219701   4.013   2.055   4.748
 6582TIP3   OH219702   4.440   2.309   4.626
 6582TIP3    H119703   4.535   2.285   4.635
 6582TIP3    H219704   4.402   2.226   4.591
 6583TIP3   OH219705   5.708   2.280   4.891
 6583TIP3    H119706   5.624   2.325   4.870
 6583TIP3    H219707   5.720   2.308   4.983
 6584TIP3   OH219708   4.366   1.895   5.156
 6584TIP3    H119709   4.307   1.931   5.087
 6584TIP3    H219710   4.312   1.913   5.236
 6585TIP3   OH219711   4.708   2.744   4.162
 6585TIP3    H119712   4.669   2.729   4.075
 6585TIP3    H219713   4.663   2.826   4.190
 6586TIP3   OH219714   4.474   2.671   4.947
 6586TIP3    H119715   4.413   2.739   4.983
 6586TIP3    H219716   4.514   2.718   4.871
 6587TIP3   OH219717   5.271   2.007   4.518
 6587TIP3    H119718   5.253   1.964   4.603
 6587TIP3    H219719   5.322   2.085   4.545
 6588TIP3   OH219720   4.240   2.008   4.937
 6588TIP3    H119721   4.301   2.080   4.961
 6588TIP3    H219722   4.287   1.969   4.861
 6589TIP3   OH219723   4.302   2.867   5.049
 6589TIP3    H119724   4.276   2.952   5.010
 6589TIP3    H219725   4.222   2.849   5.103
 6590TIP3   OH219726   3.671   2.566   4.305
 6590TIP3    H119727   3.698   2.530   4.220
 6590TIP3    H219728   3.733   2.639   4.317
 6591TIP3   OH219729   5.135   3.073   4.525
 6591TIP3    H119730   5.045   3.063   4.564
 6591TIP3    H219731   5.124   3.158   4.477
 6592TIP3   OH219732   5.427   1.968   4.888
 6592TIP3    H119733   5.339   1.994   4.855
 6592TIP3    H219734   5.487   2.001   4.818
 6593TIP3   OH219735   4.721   1.612   4.874
 6593TIP3    H119736   4.701   1.517   4.886
 6593TIP3    H219737   4.643   1.652   4.919
 6594TIP3   OH219738   4.833   3.117   4.196
 6594TIP3    H119739   4.881   3.033   4.177
 6594TIP3    H219740   4.897   3.180   4.156
 6595TIP3   OH219741   4.975   2.902   4.109
 6595TIP3    H119742   4.943   2.822   4.064
 6595TIP3    H219743   5.014   2.864   4.191
 6596TIP3   OH219744   5.360   2.981   4.867
 6596TIP3    H119745   5.346   2.903   4.808
 6596TIP3    H219746   5.341   3.055   4.806
 6597TIP3   OH219747   4.653   2.376   4.127
 6597TIP3    H119748   4.572   2.429   4.110
 6597TIP3    H219749   4.694   2.375   4.039
 6598TIP3   OH219750   4.611   2.162   3.837
 6598TIP3    H119751   4.676   2.215   3.885
 6598TIP3    H219752   4.670   2.099   3.791
 6599TIP3   OH219753   5.555   2.623   4.716
 6599TIP3    H119754   5.469   2.672   4.718
 6599TIP3    H219755   5.584   2.646   4.625
 6600TIP3   OH219756   5.000   2.458   4.095
 6600TIP3    H119757   4.944   2.482   4.172
 6600TIP3    H219758   5.084   2.435   4.139
 6601TIP3   OH219759   5.233   2.496   5.012
 6601TIP3    H119760   5.229   2.580   5.062
 6601TIP3    H219761   5.146   2.498   4.967
 6602TIP3   OH219762   4.226   2.454   4.512
 6602TIP3    H119763   4.181   2.398   4.445
 6602TIP3    H219764   4.301   2.398   4.539
 6603TIP3   OH219765   4.359   2.869   4.661
 6603TIP3    H119766   4.337   2.835   4.572
 6603TIP3    H219767   4.447   2.830   4.676
 6604TIP3   OH219768   4.368   2.425   4.873
 6604TIP3    H119769   4.396   2.401   4.782
 6604TIP3    H219770   4.410   2.513   4.885
 6605TIP3   OH219771   4.894   3.066   4.646
 6605TIP3    H119772   4.880   3.145   4.701
 6605TIP3    H219773   4.876   2.992   4.708
 6606TIP3   OH219774   4.506   2.984   5.193
 6606TIP3    H119775   4.444   3.045   5.238
 6606TIP3    H219776   4.443   2.930   5.141
 6607TIP3   OH219777   4.840   2.315   3.919
 6607TIP3    H119778   4.896   2.378   3.969
 6607TIP3    H219779   4.866   2.335   3.826
 6608TIP3   OH219780   4.263   2.536   5.301
 6608TIP3    H119781   4.265   2.626   5.340
 6608TIP3    H219782   4.167   2.517   5.308
 6609TIP3   OH219783   4.585   2.993   4.204
 6609TIP3    H119784   4.665   3.047   4.208
 6609TIP3    H219785   4.524   3.048   4.152
 6610TIP3   OH219786   4.299   3.150   5.280
 6610TIP3    H119787   4.265   3.153   5.188
 6610TIP3    H219788   4.218   3.128   5.331
 6611TIP3   OH219789   5.355   1.555   3.972
 6611TIP3    H119790   5.273   1.579   4.021
 6611TIP3    H219791   5.371   1.637   3.921
 6612TIP3   OH219792   4.071   2.304   4.312
 6612TIP3    H119793   4.008   2.343   4.249
 6612TIP3    H219794   4.037   2.214   4.312
 6613TIP3   OH219795   5.155   2.933   3.519
 6613TIP3    H119796   5.165   3.029   3.503
 6613TIP3    H219797   5.247   2.902   3.509
 6614TIP3   OH219798   3.878   2.684   5.225
 6614TIP3    H119799   3.811   2.664   5.157
 6614TIP3    H219800   3.916   2.596   5.245
 6615TIP3   OH219801   3.734   2.874   4.859
 6615TIP3    H119802   3.828   2.865   4.844
 6615TIP3    H219803   3.730   2.953   4.915
 6616TIP3   OH219804   5.596   3.330   4.915
 6616TIP3    H119805   5.596   3.234   4.929
 6616TIP3    H219806   5.513   3.355   4.961
 6617TIP3   OH219807   4.703   3.111   5.051
 6617TIP3    H119808   4.699   3.204   5.082
 6617TIP3    H219809   4.630   3.071   5.103
 6618TIP3   OH219810   4.466   3.244   3.998
 6618TIP3    H119811   4.421   3.216   3.916
 6618TIP3    H219812   4.425   3.329   4.018
 6619TIP3   OH219813   3.905   3.093   4.385
 6619TIP3    H119814   3.947   3.083   4.473
 6619TIP3    H219815   3.859   3.008   4.377
 6620TIP3   OH219816   4.665   3.143   3.639
 6620TIP3    H119817   4.724   3.074   3.601
 6620TIP3    H219818   4.700   3.151   3.729
 6621TIP3   OH219819   4.718   3.193   3.910
 6621TIP3    H119820   4.628   3.204   3.949
 6621TIP3    H219821   4.765   3.147   3.981
 6622TIP3   OH219822   5.486   2.457   5.189
 6622TIP3    H119823   5.402   2.467   5.142
 6622TIP3    H219824   5.502   2.361   5.180
 6623TIP3   OH219825   4.082   2.867   5.212
 6623TIP3    H119826   4.131   2.848   5.294
 6623TIP3    H219827   4.007   2.803   5.218
 6624TIP3   OH219828   4.483   1.688   5.001
 6624TIP3    H119829   4.395   1.658   4.971
 6624TIP3    H219830   4.456   1.769   5.048
 6625TIP3   OH219831   5.018   1.802   5.194
 6625TIP3    H119832   5.086   1.776   5.258
 6625TIP3    H219833   4.934   1.784   5.241
 6626TIP3   OH219834   5.254   2.234   5.113
 6626TIP3    H119835   5.202   2.230   5.197
 6626TIP3    H219836   5.230   2.321   5.076
 6627TIP3   OH219837   4.913   2.354   3.661
 6627TIP3    H119838   4.877   2.339   3.571
 6627TIP3    H219839   4.987   2.413   3.641
 6628TIP3   OH219840   4.629   1.734   3.971
 6628TIP3    H119841   4.592   1.731   4.062
 6628TIP3    H219842   4.586   1.654   3.934
 6629TIP3   OH219843   4.416   2.204   5.020
 6629TIP3    H119844   4.363   2.225   5.099
 6629TIP3    H219845   4.401   2.285   4.966
 6630TIP3   OH219846   4.297   2.091   4.532
 6630TIP3    H119847   4.203   2.067   4.549
 6630TIP3    H219848   4.309   2.051   4.443
 6631TIP3   OH219849   4.790   2.177   4.262
 6631TIP3    H119850   4.738   2.248   4.217
 6631TIP3    H219851   4.843   2.143   4.188
 6632TIP3   OH219852   4.963   2.452   5.344
 6632TIP3    H119853   4.942   2.379   5.406
 6632TIP3    H219854   5.058   2.466   5.366
 6633TIP3   OH219855   4.944   2.203   4.497
 6633TIP3    H119856   4.882   2.231   4.427
 6633TIP3    H219857   4.980   2.124   4.452
 6634TIP3   OH219858   4.235   2.233   5.225
 6634TIP3    H119859   4.261   2.297   5.292
 6634TIP3    H219860   4.222   2.151   5.277
 6635TIP3   OH219861   4.283   1.711   3.936
 6635TIP3    H119862   4.271   1.711   4.033
 6635TIP3    H219863   4.208   1.767   3.910
 6636TIP3   OH219864   3.822   1.752   4.818
 6636TIP3    H119865   3.904   1.785   4.858
 6636TIP3    H219866   3.847   1.728   4.727
 6637TIP3   OH219867   3.808   1.746   4.326
 6637TIP3    H119868   3.846   1.787   4.245
 6637TIP3    H219869   3.740   1.813   4.347
 6638TIP3   OH219870   4.958   2.448   4.920
 6638TIP3    H119871   4.990   2.376   4.860
 6638TIP3    H219872   4.926   2.393   4.995
 6639TIP3   OH219873   4.631   1.908   4.591
 6639TIP3    H119874   4.546   1.910   4.641
 6639TIP3    H219875   4.696   1.909   4.663
 6640TIP3   OH219876   4.057   1.969   4.600
 6640TIP3    H119877   3.963   1.981   4.571
 6640TIP3    H219878   4.076   1.877   4.574
 6641TIP3   OH219879   4.328   1.964   4.293
 6641TIP3    H119880   4.419   1.981   4.264
 6641TIP3    H219881   4.276   1.983   4.210
 6642TIP3   OH219882   5.117   1.988   4.795
 6642TIP3    H119883   5.086   2.002   4.887
 6642TIP3    H219884   5.048   1.928   4.761
 6643TIP3   OH219885   4.183   1.988   4.069
 6643TIP3    H119886   4.099   1.960   4.029
 6643TIP3    H219887   4.227   2.029   3.992
 6644TIP3   OH219888   5.291   3.677   5.015
 6644TIP3    H119889   5.287   3.701   4.921
 6644TIP3    H219890   5.370   3.726   5.045
 6645TIP3   OH219891   4.245   2.788   5.434
 6645TIP3    H119892   4.325   2.817   5.482
 6645TIP3    H219893   4.180   2.785   5.507
 6646TIP3   OH219894   4.707   2.241   4.690
 6646TIP3    H119895   4.781   2.204   4.641
 6646TIP3    H219896   4.714   2.196   4.776
 6647TIP3   OH219897   4.235   1.726   4.572
 6647TIP3    H119898   4.193   1.651   4.619
 6647TIP3    H219899   4.263   1.685   4.489
 6648TIP3   OH219900   4.685   2.140   4.979
 6648TIP3    H119901   4.594   2.174   4.992
 6648TIP3    H219902   4.740   2.203   5.029
 6649TIP3   OH219903   4.424   2.529   4.078
 6649TIP3    H119904   4.355   2.460   4.067
 6649TIP3    H219905   4.401   2.563   4.168
 6650TIP3   OH219906   5.319   2.764   4.701
 6650TIP3    H119907   5.342   2.816   4.621
 6650TIP3    H219908   5.235   2.721   4.675
 6651TIP3   OH219909   4.879   1.837   3.943
 6651TIP3    H119910   4.783   1.817   3.949
 6651TIP3    H219911   4.885   1.931   3.966
 6652TIP3   OH219912   4.823   2.849   5.070
 6652TIP3    H119913   4.848   2.828   5.161
 6652TIP3    H219914   4.781   2.937   5.079
 6653TIP3   OH219915   4.946   2.089   4.044
 6653TIP3    H119916   5.043   2.097   4.057
 6653TIP3    H219917   4.926   2.170   3.992
 6654TIP3   OH219918   4.120   2.559   4.748
 6654TIP3    H119919   4.151   2.526   4.661
 6654TIP3    H219920   4.151   2.489   4.807
 6655TIP3   OH219921   4.569   2.677   3.901
 6655TIP3    H119922   4.521   2.763   3.903
 6655TIP3    H219923   4.513   2.624   3.962
 6656TIP3   OH219924   3.996   2.470   5.363
 6656TIP3    H119925   4.010   2.453   5.458
 6656TIP3    H219926   3.925   2.406   5.343
 6657TIP3   OH219927   4.723   2.587   5.382
 6657TIP3    H119928   4.660   2.528   5.337
 6657TIP3    H219929   4.809   2.550   5.353
 6658TIP3   OH219930   4.980   3.111   4.967
 6658TIP3    H119931   4.884   3.105   4.981
 6658TIP3    H219932   5.007   3.162   5.047
 6659TIP3   OH219933   5.388   2.181   3.877
 6659TIP3    H119934   5.327   2.138   3.813
 6659TIP3    H219935   5.384   2.272   3.839
 6660TIP3   OH219936   5.610   3.041   4.954
 6660TIP3    H119937   5.512   3.033   4.947
 6660TIP3    H219938   5.636   3.009   4.865
 6661TIP3   OH219939   5.101   2.996   3.789
 6661TIP3    H119940   5.058   2.928   3.843
 6661TIP3    H219941   5.101   2.955   3.700
 6662TIP3   OH219942   5.087   2.627   4.620
 6662TIP3    H119943   4.993   2.603   4.633
 6662TIP3    H219944   5.119   2.547   4.574
 6663TIP3   OH219945   4.215   2.859   4.381
 6663TIP3    H119946   4.211   2.937   4.323
 6663TIP3    H219947   4.123   2.831   4.382
 6664TIP3   OH219948   4.350   2.621   4.321
 6664TIP3    H119949   4.316   2.710   4.341
 6664TIP3    H219950   4.310   2.568   4.393
 6665TIP3   OH219951   4.485   3.198   4.844
 6665TIP3    H119952   4.527   3.271   4.793
 6665TIP3    H219953   4.562   3.160   4.888
 6666TIP3   OH219954   4.133   3.098   4.226
 6666TIP3    H119955   4.048   3.105   4.273
 6666TIP3    H219956   4.164   3.191   4.228
 6667TIP3   OH219957   4.870   2.832   4.803
 6667TIP3    H119958   4.860   2.831   4.901
 6667TIP3    H219959   4.947   2.775   4.790
 6668TIP3   OH219960   4.838   2.746   3.692
 6668TIP3    H119961   4.895   2.711   3.763
 6668TIP3    H219962   4.753   2.705   3.713
 6669TIP3   OH219963   5.120   3.364   4.854
 6669TIP3    H119964   5.040   3.307   4.849
 6669TIP3    H219965   5.102   3.427   4.780
 6670TIP3   OH219966   5.189   3.206   3.503
 6670TIP3    H119967   5.222   3.283   3.454
 6670TIP3    H219968   5.106   3.244   3.538
 6671TIP3   OH219969   4.202   1.977   5.369
 6671TIP3    H119970   4.105   1.980   5.379
 6671TIP3    H219971   4.228   1.919   5.442
 6672TIP3   OH219972   5.008   2.662   3.904
 6672TIP3    H119973   4.998   2.595   3.974
 6672TIP3    H219974   5.105   2.657   3.888
 6673TIP3   OH219975   3.921   3.060   5.003
 6673TIP3    H119976   3.974   2.984   5.031
 6673TIP3    H219977   3.955   3.129   5.062
 6674TIP3   OH219978   4.207   2.706   3.685
 6674TIP3    H119979   4.226   2.614   3.659
 6674TIP3    H219980   4.184   2.694   3.780
 6675TIP3   OH219981   4.153   2.714   3.959
 6675TIP3    H119982   4.226   2.682   4.013
 6675TIP3    H219983   4.161   2.811   3.967
 6676TIP3   OH219984   5.046   2.040   5.055
 6676TIP3    H119985   5.126   2.079   5.095
 6676TIP3    H219986   5.032   1.959   5.109
 6677TIP3   OH219987   4.927   1.786   4.223
 6677TIP3    H119988   4.910   1.808   4.129
 6677TIP3    H219989   4.964   1.871   4.257
 6678TIP3   OH219990   4.428   2.908   3.910
 6678TIP3    H119991   4.340   2.935   3.944
 6678TIP3    H219992   4.436   2.964   3.832
 6679TIP3   OH219993   4.615   1.971   4.321
 6679TIP3    H119994   4.676   2.046   4.305
 6679TIP3    H219995   4.617   1.965   4.419
 6680TIP3   OH219996   4.882   2.288   5.127
 6680TIP3    H119997   4.906   2.341   5.206
 6680TIP3    H219998   4.934   2.207   5.138
 6681TIP3   OH219999   4.753   1.694   4.423
 6681TIP3    H120000   4.738   1.774   4.476
 6681TIP3    H220001   4.816   1.728   4.355
 6682TIP3   OH220002   4.174   2.987   3.976
 6682TIP3    H120003   4.141   3.056   3.914
 6682TIP3    H220004   4.155   3.027   4.063
 6683TIP3   OH220005   4.268   1.698   4.214
 6683TIP3    H120006   4.262   1.789   4.247
 6683TIP3    H220007   4.365   1.684   4.221
 6684TIP3   OH220008   5.521   2.190   5.109
 6684TIP3    H120009   5.423   2.190   5.119
 6684TIP3    H220010   5.529   2.144   5.024
 6685TIP3   OH220011   5.172   2.384   4.497
 6685TIP3    H120012   5.095   2.325   4.508
 6685TIP3    H220013   5.242   2.335   4.546
 6686TIP3   OH220014   3.880   2.636   3.949
 6686TIP3    H120015   3.965   2.681   3.963
 6686TIP3    H220016   3.913   2.557   3.901
 6687TIP3   OH220017   3.826   1.908   4.105
 6687TIP3    H120018   3.837   2.005   4.110
 6687TIP3    H220019   3.741   1.902   4.060
 6688TIP3   OH220020   5.141   3.344   4.446
 6688TIP3    H120021   5.098   3.392   4.372
 6688TIP3    H220022   5.235   3.362   4.423
 6689TIP3   OH220023   4.219   1.609   4.971
 6689TIP3    H120024   4.187   1.577   4.883
 6689TIP3    H220025   4.205   1.530   5.027
 6690TIP3   OH220026   3.770   2.848   4.352
 6690TIP3    H120027   3.693   2.847   4.410
 6690TIP3    H220028   3.731   2.878   4.267
 6691TIP3   OH220029   3.914   3.374   5.426
 6691TIP3    H120030   4.001   3.373   5.471
 6691TIP3    H220031   3.894   3.279   5.423
 6692TIP3   OH220032   4.392   3.330   5.470
 6692TIP3    H120033   4.486   3.310   5.475
 6692TIP3    H220034   4.364   3.269   5.398
 6693TIP3   OH220035   4.371   2.913   3.605
 6693TIP3    H120036   4.324   2.832   3.633
 6693TIP3    H220037   4.450   2.874   3.559
 6694TIP3   OH220038   5.031   3.242   5.206
 6694TIP3    H120039   5.024   3.171   5.274
 6694TIP3    H220040   5.109   3.292   5.235
 6695TIP3   OH220041   4.823   2.956   3.513
 6695TIP3    H120042   4.842   2.879   3.572
 6695TIP3    H220043   4.881   2.940   3.437
 6696TIP3   OH220044   4.043   2.777   5.626
 6696TIP3    H120045   4.058   2.681   5.632
 6696TIP3    H220046   3.956   2.779   5.579
 6697TIP3   OH220047   4.009   2.435   3.813
 6697TIP3    H120048   4.040   2.386   3.891
 6697TIP3    H220049   4.089   2.434   3.756
 6698TIP3   OH220050   4.649   2.863   5.400
 6698TIP3    H120051   4.608   2.883   5.313
 6698TIP3    H220052   4.680   2.771   5.389
 6699TIP3   OH220053   4.524   2.617   3.632
 6699TIP3    H120054   4.532   2.630   3.728
 6699TIP3    H220055   4.527   2.519   3.626
 6700TIP3   OH220056   5.144   2.874   5.009
 6700TIP3    H120057   5.218   2.917   4.964
 6700TIP3    H220058   5.072   2.938   4.991
 6701TIP3   OH220059   4.163   2.515   5.611
 6701TIP3    H120060   4.239   2.465   5.580
 6701TIP3    H220061   4.193   2.546   5.698
 6702TIP3   OH220062   4.243   2.328   4.053
 6702TIP3    H120063   4.187   2.286   4.120
 6702TIP3    H220064   4.268   2.252   3.996
 6703TIP3   OH220065   4.500   2.396   5.272
 6703TIP3    H120066   4.420   2.453   5.271
 6703TIP3    H220067   4.550   2.430   5.195
 6704TIP3   OH220068   4.329   2.125   3.879
 6704TIP3    H120069   4.303   2.135   3.786
 6704TIP3    H220070   4.426   2.129   3.872
 6705TIP3   OH220071   5.017   2.798   5.404
 6705TIP3    H120072   5.091   2.764   5.353
 6705TIP3    H220073   5.010   2.732   5.475
 6706TIP3   OH220074   5.166   2.444   3.546
 6706TIP3    H120075   5.131   2.403   3.464
 6706TIP3    H220076   5.132   2.536   3.534
 6707TIP3   OH220077   4.622   2.185   5.394
 6707TIP3    H120078   4.622   2.106   5.335
 6707TIP3    H220079   4.578   2.252   5.337
 6708TIP3   OH220080   4.624   1.970   5.204
 6708TIP3    H120081   4.652   2.012   5.120
 6708TIP3    H220082   4.531   1.948   5.185
 6709TIP3   OH220083   4.648   2.506   5.078
 6709TIP3    H120084   4.733   2.518   5.033
 6709TIP3    H220085   4.590   2.570   5.031
 6710TIP3   OH220086   5.227   2.471   5.453
 6710TIP3    H120087   5.276   2.391   5.479
 6710TIP3    H220088   5.298   2.526   5.417
 6711TIP3   OH220089   5.273   2.727   5.194
 6711TIP3    H120090   5.215   2.781   5.135
 6711TIP3    H220091   5.360   2.747   5.155
 6712TIP3   OH220092   4.501   2.290   5.629
 6712TIP3    H120093   4.433   2.222   5.644
 6712TIP3    H220094   4.533   2.267   5.540
 6713TIP3   OH220095   4.755   1.732   5.273
 6713TIP3    H120096   4.706   1.813   5.249
 6713TIP3    H220097   4.687   1.663   5.260
 6714TIP3   OH220098   4.882   2.234   5.487
 6714TIP3    H120099   4.868   2.219   5.582
 6714TIP3    H220100   4.793   2.212   5.454
 6715TIP3   OH220101   5.119   2.184   5.341
 6715TIP3    H120102   5.046   2.187   5.406
 6715TIP3    H220103   5.195   2.156   5.396
 6716TIP3   OH220104   5.351   2.126   5.486
 6716TIP3    H120105   5.363   2.031   5.507
 6716TIP3    H220106   5.345   2.167   5.575
 6717TIP3   OH220107   4.338   2.071   5.682
 6717TIP3    H120108   4.342   1.980   5.648
 6717TIP3    H220109   4.376   2.059   5.772
 6718TIP3   OH220110   4.847   1.740   5.532
 6718TIP3    H120111   4.914   1.670   5.523
 6718TIP3    H220112   4.808   1.738   5.442
 6719TIP3   OH220113   4.916   1.957   5.690
 6719TIP3    H120114   4.895   1.886   5.625
 6719TIP3    H220115   4.838   2.016   5.682
 6720TIP3   OH220116   4.141   3.194   3.791
 6720TIP3    H120117   4.235   3.180   3.771
 6720TIP3    H220118   4.114   3.239   3.709
 6721TIP3   OH220119   3.616   2.577   3.985
 6721TIP3    H120120   3.710   2.605   3.982
 6721TIP3    H220121   3.622   2.484   3.954
 6722TIP3   OH220122   3.526   3.178   4.417
 6722TIP3    H120123   3.463   3.112   4.380
 6722TIP3    H220124   3.575   3.122   4.482
 6723TIP3   OH220125   3.660   3.034   4.608
 6723TIP3    H120126   3.654   2.957   4.667
 6723TIP3    H220127   3.718   3.092   4.660
 6724TIP3   OH220128   5.397   3.430   4.406
 6724TIP3    H120129   5.425   3.460   4.494
 6724TIP3    H220130   5.463   3.470   4.347
 6725TIP3   OH220131   5.425   3.450   4.688
 6725TIP3    H120132   5.377   3.365   4.682
 6725TIP3    H220133   5.498   3.423   4.746
 6726TIP3   OH220134   5.470   3.128   5.261
 6726TIP3    H120135   5.398   3.138   5.326
 6726TIP3    H220136   5.513   3.216   5.265
 6727TIP3   OH220137   5.288   2.638   3.880
 6727TIP3    H120138   5.352   2.705   3.850
 6727TIP3    H220139   5.333   2.602   3.959
 6728TIP3   OH220140   5.417   2.507   4.085
 6728TIP3    H120141   5.348   2.466   4.142
 6728TIP3    H220142   5.479   2.545   4.151
 6729TIP3   OH220143   5.473   2.903   4.517
 6729TIP3    H120144   5.523   2.834   4.469
 6729TIP3    H220145   5.466   2.973   4.449
 6730TIP3   OH220146   5.299   3.203   4.709
 6730TIP3    H120147   5.225   3.243   4.759
 6730TIP3    H220148   5.250   3.156   4.637
 6731TIP3   OH220149   5.356   2.415   3.733
 6731TIP3    H120150   5.286   2.414   3.663
 6731TIP3    H220151   5.323   2.491   3.786
 6732TIP3   OH220152   5.227   2.088   3.679
 6732TIP3    H120153   5.175   2.127   3.607
 6732TIP3    H220154   5.202   1.994   3.671
 6733TIP3   OH220155   5.228   2.367   4.228
 6733TIP3    H120156   5.234   2.271   4.219
 6733TIP3    H220157   5.213   2.378   4.325
 6734TIP3   OH220158   3.852   2.436   4.980
 6734TIP3    H120159   3.849   2.403   4.888
 6734TIP3    H220160   3.949   2.439   4.995
 6735TIP3   OH220161   5.519   2.791   5.087
 6735TIP3    H120162   5.590   2.724   5.076
 6735TIP3    H220163   5.541   2.857   5.020
 6736TIP3   OH220164   5.702   2.592   5.094
 6736TIP3    H120165   5.627   2.543   5.135
 6736TIP3    H220166   5.774   2.528   5.113
 6737TIP3   OH220167   5.166   1.823   3.666
 6737TIP3    H120168   5.237   1.790   3.724
 6737TIP3    H220169   5.091   1.764   3.686
 6738TIP3   OH220170   5.226   2.084   4.121
 6738TIP3    H120171   5.266   1.995   4.136
 6738TIP3    H220172   5.283   2.116   4.049
 6739TIP3   OH220173   5.384   2.251   4.619
 6739TIP3    H120174   5.470   2.276   4.577
 6739TIP3    H220175   5.399   2.290   4.708
 6740TIP3   OH220176   5.457   2.399   4.848
 6740TIP3    H120177   5.380   2.433   4.897
 6740TIP3    H220178   5.490   2.481   4.804
 6741TIP3   OH220179   4.072   2.124   5.653
 6741TIP3    H120180   4.169   2.118   5.655
 6741TIP3    H220181   4.048   2.037   5.690
 6742TIP3   OH220182   5.908   1.994   5.404
 6742TIP3    H120183   5.968   1.929   5.362
 6742TIP3    H220184   5.876   2.045   5.327
 6743TIP3   OH220185   5.334   1.833   4.160
 6743TIP3    H120186   5.381   1.816   4.244
 6743TIP3    H220187   5.272   1.757   4.159
 6744TIP3   OH220188   4.036   1.818   4.988
 6744TIP3    H120189   4.097   1.742   4.990
 6744TIP3    H220190   4.098   1.892   4.973
 6745TIP3   OH220191   3.835   2.090   5.055
 6745TIP3    H120192   3.882   2.082   4.969
 6745TIP3    H220193   3.863   2.177   5.083
 6746TIP3   OH220194   5.775   2.128   5.208
 6746TIP3    H120195   5.691   2.172   5.230
 6746TIP3    H220196   5.741   2.056   5.151
 6747TIP3   OH220197   5.412   1.762   3.797
 6747TIP3    H120198   5.450   1.693   3.739
 6747TIP3    H220199   5.478   1.834   3.792
 6748TIP3   OH220200   3.819   1.616   4.567
 6748TIP3    H120201   3.726   1.591   4.573
 6748TIP3    H220202   3.821   1.661   4.480
 6749TIP3   OH220203   4.983   3.300   4.063
 6749TIP3    H120204   5.028   3.285   3.977
 6749TIP3    H220205   5.039   3.367   4.103
 6750TIP3   OH220206   4.040   1.671   5.368
 6750TIP3    H120207   3.988   1.671   5.449
 6750TIP3    H220208   3.977   1.712   5.305
 6751TIP3   OH220209   4.078   3.108   5.445
 6751TIP3    H120210   3.986   3.079   5.427
 6751TIP3    H220211   4.089   3.082   5.537
 6752TIP3   OH220212   4.259   3.140   4.994
 6752TIP3    H120213   4.212   3.215   4.953
 6752TIP3    H220214   4.345   3.152   4.949
 6753TIP3   OH220215   4.699   3.379   5.131
 6753TIP3    H120216   4.742   3.379   5.220
 6753TIP3    H220217   4.764   3.431   5.079
 6754TIP3   OH220218   4.878   3.533   4.993
 6754TIP3    H120219   4.947   3.482   4.948
 6754TIP3    H220220   4.933   3.589   5.053
 6755TIP3   OH220221   5.675   1.892   5.090
 6755TIP3    H120222   5.586   1.884   5.053
 6755TIP3    H220223   5.708   1.800   5.080
 6756TIP3   OH220224   3.932   3.394   5.016
 6756TIP3    H120225   3.844   3.429   4.993
 6756TIP3    H220226   3.943   3.432   5.104
 6757TIP3   OH220227   4.170   3.372   4.876
 6757TIP3    H120228   4.083   3.385   4.918
 6757TIP3    H220229   4.152   3.401   4.785
 6758TIP3   OH220230   4.595   3.397   4.674
 6758TIP3    H120231   4.526   3.412   4.607
 6758TIP3    H220232   4.605   3.486   4.713
 6759TIP3   OH220233   4.864   3.338   4.729
 6759TIP3    H120234   4.770   3.354   4.707
 6759TIP3    H220235   4.907   3.409   4.679
 6760TIP3   OH220236   5.074   3.529   4.639
 6760TIP3    H120237   5.057   3.612   4.589
 6760TIP3    H220238   5.099   3.468   4.566
 6761TIP3   OH220239   3.842   3.184   4.765
 6761TIP3    H120240   3.874   3.156   4.854
 6761TIP3    H220241   3.913   3.143   4.711
 6762TIP3   OH220242   4.038   3.060   4.624
 6762TIP3    H120243   4.054   2.975   4.671
 6762TIP3    H220244   4.129   3.094   4.615
 6763TIP3   OH220245   4.308   3.151   4.625
 6763TIP3    H120246   4.337   3.059   4.610
 6763TIP3    H220247   4.356   3.170   4.708
 6764TIP3   OH220248   4.886   1.809   4.717
 6764TIP3    H120249   4.839   1.738   4.764
 6764TIP3    H220250   4.955   1.761   4.668
 6765TIP3   OH220251   5.401   1.688   4.615
 6765TIP3    H120252   5.438   1.740   4.540
 6765TIP3    H220253   5.306   1.707   4.608
 6766TIP3   OH220254   5.497   1.785   4.378
 6766TIP3    H120255   5.571   1.734   4.339
 6766TIP3    H220256   5.530   1.877   4.364
 6767TIP3   OH220257   4.129   1.517   4.725
 6767TIP3    H120258   4.035   1.488   4.724
 6767TIP3    H220259   4.174   1.430   4.717
 6768TIP3   OH220260   3.941   1.384   4.378
 6768TIP3    H120261   3.950   1.437   4.297
 6768TIP3    H220262   3.882   1.440   4.430
 6769TIP3   OH220263   4.581   1.541   4.606
 6769TIP3    H120264   4.632   1.592   4.542
 6769TIP3    H220265   4.594   1.591   4.687
 6770TIP3   OH220266   5.119   1.696   4.588
 6770TIP3    H120267   5.116   1.657   4.499
 6770TIP3    H220268   5.106   1.616   4.645
 6771TIP3   OH220269   5.150   1.621   4.153
 6771TIP3    H120270   5.064   1.666   4.169
 6771TIP3    H220271   5.134   1.535   4.196
 6772TIP3   OH220272   3.634   2.959   4.147
 6772TIP3    H120273   3.552   2.918   4.116
 6772TIP3    H220274   3.614   3.053   4.132
 6773TIP3   OH220275   4.035   1.544   4.133
 6773TIP3    H120276   4.084   1.483   4.074
 6773TIP3    H220277   4.107   1.598   4.171
 6774TIP3   OH220278   4.545   1.722   4.234
 6774TIP3    H120279   4.605   1.676   4.295
 6774TIP3    H220280   4.567   1.815   4.259
 6775TIP3   OH220281   4.405   3.147   3.734
 6775TIP3    H120282   4.494   3.166   3.698
 6775TIP3    H220283   4.382   3.071   3.676
 6776TIP3   OH220284   5.125   3.264   3.829
 6776TIP3    H120285   5.121   3.166   3.819
 6776TIP3    H220286   5.078   3.293   3.749
 6777TIP3   OH220287   4.336   1.795   5.616
 6777TIP3    H120288   4.300   1.725   5.672
 6777TIP3    H220289   4.430   1.795   5.644
 6778TIP3   OH220290   4.586   1.793   5.735
 6778TIP3    H120291   4.672   1.772   5.695
 6778TIP3    H220292   4.577   1.721   5.800
 6779TIP3   OH220293   3.712   2.985   3.792
 6779TIP3    H120294   3.714   2.984   3.889
 6779TIP3    H220295   3.797   2.938   3.771
 6780TIP3   OH220296   5.414   1.855   5.523
 6780TIP3    H120297   5.430   1.825   5.615
 6780TIP3    H220298   5.503   1.851   5.484
 6781TIP3   OH220299   5.348   3.407   5.015
 6781TIP3    H120300   5.270   3.376   4.964
 6781TIP3    H220301   5.328   3.503   5.021
 6782TIP3   OH220302   6.618   2.785   3.778
 6782TIP3    H120303   6.584   2.874   3.754
 6782TIP3    H220304   6.545   2.730   3.746
 6783TIP3   OH220305   6.617   2.784   4.167
 6783TIP3    H120306   6.652   2.752   4.252
 6783TIP3    H220307   6.578   2.703   4.130
 6784TIP3   OH220308   5.914   2.674   4.528
 6784TIP3    H120309   5.943   2.604   4.589
 6784TIP3    H220310   5.995   2.725   4.518
 6785TIP3   OH220311   6.864   3.087   3.843
 6785TIP3    H120312   6.842   3.013   3.902
 6785TIP3    H220313   6.890   3.156   3.905
 6786TIP3   OH220314   5.889   3.088   4.251
 6786TIP3    H120315   5.880   2.990   4.251
 6786TIP3    H220316   5.986   3.096   4.244
 6787TIP3   OH220317   5.594   2.287   4.032
 6787TIP3    H120318   5.545   2.369   4.051
 6787TIP3    H220319   5.524   2.234   3.990
 6788TIP3   OH220320   5.653   2.576   4.215
 6788TIP3    H120321   5.701   2.496   4.247
 6788TIP3    H220322   5.707   2.604   4.141
 6789TIP3   OH220323   6.515   3.548   3.863
 6789TIP3    H120324   6.556   3.476   3.811
 6789TIP3    H220325   6.497   3.504   3.947
 6790TIP3   OH220326   6.414   3.009   4.211
 6790TIP3    H120327   6.452   2.929   4.169
 6790TIP3    H220328   6.497   3.054   4.234
 6791TIP3   OH220329   7.431   2.326   4.209
 6791TIP3    H120330   7.461   2.412   4.243
 6791TIP3    H220331   7.452   2.334   4.114
 6792TIP3   OH220332   6.829   2.507   4.240
 6792TIP3    H120333   6.875   2.423   4.260
 6792TIP3    H220334   6.796   2.488   4.150
 6793TIP3   OH220335   6.166   2.167   4.208
 6793TIP3    H120336   6.149   2.239   4.143
 6793TIP3    H220337   6.119   2.093   4.162
 6794TIP3   OH220338   6.855   2.262   3.823
 6794TIP3    H120339   6.919   2.244   3.895
 6794TIP3    H220340   6.915   2.291   3.752
 6795TIP3   OH220341   5.799   2.367   4.314
 6795TIP3    H120342   5.882   2.349   4.362
 6795TIP3    H220343   5.813   2.312   4.234
 6796TIP3   OH220344   6.238   2.566   4.113
 6796TIP3    H120345   6.333   2.542   4.123
 6796TIP3    H220346   6.200   2.482   4.079
 6797TIP3   OH220347   7.508   2.540   4.376
 6797TIP3    H120348   7.422   2.583   4.353
 6797TIP3    H220349   7.505   2.553   4.472
 6798TIP3   OH220350   6.162   2.152   4.643
 6798TIP3    H120351   6.103   2.188   4.574
 6798TIP3    H220352   6.108   2.169   4.723
 6799TIP3   OH220353   6.506   3.004   3.648
 6799TIP3    H120354   6.465   2.984   3.563
 6799TIP3    H220355   6.459   3.085   3.674
 6800TIP3   OH220356   6.270   2.928   4.433
 6800TIP3    H120357   6.209   2.995   4.470
 6800TIP3    H220358   6.310   2.976   4.358
 6801TIP3   OH220359   7.053   2.262   4.003
 6801TIP3    H120360   7.099   2.177   4.015
 6801TIP3    H220361   7.119   2.327   4.033
 6802TIP3   OH220362   6.034   2.266   4.426
 6802TIP3    H120363   6.097   2.337   4.449
 6802TIP3    H220364   6.082   2.225   4.349
 6803TIP3   OH220365   6.099   3.123   4.535
 6803TIP3    H120366   6.071   3.210   4.498
 6803TIP3    H220367   6.019   3.104   4.589
 6804TIP3   OH220368   5.489   2.812   3.770
 6804TIP3    H120369   5.444   2.839   3.688
 6804TIP3    H220370   5.519   2.898   3.806
 6805TIP3   OH220371   6.932   3.331   4.012
 6805TIP3    H120372   6.842   3.319   4.052
 6805TIP3    H220373   6.919   3.415   3.965
 6806TIP3   OH220374   7.218   2.229   4.375
 6806TIP3    H120375   7.130   2.246   4.338
 6806TIP3    H220376   7.277   2.260   4.303
 6807TIP3   OH220377   6.515   1.864   4.358
 6807TIP3    H120378   6.498   1.770   4.375
 6807TIP3    H220379   6.438   1.904   4.405
 6808TIP3   OH220380   6.630   3.374   3.682
 6808TIP3    H120381   6.677   3.289   3.666
 6808TIP3    H220382   6.695   3.435   3.642
 6809TIP3   OH220383   6.775   3.160   3.592
 6809TIP3    H120384   6.739   3.079   3.553
 6809TIP3    H220385   6.813   3.124   3.676
 6810TIP3   OH220386   7.157   3.238   4.353
 6810TIP3    H120387   7.141   3.159   4.296
 6810TIP3    H220388   7.138   3.311   4.291
 6811TIP3   OH220389   6.450   2.635   3.613
 6811TIP3    H120390   6.369   2.686   3.590
 6811TIP3    H220391   6.494   2.628   3.527
 6812TIP3   OH220392   6.405   2.420   3.324
 6812TIP3    H120393   6.473   2.472   3.371
 6812TIP3    H220394   6.462   2.356   3.277
 6813TIP3   OH220395   7.352   2.886   4.205
 6813TIP3    H120396   7.265   2.931   4.208
 6813TIP3    H220397   7.377   2.902   4.112
 6814TIP3   OH220398   6.796   2.718   3.581
 6814TIP3    H120399   6.742   2.740   3.660
 6814TIP3    H220400   6.880   2.690   3.624
 6815TIP3   OH220401   7.029   2.754   4.497
 6815TIP3    H120402   7.022   2.837   4.546
 6815TIP3    H220403   6.942   2.752   4.452
 6816TIP3   OH220404   6.028   2.712   4.001
 6816TIP3    H120405   5.986   2.654   3.934
 6816TIP3    H220406   6.103   2.657   4.031
 6817TIP3   OH220407   6.158   3.127   4.146
 6817TIP3    H120408   6.135   3.090   4.060
 6817TIP3    H220409   6.247   3.088   4.163
 6818TIP3   OH220410   6.163   2.683   4.357
 6818TIP3    H120411   6.194   2.656   4.268
 6818TIP3    H220412   6.207   2.769   4.371
 6819TIP3   OH220413   6.692   3.322   4.133
 6819TIP3    H120414   6.678   3.400   4.190
 6819TIP3    H220415   6.674   3.247   4.193
 6820TIP3   OH220416   6.302   3.240   4.679
 6820TIP3    H120417   6.240   3.301   4.725
 6820TIP3    H220418   6.239   3.187   4.627
 6821TIP3   OH220419   6.631   2.577   3.408
 6821TIP3    H120420   6.692   2.636   3.458
 6821TIP3    H220421   6.659   2.597   3.315
 6822TIP3   OH220422   6.058   2.794   4.785
 6822TIP3    H120423   6.061   2.883   4.826
 6822TIP3    H220424   5.963   2.773   4.796
 6823TIP3   OH220425   6.380   3.250   3.685
 6823TIP3    H120426   6.460   3.305   3.695
 6823TIP3    H220427   6.318   3.309   3.640
 6824TIP3   OH220428   6.095   3.406   4.767
 6824TIP3    H120429   6.060   3.409   4.676
 6824TIP3    H220430   6.015   3.384   4.820
 6825TIP3   OH220431   7.144   1.810   3.453
 6825TIP3    H120432   7.063   1.830   3.505
 6825TIP3    H220433   7.160   1.896   3.409
 6826TIP3   OH220434   5.893   2.557   3.806
 6826TIP3    H120435   5.823   2.598   3.751
 6826TIP3    H220436   5.861   2.467   3.816
 6827TIP3   OH220437   6.952   3.183   3.008
 6827TIP3    H120438   6.964   3.274   2.980
 6827TIP3    H220439   7.042   3.146   2.996
 6828TIP3   OH220440   5.675   2.940   4.712
 6828TIP3    H120441   5.606   2.921   4.645
 6828TIP3    H220442   5.712   2.852   4.732
 6829TIP3   OH220443   5.528   3.133   4.343
 6829TIP3    H120444   5.624   3.127   4.335
 6829TIP3    H220445   5.517   3.211   4.399
 6830TIP3   OH220446   7.393   3.587   4.401
 6830TIP3    H120447   7.393   3.491   4.415
 6830TIP3    H220448   7.310   3.611   4.448
 6831TIP3   OH220449   6.497   3.368   4.536
 6831TIP3    H120450   6.494   3.461   4.569
 6831TIP3    H220451   6.425   3.328   4.590
 6832TIP3   OH220452   6.265   3.498   3.485
 6832TIP3    H120453   6.216   3.477   3.404
 6832TIP3    H220454   6.226   3.583   3.512
 6833TIP3   OH220455   5.700   3.343   3.873
 6833TIP3    H120456   5.744   3.335   3.960
 6833TIP3    H220457   5.647   3.261   3.871
 6834TIP3   OH220458   6.463   3.402   3.127
 6834TIP3    H120459   6.520   3.330   3.090
 6834TIP3    H220460   6.495   3.407   3.219
 6835TIP3   OH220461   6.515   3.446   3.398
 6835TIP3    H120462   6.424   3.458   3.434
 6835TIP3    H220463   6.557   3.399   3.472
 6836TIP3   OH220464   7.282   2.715   4.673
 6836TIP3    H120465   7.198   2.723   4.626
 6836TIP3    H220466   7.299   2.619   4.664
 6837TIP3   OH220467   5.878   3.123   4.698
 6837TIP3    H120468   5.927   3.105   4.781
 6837TIP3    H220469   5.804   3.060   4.705
 6838TIP3   OH220470   6.278   1.943   4.489
 6838TIP3    H120471   6.190   1.914   4.458
 6838TIP3    H220472   6.251   2.025   4.535
 6839TIP3   OH220473   6.814   2.061   4.681
 6839TIP3    H120474   6.882   2.030   4.744
 6839TIP3    H220475   6.730   2.040   4.727
 6840TIP3   OH220476   7.055   2.493   4.605
 6840TIP3    H120477   6.998   2.487   4.685
 6840TIP3    H220478   7.025   2.575   4.563
 6841TIP3   OH220479   6.712   2.620   3.155
 6841TIP3    H120480   6.676   2.596   3.067
 6841TIP3    H220481   6.799   2.657   3.129
 6842TIP3   OH220482   6.423   1.994   3.458
 6842TIP3    H120483   6.389   1.989   3.550
 6842TIP3    H220484   6.385   1.911   3.422
 6843TIP3   OH220485   6.211   2.462   4.506
 6843TIP3    H120486   6.158   2.482   4.586
 6843TIP3    H220487   6.195   2.543   4.453
 6844TIP3   OH220488   6.093   2.349   4.019
 6844TIP3    H120489   6.001   2.321   4.038
 6844TIP3    H220490   6.106   2.308   3.931
 6845TIP3   OH220491   6.586   2.435   3.750
 6845TIP3    H120492   6.536   2.504   3.702
 6845TIP3    H220493   6.641   2.398   3.678
 6846TIP3   OH220494   6.759   2.710   4.833
 6846TIP3    H120495   6.736   2.636   4.894
 6846TIP3    H220496   6.854   2.720   4.854
 6847TIP3   OH220497   6.741   2.461   3.982
 6847TIP3    H120498   6.677   2.482   3.911
 6847TIP3    H220499   6.779   2.381   3.941
 6848TIP3   OH220500   6.030   2.489   4.712
 6848TIP3    H120501   6.056   2.552   4.781
 6848TIP3    H220502   6.018   2.407   4.763
 6849TIP3   OH220503   6.079   1.970   3.422
 6849TIP3    H120504   6.070   1.967   3.519
 6849TIP3    H220505   6.000   2.022   3.398
 6850TIP3   OH220506   5.622   2.008   4.296
 6850TIP3    H120507   5.698   2.042   4.348
 6850TIP3    H220508   5.662   1.980   4.212
 6851TIP3   OH220509   5.588   1.991   3.813
 6851TIP3    H120510   5.636   2.027   3.735
 6851TIP3    H220511   5.528   2.065   3.830
 6852TIP3   OH220512   6.757   2.705   4.406
 6852TIP3    H120513   6.788   2.633   4.346
 6852TIP3    H220514   6.723   2.651   4.480
 6853TIP3   OH220515   6.423   2.184   4.080
 6853TIP3    H120516   6.347   2.172   4.140
 6853TIP3    H220517   6.498   2.154   4.136
 6854TIP3   OH220518   5.855   2.226   4.086
 6854TIP3    H120519   5.761   2.233   4.057
 6854TIP3    H220520   5.879   2.134   4.063
 6855TIP3   OH220521   6.119   2.221   3.778
 6855TIP3    H120522   6.214   2.233   3.759
 6855TIP3    H220523   6.075   2.242   3.693
 6856TIP3   OH220524   6.922   2.252   4.299
 6856TIP3    H120525   6.865   2.255   4.378
 6856TIP3    H220526   6.878   2.187   4.243
 6857TIP3   OH220527   5.969   2.259   3.553
 6857TIP3    H120528   5.899   2.212   3.505
 6857TIP3    H220529   6.021   2.294   3.478
 6858TIP3   OH220530   7.087   3.934   4.502
 6858TIP3    H120531   7.084   3.957   4.408
 6858TIP3    H220532   7.166   3.982   4.532
 6859TIP3   OH220533   6.041   3.046   4.920
 6859TIP3    H120534   6.121   3.074   4.970
 6859TIP3    H220535   5.976   3.041   4.993
 6860TIP3   OH220536   6.504   2.503   4.179
 6860TIP3    H120537   6.571   2.457   4.125
 6860TIP3    H220538   6.508   2.451   4.262
 6861TIP3   OH220539   6.024   1.985   4.058
 6861TIP3    H120540   5.988   1.908   4.106
 6861TIP3    H220541   6.073   1.943   3.986
 6862TIP3   OH220542   6.479   2.396   4.466
 6862TIP3    H120543   6.389   2.431   4.480
 6862TIP3    H220544   6.536   2.459   4.515
 6863TIP3   OH220545   6.214   2.785   3.560
 6863TIP3    H120546   6.143   2.719   3.549
 6863TIP3    H220547   6.195   2.819   3.651
 6864TIP3   OH220548   7.114   3.022   4.188
 6864TIP3    H120549   7.134   3.072   4.107
 6864TIP3    H220550   7.031   2.975   4.163
 6865TIP3   OH220551   6.672   2.099   3.422
 6865TIP3    H120552   6.577   2.076   3.436
 6865TIP3    H220553   6.678   2.191   3.454
 6866TIP3   OH220554   6.625   3.110   4.556
 6866TIP3    H120555   6.641   3.081   4.646
 6866TIP3    H220556   6.577   3.194   4.568
 6867TIP3   OH220557   6.742   2.347   3.531
 6867TIP3    H120558   6.839   2.349   3.546
 6867TIP3    H220559   6.727   2.426   3.477
 6868TIP3   OH220560   5.914   2.813   4.235
 6868TIP3    H120561   5.949   2.781   4.149
 6868TIP3    H220562   5.951   2.749   4.297
 6869TIP3   OH220563   6.363   2.935   3.386
 6869TIP3    H120564   6.314   3.021   3.389
 6869TIP3    H220565   6.307   2.880   3.446
 6870TIP3   OH220566   5.793   2.726   4.849
 6870TIP3    H120567   5.806   2.710   4.945
 6870TIP3    H220568   5.722   2.662   4.829
 6871TIP3   OH220569   6.518   2.845   4.869
 6871TIP3    H120570   6.455   2.785   4.825
 6871TIP3    H220571   6.604   2.806   4.840
 6872TIP3   OH220572   6.776   3.375   4.449
 6872TIP3    H120573   6.681   3.362   4.466
 6872TIP3    H220574   6.803   3.421   4.532
 6873TIP3   OH220575   7.184   2.431   3.367
 6873TIP3    H120576   7.118   2.390   3.307
 6873TIP3    H220577   7.179   2.522   3.329
 6874TIP3   OH220578   7.407   3.301   4.439
 6874TIP3    H120579   7.310   3.291   4.434
 6874TIP3    H220580   7.432   3.266   4.351
 6875TIP3   OH220581   6.899   3.253   3.277
 6875TIP3    H120582   6.863   3.187   3.339
 6875TIP3    H220583   6.902   3.203   3.193
 6876TIP3   OH220584   6.884   2.883   4.106
 6876TIP3    H120585   6.790   2.859   4.119
 6876TIP3    H220586   6.916   2.802   4.062
 6877TIP3   OH220587   6.011   3.114   3.864
 6877TIP3    H120588   6.005   3.194   3.808
 6877TIP3    H220589   5.918   3.092   3.875
 6878TIP3   OH220590   5.574   2.416   3.570
 6878TIP3    H120591   5.620   2.499   3.595
 6878TIP3    H220592   5.498   2.417   3.633
 6879TIP3   OH220593   6.144   2.876   3.803
 6879TIP3    H120594   6.110   2.965   3.825
 6879TIP3    H220595   6.110   2.824   3.879
 6880TIP3   OH220596   6.282   3.455   4.331
 6880TIP3    H120597   6.325   3.526   4.280
 6880TIP3    H220598   6.357   3.416   4.377
 6881TIP3   OH220599   5.929   3.349   3.712
 6881TIP3    H120600   5.843   3.358   3.759
 6881TIP3    H220601   5.962   3.442   3.715
 6882TIP3   OH220602   6.668   3.090   4.288
 6882TIP3    H120603   6.658   3.089   4.386
 6882TIP3    H220604   6.740   3.027   4.276
 6883TIP3   OH220605   6.646   2.988   3.173
 6883TIP3    H120606   6.699   2.961   3.251
 6883TIP3    H220607   6.559   2.954   3.198
 6884TIP3   OH220608   6.917   3.620   4.341
 6884TIP3    H120609   6.839   3.561   4.341
 6884TIP3    H220610   6.896   3.682   4.268
 6885TIP3   OH220611   6.988   3.478   2.990
 6885TIP3    H120612   6.975   3.511   2.897
 6885TIP3    H220613   6.899   3.502   3.025
 6886TIP3   OH220614   5.998   2.234   4.855
 6886TIP3    H120615   5.901   2.237   4.867
 6886TIP3    H220616   6.025   2.176   4.929
 6887TIP3   OH220617   6.805   2.922   3.390
 6887TIP3    H120618   6.792   2.853   3.458
 6887TIP3    H220619   6.901   2.915   3.377
 6888TIP3   OH220620   5.719   3.316   4.488
 6888TIP3    H120621   5.772   3.241   4.522
 6888TIP3    H220622   5.746   3.386   4.549
 6889TIP3   OH220623   6.007   2.961   3.172
 6889TIP3    H120624   6.023   2.869   3.145
 6889TIP3    H220625   5.988   2.950   3.268
 6890TIP3   OH220626   5.953   2.968   3.444
 6890TIP3    H120627   6.027   2.938   3.498
 6890TIP3    H220628   5.958   3.065   3.455
 6891TIP3   OH220629   5.685   2.660   3.650
 6891TIP3    H120630   5.619   2.705   3.706
 6891TIP3    H220631   5.699   2.728   3.581
 6892TIP3   OH220632   6.829   2.308   4.558
 6892TIP3    H120633   6.921   2.332   4.577
 6892TIP3    H220634   6.820   2.221   4.604
 6893TIP3   OH220635   6.716   2.046   3.709
 6893TIP3    H120636   6.710   2.068   3.615
 6893TIP3    H220637   6.758   2.126   3.747
 6894TIP3   OH220638   6.221   3.165   3.396
 6894TIP3    H120639   6.133   3.189   3.431
 6894TIP3    H220640   6.232   3.234   3.328
 6895TIP3   OH220641   6.402   2.233   3.809
 6895TIP3    H120642   6.469   2.303   3.793
 6895TIP3    H220643   6.411   2.221   3.907
 6896TIP3   OH220644   6.677   2.545   4.611
 6896TIP3    H120645   6.705   2.590   4.693
 6896TIP3    H220646   6.728   2.461   4.613
 6897TIP3   OH220647   6.549   1.946   3.907
 6897TIP3    H120648   6.565   2.014   3.975
 6897TIP3    H220649   6.611   1.978   3.837
 6898TIP3   OH220650   5.965   3.240   3.462
 6898TIP3    H120651   5.936   3.310   3.400
 6898TIP3    H220652   5.948   3.282   3.549
 6899TIP3   OH220653   6.063   1.955   3.698
 6899TIP3    H120654   6.062   2.045   3.738
 6899TIP3    H220655   6.159   1.936   3.705
 6900TIP3   OH220656   7.320   2.446   4.591
 6900TIP3    H120657   7.222   2.450   4.605
 6900TIP3    H220658   7.321   2.391   4.511
 6901TIP3   OH220659   6.967   2.641   3.984
 6901TIP3    H120660   6.891   2.580   3.993
 6901TIP3    H220661   7.038   2.592   4.031
 6902TIP3   OH220662   5.683   2.863   3.448
 6902TIP3    H120663   5.747   2.935   3.461
 6902TIP3    H220664   5.736   2.806   3.388
 6903TIP3   OH220665   5.622   2.145   3.588
 6903TIP3    H120666   5.623   2.243   3.587
 6903TIP3    H220667   5.540   2.125   3.544
 6904TIP3   OH220668   6.937   3.601   3.933
 6904TIP3    H120669   6.893   3.649   3.859
 6904TIP3    H220670   7.031   3.618   3.910
 6905TIP3   OH220671   6.012   1.866   4.459
 6905TIP3    H120672   5.983   1.832   4.371
 6905TIP3    H220673   6.002   1.787   4.516
 6906TIP3   OH220674   5.549   3.084   3.838
 6906TIP3    H120675   5.483   3.112   3.903
 6906TIP3    H220676   5.514   3.126   3.756
 6907TIP3   OH220677   5.711   3.631   4.912
 6907TIP3    H120678   5.797   3.629   4.958
 6907TIP3    H220679   5.689   3.536   4.910
 6908TIP3   OH220680   6.190   3.588   4.955
 6908TIP3    H120681   6.283   3.565   4.961
 6908TIP3    H220682   6.160   3.526   4.885
 6909TIP3   OH220683   6.174   3.164   3.088
 6909TIP3    H120684   6.118   3.090   3.121
 6909TIP3    H220685   6.247   3.114   3.046
 6910TIP3   OH220686   6.829   3.497   4.691
 6910TIP3    H120687   6.820   3.427   4.760
 6910TIP3    H220688   6.906   3.548   4.723
 6911TIP3   OH220689   6.610   3.205   3.000
 6911TIP3    H120690   6.644   3.132   3.055
 6911TIP3    H220691   6.659   3.195   2.916
 6912TIP3   OH220692   5.839   3.034   5.112
 6912TIP3    H120693   5.855   2.938   5.119
 6912TIP3    H220694   5.752   3.036   5.066
 6913TIP3   OH220695   5.830   2.677   3.315
 6913TIP3    H120696   5.887   2.645   3.388
 6913TIP3    H220697   5.897   2.681   3.243
 6914TIP3   OH220698   6.446   3.120   4.886
 6914TIP3    H120699   6.403   3.139   4.800
 6914TIP3    H220700   6.476   3.027   4.876
 6915TIP3   OH220701   6.333   2.881   3.118
 6915TIP3    H120702   6.334   2.891   3.215
 6915TIP3    H220703   6.334   2.783   3.109
 6916TIP3   OH220704   6.941   3.129   4.497
 6916TIP3    H120705   7.013   3.176   4.451
 6916TIP3    H220706   6.866   3.189   4.479
 6917TIP3   OH220707   5.960   2.773   5.096
 6917TIP3    H120708   6.034   2.716   5.070
 6917TIP3    H220709   5.989   2.803   5.185
 6918TIP3   OH220710   6.021   2.588   3.524
 6918TIP3    H120711   5.995   2.547   3.608
 6918TIP3    H220712   6.061   2.513   3.476
 6919TIP3   OH220713   6.296   2.653   4.760
 6919TIP3    H120714   6.215   2.710   4.758
 6919TIP3    H220715   6.346   2.688   4.683
 6920TIP3   OH220716   6.127   2.385   3.367
 6920TIP3    H120717   6.103   2.390   3.272
 6920TIP3    H220718   6.225   2.384   3.361
 6921TIP3   OH220719   6.815   3.055   4.890
 6921TIP3    H120720   6.887   3.018   4.838
 6921TIP3    H220721   6.804   2.989   4.961
 6922TIP3   OH220722   6.944   2.711   3.037
 6922TIP3    H120723   6.933   2.665   2.952
 6922TIP3    H220724   6.910   2.800   3.012
 6923TIP3   OH220725   6.419   2.441   4.879
 6923TIP3    H120726   6.419   2.362   4.821
 6923TIP3    H220727   6.374   2.508   4.823
 6924TIP3   OH220728   6.420   2.228   4.691
 6924TIP3    H120729   6.449   2.268   4.607
 6924TIP3    H220730   6.327   2.205   4.671
 6925TIP3   OH220731   6.444   2.764   4.567
 6925TIP3    H120732   6.527   2.769   4.519
 6925TIP3    H220733   6.387   2.827   4.517
 6926TIP3   OH220734   7.027   2.727   4.943
 6926TIP3    H120735   7.071   2.641   4.949
 6926TIP3    H220736   7.096   2.782   4.903
 6927TIP3   OH220737   7.069   2.984   4.684
 6927TIP3    H120738   7.011   3.037   4.624
 6927TIP3    H220739   7.156   3.003   4.644
 6928TIP3   OH220740   6.298   2.546   5.115
 6928TIP3    H120741   6.230   2.478   5.131
 6928TIP3    H220742   6.329   2.523   5.026
 6929TIP3   OH220743   6.552   1.990   4.761
 6929TIP3    H120744   6.502   2.070   4.736
 6929TIP3    H220745   6.485   1.920   4.748
 6930TIP3   OH220746   6.676   2.491   4.974
 6930TIP3    H120747   6.658   2.475   5.069
 6930TIP3    H220748   6.588   2.468   4.937
 6931TIP3   OH220749   6.919   2.451   4.834
 6931TIP3    H120750   6.842   2.445   4.894
 6931TIP3    H220751   6.992   2.414   4.889
 6932TIP3   OH220752   7.153   2.386   4.979
 6932TIP3    H120753   7.162   2.290   4.993
 6932TIP3    H220754   7.146   2.421   5.070
 6933TIP3   OH220755   6.135   2.328   5.169
 6933TIP3    H120756   6.137   2.236   5.135
 6933TIP3    H220757   6.172   2.316   5.258
 6934TIP3   OH220758   6.645   1.998   5.019
 6934TIP3    H120759   6.710   1.926   5.011
 6934TIP3    H220760   6.605   1.996   4.929
 6935TIP3   OH220761   6.713   2.214   5.175
 6935TIP3    H120762   6.692   2.142   5.111
 6935TIP3    H220763   6.635   2.272   5.168
 6936TIP3   OH220764   5.934   3.438   3.271
 6936TIP3    H120765   6.029   3.432   3.251
 6936TIP3    H220766   5.905   3.492   3.195
 6937TIP3   OH220767   5.413   2.827   3.495
 6937TIP3    H120768   5.506   2.846   3.473
 6937TIP3    H220769   5.400   2.738   3.458
 6938TIP3   OH220770   5.329   3.435   3.906
 6938TIP3    H120771   5.263   3.375   3.866
 6938TIP3    H220772   5.373   3.375   3.969
 6939TIP3   OH220773   5.465   3.282   4.091
 6939TIP3    H120774   5.450   3.212   4.157
 6939TIP3    H220775   5.516   3.346   4.144
 6940TIP3   OH220776   7.194   3.687   3.892
 6940TIP3    H120777   7.218   3.713   3.982
 6940TIP3    H220778   7.257   3.736   3.838
 6941TIP3   OH220779   7.222   3.706   4.173
 6941TIP3    H120780   7.172   3.621   4.169
 6941TIP3    H220781   7.292   3.680   4.234
 6942TIP3   OH220782   7.267   3.385   4.747
 6942TIP3    H120783   7.194   3.394   4.812
 6942TIP3    H220784   7.308   3.473   4.752
 6943TIP3   OH220785   7.078   2.898   3.372
 6943TIP3    H120786   7.153   2.947   3.332
 6943TIP3    H220787   7.123   2.855   3.448
 6944TIP3   OH220788   7.210   2.768   3.575
 6944TIP3    H120789   7.141   2.721   3.627
 6944TIP3    H220790   7.269   2.802   3.644
 6945TIP3   OH220791   7.271   3.161   4.003
 6945TIP3    H120792   7.321   3.090   3.960
 6945TIP3    H220793   7.254   3.223   3.930
 6946TIP3   OH220794   7.095   3.461   4.194
 6946TIP3    H120795   7.022   3.499   4.247
 6946TIP3    H220796   7.046   3.413   4.124
 6947TIP3   OH220797   7.136   2.661   3.235
 6947TIP3    H120798   7.085   2.662   3.152
 6947TIP3    H220799   7.106   2.745   3.274
 6948TIP3   OH220800   7.009   2.340   3.181
 6948TIP3    H120801   6.985   2.381   3.097
 6948TIP3    H220802   6.987   2.246   3.163
 6949TIP3   OH220803   7.024   2.622   3.714
 6949TIP3    H120804   7.030   2.525   3.703
 6949TIP3    H220805   7.009   2.631   3.811
 6950TIP3   OH220806   5.648   2.694   4.465
 6950TIP3    H120807   5.646   2.660   4.373
 6950TIP3    H220808   5.746   2.695   4.480
 6951TIP3   OH220809   7.315   3.048   4.574
 6951TIP3    H120810   7.385   2.980   4.563
 6951TIP3    H220811   7.336   3.111   4.504
 6952TIP3   OH220812   7.500   2.849   4.583
 6952TIP3    H120813   7.423   2.801   4.620
 6952TIP3    H220814   7.571   2.785   4.602
 6953TIP3   OH220815   6.964   2.072   3.144
 6953TIP3    H120816   7.034   2.046   3.208
 6953TIP3    H220817   6.887   2.020   3.172
 6954TIP3   OH220818   7.024   2.336   3.608
 6954TIP3    H120819   7.063   2.247   3.626
 6954TIP3    H220820   7.081   2.364   3.535
 6955TIP3   OH220821   7.183   2.517   4.106
 6955TIP3    H120822   7.269   2.541   4.066
 6955TIP3    H220823   7.198   2.549   4.197
 6956TIP3   OH220824   7.257   2.659   4.338
 6956TIP3    H120825   7.177   2.689   4.384
 6956TIP3    H220826   7.287   2.740   4.293
 6957TIP3   OH220827   5.869   2.381   5.140
 6957TIP3    H120828   5.967   2.374   5.142
 6957TIP3    H220829   5.845   2.294   5.176
 6958TIP3   OH220830   7.707   2.252   4.890
 6958TIP3    H120831   7.764   2.185   4.846
 6958TIP3    H220832   7.673   2.303   4.812
 6959TIP3   OH220833   7.130   2.086   3.653
 6959TIP3    H120834   7.175   2.076   3.740
 6959TIP3    H220835   7.070   2.008   3.655
 6960TIP3   OH220836   5.829   2.075   4.470
 6960TIP3    H120837   5.890   1.999   4.476
 6960TIP3    H220838   5.892   2.148   4.460
 6961TIP3   OH220839   5.630   2.346   4.540
 6961TIP3    H120840   5.679   2.341   4.455
 6961TIP3    H220841   5.659   2.431   4.574
 6962TIP3   OH220842   7.571   2.384   4.693
 6962TIP3    H120843   7.485   2.428   4.709
 6962TIP3    H220844   7.541   2.310   4.637
 6963TIP3   OH220845   7.209   2.022   3.281
 6963TIP3    H120846   7.251   1.952   3.226
 6963TIP3    H220847   7.273   2.095   3.274
 6964TIP3   OH220848   5.616   1.852   4.043
 6964TIP3    H120849   5.523   1.845   4.069
 6964TIP3    H220850   5.610   1.910   3.964
 6965TIP3   OH220851   6.784   3.553   3.547
 6965TIP3    H120852   6.832   3.542   3.463
 6965TIP3    H220853   6.833   3.626   3.589
 6966TIP3   OH220854   5.836   1.930   4.855
 6966TIP3    H120855   5.784   1.927   4.937
 6966TIP3    H220856   5.772   1.969   4.793
 6967TIP3   OH220857   5.875   3.363   4.932
 6967TIP3    H120858   5.783   3.336   4.914
 6967TIP3    H220859   5.885   3.337   5.025
 6968TIP3   OH220860   6.055   3.396   4.481
 6968TIP3    H120861   6.006   3.470   4.441
 6968TIP3    H220862   6.141   3.409   4.436
 6969TIP3   OH220863   6.495   3.635   4.617
 6969TIP3    H120864   6.538   3.634   4.706
 6969TIP3    H220865   6.561   3.688   4.567
 6970TIP3   OH220866   6.674   3.791   4.479
 6970TIP3    H120867   6.742   3.737   4.436
 6970TIP3    H220868   6.729   3.846   4.539
 6971TIP3   OH220869   7.470   2.146   4.578
 6971TIP3    H120870   7.381   2.135   4.541
 6971TIP3    H220871   7.505   2.055   4.568
 6972TIP3   OH220872   5.730   3.651   4.504
 6972TIP3    H120873   5.640   3.684   4.479
 6972TIP3    H220874   5.738   3.688   4.592
 6973TIP3   OH220875   5.967   3.630   4.363
 6973TIP3    H120876   5.879   3.642   4.407
 6973TIP3    H220877   5.946   3.659   4.272
 6974TIP3   OH220878   6.392   3.654   4.160
 6974TIP3    H120879   6.319   3.669   4.097
 6974TIP3    H220880   6.401   3.742   4.202
 6975TIP3   OH220881   6.661   3.596   4.214
 6975TIP3    H120882   6.566   3.610   4.193
 6975TIP3    H220883   6.702   3.669   4.167
 6976TIP3   OH220884   6.872   3.787   4.126
 6976TIP3    H120885   6.855   3.869   4.076
 6976TIP3    H220886   6.895   3.724   4.055
 6977TIP3   OH220887   5.641   3.442   4.249
 6977TIP3    H120888   5.669   3.413   4.339
 6977TIP3    H220889   5.711   3.399   4.196
 6978TIP3   OH220890   5.836   3.315   4.109
 6978TIP3    H120891   5.851   3.231   4.158
 6978TIP3    H220892   5.927   3.349   4.102
 6979TIP3   OH220893   6.106   3.407   4.111
 6979TIP3    H120894   6.133   3.314   4.099
 6979TIP3    H220895   6.152   3.427   4.194
 6980TIP3   OH220896   6.651   2.062   4.183
 6980TIP3    H120897   6.628   1.989   4.243
 6980TIP3    H220898   6.735   2.031   4.143
 6981TIP3   OH220899   7.297   2.090   3.868
 6981TIP3    H120900   7.351   2.011   3.853
 6981TIP3    H220901   7.350   2.163   3.832
 6982TIP3   OH220902   5.924   1.772   4.211
 6982TIP3    H120903   5.832   1.741   4.214
 6982TIP3    H220904   5.972   1.687   4.206
 6983TIP3   OH220905   5.716   1.643   3.863
 6983TIP3    H120906   5.745   1.698   3.788
 6983TIP3    H220907   5.688   1.711   3.929
 6984TIP3   OH220908   6.371   1.804   4.094
 6984TIP3    H120909   6.423   1.847   4.025
 6984TIP3    H220910   6.406   1.845   4.174
 6985TIP3   OH220911   6.882   1.959   4.084
 6985TIP3    H120912   6.963   1.935   4.033
 6985TIP3    H220913   6.873   1.875   4.134
 6986TIP3   OH220914   6.944   1.878   3.634
 6986TIP3    H120915   6.858   1.916   3.658
 6986TIP3    H220916   6.945   1.799   3.691
 6987TIP3   OH220917   5.431   3.218   3.636
 6987TIP3    H120918   5.345   3.185   3.603
 6987TIP3    H220919   5.421   3.312   3.611
 6988TIP3   OH220920   5.833   1.798   3.622
 6988TIP3    H120921   5.880   1.735   3.564
 6988TIP3    H220922   5.907   1.852   3.657
 6989TIP3   OH220923   6.340   1.982   3.722
 6989TIP3    H120924   6.402   1.933   3.779
 6989TIP3    H220925   6.363   2.074   3.747
 6990TIP3   OH220926   6.203   3.399   3.222
 6990TIP3    H120927   6.289   3.424   3.183
 6990TIP3    H220928   6.180   3.325   3.161
 6991TIP3   OH220929   6.937   3.517   3.302
 6991TIP3    H120930   6.920   3.420   3.304
 6991TIP3    H220931   6.867   3.547   3.241
 6992TIP3   OH220932   6.133   2.054   5.104
 6992TIP3    H120933   6.096   1.983   5.159
 6992TIP3    H220934   6.226   2.053   5.132
 6993TIP3   OH220935   6.384   2.051   5.223
 6993TIP3    H120936   6.468   2.024   5.181
 6993TIP3    H220937   6.371   1.980   5.289
 6994TIP3   OH220938   5.501   3.230   3.274
 6994TIP3    H120939   5.499   3.260   3.366
 6994TIP3    H220940   5.590   3.188   3.268
 6995TIP3   OH220941   7.210   2.114   5.008
 6995TIP3    H120942   7.227   2.083   5.100
 6995TIP3    H220943   7.299   2.107   4.968
 6996TIP3   OH220944   7.146   3.664   4.500
 6996TIP3    H120945   7.067   3.632   4.451
 6996TIP3    H220946   7.123   3.759   4.509
 6997TIP3   OH220947   7.709   2.929   4.011
 6997TIP3    H120948   7.732   2.857   4.074
 6997TIP3    H220949   7.789   2.983   4.016
 6998TIP3   OH220950   7.682   3.348   3.735
 6998TIP3    H120951   7.675   3.250   3.736
 6998TIP3    H220952   7.778   3.357   3.732
 6999TIP3   OH220953   7.390   2.552   3.517
 6999TIP3    H120954   7.333   2.630   3.530
 6999TIP3    H220955   7.324   2.489   3.484
 7000TIP3   OH220956   7.455   2.835   3.701
 7000TIP3    H120957   7.499   2.754   3.735
 7000TIP3    H220958   7.491   2.841   3.612
 7001TIP3   OH220959   8.314   3.770   3.328
 7001TIP3    H120960   8.408   3.744   3.332
 7001TIP3    H220961   8.291   3.772   3.421
 7002TIP3   OH220962   8.208   3.257   3.696
 7002TIP3    H120963   8.216   3.216   3.610
 7002TIP3    H220964   8.293   3.304   3.707
 7003TIP3   OH220965   7.938   2.425   3.705
 7003TIP3    H120966   7.947   2.491   3.634
 7003TIP3    H220967   7.904   2.349   3.655
 7004TIP3   OH220968   7.596   2.625   3.800
 7004TIP3    H120969   7.677   2.602   3.850
 7004TIP3    H220970   7.607   2.568   3.722
 7005TIP3   OH220971   8.019   2.826   3.594
 7005TIP3    H120972   8.110   2.792   3.607
 7005TIP3    H220973   7.975   2.743   3.563
 7006TIP3   OH220974   7.962   2.416   4.139
 7006TIP3    H120975   7.902   2.446   4.068
 7006TIP3    H220976   7.905   2.433   4.217
 7007TIP3   OH220977   8.070   3.184   3.929
 7007TIP3    H120978   8.004   3.247   3.966
 7007TIP3    H220979   8.107   3.235   3.855
 7008TIP3   OH220980   7.824   2.525   3.925
 7008TIP3    H120981   7.892   2.593   3.945
 7008TIP3    H220982   7.866   2.483   3.845
 7009TIP3   OH220983   7.896   3.378   4.022
 7009TIP3    H120984   7.868   3.465   3.987
 7009TIP3    H220985   7.816   3.357   4.076
 7010TIP3   OH220986   7.277   3.049   3.251
 7010TIP3    H120987   7.241   3.066   3.161
 7010TIP3    H220988   7.270   3.135   3.293
 7011TIP3   OH220989   7.815   2.973   3.483
 7011TIP3    H120990   7.772   2.912   3.418
 7011TIP3    H220991   7.889   2.917   3.515
 7012TIP3   OH220992   7.949   3.389   3.629
 7012TIP3    H120993   7.921   3.351   3.544
 7012TIP3    H220994   8.030   3.340   3.650
 7013TIP3   OH220995   7.969   2.936   3.844
 7013TIP3    H120996   7.983   2.911   3.751
 7013TIP3    H220997   7.997   3.029   3.848
 7014TIP3   OH220998   8.095   3.495   4.173
 7014TIP3    H120999   8.031   3.557   4.215
 7014TIP3    H221000   8.032   3.441   4.120
 7015TIP3   OH221001   7.847   3.063   4.265
 7015TIP3    H121002   7.848   3.148   4.314
 7015TIP3    H221003   7.755   3.034   4.283
 7016TIP3   OH221004   8.200   3.545   3.198
 7016TIP3    H121005   8.211   3.637   3.227
 7016TIP3    H221006   8.133   3.552   3.130
 7017TIP3   OH221007   7.890   3.664   4.255
 7017TIP3    H121008   7.853   3.665   4.164
 7017TIP3    H221009   7.810   3.641   4.308
 7018TIP3   OH221010   7.695   2.806   3.297
 7018TIP3    H121011   7.633   2.860   3.243
 7018TIP3    H221012   7.646   2.723   3.304
 7019TIP3   OH221013   7.472   3.197   4.198
 7019TIP3    H121014   7.402   3.177   4.133
 7019TIP3    H221015   7.507   3.108   4.220
 7020TIP3   OH221016   7.324   3.397   3.817
 7020TIP3    H121017   7.420   3.385   3.825
 7020TIP3    H221018   7.308   3.468   3.881
 7021TIP3   OH221019   8.278   3.614   4.011
 7021TIP3    H121020   8.282   3.704   4.049
 7021TIP3    H221021   8.210   3.572   4.068
 7022TIP3   OH221022   8.062   3.753   2.973
 7022TIP3    H121023   8.015   3.733   2.890
 7022TIP3    H221024   8.023   3.839   2.999
 7023TIP3   OH221025   7.470   3.591   3.373
 7023TIP3    H121026   7.540   3.582   3.441
 7023TIP3    H221027   7.394   3.558   3.425
 7024TIP3   OH221028   8.326   3.715   2.914
 7024TIP3    H121029   8.233   3.733   2.937
 7024TIP3    H221030   8.332   3.619   2.929
 7025TIP3   OH221031   7.676   3.379   4.183
 7025TIP3    H121032   7.723   3.363   4.267
 7025TIP3    H221033   7.601   3.315   4.190
 7026TIP3   OH221034   8.061   2.193   3.997
 7026TIP3    H121035   7.977   2.168   3.955
 7026TIP3    H221036   8.038   2.279   4.035
 7027TIP3   OH221037   8.005   2.721   4.000
 7027TIP3    H121038   7.946   2.738   4.077
 7027TIP3    H221039   7.987   2.800   3.944
 7028TIP3   OH221040   7.891   2.605   3.501
 7028TIP3    H121041   7.800   2.575   3.523
 7028TIP3    H221042   7.902   2.562   3.413
 7029TIP3   OH221043   7.815   2.743   4.200
 7029TIP3    H121044   7.856   2.797   4.270
 7029TIP3    H221045   7.803   2.658   4.245
 7030TIP3   OH221046   7.872   2.177   2.895
 7030TIP3    H121047   7.854   2.190   2.989
 7030TIP3    H221048   7.809   2.241   2.856
 7031TIP3   OH221049   7.438   2.294   3.754
 7031TIP3    H121050   7.509   2.306   3.820
 7031TIP3    H221051   7.475   2.234   3.688
 7032TIP3   OH221052   7.381   2.252   3.290
 7032TIP3    H121053   7.434   2.292   3.220
 7032TIP3    H221054   7.317   2.323   3.310
 7033TIP3   OH221055   7.651   2.487   3.568
 7033TIP3    H121056   7.556   2.493   3.545
 7033TIP3    H221057   7.670   2.392   3.558
 7034TIP3   OH221058   7.930   2.483   3.256
 7034TIP3    H121059   8.010   2.498   3.204
 7034TIP3    H221060   7.861   2.499   3.187
 7035TIP3   OH221061   7.769   2.512   3.045
 7035TIP3    H121062   7.699   2.468   2.993
 7035TIP3    H221063   7.825   2.545   2.972
 7036TIP3   OH221064   7.838   3.306   4.408
 7036TIP3    H121065   7.917   3.332   4.459
 7036TIP3    H221066   7.772   3.298   4.480
 7037TIP3   OH221067   7.813   2.238   3.544
 7037TIP3    H121068   7.777   2.168   3.603
 7037TIP3    H221069   7.857   2.185   3.477
 7038TIP3   OH221070   8.272   2.650   3.992
 7038TIP3    H121071   8.178   2.672   3.976
 7038TIP3    H221072   8.310   2.735   4.018
 7039TIP3   OH221073   7.983   3.073   3.048
 7039TIP3    H121074   7.938   2.985   3.042
 7039TIP3    H221075   7.989   3.085   3.145
 7040TIP3   OH221076   8.378   3.337   4.073
 7040TIP3    H121077   8.401   3.314   4.164
 7040TIP3    H221078   8.358   3.432   4.079
 7041TIP3   OH221079   7.720   3.078   3.724
 7041TIP3    H121080   7.743   3.038   3.638
 7041TIP3    H221081   7.728   3.003   3.785
 7042TIP3   OH221082   8.130   3.190   2.850
 7042TIP3    H121083   8.097   3.280   2.871
 7042TIP3    H221084   8.089   3.139   2.923
 7043TIP3   OH221085   7.589   2.982   4.336
 7043TIP3    H121086   7.599   2.963   4.431
 7043TIP3    H221087   7.518   2.920   4.312
 7044TIP3   OH221088   8.316   3.100   4.356
 7044TIP3    H121089   8.253   3.049   4.302
 7044TIP3    H221090   8.398   3.052   4.338
 7045TIP3   OH221091   7.814   3.372   3.352
 7045TIP3    H121092   7.808   3.451   3.295
 7045TIP3    H221093   7.722   3.343   3.355
 7046TIP3   OH221094   7.965   3.138   3.317
 7046TIP3    H121095   7.918   3.223   3.322
 7046TIP3    H221096   7.910   3.081   3.375
 7047TIP3   OH221097   8.074   3.709   3.818
 7047TIP3    H121098   8.112   3.785   3.769
 7047TIP3    H221099   8.152   3.675   3.865
 7048TIP3   OH221100   7.723   3.606   3.204
 7048TIP3    H121101   7.635   3.618   3.244
 7048TIP3    H221102   7.758   3.698   3.206
 7049TIP3   OH221103   7.790   2.494   4.345
 7049TIP3    H121104   7.693   2.496   4.353
 7049TIP3    H221105   7.815   2.430   4.414
 7050TIP3   OH221106   7.517   3.571   3.974
 7050TIP3    H121107   7.569   3.498   4.012
 7050TIP3    H221108   7.535   3.642   4.037
 7051TIP3   OH221109   7.803   3.215   2.663
 7051TIP3    H121110   7.801   3.122   2.635
 7051TIP3    H221111   7.779   3.208   2.757
 7052TIP3   OH221112   7.750   3.224   2.933
 7052TIP3    H121113   7.829   3.187   2.977
 7052TIP3    H221114   7.760   3.320   2.947
 7053TIP3   OH221115   7.520   2.950   3.150
 7053TIP3    H121116   7.433   2.964   3.193
 7053TIP3    H221117   7.508   3.003   3.069
 7054TIP3   OH221118   8.021   3.434   2.892
 7054TIP3    H121119   7.930   3.454   2.920
 7054TIP3    H221120   8.036   3.508   2.831
 7055TIP3   OH221121   7.762   3.500   2.949
 7055TIP3    H121122   7.728   3.568   2.887
 7055TIP3    H221123   7.745   3.542   3.036
 7056TIP3   OH221124   7.869   2.218   3.179
 7056TIP3    H121125   7.848   2.296   3.232
 7056TIP3    H221126   7.950   2.249   3.134
 7057TIP3   OH221127   7.483   3.129   2.932
 7057TIP3    H121128   7.564   3.181   2.944
 7057TIP3    H221129   7.514   3.067   2.863
 7058TIP3   OH221130   7.796   2.124   3.944
 7058TIP3    H121131   7.778   2.085   3.856
 7058TIP3    H221132   7.791   2.045   4.002
 7059TIP3   OH221133   7.507   3.887   4.397
 7059TIP3    H121134   7.592   3.884   4.445
 7059TIP3    H221135   7.483   3.793   4.397
 7060TIP3   OH221136   7.988   3.847   4.437
 7060TIP3    H121137   8.077   3.812   4.451
 7060TIP3    H221138   7.955   3.786   4.368
 7061TIP3   OH221139   7.962   3.418   2.575
 7061TIP3    H121140   7.898   3.349   2.607
 7061TIP3    H221141   8.045   3.372   2.592
 7062TIP3   OH221142   7.636   3.291   4.598
 7062TIP3    H121143   7.651   3.195   4.607
 7062TIP3    H221144   7.549   3.293   4.553
 7063TIP3   OH221145   7.616   2.944   2.785
 7063TIP3    H121146   7.649   2.895   2.862
 7063TIP3    H221147   7.694   2.944   2.728
 7064TIP3   OH221148   8.260   3.380   4.366
 7064TIP3    H121149   8.203   3.394   4.288
 7064TIP3    H221150   8.275   3.283   4.365
 7065TIP3   OH221151   8.111   3.122   2.590
 7065TIP3    H121152   8.129   3.151   2.683
 7065TIP3    H221153   8.029   3.073   2.603
 7066TIP3   OH221154   7.760   3.033   4.581
 7066TIP3    H121155   7.826   2.966   4.560
 7066TIP3    H221156   7.788   3.061   4.671
 7067TIP3   OH221157   7.837   2.840   3.022
 7067TIP3    H121158   7.786   2.801   3.095
 7067TIP3    H221159   7.868   2.762   2.972
 7068TIP3   OH221160   8.059   2.898   4.266
 7068TIP3    H121161   7.985   2.962   4.264
 7068TIP3    H221162   8.117   2.935   4.196
 7069TIP3   OH221163   7.923   2.632   2.854
 7069TIP3    H121164   7.881   2.640   2.767
 7069TIP3    H221165   8.015   2.612   2.824
 7070TIP3   OH221166   8.228   2.705   4.361
 7070TIP3    H121167   8.223   2.617   4.316
 7070TIP3    H221168   8.159   2.756   4.314
 7071TIP3   OH221169   8.227   2.476   4.195
 7071TIP3    H121170   8.233   2.522   4.108
 7071TIP3    H221171   8.138   2.434   4.186
 7072TIP3   OH221172   8.215   3.016   4.086
 7072TIP3    H121173   8.264   2.977   4.012
 7072TIP3    H221174   8.160   3.083   4.039
 7073TIP3   OH221175   8.099   2.805   4.600
 7073TIP3    H121176   8.031   2.736   4.614
 7073TIP3    H221177   8.129   2.785   4.510
 7074TIP3   OH221178   7.934   2.588   4.653
 7074TIP3    H121179   7.933   2.497   4.618
 7074TIP3    H221180   7.968   2.573   4.744
 7075TIP3   OH221181   7.719   3.703   2.764
 7075TIP3    H121182   7.815   3.698   2.750
 7075TIP3    H221183   7.694   3.754   2.685
 7076TIP3   OH221184   7.212   3.093   2.988
 7076TIP3    H121185   7.305   3.112   2.962
 7076TIP3    H221186   7.198   3.006   2.942
 7077TIP3   OH221187   7.138   3.678   3.374
 7077TIP3    H121188   7.058   3.624   3.358
 7077TIP3    H221189   7.179   3.629   3.449
 7078TIP3   OH221190   7.274   3.544   3.572
 7078TIP3    H121191   7.256   3.469   3.632
 7078TIP3    H221192   7.320   3.603   3.635
 7079TIP3   OH221193   7.443   2.954   3.949
 7079TIP3    H121194   7.442   2.918   3.858
 7079TIP3    H221195   7.540   2.952   3.967
 7080TIP3   OH221196   7.667   2.642   4.637
 7080TIP3    H121197   7.765   2.631   4.631
 7080TIP3    H221198   7.641   2.553   4.667
 7081TIP3   OH221199   7.621   2.333   3.960
 7081TIP3    H121200   7.679   2.254   3.964
 7081TIP3    H221201   7.687   2.404   3.954
 7082TIP3   OH221202   7.430   2.605   4.028
 7082TIP3    H121203   7.474   2.590   3.942
 7082TIP3    H221204   7.470   2.688   4.056
 7083TIP3   OH221205   7.414   2.111   3.524
 7083TIP3    H121206   7.324   2.099   3.560
 7083TIP3    H221207   7.398   2.170   3.448
 7084TIP3   OH221208   7.632   2.196   4.347
 7084TIP3    H121209   7.576   2.185   4.426
 7084TIP3    H221210   7.567   2.229   4.283
 7085TIP3   OH221211   7.671   3.619   4.420
 7085TIP3    H121212   7.579   3.593   4.401
 7085TIP3    H221213   7.681   3.592   4.512
 7086TIP3   OH221214   7.851   3.649   3.969
 7086TIP3    H121215   7.800   3.723   3.929
 7086TIP3    H221216   7.936   3.664   3.921
 7087TIP3   OH221217   8.291   3.882   4.108
 7087TIP3    H121218   8.334   3.873   4.195
 7087TIP3    H221219   8.350   3.944   4.062
 7088TIP3   OH221220   8.468   4.056   3.962
 7088TIP3    H121221   8.496   4.037   3.871
 7088TIP3    H221222   8.463   4.152   3.959
 7089TIP3   OH221223   7.527   3.908   3.990
 7089TIP3    H121224   7.437   3.939   3.966
 7089TIP3    H221225   7.535   3.945   4.079
 7090TIP3   OH221226   7.763   3.885   3.850
 7090TIP3    H121227   7.676   3.897   3.894
 7090TIP3    H221228   7.743   3.916   3.760
 7091TIP3   OH221229   8.161   3.920   3.651
 7091TIP3    H121230   8.085   3.931   3.590
 7091TIP3    H221231   8.173   4.011   3.683
 7092TIP3   OH221232   8.410   3.817   3.636
 7092TIP3    H121233   8.318   3.850   3.639
 7092TIP3    H221234   8.460   3.896   3.660
 7093TIP3   OH221235   7.442   3.700   3.734
 7093TIP3    H121236   7.465   3.668   3.824
 7093TIP3    H221237   7.512   3.655   3.683
 7094TIP3   OH221238   7.633   3.571   3.588
 7094TIP3    H121239   7.646   3.488   3.640
 7094TIP3    H221240   7.725   3.606   3.585
 7095TIP3   OH221241   7.899   3.664   3.597
 7095TIP3    H121242   7.925   3.570   3.586
 7095TIP3    H221243   7.945   3.684   3.681
 7096TIP3   OH221244   7.721   2.030   3.692
 7096TIP3    H121245   7.630   1.995   3.704
 7096TIP3    H221246   7.770   1.945   3.684
 7097TIP3   OH221247   7.512   1.902   3.334
 7097TIP3    H121248   7.531   1.969   3.266
 7097TIP3    H221249   7.482   1.958   3.408
 7098TIP3   OH221250   7.626   2.067   3.110
 7098TIP3    H121251   7.668   2.005   3.046
 7098TIP3    H221252   7.703   2.114   3.145
 7099TIP3   OH221253   7.988   3.655   2.718
 7099TIP3    H121254   8.079   3.666   2.685
 7099TIP3    H221255   7.958   3.586   2.655
 7100TIP3   OH221256   7.921   2.315   4.587
 7100TIP3    H121257   7.885   2.242   4.641
 7100TIP3    H221258   8.015   2.314   4.616
 7101TIP3   OH221259   8.162   2.309   4.718
 7101TIP3    H121260   8.240   2.271   4.672
 7101TIP3    H221261   8.146   2.240   4.786
 7102TIP3   OH221262   7.302   3.491   2.782
 7102TIP3    H121263   7.337   3.570   2.824
 7102TIP3    H221264   7.384   3.443   2.756
 7103TIP3   OH221265   0.863   3.830   4.969
 7103TIP3    H121266   0.830   3.919   4.945
 7103TIP3    H221267   0.794   3.774   4.929
 7104TIP3   OH221268   0.864   3.831   5.345
 7104TIP3    H121269   0.898   3.798   5.430
 7104TIP3    H221270   0.824   3.752   5.307
 7105TIP3   OH221271   0.199   3.702   5.664
 7105TIP3    H121272   0.166   3.645   5.734
 7105TIP3    H221273   0.232   3.778   5.713
 7106TIP3   OH221274   1.108   4.135   5.027
 7106TIP3    H121275   1.091   4.052   5.075
 7106TIP3    H221276   1.147   4.191   5.095
 7107TIP3   OH221277   0.146   4.111   5.355
 7107TIP3    H121278   0.125   4.017   5.374
 7107TIP3    H221279   0.221   4.124   5.413
 7108TIP3   OH221280  -0.084   3.614   5.338
 7108TIP3    H121281  -0.054   3.568   5.417
 7108TIP3    H221282  -0.024   3.689   5.334
 7109TIP3   OH221283   0.771   4.608   5.050
 7109TIP3    H121284   0.805   4.549   4.981
 7109TIP3    H221285   0.758   4.547   5.123
 7110TIP3   OH221286   0.664   4.053   5.387
 7110TIP3    H121287   0.701   3.972   5.349
 7110TIP3    H221288   0.749   4.097   5.410
 7111TIP3   OH221289   1.679   3.369   5.384
 7111TIP3    H121290   1.709   3.453   5.424
 7111TIP3    H221291   1.707   3.381   5.292
 7112TIP3   OH221292   1.074   3.552   5.417
 7112TIP3    H121293   1.118   3.467   5.439
 7112TIP3    H221294   1.044   3.534   5.326
 7113TIP3   OH221295   0.421   3.212   5.381
 7113TIP3    H121296   0.398   3.284   5.319
 7113TIP3    H221297   0.372   3.138   5.339
 7114TIP3   OH221298   1.110   3.304   5.003
 7114TIP3    H121299   1.181   3.289   5.070
 7114TIP3    H221300   1.165   3.339   4.929
 7115TIP3   OH221301   0.053   3.417   5.493
 7115TIP3    H121302   0.133   3.405   5.548
 7115TIP3    H221303   0.079   3.372   5.411
 7116TIP3   OH221304   0.492   3.610   5.268
 7116TIP3    H121305   0.584   3.586   5.292
 7116TIP3    H221306   0.453   3.524   5.246
 7117TIP3   OH221307   1.753   3.578   5.556
 7117TIP3    H121308   1.668   3.624   5.536
 7117TIP3    H221309   1.772   3.613   5.645
 7118TIP3   OH221310   0.411   3.193   5.822
 7118TIP3    H121311   0.356   3.236   5.755
 7118TIP3    H221312   0.359   3.211   5.903
 7119TIP3   OH221313   0.743   4.043   4.842
 7119TIP3    H121314   0.710   4.021   4.755
 7119TIP3    H221315   0.703   4.132   4.855
 7120TIP3   OH221316   0.517   3.979   5.615
 7120TIP3    H121317   0.455   4.043   5.656
 7120TIP3    H221318   0.554   4.028   5.540
 7121TIP3   OH221319   1.314   3.309   5.181
 7121TIP3    H121320   1.304   3.264   5.266
 7121TIP3    H221321   1.368   3.386   5.206
 7122TIP3   OH221322   0.290   3.309   5.602
 7122TIP3    H121323   0.348   3.383   5.629
 7122TIP3    H221324   0.343   3.273   5.527
 7123TIP3   OH221325   0.328   4.156   5.733
 7123TIP3    H121326   0.267   4.205   5.675
 7123TIP3    H221327   0.263   4.111   5.789
 7124TIP3   OH221328   1.178   4.370   5.201
 7124TIP3    H121329   1.091   4.352   5.244
 7124TIP3    H221330   1.149   4.425   5.128
 7125TIP3   OH221331   1.472   3.268   5.551
 7125TIP3    H121332   1.385   3.296   5.517
 7125TIP3    H221333   1.533   3.302   5.482
 7126TIP3   OH221334   0.763   2.910   5.534
 7126TIP3    H121335   0.747   2.816   5.553
 7126TIP3    H221336   0.687   2.951   5.581
 7127TIP3   OH221337   0.878   4.431   4.861
 7127TIP3    H121338   0.921   4.343   4.844
 7127TIP3    H221339   0.947   4.490   4.825
 7128TIP3   OH221340   1.015   4.210   4.779
 7128TIP3    H121341   1.031   4.139   4.717
 7128TIP3    H221342   1.049   4.171   4.862
 7129TIP3   OH221343   1.403   4.285   5.527
 7129TIP3    H121344   1.391   4.204   5.473
 7129TIP3    H221345   1.395   4.355   5.460
 7130TIP3   OH221346   0.702   3.681   4.795
 7130TIP3    H121347   0.622   3.731   4.768
 7130TIP3    H221348   0.750   3.671   4.711
 7131TIP3   OH221349   0.652   3.454   4.517
 7131TIP3    H121350   0.720   3.514   4.554
 7131TIP3    H221351   0.709   3.399   4.459
 7132TIP3   OH221352   1.598   3.923   5.379
 7132TIP3    H121353   1.514   3.973   5.381
 7132TIP3    H221354   1.629   3.944   5.288
 7133TIP3   OH221355   1.029   3.721   4.775
 7133TIP3    H121356   0.986   3.766   4.851
 7133TIP3    H221357   1.123   3.723   4.803
 7134TIP3   OH221358   1.277   3.797   5.676
 7134TIP3    H121359   1.273   3.880   5.727
 7134TIP3    H221360   1.191   3.799   5.631
 7135TIP3   OH221361   0.281   3.753   5.172
 7135TIP3    H121362   0.240   3.693   5.106
 7135TIP3    H221363   0.359   3.700   5.201
 7136TIP3   OH221364   0.431   4.193   5.313
 7136TIP3    H121365   0.386   4.135   5.250
 7136TIP3    H221366   0.514   4.143   5.331
 7137TIP3   OH221367   0.475   3.718   5.528
 7137TIP3    H121368   0.468   3.708   5.431
 7137TIP3    H221369   0.473   3.814   5.542
 7138TIP3   OH221370   0.934   4.365   5.310
 7138TIP3    H121371   0.927   4.441   5.372
 7138TIP3    H221372   0.919   4.288   5.369
 7139TIP3   OH221373   0.544   4.290   5.850
 7139TIP3    H121374   0.490   4.345   5.909
 7139TIP3    H221375   0.475   4.234   5.809
 7140TIP3   OH221376   0.870   3.623   4.582
 7140TIP3    H121377   0.934   3.673   4.638
 7140TIP3    H221378   0.903   3.646   4.492
 7141TIP3   OH221379   0.292   3.842   5.958
 7141TIP3    H121380   0.298   3.925   6.010
 7141TIP3    H221381   0.196   3.837   5.946
 7142TIP3   OH221382   0.631   4.300   4.842
 7142TIP3    H121383   0.711   4.349   4.868
 7142TIP3    H221384   0.567   4.370   4.824
 7143TIP3   OH221385   0.325   4.461   5.945
 7143TIP3    H121386   0.308   4.466   5.849
 7143TIP3    H221387   0.249   4.407   5.976
 7144TIP3   OH221388   1.399   2.857   4.635
 7144TIP3    H121389   1.318   2.880   4.684
 7144TIP3    H221390   1.415   2.940   4.585
 7145TIP3   OH221391   0.158   3.592   4.972
 7145TIP3    H121392   0.085   3.630   4.919
 7145TIP3    H221393   0.117   3.511   5.005
 7146TIP3   OH221394   1.196   4.229   4.173
 7146TIP3    H121395   1.212   4.325   4.161
 7146TIP3    H221396   1.287   4.194   4.159
 7147TIP3   OH221397   1.639   4.629   5.574
 7147TIP3    H121398   1.641   4.533   5.592
 7147TIP3    H221399   1.557   4.653   5.624
 7148TIP3   OH221400   0.741   4.416   5.707
 7148TIP3    H121401   0.742   4.507   5.744
 7148TIP3    H221402   0.671   4.375   5.762
 7149TIP3   OH221403   0.510   4.542   4.661
 7149TIP3    H121404   0.462   4.535   4.577
 7149TIP3    H221405   0.483   4.629   4.694
 7150TIP3   OH221406   0.713   4.440   4.303
 7150TIP3    H121407   0.775   4.373   4.266
 7150TIP3    H221408   0.749   4.452   4.393
 7151TIP3   OH221409   0.763   4.492   4.574
 7151TIP3    H121410   0.675   4.507   4.615
 7151TIP3    H221411   0.804   4.436   4.642
 7152TIP3   OH221412   1.528   3.757   5.853
 7152TIP3    H121413   1.446   3.765   5.802
 7152TIP3    H221414   1.546   3.661   5.845
 7153TIP3   OH221415   0.528   2.989   5.665
 7153TIP3    H121416   0.440   2.957   5.635
 7153TIP3    H221417   0.500   3.069   5.714
 7154TIP3   OH221418   1.063   3.104   5.858
 7154TIP3    H121419   1.131   3.076   5.922
 7154TIP3    H221420   0.979   3.085   5.905
 7155TIP3   OH221421   1.296   3.533   5.775
 7155TIP3    H121422   1.246   3.531   5.859
 7155TIP3    H221423   1.274   3.620   5.739
 7156TIP3   OH221424   0.952   3.669   4.328
 7156TIP3    H121425   0.928   3.641   4.239
 7156TIP3    H221426   1.040   3.710   4.314
 7157TIP3   OH221427   0.669   3.039   4.633
 7157TIP3    H121428   0.636   3.035   4.725
 7157TIP3    H221429   0.632   2.955   4.599
 7158TIP3   OH221430   0.461   3.503   5.688
 7158TIP3    H121431   0.402   3.528   5.762
 7158TIP3    H221432   0.457   3.585   5.632
 7159TIP3   OH221433   0.338   3.389   5.194
 7159TIP3    H121434   0.245   3.366   5.210
 7159TIP3    H221435   0.352   3.350   5.106
 7160TIP3   OH221436   0.833   3.474   4.925
 7160TIP3    H121437   0.785   3.548   4.883
 7160TIP3    H221438   0.892   3.445   4.852
 7161TIP3   OH221439   1.008   3.754   6.008
 7161TIP3    H121440   0.986   3.681   6.070
 7161TIP3    H221441   1.103   3.766   6.030
 7162TIP3   OH221442   0.991   3.505   5.159
 7162TIP3    H121443   0.928   3.532   5.090
 7162TIP3    H221444   1.026   3.425   5.115
 7163TIP3   OH221445   0.288   3.522   5.900
 7163TIP3    H121446   0.288   3.596   5.962
 7163TIP3    H221447   0.277   3.445   5.959
 7164TIP3   OH221448   0.326   3.011   4.598
 7164TIP3    H121449   0.320   3.011   4.696
 7164TIP3    H221450   0.247   3.063   4.575
 7165TIP3   OH221451  -0.102   3.093   5.452
 7165TIP3    H121452  -0.027   3.088   5.515
 7165TIP3    H221453  -0.093   3.011   5.401
 7166TIP3   OH221454  -0.137   3.091   5.020
 7166TIP3    H121455  -0.110   3.105   4.927
 7166TIP3    H221456  -0.140   3.182   5.051
 7167TIP3   OH221457   1.002   3.751   5.582
 7167TIP3    H121458   1.034   3.679   5.523
 7167TIP3    H221459   0.971   3.697   5.658
 7168TIP3   OH221460   0.675   3.213   5.255
 7168TIP3    H121461   0.595   3.213   5.310
 7168TIP3    H221462   0.746   3.207   5.322
 7169TIP3   OH221463   0.100   3.258   5.260
 7169TIP3    H121464   0.011   3.225   5.278
 7169TIP3    H221465   0.149   3.174   5.246
 7170TIP3   OH221466   0.368   3.264   4.953
 7170TIP3    H121467   0.463   3.278   4.935
 7170TIP3    H221468   0.325   3.288   4.868
 7171TIP3   OH221469   1.163   3.291   5.460
 7171TIP3    H121470   1.129   3.304   5.551
 7171TIP3    H221471   1.095   3.231   5.424
 7172TIP3   OH221472   0.216   3.302   4.726
 7172TIP3    H121473   0.149   3.255   4.672
 7172TIP3    H221474   0.271   3.341   4.655
 7173TIP3   OH221475   1.336   4.981   5.681
 7173TIP3    H121476   1.341   5.003   5.587
 7173TIP3    H221477   1.419   5.023   5.715
 7174TIP3   OH221478   0.290   4.080   6.116
 7174TIP3    H121479   0.365   4.110   6.170
 7174TIP3    H221480   0.217   4.128   6.158
 7175TIP3   OH221481   0.751   3.544   5.352
 7175TIP3    H121482   0.826   3.505   5.306
 7175TIP3    H221483   0.755   3.500   5.439
 7176TIP3   OH221484   0.268   3.032   5.238
 7176TIP3    H121485   0.231   2.955   5.286
 7176TIP3    H221486   0.318   2.988   5.168
 7177TIP3   OH221487   0.728   3.442   5.641
 7177TIP3    H121488   0.637   3.476   5.655
 7177TIP3    H221489   0.784   3.505   5.691
 7178TIP3   OH221490   0.469   3.832   4.730
 7178TIP3    H121491   0.398   3.765   4.723
 7178TIP3    H221492   0.452   3.866   4.821
 7179TIP3   OH221493   1.363   4.068   5.364
 7179TIP3    H121494   1.388   4.116   5.282
 7179TIP3    H221495   1.281   4.022   5.338
 7180TIP3   OH221496   0.922   3.142   4.603
 7180TIP3    H121497   0.826   3.124   4.612
 7180TIP3    H221498   0.931   3.236   4.629
 7181TIP3   OH221499   0.879   4.160   5.731
 7181TIP3    H121500   0.892   4.119   5.817
 7181TIP3    H221501   0.823   4.236   5.750
 7182TIP3   OH221502   0.992   3.393   4.704
 7182TIP3    H121503   1.088   3.398   4.723
 7182TIP3    H221504   0.976   3.476   4.656
 7183TIP3   OH221505   0.172   3.846   5.420
 7183TIP3    H121506   0.212   3.796   5.347
 7183TIP3    H221507   0.175   3.784   5.496
 7184TIP3   OH221508   0.583   3.960   4.512
 7184TIP3    H121509   0.550   4.051   4.526
 7184TIP3    H221510   0.548   3.914   4.591
 7185TIP3   OH221511   0.766   3.889   6.048
 7185TIP3    H121512   0.701   3.830   6.006
 7185TIP3    H221513   0.850   3.850   6.016
 7186TIP3   OH221514   1.021   4.434   5.618
 7186TIP3    H121515   0.929   4.409   5.639
 7186TIP3    H221516   1.050   4.470   5.705
 7187TIP3   OH221517   1.431   3.485   4.540
 7187TIP3    H121518   1.369   3.444   4.475
 7187TIP3    H221519   1.427   3.577   4.507
 7188TIP3   OH221520   1.654   4.344   5.617
 7188TIP3    H121521   1.556   4.334   5.612
 7188TIP3    H221522   1.679   4.311   5.528
 7189TIP3   OH221523   1.137   4.300   4.440
 7189TIP3    H121524   1.140   4.214   4.487
 7189TIP3    H221525   1.151   4.265   4.350
 7190TIP3   OH221526   1.131   3.931   5.282
 7190TIP3    H121527   1.038   3.905   5.295
 7190TIP3    H221528   1.165   3.849   5.240
 7191TIP3   OH221529   0.262   4.156   5.032
 7191TIP3    H121530   0.244   4.237   4.980
 7191TIP3    H221531   0.182   4.147   5.085
 7192TIP3   OH221532  -0.174   3.465   4.742
 7192TIP3    H121533  -0.119   3.544   4.762
 7192TIP3    H221534  -0.260   3.493   4.777
 7193TIP3   OH221535   0.394   3.918   4.973
 7193TIP3    H121536   0.358   4.007   4.995
 7193TIP3    H221537   0.363   3.866   5.050
 7194TIP3   OH221538   0.538   4.501   5.509
 7194TIP3    H121539   0.585   4.569   5.457
 7194TIP3    H221540   0.612   4.458   5.555
 7195TIP3   OH221541   0.173   4.400   4.893
 7195TIP3    H121542   0.094   4.418   4.944
 7195TIP3    H221543   0.214   4.489   4.890
 7196TIP3   OH221544   0.919   4.135   5.464
 7196TIP3    H121545   0.908   4.135   5.562
 7196TIP3    H221546   0.989   4.070   5.452
 7197TIP3   OH221547   0.871   4.018   4.351
 7197TIP3    H121548   0.960   4.006   4.393
 7197TIP3    H221549   0.814   3.993   4.425
 7198TIP3   OH221550   1.161   4.667   5.530
 7198TIP3    H121551   1.091   4.599   5.529
 7198TIP3    H221552   1.138   4.723   5.453
 7199TIP3   OH221553   1.231   4.503   4.166
 7199TIP3    H121554   1.271   4.578   4.119
 7199TIP3    H221555   1.149   4.546   4.199
 7200TIP3   OH221556   0.258   3.265   6.049
 7200TIP3    H121557   0.165   3.249   6.067
 7200TIP3    H221558   0.301   3.212   6.118
 7201TIP3   OH221559   0.207   4.014   4.603
 7201TIP3    H121560   0.275   3.980   4.663
 7201TIP3    H221561   0.215   4.111   4.616
 7202TIP3   OH221562  -0.050   3.695   4.830
 7202TIP3    H121563  -0.106   3.740   4.895
 7202TIP3    H221564  -0.037   3.768   4.765
 7203TIP3   OH221565   1.088   3.342   5.719
 7203TIP3    H121566   1.170   3.380   5.756
 7203TIP3    H221567   1.077   3.261   5.774
 7204TIP3   OH221568   0.969   3.090   4.886
 7204TIP3    H121569   0.957   3.113   4.792
 7204TIP3    H221570   1.009   3.173   4.922
 7205TIP3   OH221571   0.464   4.212   4.537
 7205TIP3    H121572   0.384   4.222   4.592
 7205TIP3    H221573   0.493   4.304   4.534
 7206TIP3   OH221574   0.650   3.275   4.986
 7206TIP3    H121575   0.715   3.346   4.967
 7206TIP3    H221576   0.660   3.266   5.083
 7207TIP3   OH221577   0.927   3.591   5.788
 7207TIP3    H121578   0.950   3.641   5.869
 7207TIP3    H221579   0.978   3.509   5.799
 7208TIP3   OH221580   0.798   2.994   5.084
 7208TIP3    H121581   0.793   3.071   5.144
 7208TIP3    H221582   0.860   3.028   5.016
 7209TIP3   OH221583   0.219   4.285   4.642
 7209TIP3    H121584   0.187   4.355   4.580
 7209TIP3    H221585   0.198   4.325   4.729
 7210TIP3   OH221586   0.313   3.000   4.874
 7210TIP3    H121587   0.312   3.090   4.914
 7210TIP3    H221588   0.408   2.980   4.883
 7211TIP3   OH221589   1.564   3.492   5.777
 7211TIP3    H121590   1.466   3.488   5.781
 7211TIP3    H221591   1.579   3.451   5.690
 7212TIP3   OH221592   1.216   3.689   5.165
 7212TIP3    H121593   1.141   3.626   5.172
 7212TIP3    H221594   1.288   3.640   5.210
 7213TIP3   OH221595  -0.059   3.919   4.672
 7213TIP3    H121596   0.016   3.978   4.651
 7213TIP3    H221597  -0.062   3.868   4.589
 7214TIP3   OH221598  -0.147   3.190   4.765
 7214TIP3    H121599  -0.142   3.287   4.765
 7214TIP3    H221600  -0.181   3.172   4.677
 7215TIP3   OH221601   1.163   4.704   5.073
 7215TIP3    H121602   1.154   4.622   5.023
 7215TIP3    H221603   1.261   4.716   5.071
 7216TIP3   OH221604   0.266   2.906   5.633
 7216TIP3    H121605   0.235   2.869   5.548
 7216TIP3    H221606   0.255   2.829   5.693
 7217TIP3   OH221607   0.429   4.636   6.136
 7217TIP3    H121608   0.524   4.625   6.143
 7217TIP3    H221609   0.406   4.570   6.068
 7218TIP3   OH221610   0.425   4.206   4.262
 7218TIP3    H121611   0.428   4.188   4.358
 7218TIP3    H221612   0.505   4.161   4.231
 7219TIP3   OH221613   1.079   4.540   5.865
 7219TIP3    H121614   1.069   4.471   5.935
 7219TIP3    H221615   1.156   4.590   5.898
 7220TIP3   OH221616   0.860   4.251   4.169
 7220TIP3    H121617   0.900   4.187   4.231
 7220TIP3    H221618   0.919   4.244   4.093
 7221TIP3   OH221619   0.062   3.719   4.487
 7221TIP3    H121620   0.120   3.703   4.564
 7221TIP3    H221621   0.123   3.707   4.414
 7222TIP3   OH221622   0.692   4.163   6.062
 7222TIP3    H121623   0.652   4.175   5.975
 7222TIP3    H221624   0.725   4.071   6.058
 7223TIP3   OH221625   1.191   4.173   5.672
 7223TIP3    H121626   1.263   4.220   5.627
 7223TIP3    H221627   1.114   4.229   5.654
 7224TIP3   OH221628   0.208   3.802   6.287
 7224TIP3    H121629   0.271   3.759   6.230
 7224TIP3    H221630   0.263   3.844   6.355
 7225TIP3   OH221631   0.272   3.636   4.700
 7225TIP3    H121632   0.248   3.599   4.787
 7225TIP3    H221633   0.310   3.557   4.655
 7226TIP3   OH221634   0.547   3.707   5.943
 7226TIP3    H121635   0.462   3.754   5.935
 7226TIP3    H221636   0.594   3.736   5.861
 7227TIP3   OH221637   0.377   3.428   4.546
 7227TIP3    H121638   0.358   3.434   4.450
 7227TIP3    H221639   0.475   3.424   4.544
 7228TIP3   OH221640   1.063   4.100   6.066
 7228TIP3    H121641   1.139   4.066   6.017
 7228TIP3    H221642   1.053   4.035   6.137
 7229TIP3   OH221643   1.191   3.751   4.207
 7229TIP3    H121644   1.166   3.718   4.118
 7229TIP3    H221645   1.167   3.845   4.200
 7230TIP3   OH221646   0.671   3.490   6.056
 7230TIP3    H121647   0.666   3.409   6.001
 7230TIP3    H221648   0.623   3.555   6.001
 7231TIP3   OH221649   0.670   3.272   5.868
 7231TIP3    H121650   0.696   3.314   5.784
 7231TIP3    H221651   0.576   3.249   5.850
 7232TIP3   OH221652   0.696   3.815   5.746
 7232TIP3    H121653   0.774   3.812   5.689
 7232TIP3    H221654   0.634   3.870   5.693
 7233TIP3   OH221655   1.275   3.771   6.118
 7233TIP3    H121656   1.321   3.687   6.132
 7233TIP3    H221657   1.345   3.826   6.080
 7234TIP3   OH221658   1.319   4.027   5.859
 7234TIP3    H121659   1.262   4.081   5.799
 7234TIP3    H221660   1.407   4.047   5.819
 7235TIP3   OH221661   0.547   3.607   6.291
 7235TIP3    H121662   0.490   3.528   6.300
 7235TIP3    H221663   0.579   3.596   6.200
 7236TIP3   OH221664   0.800   3.033   5.936
 7236TIP3    H121665   0.751   3.114   5.912
 7236TIP3    H221666   0.731   2.964   5.925
 7237TIP3   OH221667   0.927   3.537   6.151
 7237TIP3    H121668   0.910   3.520   6.246
 7237TIP3    H221669   0.839   3.514   6.115
 7238TIP3   OH221670   1.165   3.490   6.006
 7238TIP3    H121671   1.091   3.490   6.070
 7238TIP3    H221672   1.240   3.459   6.061
 7239TIP3   OH221673   1.393   3.429   6.154
 7239TIP3    H121674   1.407   3.333   6.170
 7239TIP3    H221675   1.391   3.466   6.245
 7240TIP3   OH221676   0.412   3.377   6.342
 7240TIP3    H121677   0.400   3.287   6.305
 7240TIP3    H221678   0.436   3.356   6.434
 7241TIP3   OH221679   0.894   3.044   6.194
 7241TIP3    H121680   0.960   2.972   6.187
 7241TIP3    H221681   0.854   3.039   6.104
 7242TIP3   OH221682   0.963   3.258   6.352
 7242TIP3    H121683   0.941   3.187   6.288
 7242TIP3    H221684   0.884   3.316   6.345
 7243TIP3   OH221685   0.185   4.482   4.451
 7243TIP3    H121686   0.280   4.490   4.428
 7243TIP3    H221687   0.145   4.533   4.379
 7244TIP3   OH221688   1.429   4.757   5.068
 7244TIP3    H121689   1.470   4.769   5.156
 7244TIP3    H221690   1.507   4.762   5.010
 7245TIP3   OH221691   1.476   4.750   5.351
 7245TIP3    H121692   1.426   4.666   5.349
 7245TIP3    H221693   1.549   4.724   5.409
 7246TIP3   OH221694   1.512   4.431   5.922
 7246TIP3    H121695   1.442   4.440   5.990
 7246TIP3    H221696   1.557   4.518   5.928
 7247TIP3   OH221697   1.473   3.793   4.738
 7247TIP3    H121698   1.392   3.767   4.787
 7247TIP3    H221699   1.519   3.849   4.802
 7248TIP3   OH221700   1.512   4.202   5.174
 7248TIP3    H121701   1.569   4.132   5.135
 7248TIP3    H221702   1.512   4.270   5.104
 7249TIP3   OH221703   1.342   4.509   5.368
 7249TIP3    H121704   1.272   4.533   5.432
 7249TIP3    H221705   1.293   4.454   5.303
 7250TIP3   OH221706   1.389   3.731   4.403
 7250TIP3    H121707   1.318   3.736   4.336
 7250TIP3    H221708   1.357   3.797   4.466
 7251TIP3   OH221709   1.267   3.390   4.345
 7251TIP3    H121710   1.223   3.427   4.268
 7251TIP3    H221711   1.244   3.295   4.336
 7252TIP3   OH221712   1.275   3.674   4.894
 7252TIP3    H121713   1.283   3.579   4.884
 7252TIP3    H221714   1.260   3.684   4.991
 7253TIP3   OH221715   1.565   4.093   5.749
 7253TIP3    H121716   1.634   4.023   5.742
 7253TIP3    H221717   1.594   4.157   5.682
 7254TIP3   OH221718   1.745   3.893   5.766
 7254TIP3    H121719   1.670   3.842   5.803
 7254TIP3    H221720   1.818   3.830   5.781
 7255TIP3   OH221721   1.212   3.122   4.324
 7255TIP3    H121722   1.287   3.094   4.381
 7255TIP3    H221723   1.140   3.064   4.351
 7256TIP3   OH221724   1.269   3.384   4.784
 7256TIP3    H121725   1.310   3.295   4.798
 7256TIP3    H221726   1.327   3.419   4.715
 7257TIP3   OH221727   1.428   3.554   5.282
 7257TIP3    H121728   1.513   3.579   5.239
 7257TIP3    H221729   1.445   3.590   5.371
 7258TIP3   OH221730   1.503   3.700   5.513
 7258TIP3    H121731   1.425   3.734   5.560
 7258TIP3    H221732   1.536   3.780   5.467
 7259TIP3   OH221733   0.133   3.345   6.432
 7259TIP3    H121734   0.193   3.380   6.365
 7259TIP3    H221735   0.048   3.377   6.398
 7260TIP3   OH221736   1.949   3.293   6.067
 7260TIP3    H121737   2.012   3.229   6.027
 7260TIP3    H221738   1.921   3.345   5.989
 7261TIP3   OH221739   1.378   3.135   4.825
 7261TIP3    H121740   1.428   3.118   4.907
 7261TIP3    H221741   1.318   3.057   4.824
 7262TIP3   OH221742   0.092   3.117   5.648
 7262TIP3    H121743   0.155   3.042   5.653
 7262TIP3    H221744   0.154   3.191   5.632
 7263TIP3   OH221745   1.820   3.430   5.870
 7263TIP3    H121746   1.733   3.472   5.887
 7263TIP3    H221747   1.790   3.355   5.814
 7264TIP3   OH221748   1.454   3.066   4.456
 7264TIP3    H121749   1.497   2.996   4.404
 7264TIP3    H221750   1.522   3.137   4.458
 7265TIP3   OH221751  -0.114   2.913   5.228
 7265TIP3    H121752  -0.206   2.908   5.253
 7265TIP3    H221753  -0.116   2.977   5.154
 7266TIP3   OH221754   1.051   4.616   4.740
 7266TIP3    H121755   1.061   4.566   4.657
 7266TIP3    H221756   1.115   4.685   4.723
 7267TIP3   OH221757   0.082   2.986   6.045
 7267TIP3    H121758   0.038   2.983   6.131
 7267TIP3    H221759   0.017   3.033   5.991
 7268TIP3   OH221760   0.305   4.477   5.664
 7268TIP3    H121761   0.288   4.543   5.594
 7268TIP3    H221762   0.395   4.451   5.639
 7269TIP3   OH221763   0.747   4.682   5.793
 7269TIP3    H121764   0.788   4.678   5.882
 7269TIP3    H221765   0.815   4.732   5.744
 7270TIP3   OH221766   0.929   4.835   5.651
 7270TIP3    H121767   1.000   4.775   5.622
 7270TIP3    H221768   0.980   4.891   5.714
 7271TIP3   OH221769   1.720   3.193   5.754
 7271TIP3    H121770   1.631   3.184   5.716
 7271TIP3    H221771   1.755   3.101   5.745
 7272TIP3   OH221772   0.221   4.696   5.500
 7272TIP3    H121773   0.190   4.776   5.545
 7272TIP3    H221774   0.153   4.680   5.435
 7273TIP3   OH221775   0.643   4.700   5.344
 7273TIP3    H121776   0.590   4.715   5.264
 7273TIP3    H221777   0.650   4.790   5.382
 7274TIP3   OH221778   0.910   4.642   5.387
 7274TIP3    H121779   0.814   4.649   5.367
 7274TIP3    H221780   0.941   4.730   5.361
 7275TIP3   OH221781   1.125   4.844   5.311
 7275TIP3    H121782   1.087   4.916   5.261
 7275TIP3    H221783   1.145   4.779   5.240
 7276TIP3   OH221784   0.090   4.364   5.274
 7276TIP3    H121785   0.093   4.273   5.311
 7276TIP3    H221786   0.184   4.388   5.276
 7277TIP3   OH221787   0.372   4.460   5.285
 7277TIP3    H121788   0.393   4.365   5.271
 7277TIP3    H221789   0.418   4.472   5.370
 7278TIP3   OH221790   0.924   3.107   5.372
 7278TIP3    H121791   0.883   3.036   5.424
 7278TIP3    H221792   1.000   3.063   5.330
 7279TIP3   OH221793   1.446   2.989   5.281
 7279TIP3    H121794   1.483   3.039   5.205
 7279TIP3    H221795   1.351   3.008   5.272
 7280TIP3   OH221796   1.542   3.085   5.042
 7280TIP3    H121797   1.615   3.032   5.003
 7280TIP3    H221798   1.579   3.175   5.028
 7281TIP3   OH221799   0.171   2.817   5.387
 7281TIP3    H121800   0.077   2.787   5.387
 7281TIP3    H221801   0.217   2.730   5.383
 7282TIP3   OH221802  -0.015   2.681   5.048
 7282TIP3    H121803   0.002   2.740   4.974
 7282TIP3    H221804  -0.063   2.739   5.110
 7283TIP3   OH221805   0.619   2.849   5.270
 7283TIP3    H121806   0.675   2.896   5.206
 7283TIP3    H221807   0.647   2.888   5.354
 7284TIP3   OH221808   1.160   2.998   5.252
 7284TIP3    H121809   1.165   2.958   5.164
 7284TIP3    H221810   1.148   2.918   5.309
 7285TIP3   OH221811   1.194   2.921   4.816
 7285TIP3    H121812   1.108   2.964   4.832
 7285TIP3    H221813   1.180   2.835   4.860
 7286TIP3   OH221814   0.081   2.850   4.796
 7286TIP3    H121815   0.128   2.783   4.742
 7286TIP3    H221816   0.157   2.900   4.833
 7287TIP3   OH221817   0.590   3.024   4.898
 7287TIP3    H121818   0.650   2.976   4.957
 7287TIP3    H221819   0.612   3.116   4.924
 7288TIP3   OH221820   0.454   4.458   4.392
 7288TIP3    H121821   0.545   4.468   4.359
 7288TIP3    H221822   0.423   4.387   4.332
 7289TIP3   OH221823   1.160   4.561   4.493
 7289TIP3    H121824   1.158   4.463   4.481
 7289TIP3    H221825   1.120   4.589   4.408
 7290TIP3   OH221826   0.380   3.104   6.273
 7290TIP3    H121827   0.342   3.031   6.326
 7290TIP3    H221828   0.472   3.100   6.306
 7291TIP3   OH221829   0.629   3.097   6.402
 7291TIP3    H121830   0.713   3.073   6.361
 7291TIP3    H221831   0.616   3.023   6.465
 7292TIP3   OH221832   1.459   3.159   6.186
 7292TIP3    H121833   1.476   3.127   6.277
 7292TIP3    H221834   1.548   3.154   6.146
 7293TIP3   OH221835   1.394   4.711   5.679
 7293TIP3    H121836   1.314   4.680   5.632
 7293TIP3    H221837   1.374   4.806   5.688
 7294TIP3   OH221838   1.966   3.981   5.187
 7294TIP3    H121839   1.988   3.909   5.250
 7294TIP3    H221840   2.048   4.031   5.188
 7295TIP3   OH221841   2.902   4.388   4.510
 7295TIP3    H121842   2.945   4.314   4.555
 7295TIP3    H221843   2.929   4.464   4.565
 7296TIP3   OH221844   1.930   4.374   4.911
 7296TIP3    H121845   1.921   4.278   4.892
 7296TIP3    H221846   2.016   4.372   4.954
 7297TIP3   OH221847   1.644   3.581   4.689
 7297TIP3    H121848   1.597   3.664   4.711
 7297TIP3    H221849   1.571   3.532   4.647
 7298TIP3   OH221850   1.706   3.885   4.883
 7298TIP3    H121851   1.749   3.801   4.915
 7298TIP3    H221852   1.760   3.904   4.805
 7299TIP3   OH221853   2.556   4.846   4.525
 7299TIP3    H121854   2.598   4.774   4.474
 7299TIP3    H221855   2.555   4.809   4.614
 7300TIP3   OH221856   3.473   3.631   4.861
 7300TIP3    H121857   3.510   3.710   4.904
 7300TIP3    H221858   3.522   3.629   4.776
 7301TIP3   OH221859   2.906   3.829   4.922
 7301TIP3    H121860   2.911   3.734   4.909
 7301TIP3    H221861   2.855   3.860   4.846
 7302TIP3   OH221862   2.209   3.492   4.858
 7302TIP3    H121863   2.182   3.577   4.818
 7302TIP3    H221864   2.155   3.427   4.807
 7303TIP3   OH221865   2.905   3.533   4.479
 7303TIP3    H121866   2.966   3.527   4.556
 7303TIP3    H221867   2.949   3.602   4.427
 7304TIP3   OH221868   1.839   3.670   4.985
 7304TIP3    H121869   1.928   3.662   5.024
 7304TIP3    H221870   1.851   3.608   4.909
 7305TIP3   OH221871   3.555   3.841   5.037
 7305TIP3    H121872   3.470   3.888   5.036
 7305TIP3    H221873   3.573   3.841   5.132
 7306TIP3   OH221874   2.208   3.459   5.301
 7306TIP3    H121875   2.153   3.503   5.233
 7306TIP3    H221876   2.153   3.472   5.381
 7307TIP3   OH221877   2.579   4.322   4.303
 7307TIP3    H121878   2.517   4.254   4.276
 7307TIP3    H221879   2.518   4.393   4.331
 7308TIP3   OH221880   2.318   4.208   5.162
 7308TIP3    H121881   2.257   4.282   5.153
 7308TIP3    H221882   2.363   4.205   5.076
 7309TIP3   OH221883   3.099   3.535   4.667
 7309TIP3    H121884   3.067   3.495   4.750
 7309TIP3    H221885   3.184   3.572   4.692
 7310TIP3   OH221886   2.087   3.584   5.085
 7310TIP3    H121887   2.124   3.673   5.070
 7310TIP3    H221888   2.129   3.537   5.010
 7311TIP3   OH221889   2.134   4.431   5.185
 7311TIP3    H121890   2.110   4.524   5.166
 7311TIP3    H221891   2.061   4.406   5.245
 7312TIP3   OH221892   1.544   4.120   4.418
 7312TIP3    H121893   1.451   4.095   4.420
 7312TIP3    H221894   1.554   4.177   4.495
 7313TIP3   OH221895   2.968   4.628   4.668
 7313TIP3    H121896   2.882   4.617   4.715
 7313TIP3    H221897   2.958   4.717   4.629
 7314TIP3   OH221898   3.267   3.536   5.043
 7314TIP3    H121899   3.177   3.550   5.010
 7314TIP3    H221900   3.322   3.563   4.967
 7315TIP3   OH221901   2.560   3.168   5.023
 7315TIP3    H121902   2.543   3.073   5.037
 7315TIP3    H221903   2.482   3.207   5.069
 7316TIP3   OH221904   2.674   4.671   4.342
 7316TIP3    H121905   2.728   4.591   4.325
 7316TIP3    H221906   2.735   4.739   4.304
 7317TIP3   OH221907   2.818   4.447   4.255
 7317TIP3    H121908   2.733   4.398   4.258
 7317TIP3    H221909   2.857   4.423   4.342
 7318TIP3   OH221910   3.201   4.546   5.021
 7318TIP3    H121911   3.186   4.465   4.968
 7318TIP3    H221912   3.183   4.617   4.957
 7319TIP3   OH221913   2.509   3.946   4.259
 7319TIP3    H121914   2.421   3.986   4.273
 7319TIP3    H221915   2.514   3.940   4.163
 7320TIP3   OH221916   2.446   3.724   3.985
 7320TIP3    H121917   2.508   3.757   4.051
 7320TIP3    H221918   2.500   3.654   3.943
 7321TIP3   OH221919   3.077   4.046   5.177
 7321TIP3    H121920   3.056   4.136   5.207
 7321TIP3    H221921   3.022   4.038   5.098
 7322TIP3   OH221922   2.735   4.618   4.808
 7322TIP3    H121923   2.726   4.709   4.841
 7322TIP3    H221924   2.724   4.567   4.889
 7323TIP3   OH221925   2.347   4.540   5.340
 7323TIP3    H121926   2.284   4.599   5.387
 7323TIP3    H221927   2.285   4.484   5.289
 7324TIP3   OH221928   2.705   3.868   4.061
 7324TIP3    H121929   2.730   3.951   4.104
 7324TIP3    H221930   2.719   3.891   3.967
 7325TIP3   OH221931   2.105   4.095   5.457
 7325TIP3    H121932   2.105   4.184   5.496
 7325TIP3    H221933   2.010   4.073   5.460
 7326TIP3   OH221934   2.426   4.553   4.361
 7326TIP3    H121935   2.508   4.606   4.359
 7326TIP3    H221936   2.365   4.606   4.309
 7327TIP3   OH221937   2.138   4.707   5.429
 7327TIP3    H121938   2.102   4.712   5.339
 7327TIP3    H221939   2.058   4.688   5.483
 7328TIP3   OH221940   3.193   3.116   4.120
 7328TIP3    H121941   3.113   3.134   4.173
 7328TIP3    H221942   3.206   3.201   4.075
 7329TIP3   OH221943   1.946   3.838   4.417
 7329TIP3    H121944   1.862   3.877   4.389
 7329TIP3    H221945   1.922   3.783   4.492
 7330TIP3   OH221946   2.997   4.479   3.671
 7330TIP3    H121947   3.006   4.575   3.655
 7330TIP3    H221948   3.091   4.450   3.662
 7331TIP3   OH221949   1.718   4.244   5.374
 7331TIP3    H121950   1.654   4.216   5.306
 7331TIP3    H221951   1.757   4.158   5.404
 7332TIP3   OH221952   1.577   4.438   5.008
 7332TIP3    H121953   1.667   4.409   4.987
 7332TIP3    H221954   1.594   4.507   5.074
 7333TIP3   OH221955   3.437   4.887   5.066
 7333TIP3    H121956   3.437   4.790   5.082
 7333TIP3    H221957   3.354   4.912   5.112
 7334TIP3   OH221958   2.522   4.679   5.182
 7334TIP3    H121959   2.534   4.766   5.225
 7334TIP3    H221960   2.465   4.633   5.249
 7335TIP3   OH221961   2.308   4.798   4.152
 7335TIP3    H121962   2.259   4.780   4.069
 7335TIP3    H221963   2.274   4.885   4.178
 7336TIP3   OH221964   1.747   4.652   4.539
 7336TIP3    H121965   1.791   4.639   4.625
 7336TIP3    H221966   1.700   4.566   4.530
 7337TIP3   OH221967   2.504   4.701   3.789
 7337TIP3    H121968   2.564   4.632   3.753
 7337TIP3    H221969   2.540   4.712   3.880
 7338TIP3   OH221970   2.558   4.750   4.058
 7338TIP3    H121971   2.470   4.759   4.100
 7338TIP3    H221972   2.609   4.711   4.131
 7339TIP3   OH221973   3.319   4.014   5.333
 7339TIP3    H121974   3.234   4.026   5.286
 7339TIP3    H221975   3.333   3.918   5.324
 7340TIP3   OH221976   1.922   4.427   5.361
 7340TIP3    H121977   1.974   4.408   5.442
 7340TIP3    H221978   1.849   4.362   5.369
 7341TIP3   OH221979   2.321   3.247   5.152
 7341TIP3    H121980   2.234   3.216   5.120
 7341TIP3    H221981   2.293   3.327   5.200
 7342TIP3   OH221982   2.859   3.362   5.345
 7342TIP3    H121983   2.928   3.332   5.407
 7342TIP3    H221984   2.776   3.341   5.392
 7343TIP3   OH221985   3.098   3.786   5.266
 7343TIP3    H121986   3.046   3.786   5.349
 7343TIP3    H221987   3.076   3.873   5.227
 7344TIP3   OH221988   2.747   3.921   3.800
 7344TIP3    H121989   2.734   3.888   3.711
 7344TIP3    H221990   2.833   3.965   3.792
 7345TIP3   OH221991   2.470   3.295   4.122
 7345TIP3    H121992   2.438   3.292   4.214
 7345TIP3    H221993   2.430   3.212   4.088
 7346TIP3   OH221994   2.617   3.723   4.396
 7346TIP3    H121995   2.578   3.809   4.373
 7346TIP3    H221996   2.674   3.703   4.320
 7347TIP3   OH221997   2.808   4.021   5.504
 7347TIP3    H121998   2.783   3.944   5.560
 7347TIP3    H221999   2.903   4.026   5.524
 7348TIP3   OH222000   2.050   3.797   5.383
 7348TIP3    H122001   2.108   3.851   5.438
 7348TIP3    H222002   2.057   3.710   5.425
 7349TIP3   OH222003   2.122   3.271   4.083
 7349TIP3    H122004   2.119   3.266   4.181
 7349TIP3    H222005   2.045   3.327   4.065
 7350TIP3   OH222006   1.673   3.306   4.963
 7350TIP3    H122007   1.743   3.349   5.016
 7350TIP3    H222008   1.715   3.299   4.876
 7351TIP3   OH222009   1.631   3.292   4.472
 7351TIP3    H122010   1.683   3.327   4.398
 7351TIP3    H222011   1.574   3.368   4.491
 7352TIP3   OH222012   2.468   3.454   4.742
 7352TIP3    H122013   2.383   3.468   4.788
 7352TIP3    H222014   2.532   3.481   4.809
 7353TIP3   OH222015   1.888   3.501   4.782
 7353TIP3    H122016   1.808   3.523   4.730
 7353TIP3    H222017   1.936   3.438   4.726
 7354TIP3   OH222018   2.168   3.495   4.431
 7354TIP3    H122019   2.254   3.540   4.438
 7354TIP3    H222020   2.118   3.550   4.367
 7355TIP3   OH222021   2.963   3.536   4.943
 7355TIP3    H122022   2.931   3.561   5.032
 7355TIP3    H222023   2.889   3.480   4.914
 7356TIP3   OH222024   2.001   3.562   4.212
 7356TIP3    H122025   1.932   3.517   4.160
 7356TIP3    H222026   2.059   3.595   4.141
 7357TIP3   OH222027   3.131   5.236   5.166
 7357TIP3    H122028   3.130   5.259   5.071
 7357TIP3    H222029   3.212   5.282   5.196
 7358TIP3   OH222030   2.084   4.351   5.583
 7358TIP3    H122031   2.165   4.376   5.631
 7358TIP3    H222032   2.021   4.344   5.658
 7359TIP3   OH222033   2.073   3.293   4.718
 7359TIP3    H122034   2.039   3.215   4.767
 7359TIP3    H222035   2.119   3.253   4.643
 7360TIP3   OH222036   2.262   4.088   4.228
 7360TIP3    H122037   2.194   4.018   4.214
 7360TIP3    H222038   2.239   4.118   4.319
 7361TIP3   OH222039   3.164   4.334   4.854
 7361TIP3    H122040   3.209   4.362   4.773
 7361TIP3    H222041   3.104   4.265   4.823
 7362TIP3   OH222042   2.702   3.415   4.048
 7362TIP3    H122043   2.618   3.381   4.086
 7362TIP3    H222044   2.724   3.491   4.106
 7363TIP3   OH222045   2.704   4.444   5.238
 7363TIP3    H122046   2.688   4.378   5.306
 7363TIP3    H222047   2.617   4.479   5.220
 7364TIP3   OH222048   2.792   3.637   4.184
 7364TIP3    H122049   2.887   3.641   4.210
 7364TIP3    H222050   2.779   3.722   4.138
 7365TIP3   OH222051   1.992   4.100   4.892
 7365TIP3    H122052   2.072   4.066   4.847
 7365TIP3    H222053   1.982   4.032   4.960
 7366TIP3   OH222054   2.399   4.229   4.037
 7366TIP3    H122055   2.359   4.318   4.050
 7366TIP3    H222056   2.350   4.178   4.105
 7367TIP3   OH222057   1.831   4.037   5.517
 7367TIP3    H122058   1.855   4.018   5.610
 7367TIP3    H222059   1.772   3.963   5.497
 7368TIP3   OH222060   2.557   4.142   5.534
 7368TIP3    H122061   2.493   4.078   5.497
 7368TIP3    H222062   2.643   4.103   5.506
 7369TIP3   OH222063   2.812   4.695   5.100
 7369TIP3    H122064   2.728   4.656   5.130
 7369TIP3    H222065   2.847   4.725   5.186
 7370TIP3   OH222066   3.225   3.741   4.035
 7370TIP3    H122067   3.160   3.697   3.975
 7370TIP3    H222068   3.229   3.828   3.989
 7371TIP3   OH222069   3.453   4.602   5.105
 7371TIP3    H122070   3.355   4.593   5.100
 7371TIP3    H222071   3.477   4.567   5.017
 7372TIP3   OH222072   2.926   4.558   3.934
 7372TIP3    H122073   2.905   4.489   3.998
 7372TIP3    H222074   2.946   4.509   3.853
 7373TIP3   OH222075   2.056   4.430   4.535
 7373TIP3    H122076   2.043   4.501   4.470
 7373TIP3    H222077   1.971   4.386   4.537
 7374TIP3   OH222078   1.610   3.715   4.231
 7374TIP3    H122079   1.661   3.797   4.251
 7374TIP3    H222080   1.537   3.723   4.297
 7375TIP3   OH222081   2.203   4.179   4.476
 7375TIP3    H122082   2.159   4.255   4.518
 7375TIP3    H222083   2.224   4.121   4.550
 7376TIP3   OH222084   2.327   4.745   4.986
 7376TIP3    H122085   2.371   4.822   4.943
 7376TIP3    H222086   2.400   4.714   5.044
 7377TIP3   OH222087   1.971   4.656   4.373
 7377TIP3    H122088   1.888   4.664   4.423
 7377TIP3    H222089   2.003   4.749   4.376
 7378TIP3   OH222090   2.686   4.285   3.835
 7378TIP3    H122091   2.741   4.252   3.909
 7378TIP3    H222092   2.598   4.260   3.865
 7379TIP3   OH222093   2.962   4.921   5.005
 7379TIP3    H122094   2.887   4.858   5.009
 7379TIP3    H222095   2.936   4.980   4.930
 7380TIP3   OH222096   3.027   4.756   3.655
 7380TIP3    H122097   3.067   4.831   3.608
 7380TIP3    H222098   2.946   4.800   3.688
 7381TIP3   OH222099   2.046   3.532   5.519
 7381TIP3    H122100   1.950   3.535   5.530
 7381TIP3    H222101   2.073   3.475   5.592
 7382TIP3   OH222102   2.853   4.194   4.038
 7382TIP3    H122103   2.838   4.207   4.132
 7382TIP3    H222104   2.950   4.197   4.032
 7383TIP3   OH222105   1.758   4.614   5.157
 7383TIP3    H122106   1.813   4.540   5.189
 7383TIP3    H222107   1.791   4.686   5.212
 7384TIP3   OH222108   2.053   4.262   3.836
 7384TIP3    H122109   2.065   4.168   3.811
 7384TIP3    H222110   2.032   4.254   3.931
 7385TIP3   OH222111   1.998   4.269   4.106
 7385TIP3    H122112   2.067   4.234   4.165
 7385TIP3    H222113   2.006   4.366   4.120
 7386TIP3   OH222114   1.727   3.959   4.299
 7386TIP3    H122115   1.664   4.012   4.353
 7386TIP3    H222116   1.748   4.026   4.231
 7387TIP3   OH222117   2.883   3.599   5.202
 7387TIP3    H122118   2.963   3.639   5.239
 7387TIP3    H222119   2.872   3.519   5.257
 7388TIP3   OH222120   2.766   3.334   4.368
 7388TIP3    H122121   2.746   3.376   4.283
 7388TIP3    H222122   2.811   3.409   4.414
 7389TIP3   OH222123   2.270   4.469   4.059
 7389TIP3    H122124   2.182   4.489   4.095
 7389TIP3    H222125   2.280   4.542   3.997
 7390TIP3   OH222126   2.449   3.526   4.475
 7390TIP3    H122127   2.511   3.600   4.456
 7390TIP3    H222128   2.456   3.520   4.573
 7391TIP3   OH222129   2.697   3.814   5.339
 7391TIP3    H122130   2.752   3.889   5.368
 7391TIP3    H222131   2.757   3.761   5.286
 7392TIP3   OH222132   2.591   3.251   4.574
 7392TIP3    H122133   2.570   3.331   4.626
 7392TIP3    H222134   2.655   3.287   4.508
 7393TIP3   OH222135   2.014   4.542   4.126
 7393TIP3    H122136   1.981   4.612   4.064
 7393TIP3    H222137   1.995   4.584   4.213
 7394TIP3   OH222138   2.112   3.243   4.357
 7394TIP3    H122139   2.114   3.336   4.388
 7394TIP3    H222140   2.206   3.222   4.369
 7395TIP3   OH222141   3.360   3.742   5.241
 7395TIP3    H122142   3.264   3.750   5.259
 7395TIP3    H222143   3.357   3.667   5.179
 7396TIP3   OH222144   1.731   4.171   4.110
 7396TIP3    H122145   1.807   4.231   4.123
 7396TIP3    H222146   1.770   4.111   4.044
 7397TIP3   OH222147   1.667   3.446   4.245
 7397TIP3    H122148   1.673   3.543   4.248
 7397TIP3    H222149   1.577   3.433   4.216
 7398TIP3   OH222150   2.981   4.899   4.594
 7398TIP3    H122151   2.939   4.947   4.519
 7398TIP3    H222152   3.076   4.918   4.575
 7399TIP3   OH222153   2.056   3.168   5.122
 7399TIP3    H122154   2.027   3.135   5.034
 7399TIP3    H222155   2.045   3.089   5.178
 7400TIP3   OH222156   1.606   4.413   4.517
 7400TIP3    H122157   1.519   4.426   4.558
 7400TIP3    H222158   1.582   4.421   4.423
 7401TIP3   OH222159   1.756   4.932   5.576
 7401TIP3    H122160   1.843   4.933   5.623
 7401TIP3    H222161   1.739   4.837   5.574
 7402TIP3   OH222162   2.231   4.889   5.618
 7402TIP3    H122163   2.326   4.869   5.628
 7402TIP3    H222164   2.207   4.827   5.547
 7403TIP3   OH222165   2.214   4.465   3.746
 7403TIP3    H122166   2.157   4.394   3.784
 7403TIP3    H222167   2.291   4.412   3.719
 7404TIP3   OH222168   2.873   4.796   5.351
 7404TIP3    H122169   2.863   4.726   5.420
 7404TIP3    H222170   2.951   4.846   5.384
 7405TIP3   OH222171   2.651   4.506   3.660
 7405TIP3    H122172   2.693   4.443   3.722
 7405TIP3    H222173   2.709   4.502   3.582
 7406TIP3   OH222174   1.883   4.334   5.776
 7406TIP3    H122175   1.901   4.239   5.784
 7406TIP3    H222176   1.797   4.335   5.730
 7407TIP3   OH222177   1.865   3.980   3.971
 7407TIP3    H122178   1.916   3.947   4.047
 7407TIP3    H222179   1.936   3.986   3.904
 7408TIP3   OH222180   2.488   4.419   5.550
 7408TIP3    H122181   2.449   4.437   5.463
 7408TIP3    H222182   2.519   4.326   5.542
 7409TIP3   OH222183   2.376   4.181   3.772
 7409TIP3    H122184   2.376   4.194   3.870
 7409TIP3    H222185   2.369   4.084   3.768
 7410TIP3   OH222186   2.987   4.411   5.160
 7410TIP3    H122187   3.041   4.480   5.116
 7410TIP3    H222188   2.897   4.448   5.157
 7411TIP3   OH222189   2.003   4.074   5.758
 7411TIP3    H122190   2.079   4.022   5.728
 7411TIP3    H222191   2.034   4.103   5.847
 7412TIP3   OH222192   2.070   3.896   4.185
 7412TIP3    H122193   2.032   3.871   4.273
 7412TIP3    H222194   2.099   3.809   4.152
 7413TIP3   OH222195   2.349   3.975   5.410
 7413TIP3    H122196   2.266   4.024   5.428
 7413TIP3    H222197   2.359   3.991   5.315
 7414TIP3   OH222198   2.168   3.679   4.029
 7414TIP3    H122199   2.144   3.690   3.935
 7414TIP3    H222200   2.266   3.685   4.025
 7415TIP3   OH222201   2.861   4.359   5.557
 7415TIP3    H122202   2.927   4.321   5.498
 7415TIP3    H222203   2.850   4.288   5.623
 7416TIP3   OH222204   2.988   4.011   3.698
 7416TIP3    H122205   2.973   3.970   3.611
 7416TIP3    H222206   2.955   4.102   3.679
 7417TIP3   OH222207   2.458   3.748   5.547
 7417TIP3    H122208   2.469   3.668   5.491
 7417TIP3    H222209   2.435   3.816   5.481
 7418TIP3   OH222210   2.465   3.530   5.360
 7418TIP3    H122211   2.495   3.575   5.280
 7418TIP3    H222212   2.372   3.507   5.338
 7419TIP3   OH222213   3.072   4.030   5.609
 7419TIP3    H122214   3.115   3.943   5.613
 7419TIP3    H222215   3.140   4.084   5.566
 7420TIP3   OH222216   3.117   4.290   5.358
 7420TIP3    H122217   3.060   4.337   5.293
 7420TIP3    H222218   3.204   4.303   5.314
 7421TIP3   OH222219   2.340   3.849   5.779
 7421TIP3    H122220   2.272   3.780   5.795
 7421TIP3    H222221   2.374   3.823   5.691
 7422TIP3   OH222222   2.596   3.290   5.424
 7422TIP3    H122223   2.546   3.372   5.402
 7422TIP3    H222224   2.529   3.221   5.411
 7423TIP3   OH222225   2.726   3.799   5.644
 7423TIP3    H122226   2.697   3.778   5.735
 7423TIP3    H222227   2.645   3.776   5.595
 7424TIP3   OH222228   2.967   3.755   5.498
 7424TIP3    H122229   2.886   3.752   5.554
 7424TIP3    H222230   3.035   3.717   5.556
 7425TIP3   OH222231   3.201   3.687   5.644
 7425TIP3    H122232   3.209   3.591   5.659
 7425TIP3    H222233   3.192   3.722   5.735
 7426TIP3   OH222234   2.178   3.630   5.834
 7426TIP3    H122235   2.183   3.539   5.798
 7426TIP3    H222236   2.217   3.616   5.922
 7427TIP3   OH222237   2.689   3.300   5.682
 7427TIP3    H122238   2.755   3.228   5.675
 7427TIP3    H222239   2.650   3.296   5.592
 7428TIP3   OH222240   2.758   3.515   5.839
 7428TIP3    H122241   2.737   3.443   5.775
 7428TIP3    H222242   2.680   3.573   5.831
 7429TIP3   OH222243   1.980   4.749   3.940
 7429TIP3    H122244   2.075   4.737   3.920
 7429TIP3    H222245   1.953   4.798   3.860
 7430TIP3   OH222246   1.449   4.141   4.105
 7430TIP3    H122247   1.540   4.158   4.137
 7430TIP3    H222248   1.451   4.044   4.091
 7431TIP3   OH222249   1.347   4.744   4.587
 7431TIP3    H122250   1.299   4.675   4.536
 7431TIP3    H222251   1.405   4.687   4.644
 7432TIP3   OH222252   1.496   4.596   4.763
 7432TIP3    H122253   1.500   4.514   4.814
 7432TIP3    H222254   1.558   4.651   4.815
 7433TIP3   OH222255   3.237   4.985   4.557
 7433TIP3    H122256   3.264   5.021   4.644
 7433TIP3    H222257   3.301   5.027   4.498
 7434TIP3   OH222258   3.264   5.009   4.839
 7434TIP3    H122259   3.219   4.922   4.834
 7434TIP3    H222260   3.340   4.985   4.895
 7435TIP3   OH222261   3.312   4.687   5.411
 7435TIP3    H122262   3.239   4.696   5.476
 7435TIP3    H222263   3.354   4.775   5.416
 7436TIP3   OH222264   3.131   4.193   4.047
 7436TIP3    H122265   3.184   4.262   4.002
 7436TIP3    H222266   3.178   4.186   4.131
 7437TIP3   OH222267   3.321   4.452   4.654
 7437TIP3    H122268   3.322   4.409   4.568
 7437TIP3    H222269   3.303   4.543   4.628
 7438TIP3   OH222270   3.137   4.760   4.854
 7438TIP3    H122271   3.068   4.801   4.910
 7438TIP3    H222272   3.084   4.714   4.786
 7439TIP3   OH222273   3.191   3.976   3.879
 7439TIP3    H122274   3.119   3.980   3.813
 7439TIP3    H222275   3.164   4.049   3.938
 7440TIP3   OH222276   3.053   3.650   3.841
 7440TIP3    H122277   3.043   3.683   3.751
 7440TIP3    H222278   3.036   3.554   3.829
 7441TIP3   OH222279   1.697   4.004   5.130
 7441TIP3    H122280   1.694   3.964   5.040
 7441TIP3    H222281   1.794   4.002   5.146
 7442TIP3   OH222282   3.362   4.349   5.240
 7442TIP3    H122283   3.431   4.280   5.226
 7442TIP3    H222284   3.382   4.413   5.170
 7443TIP3   OH222285   3.538   4.143   5.242
 7443TIP3    H122286   3.463   4.096   5.284
 7443TIP3    H222287   3.611   4.081   5.264
 7444TIP3   OH222288   3.013   3.379   3.800
 7444TIP3    H122289   3.086   3.354   3.861
 7444TIP3    H222290   2.938   3.327   3.834
 7445TIP3   OH222291   3.062   3.643   4.261
 7445TIP3    H122292   3.098   3.554   4.284
 7445TIP3    H222293   3.129   3.671   4.196
 7446TIP3   OH222294   1.912   3.682   5.802
 7446TIP3    H122295   2.010   3.676   5.804
 7446TIP3    H222296   1.889   3.595   5.839
 7447TIP3   OH222297   3.747   3.552   5.554
 7447TIP3    H122298   3.809   3.486   5.514
 7447TIP3    H222299   3.718   3.602   5.475
 7448TIP3   OH222300   3.174   3.393   4.309
 7448TIP3    H122301   3.220   3.378   4.394
 7448TIP3    H222302   3.111   3.318   4.309
 7449TIP3   OH222303   1.876   3.383   5.143
 7449TIP3    H122304   1.936   3.306   5.142
 7449TIP3    H222305   1.938   3.455   5.123
 7450TIP3   OH222306   1.672   3.649   5.204
 7450TIP3    H122307   1.721   3.640   5.120
 7450TIP3    H222308   1.714   3.726   5.242
 7451TIP3   OH222309   3.615   3.685   5.355
 7451TIP3    H122310   3.531   3.728   5.380
 7451TIP3    H222311   3.581   3.611   5.301
 7452TIP3   OH222312   3.249   3.327   3.936
 7452TIP3    H122313   3.296   3.251   3.897
 7452TIP3    H222314   3.321   3.394   3.943
 7453TIP3   OH222315   1.658   3.143   4.696
 7453TIP3    H122316   1.568   3.146   4.732
 7453TIP3    H222317   1.655   3.208   4.623
 7454TIP3   OH222318   2.819   4.857   4.211
 7454TIP3    H122319   2.869   4.847   4.128
 7454TIP3    H222320   2.872   4.923   4.259
 7455TIP3   OH222321   1.881   3.232   5.519
 7455TIP3    H122322   1.828   3.229   5.601
 7455TIP3    H222323   1.817   3.269   5.456
 7456TIP3   OH222324   1.917   4.669   5.594
 7456TIP3    H122325   1.828   4.635   5.578
 7456TIP3    H222326   1.935   4.639   5.684
 7457TIP3   OH222327   2.098   4.701   5.143
 7457TIP3    H122328   2.055   4.779   5.102
 7457TIP3    H222329   2.186   4.709   5.100
 7458TIP3   OH222330   2.540   4.941   5.283
 7458TIP3    H122331   2.584   4.936   5.370
 7458TIP3    H222332   2.608   4.989   5.231
 7459TIP3   OH222333   2.722   5.090   5.140
 7459TIP3    H122334   2.793   5.036   5.102
 7459TIP3    H222335   2.773   5.147   5.201
 7460TIP3   OH222336   3.514   3.445   5.241
 7460TIP3    H122337   3.425   3.427   5.208
 7460TIP3    H222338   3.554   3.355   5.233
 7461TIP3   OH222339   1.774   4.950   5.166
 7461TIP3    H122340   1.684   4.985   5.147
 7461TIP3    H222341   1.790   4.991   5.252
 7462TIP3   OH222342   2.011   4.932   5.026
 7462TIP3    H122343   1.923   4.943   5.068
 7462TIP3    H222344   1.993   4.961   4.934
 7463TIP3   OH222345   2.434   4.956   4.825
 7463TIP3    H122346   2.365   4.976   4.759
 7463TIP3    H222347   2.448   5.043   4.868
 7464TIP3   OH222348   2.705   4.888   4.859
 7464TIP3    H122349   2.611   4.913   4.850
 7464TIP3    H222350   2.751   4.968   4.829
 7465TIP3   OH222351   2.906   5.083   4.788
 7465TIP3    H122352   2.896   5.169   4.740
 7465TIP3    H222353   2.936   5.024   4.716
 7466TIP3   OH222354   1.681   4.740   4.918
 7466TIP3    H122355   1.712   4.715   5.007
 7466TIP3    H222356   1.752   4.697   4.864
 7467TIP3   OH222357   1.877   4.614   4.778
 7467TIP3    H122358   1.896   4.526   4.818
 7467TIP3    H222359   1.967   4.651   4.770
 7468TIP3   OH222360   2.143   4.721   4.772
 7468TIP3    H122361   2.186   4.647   4.727
 7468TIP3    H222362   2.197   4.728   4.853
 7469TIP3   OH222363   2.736   3.367   4.877
 7469TIP3    H122364   2.681   3.296   4.915
 7469TIP3    H222365   2.797   3.318   4.820
 7470TIP3   OH222366   3.244   3.253   4.768
 7470TIP3    H122367   3.278   3.299   4.688
 7470TIP3    H222368   3.147   3.262   4.756
 7471TIP3   OH222369   3.338   3.346   4.528
 7471TIP3    H122370   3.409   3.289   4.489
 7471TIP3    H222371   3.377   3.435   4.511
 7472TIP3   OH222372   1.970   3.072   4.876
 7472TIP3    H122373   1.877   3.043   4.878
 7472TIP3    H222374   2.017   2.986   4.871
 7473TIP3   OH222375   1.755   2.944   4.523
 7473TIP3    H122376   1.788   3.002   4.452
 7473TIP3    H222377   1.729   3.009   4.592
 7474TIP3   OH222378   2.418   3.102   4.757
 7474TIP3    H122379   2.470   3.152   4.693
 7474TIP3    H222380   2.438   3.150   4.839
 7475TIP3   OH222381   2.964   3.252   4.737
 7475TIP3    H122382   2.959   3.212   4.650
 7475TIP3    H222383   2.949   3.174   4.796
 7476TIP3   OH222384   2.990   3.179   4.302
 7476TIP3    H122385   2.905   3.223   4.322
 7476TIP3    H222386   2.976   3.093   4.346
 7477TIP3   OH222387   1.473   4.520   4.299
 7477TIP3    H122388   1.391   4.477   4.268
 7477TIP3    H222389   1.458   4.611   4.268
 7478TIP3   OH222390   1.877   3.103   4.284
 7478TIP3    H122391   1.926   3.040   4.228
 7478TIP3    H222392   1.950   3.156   4.321
 7479TIP3   OH222393   2.390   3.275   4.383
 7479TIP3    H122394   2.452   3.237   4.447
 7479TIP3    H222395   2.397   3.369   4.409
 7480TIP3   OH222396   2.246   4.700   3.885
 7480TIP3    H122397   2.334   4.722   3.849
 7480TIP3    H222398   2.223   4.626   3.824
 7481TIP3   OH222399   2.963   4.823   3.979
 7481TIP3    H122400   2.955   4.726   3.967
 7481TIP3    H222401   2.920   4.855   3.897
 7482TIP3   OH222402   2.177   3.354   5.767
 7482TIP3    H122403   2.142   3.282   5.823
 7482TIP3    H222404   2.271   3.353   5.795
 7483TIP3   OH222405   2.428   3.353   5.885
 7483TIP3    H122406   2.513   3.328   5.845
 7483TIP3    H222407   2.417   3.282   5.952
 7484TIP3   OH222408   1.552   4.543   3.941
 7484TIP3    H122409   1.553   4.548   4.037
 7484TIP3    H222410   1.637   4.496   3.922
 7485TIP3   OH222411   3.255   3.415   5.672
 7485TIP3    H122412   3.272   3.383   5.764
 7485TIP3    H222413   3.344   3.409   5.633
 7486TIP3   OH222414   3.189   4.966   5.166
 7486TIP3    H122415   3.111   4.936   5.115
 7486TIP3    H222416   3.170   5.062   5.172
 7487TIP3   OH222417   3.768   4.266   4.716
 7487TIP3    H122418   3.792   4.180   4.754
 7487TIP3    H222419   3.849   4.293   4.672
 7488TIP3   OH222420   3.731   4.644   4.399
 7488TIP3    H122421   3.738   4.557   4.436
 7488TIP3    H222422   3.824   4.663   4.377
 7489TIP3   OH222423   3.448   3.858   4.190
 7489TIP3    H122424   3.426   3.919   4.262
 7489TIP3    H222425   3.363   3.820   4.165
 7490TIP3   OH222426   4.351   5.107   4.011
 7490TIP3    H122427   4.390   5.031   3.964
 7490TIP3    H222428   4.336   5.070   4.099
 7491TIP3   OH222429   5.266   3.886   4.348
 7491TIP3    H122430   5.298   3.966   4.395
 7491TIP3    H222431   5.316   3.889   4.264
 7492TIP3   OH222432   4.664   4.073   4.392
 7492TIP3    H122433   4.702   3.984   4.407
 7492TIP3    H222434   4.646   4.071   4.297
 7493TIP3   OH222435   4.710   3.779   3.968
 7493TIP3    H122436   4.775   3.788   4.041
 7493TIP3    H222437   4.715   3.867   3.928
 7494TIP3   OH222438   5.340   4.086   4.535
 7494TIP3    H122439   5.252   4.129   4.530
 7494TIP3    H222440   5.364   4.107   4.626
 7495TIP3   OH222441   4.006   3.706   4.795
 7495TIP3    H122442   3.949   3.736   4.721
 7495TIP3    H222443   3.949   3.725   4.872
 7496TIP3   OH222444   4.114   4.491   4.603
 7496TIP3    H122445   4.041   4.543   4.642
 7496TIP3    H222446   4.147   4.553   4.537
 7497TIP3   OH222447   4.903   3.818   4.158
 7497TIP3    H122448   4.882   3.765   4.235
 7497TIP3    H222449   4.994   3.846   4.173
 7498TIP3   OH222450   3.873   3.807   4.574
 7498TIP3    H122451   3.928   3.887   4.585
 7498TIP3    H222452   3.854   3.808   4.479
 7499TIP3   OH222453   3.933   4.681   4.684
 7499TIP3    H122454   3.911   4.770   4.649
 7499TIP3    H222455   3.854   4.667   4.740
 7500TIP3   OH222456   3.299   4.376   3.932
 7500TIP3    H122457   3.293   4.388   3.836
 7500TIP3    H222458   3.352   4.454   3.958
 7501TIP3   OH222459   4.777   4.899   4.173
 7501TIP3    H122460   4.687   4.874   4.202
 7501TIP3    H222461   4.760   4.983   4.127
 7502TIP3   OH222462   5.062   3.786   4.527
 7502TIP3    H122463   4.972   3.806   4.494
 7502TIP3    H222464   5.118   3.819   4.454
 7503TIP3   OH222465   4.354   3.420   4.508
 7503TIP3    H122466   4.337   3.326   4.529
 7503TIP3    H222467   4.279   3.463   4.553
 7504TIP3   OH222468   4.471   4.926   3.834
 7504TIP3    H122469   4.529   4.852   3.852
 7504TIP3    H222470   4.533   4.991   3.794
 7505TIP3   OH222471   4.996   4.792   4.503
 7505TIP3    H122472   4.989   4.722   4.434
 7505TIP3    H222473   4.979   4.872   4.449
 7506TIP3   OH222474   4.285   4.188   3.745
 7506TIP3    H122475   4.211   4.244   3.718
 7506TIP3    H222476   4.338   4.178   3.664
 7507TIP3   OH222477   4.242   3.976   3.470
 7507TIP3    H122478   4.303   4.017   3.533
 7507TIP3    H222479   4.303   3.915   3.424
 7508TIP3   OH222480   4.860   4.312   4.659
 7508TIP3    H122481   4.854   4.396   4.708
 7508TIP3    H222482   4.770   4.309   4.618
 7509TIP3   OH222483   3.982   4.680   4.290
 7509TIP3    H122484   3.948   4.656   4.201
 7509TIP3    H222485   4.073   4.648   4.287
 7510TIP3   OH222486   4.526   4.872   4.276
 7510TIP3    H122487   4.518   4.953   4.329
 7510TIP3    H222488   4.516   4.801   4.342
 7511TIP3   OH222489   4.143   4.798   4.828
 7511TIP3    H122490   4.081   4.859   4.875
 7511TIP3    H222491   4.078   4.744   4.778
 7512TIP3   OH222492   4.478   4.131   3.554
 7512TIP3    H122493   4.540   4.190   3.598
 7512TIP3    H222494   4.500   4.148   3.459
 7513TIP3   OH222495   3.912   4.355   4.950
 7513TIP3    H122496   3.902   4.443   4.991
 7513TIP3    H222497   3.822   4.340   4.916
 7514TIP3   OH222498   4.196   4.841   3.852
 7514TIP3    H122499   4.287   4.873   3.849
 7514TIP3    H222500   4.150   4.895   3.788
 7515TIP3   OH222501   3.936   4.963   4.917
 7515TIP3    H122502   3.901   4.969   4.826
 7515TIP3    H222503   3.856   4.943   4.969
 7516TIP3   OH222504   4.992   3.371   3.610
 7516TIP3    H122505   4.910   3.391   3.659
 7516TIP3    H222506   5.006   3.453   3.560
 7517TIP3   OH222507   4.794   4.740   3.163
 7517TIP3    H122508   4.803   4.835   3.140
 7517TIP3    H222509   4.885   4.708   3.148
 7518TIP3   OH222510   3.514   4.496   4.863
 7518TIP3    H122511   3.447   4.471   4.796
 7518TIP3    H222512   3.551   4.410   4.890
 7519TIP3   OH222513   3.372   4.695   4.493
 7519TIP3    H122514   3.469   4.701   4.489
 7519TIP3    H222515   3.352   4.774   4.547
 7520TIP3   OH222516   5.233   5.145   4.554
 7520TIP3    H122517   5.233   5.049   4.572
 7520TIP3    H222518   5.150   5.171   4.599
 7521TIP3   OH222519   4.338   4.928   4.686
 7521TIP3    H122520   4.335   5.020   4.719
 7521TIP3    H222521   4.267   4.887   4.740
 7522TIP3   OH222522   4.104   5.057   3.639
 7522TIP3    H122523   4.054   5.041   3.557
 7522TIP3    H222524   4.070   5.143   3.669
 7523TIP3   OH222525   3.538   4.904   4.024
 7523TIP3    H122526   3.588   4.896   4.109
 7523TIP3    H222527   3.490   4.819   4.024
 7524TIP3   OH222528   4.301   4.959   3.277
 7524TIP3    H122529   4.360   4.889   3.240
 7524TIP3    H222530   4.336   4.968   3.367
 7525TIP3   OH222531   4.354   5.007   3.547
 7525TIP3    H122532   4.263   5.019   3.583
 7525TIP3    H222533   4.398   4.968   3.624
 7526TIP3   OH222534   5.121   4.269   4.839
 7526TIP3    H122535   5.044   4.282   4.781
 7526TIP3    H222536   5.139   4.174   4.825
 7527TIP3   OH222537   3.717   4.681   4.848
 7527TIP3    H122538   3.766   4.666   4.931
 7527TIP3    H222539   3.644   4.616   4.856
 7528TIP3   OH222540   4.117   3.503   4.637
 7528TIP3    H122541   4.029   3.474   4.608
 7528TIP3    H222542   4.091   3.581   4.690
 7529TIP3   OH222543   4.655   3.619   4.831
 7529TIP3    H122544   4.723   3.588   4.894
 7529TIP3    H222545   4.571   3.597   4.877
 7530TIP3   OH222546   4.892   4.050   4.754
 7530TIP3    H122547   4.840   4.043   4.837
 7530TIP3    H222548   4.860   4.134   4.717
 7531TIP3   OH222549   4.556   4.184   3.305
 7531TIP3    H122550   4.515   4.155   3.221
 7531TIP3    H222551   4.642   4.218   3.273
 7532TIP3   OH222552   4.259   3.553   3.608
 7532TIP3    H122553   4.223   3.550   3.699
 7532TIP3    H222554   4.225   3.468   3.574
 7533TIP3   OH222555   4.038   4.034   4.632
 7533TIP3    H122556   3.996   4.046   4.720
 7533TIP3    H222557   4.011   4.112   4.583
 7534TIP3   OH222558   4.438   3.978   3.890
 7534TIP3    H122559   4.377   4.052   3.873
 7534TIP3    H222560   4.467   3.950   3.802
 7535TIP3   OH222561   4.601   4.268   4.984
 7535TIP3    H122562   4.578   4.193   5.044
 7535TIP3    H222563   4.695   4.278   5.004
 7536TIP3   OH222564   3.877   4.046   4.862
 7536TIP3    H122565   3.915   4.103   4.931
 7536TIP3    H222566   3.866   3.962   4.909
 7537TIP3   OH222567   3.917   3.526   3.566
 7537TIP3    H122568   3.913   3.519   3.664
 7537TIP3    H222569   3.838   3.578   3.547
 7538TIP3   OH222570   3.462   3.572   4.448
 7538TIP3    H122571   3.538   3.607   4.498
 7538TIP3    H222572   3.504   3.542   4.366
 7539TIP3   OH222573   3.428   3.548   3.964
 7539TIP3    H122574   3.476   3.582   3.885
 7539TIP3    H222575   3.375   3.627   3.987
 7540TIP3   OH222576   4.605   4.273   4.566
 7540TIP3    H122577   4.623   4.209   4.492
 7540TIP3    H222578   4.567   4.212   4.632
 7541TIP3   OH222579   3.697   3.734   4.252
 7541TIP3    H122580   3.630   3.803   4.243
 7541TIP3    H222581   3.660   3.664   4.198
 7542TIP3   OH222582   4.754   3.804   4.435
 7542TIP3    H122583   4.717   3.818   4.525
 7542TIP3    H222584   4.686   3.749   4.394
 7543TIP3   OH222585   3.781   3.832   3.696
 7543TIP3    H122586   3.729   3.774   3.638
 7543TIP3    H222587   3.856   3.853   3.638
 7544TIP3   OH222588   4.928   5.492   4.652
 7544TIP3    H122589   4.925   5.517   4.559
 7544TIP3    H222590   5.007   5.539   4.683
 7545TIP3   OH222591   3.880   4.607   5.072
 7545TIP3    H122592   3.961   4.634   5.120
 7545TIP3    H222593   3.816   4.604   5.146
 7546TIP3   OH222594   4.311   3.944   4.645
 7546TIP3    H122595   4.227   3.993   4.633
 7546TIP3    H222596   4.376   4.013   4.665
 7547TIP3   OH222597   4.046   4.347   3.707
 7547TIP3    H122598   3.982   4.274   3.696
 7547TIP3    H222599   4.052   4.354   3.803
 7548TIP3   OH222600   4.971   4.591   4.314
 7548TIP3    H122601   4.982   4.577   4.218
 7548TIP3    H222602   4.892   4.539   4.330
 7549TIP3   OH222603   4.512   3.649   3.569
 7549TIP3    H122604   4.416   3.632   3.585
 7549TIP3    H222605   4.524   3.742   3.600
 7550TIP3   OH222606   4.451   4.664   4.704
 7550TIP3    H122607   4.485   4.640   4.791
 7550TIP3    H222608   4.418   4.754   4.717
 7551TIP3   OH222609   4.586   3.894   3.664
 7551TIP3    H122610   4.681   3.897   3.691
 7551TIP3    H222611   4.575   3.977   3.615
 7552TIP3   OH222612   4.202   4.491   3.521
 7552TIP3    H122613   4.161   4.579   3.532
 7552TIP3    H222614   4.154   4.441   3.590
 7553TIP3   OH222615   3.621   4.288   5.012
 7553TIP3    H122616   3.671   4.300   5.096
 7553TIP3    H222617   3.580   4.203   5.031
 7554TIP3   OH222618   4.360   4.402   5.019
 7554TIP3    H122619   4.299   4.341   4.975
 7554TIP3    H222620   4.447   4.365   4.992
 7555TIP3   OH222621   4.616   4.921   4.606
 7555TIP3    H122622   4.520   4.921   4.619
 7555TIP3    H222623   4.645   4.974   4.684
 7556TIP3   OH222624   5.028   4.002   3.511
 7556TIP3    H122625   4.964   3.952   3.455
 7556TIP3    H222626   5.023   4.087   3.462
 7557TIP3   OH222627   5.241   4.866   4.607
 7557TIP3    H122628   5.144   4.854   4.600
 7557TIP3    H222629   5.268   4.834   4.517
 7558TIP3   OH222630   4.730   4.801   3.426
 7558TIP3    H122631   4.694   4.718   3.461
 7558TIP3    H222632   4.747   4.777   3.333
 7559TIP3   OH222633   3.844   4.679   4.041
 7559TIP3    H122634   3.863   4.745   3.972
 7559TIP3    H222635   3.757   4.650   4.015
 7560TIP3   OH222636   3.406   3.967   3.708
 7560TIP3    H122637   3.462   4.041   3.734
 7560TIP3    H222638   3.335   3.971   3.776
 7561TIP3   OH222639   4.123   5.010   4.478
 7561TIP3    H122640   4.163   5.085   4.429
 7561TIP3    H222641   4.200   4.978   4.528
 7562TIP3   OH222642   3.768   4.911   3.858
 7562TIP3    H122643   3.686   4.920   3.909
 7562TIP3    H222644   3.804   5.003   3.864
 7563TIP3   OH222645   4.521   4.633   4.441
 7563TIP3    H122646   4.488   4.644   4.533
 7563TIP3    H222647   4.604   4.588   4.458
 7564TIP3   OH222648   4.477   4.547   3.315
 7564TIP3    H122649   4.536   4.523   3.390
 7564TIP3    H222650   4.391   4.515   3.348
 7565TIP3   OH222651   4.756   5.178   4.489
 7565TIP3    H122652   4.676   5.123   4.482
 7565TIP3    H222653   4.740   5.243   4.417
 7566TIP3   OH222654   4.823   5.014   3.142
 7566TIP3    H122655   4.857   5.084   3.084
 7566TIP3    H222656   4.743   5.060   3.176
 7567TIP3   OH222657   3.845   3.793   5.007
 7567TIP3    H122658   3.748   3.792   5.017
 7567TIP3    H222659   3.873   3.733   5.078
 7568TIP3   OH222660   4.660   4.493   3.514
 7568TIP3    H122661   4.628   4.432   3.580
 7568TIP3    H222662   4.756   4.474   3.513
 7569TIP3   OH222663   3.561   4.872   4.640
 7569TIP3    H122664   3.615   4.805   4.685
 7569TIP3    H222665   3.585   4.951   4.690
 7570TIP3   OH222666   3.847   4.520   3.324
 7570TIP3    H122667   3.863   4.428   3.298
 7570TIP3    H222668   3.825   4.510   3.418
 7571TIP3   OH222669   3.792   4.524   3.596
 7571TIP3    H122670   3.874   4.498   3.639
 7571TIP3    H222671   3.795   4.622   3.604
 7572TIP3   OH222672   4.679   3.859   4.698
 7572TIP3    H122673   4.764   3.891   4.732
 7572TIP3    H222674   4.665   3.776   4.748
 7573TIP3   OH222675   4.553   3.592   3.854
 7573TIP3    H122676   4.546   3.621   3.762
 7573TIP3    H222677   4.604   3.666   3.895
 7574TIP3   OH222678   4.062   4.723   3.543
 7574TIP3    H122679   3.975   4.746   3.581
 7574TIP3    H222680   4.075   4.799   3.483
 7575TIP3   OH222681   4.521   4.104   4.759
 7575TIP3    H122682   4.546   4.149   4.842
 7575TIP3    H222683   4.569   4.019   4.764
 7576TIP3   OH222684   4.389   3.532   4.066
 7576TIP3    H122685   4.429   3.590   4.133
 7576TIP3    H222686   4.446   3.554   3.989
 7577TIP3   OH222687   3.806   4.797   3.612
 7577TIP3    H122688   3.776   4.868   3.551
 7577TIP3    H222689   3.790   4.840   3.699
 7578TIP3   OH222690   3.900   3.509   3.838
 7578TIP3    H122691   3.891   3.595   3.880
 7578TIP3    H222692   3.994   3.489   3.859
 7579TIP3   OH222693   5.157   3.998   4.753
 7579TIP3    H122694   5.059   4.005   4.761
 7579TIP3    H222695   5.162   3.951   4.669
 7580TIP3   OH222696   3.514   4.438   3.584
 7580TIP3    H122697   3.590   4.495   3.605
 7580TIP3    H222698   3.561   4.369   3.534
 7581TIP3   OH222699   3.463   3.698   3.739
 7581TIP3    H122700   3.472   3.795   3.732
 7581TIP3    H222701   3.383   3.681   3.690
 7582TIP3   OH222702   4.776   5.159   4.080
 7582TIP3    H122703   4.734   5.206   4.004
 7582TIP3    H222704   4.870   5.177   4.061
 7583TIP3   OH222705   3.849   3.429   4.617
 7583TIP3    H122706   3.819   3.397   4.529
 7583TIP3    H222707   3.841   3.348   4.671
 7584TIP3   OH222708   3.396   4.642   3.989
 7584TIP3    H122709   3.326   4.669   4.049
 7584TIP3    H222710   3.366   4.682   3.905
 7585TIP3   OH222711   3.552   5.189   5.064
 7585TIP3    H122712   3.639   5.189   5.110
 7585TIP3    H222713   3.533   5.093   5.061
 7586TIP3   OH222714   4.028   5.144   5.109
 7586TIP3    H122715   4.123   5.128   5.113
 7586TIP3    H222716   4.003   5.083   5.036
 7587TIP3   OH222717   4.011   4.722   3.232
 7587TIP3    H122718   3.956   4.650   3.271
 7587TIP3    H222719   4.087   4.670   3.200
 7588TIP3   OH222720   4.669   5.055   4.841
 7588TIP3    H122721   4.662   4.986   4.911
 7588TIP3    H222722   4.746   5.107   4.872
 7589TIP3   OH222723   4.447   4.765   3.147
 7589TIP3    H122724   4.483   4.694   3.205
 7589TIP3    H222725   4.502   4.758   3.067
 7590TIP3   OH222726   3.680   4.593   5.264
 7590TIP3    H122727   3.694   4.497   5.274
 7590TIP3    H222728   3.593   4.595   5.218
 7591TIP3   OH222729   3.656   4.237   3.461
 7591TIP3    H122730   3.714   4.209   3.534
 7591TIP3    H222731   3.722   4.242   3.388
 7592TIP3   OH222732   4.286   4.677   5.037
 7592TIP3    H122733   4.246   4.696   4.949
 7592TIP3    H222734   4.317   4.585   5.027
 7593TIP3   OH222735   4.169   4.437   3.257
 7593TIP3    H122736   4.171   4.451   3.354
 7593TIP3    H222737   4.173   4.339   3.254
 7594TIP3   OH222738   4.778   4.686   4.638
 7594TIP3    H122739   4.856   4.729   4.598
 7594TIP3    H222740   4.710   4.755   4.625
 7595TIP3   OH222741   3.797   4.330   5.241
 7595TIP3    H122742   3.873   4.279   5.211
 7595TIP3    H222743   3.826   4.359   5.330
 7596TIP3   OH222744   3.867   4.134   3.683
 7596TIP3    H122745   3.836   4.066   3.745
 7596TIP3    H222746   3.909   4.075   3.616
 7597TIP3   OH222747   4.136   4.205   4.909
 7597TIP3    H122748   4.061   4.268   4.915
 7597TIP3    H222749   4.188   4.241   4.833
 7598TIP3   OH222750   3.967   3.942   3.517
 7598TIP3    H122751   3.944   3.945   3.422
 7598TIP3    H222752   4.065   3.939   3.512
 7599TIP3   OH222753   4.655   4.612   5.040
 7599TIP3    H122754   4.730   4.578   4.990
 7599TIP3    H222755   4.646   4.546   5.111
 7600TIP3   OH222756   4.788   4.269   3.186
 7600TIP3    H122757   4.771   4.223   3.101
 7600TIP3    H222758   4.753   4.358   3.162
 7601TIP3   OH222759   4.260   3.998   5.033
 7601TIP3    H122760   4.260   3.918   4.977
 7601TIP3    H222761   4.216   4.063   4.974
 7602TIP3   OH222762   4.261   3.780   4.856
 7602TIP3    H122763   4.289   3.827   4.774
 7602TIP3    H222764   4.169   3.755   4.832
 7603TIP3   OH222765   4.285   4.313   4.714
 7603TIP3    H122766   4.371   4.328   4.676
 7603TIP3    H222767   4.228   4.379   4.669
 7604TIP3   OH222768   4.868   4.285   5.092
 7604TIP3    H122769   4.912   4.199   5.101
 7604TIP3    H222770   4.938   4.340   5.053
 7605TIP3   OH222771   4.907   4.546   4.832
 7605TIP3    H122772   4.851   4.598   4.770
 7605TIP3    H222773   4.995   4.563   4.792
 7606TIP3   OH222774   4.137   4.105   5.266
 7606TIP3    H122775   4.070   4.036   5.281
 7606TIP3    H222776   4.170   4.081   5.177
 7607TIP3   OH222777   4.395   3.544   4.910
 7607TIP3    H122778   4.344   3.625   4.890
 7607TIP3    H222779   4.327   3.475   4.898
 7608TIP3   OH222780   4.518   4.049   5.124
 7608TIP3    H122781   4.501   4.033   5.219
 7608TIP3    H222782   4.429   4.025   5.089
 7609TIP3   OH222783   4.759   4.005   4.983
 7609TIP3    H122784   4.683   4.002   5.044
 7609TIP3    H222785   4.832   3.971   5.038
 7610TIP3   OH222786   4.990   3.944   5.129
 7610TIP3    H122787   5.002   3.847   5.143
 7610TIP3    H222788   4.986   3.979   5.220
 7611TIP3   OH222789   3.976   3.887   5.320
 7611TIP3    H122790   3.978   3.795   5.286
 7611TIP3    H222791   4.015   3.873   5.409
 7612TIP3   OH222792   4.486   3.557   5.169
 7612TIP3    H122793   4.552   3.485   5.162
 7612TIP3    H222794   4.446   3.552   5.079
 7613TIP3   OH222795   4.554   3.772   5.325
 7613TIP3    H122796   4.534   3.700   5.261
 7613TIP3    H222797   4.475   3.829   5.318
 7614TIP3   OH222798   3.775   5.001   3.425
 7614TIP3    H122799   3.871   4.991   3.406
 7614TIP3    H222800   3.749   5.053   3.347
 7615TIP3   OH222801   3.255   4.381   3.643
 7615TIP3    H122802   3.348   4.408   3.624
 7615TIP3    H222803   3.252   4.293   3.599
 7616TIP3   OH222804   3.169   4.994   4.057
 7616TIP3    H122805   3.105   4.932   4.017
 7616TIP3    H222806   3.215   4.935   4.120
 7617TIP3   OH222807   3.303   4.842   4.243
 7617TIP3    H122808   3.295   4.771   4.309
 7617TIP3    H222809   3.358   4.906   4.292
 7618TIP3   OH222810   5.029   5.246   4.041
 7618TIP3    H122811   5.053   5.274   4.132
 7618TIP3    H222812   5.082   5.306   3.987
 7619TIP3   OH222813   5.063   5.265   4.322
 7619TIP3    H122814   5.018   5.178   4.321
 7619TIP3    H222815   5.136   5.244   4.382
 7620TIP3   OH222816   5.106   4.942   4.899
 7620TIP3    H122817   5.035   4.953   4.965
 7620TIP3    H222818   5.149   5.030   4.902
 7621TIP3   OH222819   4.934   4.454   3.534
 7621TIP3    H122820   4.988   4.519   3.485
 7621TIP3    H222821   4.988   4.442   3.613
 7622TIP3   OH222822   4.941   5.020   4.353
 7622TIP3    H122823   4.868   5.061   4.403
 7622TIP3    H222824   4.891   4.973   4.282
 7623TIP3   OH222825   4.990   4.236   3.366
 7623TIP3    H122826   4.920   4.231   3.297
 7623TIP3    H222827   4.956   4.312   3.418
 7624TIP3   OH222828   4.857   3.908   3.319
 7624TIP3    H122829   4.818   3.931   3.234
 7624TIP3    H222830   4.837   3.812   3.321
 7625TIP3   OH222831   5.156   4.605   4.725
 7625TIP3    H122832   5.225   4.537   4.713
 7625TIP3    H222833   5.180   4.672   4.660
 7626TIP3   OH222834   5.332   4.398   4.729
 7626TIP3    H122835   5.259   4.351   4.775
 7626TIP3    H222836   5.406   4.337   4.751
 7627TIP3   OH222837   4.802   3.643   3.308
 7627TIP3    H122838   4.876   3.606   3.360
 7627TIP3    H222839   4.729   3.580   3.324
 7628TIP3   OH222840   4.857   3.898   3.734
 7628TIP3    H122841   4.887   3.811   3.767
 7628TIP3    H222842   4.931   3.921   3.676
 7629TIP3   OH222843   5.089   4.213   4.537
 7629TIP3    H122844   5.003   4.231   4.580
 7629TIP3    H222845   5.078   4.262   4.455
 7630TIP3   OH222846   3.711   3.938   5.290
 7630TIP3    H122847   3.808   3.932   5.292
 7630TIP3    H222848   3.687   3.851   5.327
 7631TIP3   OH222849   5.545   3.809   5.041
 7631TIP3    H122850   5.605   3.743   5.000
 7631TIP3    H222851   5.514   3.859   4.963
 7632TIP3   OH222852   4.973   3.648   3.794
 7632TIP3    H122853   5.016   3.633   3.880
 7632TIP3    H222854   4.907   3.576   3.794
 7633TIP3   OH222855   3.660   3.637   4.644
 7633TIP3    H122856   3.720   3.560   4.638
 7633TIP3    H222857   3.722   3.707   4.619
 7634TIP3   OH222858   5.412   3.941   4.843
 7634TIP3    H122859   5.326   3.984   4.862
 7634TIP3    H222860   5.381   3.867   4.788
 7635TIP3   OH222861   5.048   3.578   3.431
 7635TIP3    H122862   5.088   3.508   3.374
 7635TIP3    H222863   5.116   3.648   3.429
 7636TIP3   OH222864   3.455   3.411   4.194
 7636TIP3    H122865   3.362   3.403   4.223
 7636TIP3    H222866   3.447   3.467   4.114
 7637TIP3   OH222867   4.629   5.100   3.703
 7637TIP3    H122868   4.675   5.102   3.617
 7637TIP3    H222869   4.663   5.180   3.746
 7638TIP3   OH222870   3.678   3.498   5.011
 7638TIP3    H122871   3.623   3.484   5.090
 7638TIP3    H222872   3.610   3.521   4.945
 7639TIP3   OH222873   3.715   4.920   5.080
 7639TIP3    H122874   3.622   4.893   5.065
 7639TIP3    H222875   3.728   4.897   5.173
 7640TIP3   OH222876   3.897   4.952   4.629
 7640TIP3    H122877   3.850   5.028   4.590
 7640TIP3    H222878   3.983   4.965   4.584
 7641TIP3   OH222879   4.336   5.193   4.768
 7641TIP3    H122880   4.379   5.193   4.856
 7641TIP3    H222881   4.401   5.245   4.716
 7642TIP3   OH222882   4.517   5.346   4.630
 7642TIP3    H122883   4.588   5.297   4.587
 7642TIP3    H222884   4.569   5.404   4.691
 7643TIP3   OH222885   5.313   3.704   4.727
 7643TIP3    H122886   5.222   3.693   4.693
 7643TIP3    H222887   5.347   3.612   4.718
 7644TIP3   OH222888   3.568   5.201   4.658
 7644TIP3    H122889   3.479   5.236   4.633
 7644TIP3    H222890   3.585   5.252   4.738
 7645TIP3   OH222891   3.806   5.183   4.513
 7645TIP3    H122892   3.718   5.197   4.555
 7645TIP3    H222893   3.790   5.217   4.423
 7646TIP3   OH222894   4.232   5.211   4.311
 7646TIP3    H122895   4.164   5.229   4.243
 7646TIP3    H222896   4.244   5.300   4.350
 7647TIP3   OH222897   4.502   5.148   4.360
 7647TIP3    H122898   4.408   5.167   4.343
 7647TIP3    H222899   4.545   5.224   4.319
 7648TIP3   OH222900   4.709   5.343   4.276
 7648TIP3    H122901   4.693   5.427   4.228
 7648TIP3    H222902   4.733   5.283   4.202
 7649TIP3   OH222903   3.479   4.998   4.399
 7649TIP3    H122904   3.509   4.972   4.489
 7649TIP3    H222905   3.552   4.958   4.347
 7650TIP3   OH222906   3.675   4.876   4.258
 7650TIP3    H122907   3.693   4.790   4.303
 7650TIP3    H222908   3.765   4.913   4.250
 7651TIP3   OH222909   3.940   4.968   4.261
 7651TIP3    H122910   3.970   4.877   4.244
 7651TIP3    H222911   3.990   4.987   4.343
 7652TIP3   OH222912   4.527   3.612   4.335
 7652TIP3    H122913   4.478   3.550   4.392
 7652TIP3    H222914   4.605   3.562   4.308
 7653TIP3   OH222915   5.041   3.511   4.257
 7653TIP3    H122916   5.075   3.555   4.176
 7653TIP3    H222917   4.944   3.517   4.245
 7654TIP3   OH222918   5.135   3.600   4.017
 7654TIP3    H122919   5.206   3.546   3.976
 7654TIP3    H222920   5.172   3.690   3.998
 7655TIP3   OH222921   3.756   3.330   4.384
 7655TIP3    H122922   3.665   3.293   4.376
 7655TIP3    H222923   3.810   3.251   4.363
 7656TIP3   OH222924   3.533   3.204   4.007
 7656TIP3    H122925   3.581   3.255   3.939
 7656TIP3    H222926   3.524   3.269   4.079
 7657TIP3   OH222927   4.221   3.367   4.244
 7657TIP3    H122928   4.279   3.414   4.183
 7657TIP3    H222929   4.252   3.398   4.330
 7658TIP3   OH222930   4.765   3.507   4.226
 7658TIP3    H122931   4.757   3.473   4.136
 7658TIP3    H222932   4.750   3.426   4.280
 7659TIP3   OH222933   4.787   3.436   3.791
 7659TIP3    H122934   4.699   3.477   3.804
 7659TIP3    H222935   4.773   3.349   3.834
 7660TIP3   OH222936   3.269   4.775   3.791
 7660TIP3    H122937   3.184   4.742   3.757
 7660TIP3    H222938   3.261   4.869   3.767
 7661TIP3   OH222939   3.672   3.359   3.767
 7661TIP3    H122940   3.718   3.291   3.713
 7661TIP3    H222941   3.748   3.410   3.802
 7662TIP3   OH222942   4.178   3.563   3.878
 7662TIP3    H122943   4.243   3.516   3.933
 7662TIP3    H222944   4.202   3.655   3.894
 7663TIP3   OH222945   4.042   4.956   3.371
 7663TIP3    H122946   4.129   4.980   3.335
 7663TIP3    H222947   4.020   4.882   3.311
 7664TIP3   OH222948   4.764   5.075   3.464
 7664TIP3    H122949   4.754   4.978   3.454
 7664TIP3    H222950   4.716   5.108   3.385
 7665TIP3   OH222951   3.973   3.614   5.256
 7665TIP3    H122952   3.937   3.541   5.310
 7665TIP3    H222953   4.067   3.611   5.283
 7666TIP3   OH222954   4.225   3.610   5.373
 7666TIP3    H122955   4.308   3.583   5.331
 7666TIP3    H222956   4.212   3.539   5.439
 7667TIP3   OH222957   3.345   4.793   3.426
 7667TIP3    H122958   3.351   4.814   3.520
 7667TIP3    H222959   3.432   4.750   3.408
 7668TIP3   OH222960   5.051   3.672   5.159
 7668TIP3    H122961   5.068   3.640   5.250
 7668TIP3    H222962   5.140   3.666   5.119
 7669TIP3   OH222963   4.985   5.222   4.651
 7669TIP3    H122964   4.906   5.193   4.601
 7669TIP3    H222965   4.966   5.318   4.658
 7670TIP3   OH222966   6.486   4.897   3.501
 7670TIP3    H122967   6.563   4.859   3.542
 7670TIP3    H222968   6.503   4.992   3.512
 7671TIP3   OH222969   5.228   4.092   3.686
 7671TIP3    H122970   5.201   4.183   3.698
 7671TIP3    H222971   5.155   4.054   3.633
 7672TIP3   OH222972   6.150   5.363   3.499
 7672TIP3    H122973   6.190   5.291   3.447
 7672TIP3    H222974   6.133   5.319   3.583
 7673TIP3   OH222975   6.028   4.831   3.852
 7673TIP3    H122976   6.032   4.749   3.802
 7673TIP3    H222977   6.122   4.850   3.870
 7674TIP3   OH222978   7.067   4.142   3.842
 7674TIP3    H122979   7.098   4.225   3.883
 7674TIP3    H222980   7.096   4.153   3.750
 7675TIP3   OH222981   6.495   4.303   3.906
 7675TIP3    H122982   6.531   4.234   3.965
 7675TIP3    H222983   6.498   4.255   3.823
 7676TIP3   OH222984   6.499   4.072   3.456
 7676TIP3    H122985   6.566   4.065   3.527
 7676TIP3    H222986   6.550   4.112   3.384
 7677TIP3   OH222987   7.144   4.351   4.013
 7677TIP3    H122988   7.059   4.394   3.992
 7677TIP3    H222989   7.149   4.368   4.108
 7678TIP3   OH222990   5.801   3.962   4.284
 7678TIP3    H122991   5.747   3.995   4.209
 7678TIP3    H222992   5.742   3.984   4.359
 7679TIP3   OH222993   6.155   4.817   3.299
 7679TIP3    H122994   6.110   4.782   3.221
 7679TIP3    H222995   6.102   4.897   3.318
 7680TIP3   OH222996   5.908   4.771   4.106
 7680TIP3    H122997   5.813   4.757   4.108
 7680TIP3    H222998   5.925   4.792   4.013
 7681TIP3   OH222999   6.698   4.088   3.643
 7681TIP3    H123000   6.692   4.026   3.718
 7681TIP3    H223001   6.768   4.149   3.671
 7682TIP3   OH223002   5.672   4.061   4.057
 7682TIP3    H123003   5.716   4.146   4.074
 7682TIP3    H223004   5.652   4.068   3.962
 7683TIP3   OH223005   5.115   4.626   3.407
 7683TIP3    H123006   5.083   4.648   3.318
 7683TIP3    H223007   5.150   4.711   3.438
 7684TIP3   OH223008   6.566   5.139   3.641
 7684TIP3    H123009   6.478   5.133   3.685
 7684TIP3    H223010   6.559   5.227   3.599
 7685TIP3   OH223011   6.861   4.046   4.014
 7685TIP3    H123012   6.772   4.058   3.978
 7685TIP3    H223013   6.919   4.076   3.941
 7686TIP3   OH223014   6.154   3.683   3.999
 7686TIP3    H123015   6.136   3.588   4.012
 7686TIP3    H223016   6.075   3.722   4.043
 7687TIP3   OH223017   6.267   5.186   3.322
 7687TIP3    H123018   6.314   5.103   3.298
 7687TIP3    H223019   6.330   5.251   3.282
 7688TIP3   OH223020   6.410   4.972   3.231
 7688TIP3    H123021   6.384   4.900   3.172
 7688TIP3    H223022   6.432   4.924   3.313
 7689TIP3   OH223023   6.793   5.058   3.998
 7689TIP3    H123024   6.791   4.981   3.937
 7689TIP3    H223025   6.773   5.132   3.937
 7690TIP3   OH223026   6.090   4.447   3.242
 7690TIP3    H123027   6.011   4.501   3.227
 7690TIP3    H223028   6.129   4.440   3.153
 7691TIP3   OH223029   6.043   4.232   2.962
 7691TIP3    H123030   6.111   4.285   3.007
 7691TIP3    H223031   6.100   4.169   2.913
 7692TIP3   OH223032   6.993   4.689   3.839
 7692TIP3    H123033   6.909   4.741   3.842
 7692TIP3    H223034   7.024   4.712   3.749
 7693TIP3   OH223035   6.425   4.537   3.207
 7693TIP3    H123036   6.362   4.547   3.279
 7693TIP3    H223037   6.505   4.501   3.252
 7694TIP3   OH223038   6.679   4.573   4.141
 7694TIP3    H123039   6.669   4.655   4.193
 7694TIP3    H223040   6.589   4.568   4.099
 7695TIP3   OH223041   5.795   4.960   3.769
 7695TIP3    H123042   5.778   4.911   3.688
 7695TIP3    H223043   5.879   4.921   3.802
 7696TIP3   OH223044   6.332   5.133   3.777
 7696TIP3    H123045   6.314   5.220   3.816
 7696TIP3    H223046   6.304   5.071   3.846
 7697TIP3   OH223047   5.936   5.058   4.315
 7697TIP3    H123048   5.872   5.118   4.358
 7697TIP3    H223049   5.877   4.995   4.272
 7698TIP3   OH223050   6.269   4.384   3.039
 7698TIP3    H123051   6.328   4.447   3.085
 7698TIP3    H223052   6.293   4.404   2.945
 7699TIP3   OH223053   5.701   4.603   4.428
 7699TIP3    H123054   5.707   4.693   4.467
 7699TIP3    H223055   5.606   4.599   4.409
 7700TIP3   OH223056   6.015   5.067   3.329
 7700TIP3    H123057   6.097   5.119   3.333
 7700TIP3    H223058   5.957   5.122   3.275
 7701TIP3   OH223059   5.732   5.223   4.405
 7701TIP3    H123060   5.696   5.226   4.314
 7701TIP3    H223061   5.652   5.201   4.457
 7702TIP3   OH223062   6.790   3.624   3.103
 7702TIP3    H123063   6.704   3.645   3.145
 7702TIP3    H223064   6.802   3.704   3.046
 7703TIP3   OH223065   5.542   4.356   3.417
 7703TIP3    H123066   5.463   4.394   3.374
 7703TIP3    H223067   5.508   4.275   3.456
 7704TIP3   OH223068   6.589   4.995   2.648
 7704TIP3    H123069   6.598   5.091   2.629
 7704TIP3    H223070   6.681   4.964   2.633
 7705TIP3   OH223071   5.296   4.745   4.375
 7705TIP3    H123072   5.230   4.696   4.325
 7705TIP3    H223073   5.351   4.675   4.414
 7706TIP3   OH223074   7.030   5.401   4.042
 7706TIP3    H123075   7.029   5.305   4.055
 7706TIP3    H223076   6.946   5.427   4.086
 7707TIP3   OH223077   6.134   5.182   4.173
 7707TIP3    H123078   6.131   5.275   4.205
 7707TIP3    H223079   6.060   5.143   4.225
 7708TIP3   OH223080   5.901   5.310   3.126
 7708TIP3    H123081   5.854   5.291   3.043
 7708TIP3    H223082   5.866   5.397   3.151
 7709TIP3   OH223083   5.335   5.163   3.511
 7709TIP3    H123084   5.381   5.155   3.597
 7709TIP3    H223085   5.279   5.083   3.512
 7710TIP3   OH223086   6.098   5.215   2.762
 7710TIP3    H123087   6.157   5.144   2.726
 7710TIP3    H223088   6.134   5.224   2.853
 7711TIP3   OH223089   6.151   5.264   3.032
 7711TIP3    H123090   6.062   5.273   3.073
 7711TIP3    H223091   6.200   5.220   3.103
 7712TIP3   OH223092   6.916   4.528   4.313
 7712TIP3    H123093   6.834   4.536   4.262
 7712TIP3    H223094   6.935   4.432   4.304
 7713TIP3   OH223095   5.914   3.763   4.124
 7713TIP3    H123096   5.826   3.732   4.091
 7713TIP3    H223097   5.884   3.838   4.177
 7714TIP3   OH223098   6.449   3.875   4.320
 7714TIP3    H123099   6.518   3.844   4.382
 7714TIP3    H223100   6.366   3.854   4.366
 7715TIP3   OH223101   6.686   4.305   4.239
 7715TIP3    H123102   6.635   4.299   4.323
 7715TIP3    H223103   6.659   4.391   4.204
 7716TIP3   OH223104   6.344   4.440   2.790
 7716TIP3    H123105   6.309   4.410   2.704
 7716TIP3    H223106   6.433   4.471   2.764
 7717TIP3   OH223107   6.061   3.805   3.094
 7717TIP3    H123108   6.024   3.800   3.184
 7717TIP3    H223109   6.019   3.726   3.055
 7718TIP3   OH223110   5.835   4.282   4.150
 7718TIP3    H123111   5.778   4.292   4.229
 7718TIP3    H223112   5.820   4.365   4.104
 7719TIP3   OH223113   6.221   4.252   3.383
 7719TIP3    H123114   6.171   4.322   3.336
 7719TIP3    H223115   6.281   4.219   3.314
 7720TIP3   OH223116   6.398   4.530   4.480
 7720TIP3    H123117   6.373   4.455   4.538
 7720TIP3    H223118   6.494   4.533   4.496
 7721TIP3   OH223119   5.669   4.293   4.362
 7721TIP3    H123120   5.680   4.368   4.422
 7721TIP3    H223121   5.662   4.216   4.422
 7722TIP3   OH223122   5.718   3.785   3.059
 7722TIP3    H123123   5.706   3.782   3.156
 7722TIP3    H223124   5.639   3.835   3.033
 7723TIP3   OH223125   5.261   3.824   3.938
 7723TIP3    H123126   5.337   3.864   3.983
 7723TIP3    H223127   5.294   3.804   3.849
 7724TIP3   OH223128   5.224   3.802   3.450
 7724TIP3    H123129   5.273   3.837   3.372
 7724TIP3    H223130   5.168   3.879   3.470
 7725TIP3   OH223131   6.428   4.526   4.042
 7725TIP3    H123132   6.452   4.444   3.994
 7725TIP3    H223133   6.384   4.486   4.121
 7726TIP3   OH223134   5.512   4.045   3.752
 7726TIP3    H123135   5.420   4.048   3.722
 7726TIP3    H223136   5.548   3.964   3.710
 7727TIP3   OH223137   5.763   4.021   3.403
 7727TIP3    H123138   5.850   4.054   3.378
 7727TIP3    H223139   5.705   4.052   3.330
 7728TIP3   OH223140   6.560   4.034   3.925
 7728TIP3    H123141   6.522   4.045   4.014
 7728TIP3    H223142   6.490   3.982   3.882
 7729TIP3   OH223143   5.602   4.078   3.189
 7729TIP3    H123144   5.534   4.027   3.141
 7729TIP3    H223145   5.656   4.111   3.115
 7730TIP3   OH223146   6.725   5.747   4.138
 7730TIP3    H123147   6.720   5.772   4.044
 7730TIP3    H223148   6.804   5.797   4.167
 7731TIP3   OH223149   5.696   4.846   4.561
 7731TIP3    H123150   5.765   4.885   4.617
 7731TIP3    H223151   5.617   4.861   4.615
 7732TIP3   OH223152   5.649   3.805   3.688
 7732TIP3    H123153   5.623   3.729   3.743
 7732TIP3    H223154   5.706   3.765   3.621
 7733TIP3   OH223155   5.854   4.600   3.195
 7733TIP3    H123156   5.785   4.531   3.183
 7733TIP3    H223157   5.833   4.633   3.285
 7734TIP3   OH223158   6.767   4.845   3.826
 7734TIP3    H123159   6.802   4.895   3.748
 7734TIP3    H223160   6.672   4.844   3.809
 7735TIP3   OH223161   6.313   3.906   3.075
 7735TIP3    H123162   6.217   3.888   3.075
 7735TIP3    H223163   6.318   4.003   3.088
 7736TIP3   OH223164   6.258   4.927   4.186
 7736TIP3    H123165   6.261   4.886   4.274
 7736TIP3    H223166   6.212   5.011   4.203
 7737TIP3   OH223167   6.388   4.165   3.171
 7737TIP3    H123168   6.485   4.166   3.170
 7737TIP3    H223169   6.366   4.237   3.108
 7738TIP3   OH223170   6.000   4.748   3.020
 7738TIP3    H123171   5.953   4.835   3.026
 7738TIP3    H223172   5.946   4.693   3.080
 7739TIP3   OH223173   5.425   4.549   4.514
 7739TIP3    H123174   5.483   4.568   4.591
 7739TIP3    H223175   5.381   4.470   4.550
 7740TIP3   OH223176   6.152   4.661   4.508
 7740TIP3    H123177   6.086   4.602   4.466
 7740TIP3    H223178   6.235   4.620   4.477
 7741TIP3   OH223179   6.413   5.174   4.092
 7741TIP3    H123180   6.317   5.172   4.108
 7741TIP3    H223181   6.443   5.229   4.167
 7742TIP3   OH223182   7.045   5.110   4.081
 7742TIP3    H123183   6.947   5.105   4.074
 7742TIP3    H223184   7.070   5.079   3.991
 7743TIP3   OH223185   6.528   5.067   2.911
 7743TIP3    H123186   6.499   4.993   2.966
 7743TIP3    H223187   6.539   5.026   2.823
 7744TIP3   OH223188   5.637   4.921   3.507
 7744TIP3    H123189   5.656   5.002   3.456
 7744TIP3    H223190   5.545   4.906   3.482
 7745TIP3   OH223191   5.213   4.229   3.204
 7745TIP3    H123192   5.260   4.312   3.227
 7745TIP3    H223193   5.137   4.233   3.265
 7746TIP3   OH223194   5.784   4.692   3.438
 7746TIP3    H123195   5.741   4.776   3.466
 7746TIP3    H223196   5.781   4.637   3.516
 7747TIP3   OH223197   5.915   5.268   3.965
 7747TIP3    H123198   5.958   5.342   3.917
 7747TIP3    H223199   5.989   5.233   4.016
 7748TIP3   OH223200   5.568   5.165   3.352
 7748TIP3    H123201   5.482   5.177   3.397
 7748TIP3    H223202   5.602   5.257   3.353
 7749TIP3   OH223203   6.312   4.866   3.931
 7749TIP3    H123204   6.273   4.886   4.020
 7749TIP3    H223205   6.404   4.865   3.959
 7750TIP3   OH223206   6.282   4.803   2.809
 7750TIP3    H123207   6.335   4.779   2.888
 7750TIP3    H223208   6.196   4.766   2.833
 7751TIP3   OH223209   6.553   5.434   3.973
 7751TIP3    H123210   6.471   5.381   3.966
 7751TIP3    H223211   6.538   5.500   3.902
 7752TIP3   OH223212   6.620   5.270   2.628
 7752TIP3    H123213   6.654   5.342   2.573
 7752TIP3    H223214   6.539   5.314   2.663
 7753TIP3   OH223215   5.638   4.046   4.501
 7753TIP3    H123216   5.540   4.043   4.507
 7753TIP3    H223217   5.664   3.983   4.570
 7754TIP3   OH223218   6.441   4.747   3.029
 7754TIP3    H123219   6.428   4.671   3.089
 7754TIP3    H223220   6.537   4.739   3.012
 7755TIP3   OH223221   5.644   4.777   2.812
 7755TIP3    H123222   5.657   4.685   2.782
 7755TIP3    H223223   5.621   4.764   2.905
 7756TIP3   OH223224   5.587   4.783   3.086
 7756TIP3    H123225   5.668   4.753   3.129
 7756TIP3    H223226   5.594   4.880   3.092
 7757TIP3   OH223227   5.321   4.473   3.289
 7757TIP3    H123228   5.254   4.520   3.343
 7757TIP3    H223229   5.337   4.540   3.219
 7758TIP3   OH223230   6.478   4.106   4.175
 7758TIP3    H123231   6.552   4.148   4.222
 7758TIP3    H223232   6.462   4.027   4.231
 7759TIP3   OH223233   6.360   3.856   3.347
 7759TIP3    H123234   6.342   3.877   3.253
 7759TIP3    H223235   6.396   3.941   3.379
 7760TIP3   OH223236   5.859   4.979   3.035
 7760TIP3    H123237   5.771   5.006   3.068
 7760TIP3    H223238   5.872   5.045   2.965
 7761TIP3   OH223239   6.055   4.045   3.443
 7761TIP3    H123240   6.117   4.114   3.413
 7761TIP3    H223241   6.044   4.069   3.535
 7762TIP3   OH223242   6.341   4.380   4.247
 7762TIP3    H123243   6.343   4.420   4.335
 7762TIP3    H223244   6.354   4.286   4.265
 7763TIP3   OH223245   6.196   3.768   3.549
 7763TIP3    H123246   6.224   3.836   3.612
 7763TIP3    H223247   6.247   3.797   3.470
 7764TIP3   OH223248   5.604   5.056   3.100
 7764TIP3    H123249   5.573   5.124   3.037
 7764TIP3    H223250   5.587   5.099   3.186
 7765TIP3   OH223251   5.701   3.763   3.334
 7765TIP3    H123252   5.700   3.853   3.372
 7765TIP3    H223253   5.797   3.744   3.342
 7766TIP3   OH223254   6.954   4.261   4.230
 7766TIP3    H123255   6.856   4.263   4.242
 7766TIP3    H223256   6.959   4.205   4.151
 7767TIP3   OH223257   6.591   4.429   3.632
 7767TIP3    H123258   6.581   4.341   3.595
 7767TIP3    H223259   6.674   4.416   3.682
 7768TIP3   OH223260   5.320   4.680   3.090
 7768TIP3    H123261   5.393   4.744   3.097
 7768TIP3    H223262   5.361   4.619   3.024
 7769TIP3   OH223263   5.260   3.958   3.227
 7769TIP3    H123264   5.261   4.056   3.221
 7769TIP3    H223265   5.186   3.934   3.171
 7770TIP3   OH223266   6.576   5.408   3.569
 7770TIP3    H123267   6.532   5.456   3.495
 7770TIP3    H223268   6.670   5.429   3.547
 7771TIP3   OH223269   5.648   3.683   4.097
 7771TIP3    H123270   5.619   3.650   4.009
 7771TIP3    H223271   5.638   3.603   4.152
 7772TIP3   OH223272   5.188   4.896   3.475
 7772TIP3    H123273   5.119   4.929   3.534
 7772TIP3    H223274   5.161   4.938   3.390
 7773TIP3   OH223275   5.348   5.446   4.548
 7773TIP3    H123276   5.434   5.447   4.596
 7773TIP3    H223277   5.329   5.351   4.547
 7774TIP3   OH223278   5.825   5.401   4.596
 7774TIP3    H123279   5.920   5.384   4.597
 7774TIP3    H223280   5.796   5.341   4.524
 7775TIP3   OH223281   5.810   4.979   2.723
 7775TIP3    H123282   5.754   4.905   2.758
 7775TIP3    H223283   5.884   4.928   2.685
 7776TIP3   OH223284   6.469   5.310   4.324
 7776TIP3    H123285   6.462   5.243   4.395
 7776TIP3    H223286   6.542   5.367   4.356
 7777TIP3   OH223287   6.244   5.019   2.635
 7777TIP3    H123288   6.282   4.951   2.694
 7777TIP3    H223289   6.301   5.012   2.556
 7778TIP3   OH223290   5.480   4.854   4.746
 7778TIP3    H123291   5.496   4.758   4.754
 7778TIP3    H223292   5.391   4.856   4.706
 7779TIP3   OH223293   5.454   4.494   2.947
 7779TIP3    H123294   5.512   4.460   3.017
 7779TIP3    H223295   5.520   4.499   2.873
 7780TIP3   OH223296   6.084   4.935   4.520
 7780TIP3    H123297   6.037   4.951   4.437
 7780TIP3    H223298   6.110   4.840   4.513
 7781TIP3   OH223299   5.970   4.696   2.752
 7781TIP3    H123300   5.972   4.707   2.849
 7781TIP3    H223301   5.972   4.598   2.744
 7782TIP3   OH223302   6.572   4.936   4.115
 7782TIP3    H123303   6.648   4.988   4.084
 7782TIP3    H223304   6.502   5.004   4.118
 7783TIP3   OH223305   5.592   4.585   4.731
 7783TIP3    H123306   5.672   4.538   4.701
 7783TIP3    H223307   5.621   4.615   4.820
 7784TIP3   OH223308   5.662   4.404   3.163
 7784TIP3    H123309   5.630   4.366   3.248
 7784TIP3    H223310   5.698   4.326   3.117
 7785TIP3   OH223311   5.939   4.472   4.406
 7785TIP3    H123312   5.854   4.520   4.405
 7785TIP3    H223313   5.981   4.503   4.324
 7786TIP3   OH223314   5.765   4.198   3.004
 7786TIP3    H123315   5.740   4.204   2.910
 7786TIP3    H223316   5.862   4.197   2.998
 7787TIP3   OH223317   6.457   4.871   4.530
 7787TIP3    H123318   6.519   4.826   4.472
 7787TIP3    H223319   6.438   4.803   4.596
 7788TIP3   OH223320   6.572   4.526   2.668
 7788TIP3    H123321   6.554   4.479   2.584
 7788TIP3    H223322   6.537   4.615   2.644
 7789TIP3   OH223323   6.060   4.257   4.516
 7789TIP3    H123324   6.053   4.178   4.458
 7789TIP3    H223325   6.012   4.325   4.463
 7790TIP3   OH223326   6.054   4.048   4.325
 7790TIP3    H123327   6.059   4.100   4.244
 7790TIP3    H223328   5.961   4.015   4.319
 7791TIP3   OH223329   6.082   4.590   4.212
 7791TIP3    H123330   6.147   4.576   4.143
 7791TIP3    H223331   6.026   4.661   4.175
 7792TIP3   OH223332   6.667   4.541   4.580
 7792TIP3    H123333   6.707   4.454   4.596
 7792TIP3    H223334   6.739   4.588   4.536
 7793TIP3   OH223335   6.702   4.805   4.318
 7793TIP3    H123336   6.645   4.854   4.254
 7793TIP3    H223337   6.791   4.824   4.280
 7794TIP3   OH223338   5.937   4.361   4.754
 7794TIP3    H123339   5.868   4.293   4.769
 7794TIP3    H223340   5.965   4.340   4.663
 7795TIP3   OH223341   6.188   3.805   4.395
 7795TIP3    H123342   6.137   3.885   4.370
 7795TIP3    H223343   6.120   3.735   4.384
 7796TIP3   OH223344   6.314   4.306   4.610
 7796TIP3    H123345   6.296   4.288   4.704
 7796TIP3    H223346   6.226   4.284   4.574
 7797TIP3   OH223347   6.555   4.260   4.470
 7797TIP3    H123348   6.479   4.258   4.531
 7797TIP3    H223349   6.628   4.225   4.525
 7798TIP3   OH223350   6.790   4.200   4.615
 7798TIP3    H123351   6.800   4.104   4.629
 7798TIP3    H223352   6.783   4.235   4.706
 7799TIP3   OH223353   5.773   4.143   4.806
 7799TIP3    H123354   5.773   4.052   4.772
 7799TIP3    H223355   5.810   4.130   4.896
 7800TIP3   OH223356   6.284   3.815   4.653
 7800TIP3    H123357   6.348   3.742   4.647
 7800TIP3    H223358   6.242   3.809   4.565
 7801TIP3   OH223359   6.353   4.030   4.809
 7801TIP3    H123360   6.331   3.958   4.747
 7801TIP3    H223361   6.273   4.086   4.805
 7802TIP3   OH223362   5.573   5.259   2.914
 7802TIP3    H123363   5.668   5.250   2.892
 7802TIP3    H223364   5.544   5.309   2.835
 7803TIP3   OH223365   5.052   4.636   3.132
 7803TIP3    H123366   5.145   4.659   3.111
 7803TIP3    H223367   5.043   4.549   3.088
 7804TIP3   OH223368   4.967   5.252   3.538
 7804TIP3    H123369   4.902   5.192   3.498
 7804TIP3    H223370   5.013   5.193   3.601
 7805TIP3   OH223371   5.105   5.100   3.722
 7805TIP3    H123372   5.066   5.041   3.788
 7805TIP3    H223373   5.153   5.164   3.779
 7806TIP3   OH223374   6.831   5.497   3.531
 7806TIP3    H123375   6.857   5.538   3.615
 7806TIP3    H223376   6.890   5.541   3.467
 7807TIP3   OH223377   6.855   5.523   3.815
 7807TIP3    H123378   6.812   5.435   3.806
 7807TIP3    H223379   6.934   5.500   3.864
 7808TIP3   OH223380   6.905   5.198   4.386
 7808TIP3    H123381   6.829   5.210   4.447
 7808TIP3    H223382   6.946   5.287   4.388
 7809TIP3   OH223383   6.712   4.725   3.007
 7809TIP3    H123384   6.785   4.777   2.970
 7809TIP3    H223385   6.752   4.694   3.091
 7810TIP3   OH223386   6.830   4.615   3.225
 7810TIP3    H123387   6.798   4.525   3.237
 7810TIP3    H223388   6.918   4.612   3.268
 7811TIP3   OH223389   6.901   4.972   3.632
 7811TIP3    H123390   6.955   4.905   3.584
 7811TIP3    H223391   6.906   5.049   3.572
 7812TIP3   OH223392   6.730   5.270   3.834
 7812TIP3    H123393   6.659   5.318   3.881
 7812TIP3    H223394   6.682   5.230   3.759
 7813TIP3   OH223395   6.792   4.524   2.826
 7813TIP3    H123396   6.713   4.513   2.769
 7813TIP3    H223397   6.754   4.574   2.899
 7814TIP3   OH223398   6.597   4.164   2.813
 7814TIP3    H123399   6.619   4.201   2.727
 7814TIP3    H223400   6.599   4.068   2.795
 7815TIP3   OH223401   6.634   4.419   3.345
 7815TIP3    H123402   6.657   4.330   3.313
 7815TIP3    H223403   6.675   4.423   3.432
 7816TIP3   OH223404   6.952   4.864   4.214
 7816TIP3    H123405   7.022   4.795   4.203
 7816TIP3    H223406   6.979   4.930   4.149
 7817TIP3   OH223407   7.133   4.663   4.223
 7817TIP3    H123408   7.058   4.612   4.260
 7817TIP3    H223409   7.206   4.600   4.240
 7818TIP3   OH223410   6.603   3.887   2.779
 7818TIP3    H123411   6.663   3.860   2.850
 7818TIP3    H223412   6.520   3.841   2.801
 7819TIP3   OH223413   6.679   4.159   3.245
 7819TIP3    H123414   6.707   4.066   3.258
 7819TIP3    H223415   6.756   4.188   3.192
 7820TIP3   OH223416   6.821   4.338   3.742
 7820TIP3    H123417   6.908   4.358   3.700
 7820TIP3    H223418   6.840   4.368   3.833
 7821TIP3   OH223419   6.893   4.470   3.974
 7821TIP3    H123420   6.818   4.505   4.026
 7821TIP3    H223421   6.927   4.551   3.930
 7822TIP3   OH223422   5.506   4.195   4.778
 7822TIP3    H123423   5.604   4.188   4.778
 7822TIP3    H223424   5.483   4.108   4.815
 7823TIP3   OH223425   7.341   4.066   4.527
 7823TIP3    H123426   7.401   4.000   4.486
 7823TIP3    H223427   7.310   4.116   4.449
 7824TIP3   OH223428   6.765   3.898   3.288
 7824TIP3    H123429   6.810   3.881   3.373
 7824TIP3    H223430   6.699   3.825   3.286
 7825TIP3   OH223431   5.461   3.894   4.131
 7825TIP3    H123432   5.520   3.817   4.125
 7825TIP3    H223433   5.523   3.964   4.104
 7826TIP3   OH223434   7.208   4.199   4.329
 7826TIP3    H123435   7.122   4.241   4.348
 7826TIP3    H223436   7.177   4.124   4.274
 7827TIP3   OH223437   6.834   3.823   2.922
 7827TIP3    H123438   6.881   3.768   2.857
 7827TIP3    H223439   6.885   3.905   2.922
 7828TIP3   OH223440   5.251   3.664   3.681
 7828TIP3    H123441   5.157   3.657   3.707
 7828TIP3    H223442   5.246   3.722   3.603
 7829TIP3   OH223443   6.415   5.368   3.187
 7829TIP3    H123444   6.461   5.355   3.102
 7829TIP3    H223445   6.467   5.440   3.227
 7830TIP3   OH223446   5.473   3.751   4.494
 7830TIP3    H123447   5.420   3.741   4.575
 7830TIP3    H223448   5.406   3.780   4.431
 7831TIP3   OH223449   5.511   5.175   4.565
 7831TIP3    H123450   5.417   5.151   4.550
 7831TIP3    H223451   5.523   5.150   4.658
 7832TIP3   OH223452   5.682   5.215   4.128
 7832TIP3    H123453   5.649   5.296   4.084
 7832TIP3    H223454   5.766   5.204   4.079
 7833TIP3   OH223455   6.133   5.448   4.253
 7833TIP3    H123456   6.173   5.450   4.342
 7833TIP3    H223457   6.197   5.501   4.202
 7834TIP3   OH223458   6.312   5.603   4.117
 7834TIP3    H123459   6.383   5.555   4.072
 7834TIP3    H223460   6.364   5.661   4.177
 7835TIP3   OH223461   7.110   3.960   4.213
 7835TIP3    H123462   7.019   3.948   4.181
 7835TIP3    H223463   7.144   3.868   4.205
 7836TIP3   OH223464   5.359   5.454   4.124
 7836TIP3    H123465   5.270   5.494   4.115
 7836TIP3    H223466   5.380   5.480   4.215
 7837TIP3   OH223467   5.604   5.444   3.999
 7837TIP3    H123468   5.515   5.455   4.041
 7837TIP3    H223469   5.587   5.478   3.909
 7838TIP3   OH223470   6.030   5.468   3.798
 7838TIP3    H123471   5.960   5.484   3.732
 7838TIP3    H223472   6.040   5.557   3.838
 7839TIP3   OH223473   6.298   5.402   3.846
 7839TIP3    H123474   6.204   5.424   3.830
 7839TIP3    H223475   6.342   5.477   3.802
 7840TIP3   OH223476   6.503   5.597   3.761
 7840TIP3    H123477   6.489   5.683   3.715
 7840TIP3    H223478   6.530   5.539   3.686
 7841TIP3   OH223479   5.280   5.262   3.879
 7841TIP3    H123480   5.317   5.287   3.965
 7841TIP3    H223481   5.354   5.212   3.838
 7842TIP3   OH223482   5.483   5.131   3.744
 7842TIP3    H123483   5.522   5.044   3.761
 7842TIP3    H223484   5.565   5.184   3.735
 7843TIP3   OH223485   5.742   5.227   3.748
 7843TIP3    H123486   5.768   5.133   3.740
 7843TIP3    H223487   5.789   5.248   3.831
 7844TIP3   OH223488   6.325   3.876   3.830
 7844TIP3    H123489   6.271   3.813   3.882
 7844TIP3    H223490   6.395   3.820   3.794
 7845TIP3   OH223491   6.836   3.765   3.742
 7845TIP3    H123492   6.871   3.809   3.662
 7845TIP3    H223493   6.739   3.775   3.731
 7846TIP3   OH223494   6.937   3.843   3.500
 7846TIP3    H123495   7.012   3.799   3.457
 7846TIP3    H223496   6.967   3.936   3.488
 7847TIP3   OH223497   5.563   3.585   3.853
 7847TIP3    H123498   5.470   3.556   3.853
 7847TIP3    H223499   5.608   3.498   3.846
 7848TIP3   OH223500   5.355   3.459   3.497
 7848TIP3    H123501   5.382   3.518   3.423
 7848TIP3    H223502   5.326   3.524   3.564
 7849TIP3   OH223503   6.015   3.612   3.728
 7849TIP3    H123504   6.070   3.663   3.667
 7849TIP3    H223505   6.028   3.659   3.811
 7850TIP3   OH223506   6.559   3.764   3.710
 7850TIP3    H123507   6.546   3.726   3.622
 7850TIP3    H223508   6.545   3.685   3.768
 7851TIP3   OH223509   6.583   3.688   3.279
 7851TIP3    H123510   6.497   3.733   3.289
 7851TIP3    H223511   6.563   3.602   3.322
 7852TIP3   OH223512   5.065   5.034   3.278
 7852TIP3    H123513   4.980   5.000   3.244
 7852TIP3    H223514   5.057   5.126   3.249
 7853TIP3   OH223515   5.468   3.615   3.261
 7853TIP3    H123516   5.514   3.553   3.202
 7853TIP3    H223517   5.542   3.668   3.296
 7854TIP3   OH223518   5.981   3.792   3.359
 7854TIP3    H123519   6.040   3.748   3.423
 7854TIP3    H223520   5.998   3.886   3.383
 7855TIP3   OH223521   5.839   5.214   2.859
 7855TIP3    H123522   5.927   5.237   2.822
 7855TIP3    H223523   5.817   5.140   2.798
 7856TIP3   OH223524   6.557   5.335   2.954
 7856TIP3    H123525   6.550   5.237   2.943
 7856TIP3    H223526   6.512   5.365   2.872
 7857TIP3   OH223527   5.769   3.870   4.743
 7857TIP3    H123528   5.733   3.797   4.797
 7857TIP3    H223529   5.863   3.867   4.771
 7858TIP3   OH223530   6.021   3.866   4.860
 7858TIP3    H123531   6.105   3.836   4.821
 7858TIP3    H223532   6.006   3.796   4.928
 7859TIP3   OH223533   5.143   5.051   2.912
 7859TIP3    H123534   5.148   5.075   3.005
 7859TIP3    H223535   5.230   5.008   2.896
 7860TIP3   OH223536   6.847   3.929   4.646
 7860TIP3    H123537   6.863   3.897   4.738
 7860TIP3    H223538   6.937   3.921   4.607
 7861TIP3   OH223539   6.779   5.477   4.141
 7861TIP3    H123540   6.703   5.448   4.087
 7861TIP3    H223541   6.763   5.573   4.143
 7862TIP3   OH223542   8.013   4.844   2.881
 7862TIP3    H123543   8.024   4.940   2.864
 7862TIP3    H223544   7.948   4.846   2.952
 7863TIP3   OH223545   8.048   4.845   3.284
 7863TIP3    H123546   8.079   4.839   3.377
 7863TIP3    H223547   8.005   4.758   3.274
 7864TIP3   OH223548   7.346   4.746   3.652
 7864TIP3    H123549   7.378   4.676   3.713
 7864TIP3    H223550   7.427   4.798   3.640
 7865TIP3   OH223551   8.288   5.144   2.972
 7865TIP3    H123552   8.280   5.088   3.050
 7865TIP3    H223553   8.321   5.227   3.010
 7866TIP3   OH223554   7.323   5.159   3.376
 7866TIP3    H123555   7.316   5.061   3.377
 7866TIP3    H223556   7.419   5.169   3.366
 7867TIP3   OH223557   7.088   4.643   3.339
 7867TIP3    H123558   7.138   4.563   3.366
 7867TIP3    H223559   7.132   4.668   3.257
 7868TIP3   OH223560   7.943   5.617   2.983
 7868TIP3    H123561   7.988   5.545   2.934
 7868TIP3    H223562   7.933   5.579   3.071
 7869TIP3   OH223563   7.846   5.078   3.334
 7869TIP3    H123564   7.887   5.001   3.292
 7869TIP3    H223565   7.928   5.125   3.362
 7870TIP3   OH223566   8.254   4.603   3.364
 7870TIP3    H123567   8.266   4.509   3.391
 7870TIP3    H223568   8.208   4.588   3.279
 7871TIP3   OH223569   7.602   4.239   3.330
 7871TIP3    H123570   7.579   4.310   3.267
 7871TIP3    H223571   7.556   4.164   3.286
 7872TIP3   OH223572   8.297   4.334   2.963
 7872TIP3    H123573   8.346   4.267   3.011
 7872TIP3    H223574   8.365   4.366   2.903
 7873TIP3   OH223575   7.233   4.432   3.433
 7873TIP3    H123576   7.317   4.411   3.478
 7873TIP3    H223577   7.242   4.377   3.352
 7874TIP3   OH223578   7.673   4.635   3.231
 7874TIP3    H123579   7.765   4.607   3.247
 7874TIP3    H223580   7.631   4.551   3.201
 7875TIP3   OH223581   7.596   4.223   3.767
 7875TIP3    H123582   7.536   4.259   3.698
 7875TIP3    H223583   7.542   4.239   3.847
 7876TIP3   OH223584   7.937   5.077   2.761
 7876TIP3    H123585   7.890   5.084   2.677
 7876TIP3    H223586   7.904   5.160   2.803
 7877TIP3   OH223587   7.702   4.998   3.557
 7877TIP3    H123588   7.642   5.066   3.595
 7877TIP3    H223589   7.743   5.046   3.483
 7878TIP3   OH223590   7.470   4.337   3.548
 7878TIP3    H123591   7.532   4.409   3.573
 7878TIP3    H223592   7.519   4.297   3.473
 7879TIP3   OH223593   7.532   5.194   3.658
 7879TIP3    H123594   7.507   5.281   3.620
 7879TIP3    H223595   7.452   5.177   3.713
 7880TIP3   OH223596   6.922   4.881   2.891
 7880TIP3    H123597   6.879   4.905   2.807
 7880TIP3    H223598   6.951   4.968   2.925
 7881TIP3   OH223599   8.365   5.397   3.131
 7881TIP3    H123600   8.276   5.387   3.174
 7881TIP3    H223601   8.355   5.484   3.088
 7882TIP3   OH223602   7.940   3.932   3.485
 7882TIP3    H123603   7.919   3.837   3.499
 7882TIP3    H223604   7.863   3.974   3.527
 7883TIP3   OH223605   8.066   5.440   2.808
 7883TIP3    H123606   8.116   5.360   2.784
 7883TIP3    H223607   8.126   5.508   2.769
 7884TIP3   OH223608   8.199   5.220   2.719
 7884TIP3    H123609   8.135   5.150   2.703
 7884TIP3    H223610   8.248   5.187   2.797
 7885TIP3   OH223611   8.593   5.297   3.484
 7885TIP3    H123612   8.588   5.226   3.416
 7885TIP3    H223613   8.583   5.378   3.431
 7886TIP3   OH223614   8.191   4.753   2.694
 7886TIP3    H123615   8.142   4.780   2.775
 7886TIP3    H223616   8.271   4.711   2.731
 7887TIP3   OH223617   8.446   4.802   3.618
 7887TIP3    H123618   8.470   4.887   3.658
 7887TIP3    H223619   8.356   4.820   3.585
 7888TIP3   OH223620   7.460   4.782   3.122
 7888TIP3    H123621   7.414   4.723   3.058
 7888TIP3    H223622   7.533   4.725   3.153
 7889TIP3   OH223623   7.588   5.193   3.272
 7889TIP3    H123624   7.567   5.161   3.183
 7889TIP3    H223625   7.677   5.156   3.289
 7890TIP3   OH223626   7.598   4.753   3.481
 7890TIP3    H123627   7.628   4.731   3.390
 7890TIP3    H223628   7.639   4.841   3.497
 7891TIP3   OH223629   8.126   5.391   3.256
 7891TIP3    H123630   8.109   5.475   3.304
 7891TIP3    H223631   8.105   5.323   3.323
 7892TIP3   OH223632   7.736   5.310   3.805
 7892TIP3    H123633   7.674   5.372   3.849
 7892TIP3    H223634   7.673   5.257   3.752
 7893TIP3   OH223635   7.492   4.863   3.911
 7893TIP3    H123636   7.496   4.953   3.950
 7893TIP3    H223637   7.397   4.844   3.919
 7894TIP3   OH223638   7.817   5.318   2.809
 7894TIP3    H123639   7.894   5.376   2.820
 7894TIP3    H223640   7.753   5.378   2.768
 7895TIP3   OH223641   7.530   5.476   3.890
 7895TIP3    H123642   7.495   5.482   3.799
 7895TIP3    H223643   7.449   5.455   3.941
 7896TIP3   OH223644   7.325   4.625   2.931
 7896TIP3    H123645   7.257   4.672   2.877
 7896TIP3    H223646   7.284   4.537   2.938
 7897TIP3   OH223647   8.382   5.259   2.136
 7897TIP3    H123648   8.375   5.349   2.103
 7897TIP3    H223649   8.462   5.227   2.092
 7898TIP3   OH223650   7.106   5.010   3.838
 7898TIP3    H123651   7.047   4.988   3.763
 7898TIP3    H223652   7.146   4.923   3.859
 7899TIP3   OH223653   6.963   5.199   3.478
 7899TIP3    H123654   7.057   5.198   3.459
 7899TIP3    H223655   6.953   5.284   3.525
 7900TIP3   OH223656   7.933   5.438   3.662
 7900TIP3    H123657   7.930   5.531   3.692
 7900TIP3    H223658   7.860   5.398   3.715
 7901TIP3   OH223659   7.696   5.565   2.615
 7901TIP3    H123660   7.651   5.550   2.530
 7901TIP3    H223661   7.663   5.653   2.641
 7902TIP3   OH223662   7.132   5.416   2.996
 7902TIP3    H123663   7.177   5.408   3.083
 7902TIP3    H223664   7.081   5.333   2.994
 7903TIP3   OH223665   7.893   5.472   2.251
 7903TIP3    H123666   7.952   5.404   2.212
 7903TIP3    H223667   7.932   5.483   2.340
 7904TIP3   OH223668   7.945   5.519   2.520
 7904TIP3    H123669   7.858   5.529   2.562
 7904TIP3    H223670   8.000   5.485   2.593
 7905TIP3   OH223671   7.312   5.192   3.821
 7905TIP3    H123672   7.361   5.176   3.905
 7905TIP3    H223673   7.237   5.130   3.830
 7906TIP3   OH223674   7.711   4.017   3.612
 7906TIP3    H123675   7.623   3.987   3.582
 7906TIP3    H223676   7.684   4.098   3.659
 7907TIP3   OH223677   8.231   4.142   3.813
 7907TIP3    H123678   8.276   4.093   3.883
 7907TIP3    H223679   8.138   4.126   3.837
 7908TIP3   OH223680   8.518   4.556   3.731
 7908TIP3    H123681   8.455   4.562   3.805
 7908TIP3    H223682   8.499   4.640   3.683
 7909TIP3   OH223683   8.235   4.668   2.240
 7909TIP3    H123684   8.164   4.669   2.135
 7909TIP3    H223685   8.312   4.676   2.173
 7910TIP3   OH223686   7.885   4.058   2.590
 7910TIP3    H123687   7.836   4.050   2.674
 7910TIP3    H223688   7.836   3.993   2.536
 7911TIP3   OH223689   7.646   4.533   3.630
 7911TIP3    H123690   7.593   4.553   3.710
 7911TIP3    H223691   7.630   4.614   3.577
 7912TIP3   OH223692   7.520   4.419   3.144
 7912TIP3    H123693   7.425   4.395   3.158
 7912TIP3    H223694   7.534   4.377   3.057
 7913TIP3   OH223695   8.017   4.513   2.877
 7913TIP3    H123696   7.952   4.577   2.849
 7913TIP3    H223697   8.069   4.499   2.798
 7914TIP3   OH223698   8.191   4.779   3.955
 7914TIP3    H123699   8.169   4.708   4.019
 7914TIP3    H223700   8.285   4.793   3.974
 7915TIP3   OH223701   8.164   4.537   3.110
 7915TIP3    H123702   8.103   4.549   3.034
 7915TIP3    H223703   8.207   4.455   3.080
 7916TIP3   OH223704   7.464   4.560   3.836
 7916TIP3    H123705   7.490   4.624   3.904
 7916TIP3    H223706   7.451   4.479   3.887
 7917TIP3   OH223707   7.521   4.044   2.548
 7917TIP3    H123708   7.501   4.042   2.643
 7917TIP3    H223709   7.443   4.093   2.514
 7918TIP3   OH223710   7.063   4.067   3.429
 7918TIP3    H123711   7.134   4.117   3.473
 7918TIP3    H223712   7.046   4.119   3.348
 7919TIP3   OH223713   8.163   4.790   3.534
 7919TIP3    H123714   8.204   4.724   3.474
 7919TIP3    H223715   8.139   4.732   3.609
 7920TIP3   OH223716   7.853   4.261   3.203
 7920TIP3    H123717   7.775   4.246   3.261
 7920TIP3    H223718   7.926   4.220   3.254
 7921TIP3   OH223719   7.281   4.293   3.200
 7921TIP3    H123720   7.186   4.278   3.174
 7921TIP3    H223721   7.315   4.203   3.185
 7922TIP3   OH223722   7.552   4.292   2.905
 7922TIP3    H123723   7.644   4.303   2.878
 7922TIP3    H223724   7.501   4.313   2.822
 7923TIP3   OH223725   8.269   4.337   3.400
 7923TIP3    H123726   8.256   4.341   3.497
 7923TIP3    H223727   8.338   4.268   3.392
 7924TIP3   OH223728   7.403   4.328   2.683
 7924TIP3    H123729   7.326   4.282   2.646
 7924TIP3    H223730   7.449   4.354   2.600
 7925TIP3   OH223731   8.513   6.008   3.627
 7925TIP3    H123732   8.506   6.011   3.529
 7925TIP3    H223733   8.577   6.079   3.642
 7926TIP3   OH223734   7.474   5.115   4.045
 7926TIP3    H123735   7.554   5.145   4.092
 7926TIP3    H223736   7.410   5.115   4.118
 7927TIP3   OH223737   7.940   4.573   3.306
 7927TIP3    H123738   8.003   4.521   3.253
 7927TIP3    H223739   7.939   4.523   3.390
 7928TIP3   OH223740   7.461   4.058   3.182
 7928TIP3    H123741   7.424   3.981   3.229
 7928TIP3    H223742   7.491   4.018   3.099
 7929TIP3   OH223743   7.913   4.468   3.592
 7929TIP3    H123744   7.822   4.503   3.605
 7929TIP3    H223745   7.968   4.533   3.641
 7930TIP3   OH223746   7.671   4.843   2.695
 7930TIP3    H123747   7.595   4.782   2.678
 7930TIP3    H223748   7.639   4.884   2.780
 7931TIP3   OH223749   8.550   5.088   3.302
 7931TIP3    H123750   8.563   5.111   3.209
 7931TIP3    H223751   8.462   5.047   3.298
 7932TIP3   OH223752   8.119   4.191   2.554
 7932TIP3    H123753   8.028   4.155   2.565
 7932TIP3    H223754   8.105   4.251   2.478
 7933TIP3   OH223755   8.045   5.175   3.682
 7933TIP3    H123756   8.075   5.160   3.772
 7933TIP3    H223757   8.011   5.266   3.686
 7934TIP3   OH223758   7.349   4.885   3.359
 7934TIP3    H123759   7.380   4.853   3.272
 7934TIP3    H223760   7.382   4.816   3.419
 7935TIP3   OH223761   7.796   5.003   2.527
 7935TIP3    H123762   7.765   5.092   2.505
 7935TIP3    H223763   7.716   4.971   2.573
 7936TIP3   OH223764   7.226   4.798   3.975
 7936TIP3    H123765   7.242   4.782   4.070
 7936TIP3    H223766   7.158   4.731   3.955
 7937TIP3   OH223767   7.950   4.915   3.993
 7937TIP3    H123768   7.886   4.856   3.949
 7937TIP3    H223769   8.035   4.877   3.962
 7938TIP3   OH223770   8.210   5.427   3.584
 7938TIP3    H123771   8.113   5.432   3.594
 7938TIP3    H223772   8.239   5.484   3.658
 7939TIP3   OH223773   8.302   5.334   2.396
 7939TIP3    H123774   8.316   5.276   2.472
 7939TIP3    H223775   8.336   5.283   2.320
 7940TIP3   OH223776   8.309   4.957   3.234
 7940TIP3    H123777   8.215   4.936   3.247
 7940TIP3    H223778   8.343   4.870   3.205
 7941TIP3   OH223779   7.448   5.182   2.983
 7941TIP3    H123780   7.442   5.265   2.932
 7941TIP3    H223781   7.354   5.162   2.997
 7942TIP3   OH223782   7.023   4.489   2.693
 7942TIP3    H123783   7.062   4.576   2.715
 7942TIP3    H223784   6.939   4.494   2.746
 7943TIP3   OH223785   7.587   4.946   2.931
 7943TIP3    H123786   7.550   5.035   2.949
 7943TIP3    H223787   7.544   4.895   3.002
 7944TIP3   OH223788   7.715   5.526   3.453
 7944TIP3    H123789   7.754   5.600   3.402
 7944TIP3    H223790   7.793   5.491   3.499
 7945TIP3   OH223791   7.365   5.420   2.840
 7945TIP3    H123792   7.279   5.432   2.884
 7945TIP3    H223793   7.399   5.513   2.841
 7946TIP3   OH223794   8.097   5.154   3.415
 7946TIP3    H123795   8.085   5.157   3.513
 7946TIP3    H223796   8.184   5.113   3.409
 7947TIP3   OH223797   8.060   5.061   2.310
 7947TIP3    H123798   8.112   5.025   2.384
 7947TIP3    H223799   7.971   5.036   2.331
 7948TIP3   OH223800   8.353   5.690   3.456
 7948TIP3    H123801   8.270   5.639   3.451
 7948TIP3    H223802   8.336   5.758   3.387
 7949TIP3   OH223803   7.432   4.305   3.980
 7949TIP3    H123804   7.335   4.308   3.990
 7949TIP3    H223805   7.457   4.246   4.052
 7950TIP3   OH223806   8.208   4.974   2.527
 7950TIP3    H123807   8.219   4.891   2.576
 7950TIP3    H223808   8.294   5.017   2.537
 7951TIP3   OH223809   7.152   5.389   3.613
 7951TIP3    H123810   7.207   5.317   3.647
 7951TIP3    H223811   7.183   5.464   3.664
 7952TIP3   OH223812   7.452   5.029   2.298
 7952TIP3    H123813   7.449   4.936   2.267
 7952TIP3    H223814   7.419   5.021   2.389
 7953TIP3   OH223815   7.388   5.040   2.566
 7953TIP3    H123816   7.452   5.016   2.633
 7953TIP3    H223817   7.387   5.138   2.573
 7954TIP3   OH223818   7.128   4.739   2.775
 7954TIP3    H123819   7.055   4.775   2.830
 7954TIP3    H223820   7.131   4.807   2.705
 7955TIP3   OH223821   8.272   4.380   3.676
 7955TIP3    H123822   8.360   4.408   3.704
 7955TIP3    H223823   8.258   4.298   3.727
 7956TIP3   OH223824   8.131   4.136   2.842
 7956TIP3    H123825   8.125   4.153   2.747
 7956TIP3    H223826   8.182   4.212   2.874
 7957TIP3   OH223827   7.661   5.227   2.516
 7957TIP3    H123828   7.573   5.253   2.552
 7957TIP3    H223829   7.674   5.302   2.455
 7958TIP3   OH223830   7.837   4.303   2.934
 7958TIP3    H123831   7.911   4.365   2.924
 7958TIP3    H223832   7.838   4.288   3.031
 7959TIP3   OH223833   8.110   4.616   3.735
 7959TIP3    H123834   8.137   4.664   3.815
 7959TIP3    H223835   8.166   4.536   3.738
 7960TIP3   OH223836   7.974   4.014   3.032
 7960TIP3    H123837   7.997   4.071   3.108
 7960TIP3    H223838   8.030   4.054   2.962
 7961TIP3   OH223839   7.405   5.310   2.587
 7961TIP3    H123840   7.373   5.378   2.524
 7961TIP3    H223841   7.385   5.354   2.673
 7962TIP3   OH223842   7.493   4.025   2.827
 7962TIP3    H123843   7.490   4.116   2.862
 7962TIP3    H223844   7.589   4.009   2.830
 7963TIP3   OH223845   8.398   4.696   3.145
 7963TIP3    H123846   8.314   4.659   3.114
 7963TIP3    H223847   8.407   4.649   3.229
 7964TIP3   OH223848   7.115   4.936   2.577
 7964TIP3    H123849   7.182   5.007   2.581
 7964TIP3    H223850   7.157   4.880   2.508
 7965TIP3   OH223851   7.067   4.219   2.678
 7965TIP3    H123852   7.063   4.316   2.689
 7965TIP3    H223853   6.996   4.191   2.736
 7966TIP3   OH223854   8.383   5.671   3.052
 7966TIP3    H123855   8.335   5.717   2.980
 7966TIP3    H223856   8.475   5.685   3.024
 7967TIP3   OH223857   7.448   3.939   3.582
 7967TIP3    H123858   7.418   3.904   3.495
 7967TIP3    H223859   7.438   3.860   3.639
 7968TIP3   OH223860   6.984   5.159   2.962
 7968TIP3    H123861   6.915   5.186   3.023
 7968TIP3    H223862   6.952   5.199   2.878
 7969TIP3   OH223863   7.144   5.702   4.039
 7969TIP3    H123864   7.231   5.702   4.084
 7969TIP3    H223865   7.126   5.606   4.034
 7970TIP3   OH223866   7.619   5.655   4.085
 7970TIP3    H123867   7.715   5.645   4.086
 7970TIP3    H223868   7.595   5.595   4.011
 7971TIP3   OH223869   7.607   5.237   2.207
 7971TIP3    H123870   7.553   5.161   2.240
 7971TIP3    H223871   7.679   5.190   2.161
 7972TIP3   OH223872   8.260   5.569   3.816
 7972TIP3    H123873   8.255   5.500   3.886
 7972TIP3    H223874   8.336   5.623   3.846
 7973TIP3   OH223875   8.031   5.278   2.117
 7973TIP3    H123876   8.083   5.219   2.175
 7973TIP3    H223877   8.082   5.275   2.033
 7974TIP3   OH223878   7.273   5.102   4.238
 7974TIP3    H123879   7.290   5.006   4.240
 7974TIP3    H223880   7.187   5.106   4.190
 7975TIP3   OH223881   7.250   4.757   2.426
 7975TIP3    H123882   7.300   4.716   2.498
 7975TIP3    H223883   7.318   4.755   2.354
 7976TIP3   OH223884   7.878   5.191   4.011
 7976TIP3    H123885   7.837   5.213   3.925
 7976TIP3    H223886   7.907   5.099   3.998
 7977TIP3   OH223887   7.776   4.946   2.245
 7977TIP3    H123888   7.750   4.964   2.335
 7977TIP3    H223889   7.774   4.849   2.241
 7978TIP3   OH223890   8.377   5.197   3.620
 7978TIP3    H123891   8.455   5.238   3.576
 7978TIP3    H223892   8.310   5.266   3.605
 7979TIP3   OH223893   7.392   4.842   4.220
 7979TIP3    H123894   7.468   4.791   4.190
 7979TIP3    H223895   7.422   4.874   4.307
 7980TIP3   OH223896   7.478   4.654   2.662
 7980TIP3    H123897   7.426   4.615   2.734
 7980TIP3    H223898   7.495   4.576   2.605
 7981TIP3   OH223899   7.731   4.724   3.883
 7981TIP3    H123900   7.650   4.780   3.882
 7981TIP3    H223901   7.780   4.758   3.805
 7982TIP3   OH223902   7.548   4.452   2.482
 7982TIP3    H123903   7.508   4.448   2.392
 7982TIP3    H223904   7.641   4.443   2.457
 7983TIP3   OH223905   8.247   5.126   4.016
 7983TIP3    H123906   8.315   5.091   3.957
 7983TIP3    H223907   8.239   5.057   4.083
 7984TIP3   OH223908   7.855   4.513   4.002
 7984TIP3    H123909   7.851   4.434   3.944
 7984TIP3    H223910   7.810   4.581   3.947
 7985TIP3   OH223911   7.854   4.299   3.814
 7985TIP3    H123912   7.880   4.342   3.731
 7985TIP3    H223913   7.760   4.277   3.796
 7986TIP3   OH223914   7.879   4.833   3.687
 7986TIP3    H123915   7.964   4.848   3.645
 7986TIP3    H223916   7.821   4.898   3.641
 7987TIP3   OH223917   8.462   4.804   4.067
 7987TIP3    H123918   8.509   4.720   4.059
 7987TIP3    H223919   8.522   4.866   4.024
 7988TIP3   OH223920   8.510   5.050   3.811
 7988TIP3    H123921   8.462   5.106   3.746
 7988TIP3    H223922   8.596   5.036   3.765
 7989TIP3   OH223923   7.733   4.616   4.240
 7989TIP3    H123924   7.664   4.548   4.255
 7989TIP3    H223925   7.762   4.595   4.150
 7990TIP3   OH223926   7.980   4.061   3.880
 7990TIP3    H123927   7.926   4.141   3.860
 7990TIP3    H223928   7.913   3.990   3.870
 7991TIP3   OH223929   8.112   4.559   4.097
 7991TIP3    H123930   8.090   4.546   4.191
 7991TIP3    H223931   8.024   4.539   4.058
 7992TIP3   OH223932   8.353   4.518   3.952
 7992TIP3    H123933   8.272   4.521   4.006
 7992TIP3    H223934   8.415   4.472   4.013
 7993TIP3   OH223935   8.550   4.413   4.116
 7993TIP3    H123936   8.619   4.355   4.150
 7993TIP3    H223937   8.552   4.486   4.182
 7994TIP3   OH223938   7.569   4.399   4.292
 7994TIP3    H123939   7.569   4.307   4.260
 7994TIP3    H223940   7.606   4.387   4.382
 7995TIP3   OH223941   8.083   4.074   4.135
 7995TIP3    H123942   8.132   3.990   4.134
 7995TIP3    H223943   8.038   4.070   4.049
 7996TIP3   OH223944   8.151   4.288   4.296
 7996TIP3    H123945   8.127   4.217   4.232
 7996TIP3    H223946   8.072   4.346   4.293
 7997TIP3   OH223947   7.368   5.510   2.400
 7997TIP3    H123948   7.464   5.506   2.380
 7997TIP3    H223949   7.339   5.563   2.323
 7998TIP3   OH223950   6.846   4.896   2.613
 7998TIP3    H123951   6.940   4.916   2.597
 7998TIP3    H223952   6.837   4.807   2.573
 7999TIP3   OH223953   6.762   5.508   3.028
 7999TIP3    H123954   6.696   5.446   2.988
 7999TIP3    H223955   6.806   5.448   3.092
 8000TIP3   OH223956   6.896   5.356   3.215
 8000TIP3    H123957   6.882   5.284   3.278
 8000TIP3    H223958   6.950   5.417   3.267
 8001TIP3   OH223959   8.700   5.748   3.291
 8001TIP3    H123960   8.646   5.667   3.285
 8001TIP3    H223961   8.672   5.782   3.376
 8002TIP3   OH223962   8.742   5.426   3.908
 8002TIP3    H123963   8.653   5.442   3.944
 8002TIP3    H223964   8.767   5.514   3.879
 8003TIP3   OH223965   8.532   5.523   3.322
 8003TIP3    H123966   8.464   5.570   3.374
 8003TIP3    H223967   8.478   5.478   3.254
 8004TIP3   OH223968   8.430   4.667   2.828
 8004TIP3    H123969   8.518   4.623   2.838
 8004TIP3    H223970   8.429   4.720   2.909
 8005TIP3   OH223971   7.081   4.765   3.589
 8005TIP3    H123972   7.077   4.729   3.497
 8005TIP3    H223973   7.178   4.767   3.603
 8006TIP3   OH223974   7.303   4.455   4.269
 8006TIP3    H123975   7.401   4.446   4.268
 8006TIP3    H223976   7.278   4.366   4.302
 8007TIP3   OH223977   7.266   4.151   3.605
 8007TIP3    H123978   7.324   4.073   3.604
 8007TIP3    H223979   7.331   4.222   3.588
 8008TIP3   OH223980   7.067   4.419   3.660
 8008TIP3    H123981   7.115   4.411   3.576
 8008TIP3    H223982   7.100   4.503   3.694
 8009TIP3   OH223983   7.031   3.907   3.133
 8009TIP3    H123984   6.949   3.898   3.183
 8009TIP3    H223985   7.036   4.005   3.129
 8010TIP3   OH223986   8.209   5.624   2.675
 8010TIP3    H123987   8.255   5.614   2.589
 8010TIP3    H223988   8.260   5.696   2.715
 8011TIP3   OH223989   7.270   4.004   3.979
 8011TIP3    H123990   7.217   3.995   4.060
 8011TIP3    H223991   7.204   4.040   3.917
 8012TIP3   OH223992   7.309   5.431   4.054
 8012TIP3    H123993   7.216   5.406   4.039
 8012TIP3    H223994   7.319   5.415   4.148
 8013TIP3   OH223995   7.489   5.466   3.604
 8013TIP3    H123996   7.442   5.542   3.564
 8013TIP3    H223997   7.575   5.480   3.558
 8014TIP3   OH223998   7.928   5.705   3.741
 8014TIP3    H123999   7.970   5.708   3.829
 8014TIP3    H224000   7.993   5.757   3.689
 8015TIP3   OH224001   8.107   5.859   3.605
 8015TIP3    H124002   8.178   5.816   3.555
 8015TIP3    H224003   8.159   5.917   3.665
 8016TIP3   OH224004   7.162   5.717   3.632
 8016TIP3    H124005   7.072   5.748   3.606
 8016TIP3    H224006   7.175   5.769   3.712
 8017TIP3   OH224007   7.398   5.697   3.487
 8017TIP3    H124008   7.311   5.710   3.529
 8017TIP3    H224009   7.381   5.730   3.397
 8018TIP3   OH224010   7.824   5.724   3.285
 8018TIP3    H124011   7.755   5.743   3.218
 8018TIP3    H224012   7.837   5.813   3.325
 8019TIP3   OH224013   8.092   5.657   3.338
 8019TIP3    H124014   8.000   5.683   3.318
 8019TIP3    H224015   8.141   5.731   3.297
 8020TIP3   OH224016   8.273   5.844   3.244
 8020TIP3    H124017   8.277   5.935   3.209
 8020TIP3    H224018   8.312   5.793   3.170
 8021TIP3   OH224019   7.072   5.510   3.372
 8021TIP3    H124020   7.100   5.485   3.462
 8021TIP3    H224021   7.145   5.469   3.320
 8022TIP3   OH224022   7.269   5.385   3.232
 8022TIP3    H124023   7.286   5.302   3.282
 8022TIP3    H224024   7.359   5.423   3.226
 8023TIP3   OH224025   7.535   5.476   3.236
 8023TIP3    H124026   7.567   5.385   3.225
 8023TIP3    H224027   7.583   5.501   3.318
 8024TIP3   OH224028   8.066   4.102   3.285
 8024TIP3    H124029   8.048   4.043   3.360
 8024TIP3    H224030   8.162   4.089   3.271
 8025TIP3   OH224031   7.365   3.843   3.333
 8025TIP3    H124032   7.270   3.820   3.336
 8025TIP3    H224033   7.404   3.754   3.329
 8026TIP3   OH224034   7.175   3.717   3.009
 8026TIP3    H124035   7.201   3.757   2.922
 8026TIP3    H224036   7.131   3.796   3.051
 8027TIP3   OH224037   7.807   3.869   3.219
 8027TIP3    H124038   7.856   3.916   3.150
 8027TIP3    H224039   7.831   3.920   3.298
 8028TIP3   OH224040   8.318   4.008   3.196
 8028TIP3    H124041   8.338   3.982   3.105
 8028TIP3    H224042   8.314   3.920   3.240
 8029TIP3   OH224043   6.862   5.290   2.761
 8029TIP3    H124044   6.777   5.255   2.729
 8029TIP3    H224045   6.853   5.383   2.733
 8030TIP3   OH224046   7.268   3.848   2.768
 8030TIP3    H124047   7.310   3.803   2.692
 8030TIP3    H224048   7.335   3.916   2.790
 8031TIP3   OH224049   7.770   4.052   2.845
 8031TIP3    H124050   7.831   4.004   2.904
 8031TIP3    H224051   7.794   4.144   2.869
 8032TIP3   OH224052   7.636   5.468   2.349
 8032TIP3    H124053   7.723   5.494   2.311
 8032TIP3    H224054   7.613   5.397   2.286
 8033TIP3   OH224055   8.341   5.598   2.442
 8033TIP3    H124056   8.335   5.500   2.428
 8033TIP3    H224057   8.314   5.628   2.353
 8034TIP3   OH224058   7.565   4.126   4.230
 8034TIP3    H124059   7.528   4.054   4.283
 8034TIP3    H224060   7.659   4.124   4.259
 8035TIP3   OH224061   7.817   4.121   4.348
 8035TIP3    H124062   7.901   4.090   4.313
 8035TIP3    H224063   7.798   4.054   4.417
 8036TIP3   OH224064   6.938   5.309   2.399
 8036TIP3    H124065   6.941   5.331   2.493
 8036TIP3    H224066   7.025   5.265   2.385
 8037TIP3   OH224067   8.564   5.739   3.639
 8037TIP3    H124068   8.495   5.709   3.578
 8037TIP3    H224069   8.551   5.836   3.636
 8038TIP3   OH224070   0.502   5.643   4.594
 8038TIP3    H124071   0.465   5.733   4.593
 8038TIP3    H224072   0.434   5.596   4.542
 8039TIP3   OH224073   0.528   5.620   4.958
 8039TIP3    H124074   0.537   5.600   5.053
 8039TIP3    H224075   0.468   5.550   4.928
 8040TIP3   OH224076   0.747   5.943   4.659
 8040TIP3    H124077   0.736   5.876   4.728
 8040TIP3    H224078   0.778   6.020   4.711
 8041TIP3   OH224079   0.447   6.428   4.662
 8041TIP3    H124080   0.492   6.347   4.633
 8041TIP3    H224081   0.377   6.393   4.720
 8042TIP3   OH224082   0.329   5.819   5.058
 8042TIP3    H124083   0.350   5.763   4.982
 8042TIP3    H224084   0.409   5.875   5.062
 8043TIP3   OH224085   1.314   5.173   5.017
 8043TIP3    H124086   1.335   5.254   5.068
 8043TIP3    H224087   1.346   5.197   4.929
 8044TIP3   OH224088   0.709   5.363   5.062
 8044TIP3    H124089   0.761   5.283   5.074
 8044TIP3    H224090   0.677   5.352   4.970
 8045TIP3   OH224091   0.755   5.135   4.643
 8045TIP3    H124092   0.827   5.078   4.670
 8045TIP3    H224093   0.788   5.169   4.558
 8046TIP3   OH224094   1.381   5.384   5.202
 8046TIP3    H124095   1.305   5.441   5.178
 8046TIP3    H224096   1.421   5.434   5.275
 8047TIP3   OH224097   0.370   5.874   4.477
 8047TIP3    H124098   0.344   5.835   4.391
 8047TIP3    H224099   0.450   5.923   4.453
 8048TIP3   OH224100   0.811   6.185   4.821
 8048TIP3    H124101   0.720   6.179   4.859
 8048TIP3    H224102   0.807   6.274   4.779
 8049TIP3   OH224103   0.409   4.719   5.165
 8049TIP3    H124104   0.405   4.621   5.177
 8049TIP3    H224105   0.358   4.748   5.241
 8050TIP3   OH224106   0.507   6.213   4.481
 8050TIP3    H124107   0.552   6.128   4.461
 8050TIP3    H224108   0.574   6.277   4.447
 8051TIP3   OH224109   0.627   5.977   4.412
 8051TIP3    H124110   0.665   5.918   4.345
 8051TIP3    H224111   0.683   5.959   4.491
 8052TIP3   OH224112   1.038   6.094   5.170
 8052TIP3    H124113   1.029   6.019   5.108
 8052TIP3    H224114   1.021   6.171   5.111
 8053TIP3   OH224115   0.337   5.506   4.429
 8053TIP3    H124116   0.255   5.456   4.449
 8053TIP3    H224117   0.353   5.489   4.336
 8054TIP3   OH224118   0.311   5.281   4.141
 8054TIP3    H124119   0.385   5.335   4.177
 8054TIP3    H224120   0.361   5.214   4.090
 8055TIP3   OH224121   1.234   5.734   5.014
 8055TIP3    H124122   1.152   5.787   5.016
 8055TIP3    H224123   1.268   5.758   4.925
 8056TIP3   OH224124   0.681   5.574   4.396
 8056TIP3    H124125   0.628   5.597   4.475
 8056TIP3    H224126   0.767   5.550   4.437
 8057TIP3   OH224127   0.915   5.610   5.315
 8057TIP3    H124128   0.916   5.694   5.366
 8057TIP3    H224129   0.832   5.619   5.266
 8058TIP3   OH224130   0.568   6.184   4.940
 8058TIP3    H124131   0.553   6.266   4.991
 8058TIP3    H224132   0.557   6.113   5.005
 8059TIP3   OH224133   0.525   5.429   4.222
 8059TIP3    H124134   0.577   5.493   4.275
 8059TIP3    H224135   0.551   5.454   4.130
 8060TIP3   OH224136   1.035   4.672   4.272
 8060TIP3    H124137   0.953   4.694   4.320
 8060TIP3    H224138   1.049   4.754   4.219
 8061TIP3   OH224139   0.839   6.040   3.824
 8061TIP3    H124140   0.846   6.136   3.804
 8061TIP3    H224141   0.931   6.011   3.811
 8062TIP3   OH224142   1.280   6.439   5.221
 8062TIP3    H124143   1.280   6.342   5.231
 8062TIP3    H224144   1.197   6.462   5.267
 8063TIP3   OH224145   0.355   6.266   3.936
 8063TIP3    H124146   0.411   6.192   3.907
 8063TIP3    H224147   0.363   6.266   4.032
 8064TIP3   OH224148   0.397   6.312   4.217
 8064TIP3    H124149   0.330   6.306   4.286
 8064TIP3    H224150   0.477   6.290   4.266
 8065TIP3   OH224151   1.163   5.570   5.497
 8065TIP3    H124152   1.089   5.579   5.436
 8065TIP3    H224153   1.183   5.474   5.491
 8066TIP3   OH224154   0.710   4.930   5.496
 8066TIP3    H124155   0.778   4.893   5.556
 8066TIP3    H224156   0.626   4.904   5.540
 8067TIP3   OH224157   0.925   5.346   5.411
 8067TIP3    H124158   0.882   5.351   5.498
 8067TIP3    H224159   0.913   5.436   5.375
 8068TIP3   OH224160   0.597   5.477   3.970
 8068TIP3    H124161   0.558   5.455   3.883
 8068TIP3    H224162   0.682   5.519   3.942
 8069TIP3   OH224163   0.300   4.860   4.248
 8069TIP3    H124164   0.292   4.853   4.346
 8069TIP3    H224165   0.268   4.771   4.224
 8070TIP3   OH224166   0.476   5.300   4.564
 8070TIP3    H124167   0.423   5.372   4.525
 8070TIP3    H224168   0.524   5.266   4.486
 8071TIP3   OH224169   0.623   5.321   4.803
 8071TIP3    H124170   0.563   5.354   4.733
 8071TIP3    H224171   0.660   5.245   4.753
 8072TIP3   OH224172   0.629   5.564   5.224
 8072TIP3    H124173   0.666   5.500   5.160
 8072TIP3    H224174   0.605   5.503   5.296
 8073TIP3   OH224175   0.312   5.026   4.885
 8073TIP3    H124176   0.217   5.045   4.894
 8073TIP3    H224177   0.347   5.043   4.973
 8074TIP3   OH224178   0.818   5.043   5.077
 8074TIP3    H124179   0.794   5.083   5.163
 8074TIP3    H224180   0.733   4.999   5.056
 8075TIP3   OH224181   0.398   5.346   4.992
 8075TIP3    H124182   0.471   5.316   4.935
 8075TIP3    H224183   0.417   5.300   5.076
 8076TIP3   OH224184   0.396   5.241   5.268
 8076TIP3    H124185   0.329   5.313   5.266
 8076TIP3    H224186   0.467   5.285   5.318
 8077TIP3   OH224187   1.002   5.881   5.001
 8077TIP3    H124188   1.028   5.932   4.922
 8077TIP3    H224189   0.919   5.838   4.972
 8078TIP3   OH224190   0.557   4.952   4.248
 8078TIP3    H124191   0.459   4.936   4.244
 8078TIP3    H224192   0.563   5.047   4.269
 8079TIP3   OH224193   0.489   5.966   5.371
 8079TIP3    H124194   0.530   5.977   5.456
 8079TIP3    H224195   0.436   6.048   5.364
 8080TIP3   OH224196   0.630   5.206   4.347
 8080TIP3    H124197   0.728   5.211   4.352
 8080TIP3    H224198   0.608   5.284   4.292
 8081TIP3   OH224199   0.245   5.802   4.231
 8081TIP3    H124200   0.189   5.873   4.199
 8081TIP3    H224201   0.181   5.735   4.256
 8082TIP3   OH224202   0.502   5.610   5.777
 8082TIP3    H124203   0.416   5.596   5.727
 8082TIP3    H224204   0.542   5.675   5.718
 8083TIP3   OH224205   0.664   6.216   5.266
 8083TIP3    H124206   0.568   6.229   5.274
 8083TIP3    H224207   0.696   6.269   5.342
 8084TIP3   OH224208   1.066   5.299   4.179
 8084TIP3    H124209   1.006   5.255   4.115
 8084TIP3    H224210   1.065   5.388   4.138
 8085TIP3   OH224211   1.290   6.153   5.257
 8085TIP3    H124212   1.192   6.146   5.247
 8085TIP3    H224213   1.317   6.123   5.167
 8086TIP3   OH224214   0.775   6.110   4.086
 8086TIP3    H124215   0.745   6.031   4.133
 8086TIP3    H224216   0.787   6.077   3.995
 8087TIP3   OH224217   0.774   5.743   4.919
 8087TIP3    H124218   0.681   5.714   4.930
 8087TIP3    H224219   0.809   5.666   4.870
 8088TIP3   OH224220   0.568   5.947   5.104
 8088TIP3    H124221   0.557   5.953   5.201
 8088TIP3    H224222   0.653   5.903   5.096
 8089TIP3   OH224223   0.536   5.843   3.982
 8089TIP3    H124224   0.571   5.819   4.070
 8089TIP3    H224225   0.446   5.805   3.984
 8090TIP3   OH224226   0.805   6.481   5.150
 8090TIP3    H124227   0.723   6.429   5.143
 8090TIP3    H224228   0.789   6.548   5.079
 8091TIP3   OH224229   0.869   6.314   3.804
 8091TIP3    H124230   0.903   6.386   3.749
 8091TIP3    H224231   0.789   6.358   3.839
 8092TIP3   OH224232   0.697   5.788   4.220
 8092TIP3    H124233   0.684   5.710   4.279
 8092TIP3    H224234   0.791   5.775   4.194
 8093TIP3   OH224235   0.733   5.155   5.340
 8093TIP3    H124236   0.813   5.199   5.375
 8093TIP3    H224237   0.723   5.077   5.398
 8094TIP3   OH224238   0.616   4.902   4.521
 8094TIP3    H124239   0.586   4.913   4.429
 8094TIP3    H224240   0.632   4.994   4.548
 8095TIP3   OH224241   0.294   5.098   4.620
 8095TIP3    H124242   0.357   5.171   4.608
 8095TIP3    H224243   0.291   5.090   4.717
 8096TIP3   OH224244   0.580   5.391   5.428
 8096TIP3    H124245   0.596   5.416   5.519
 8096TIP3    H224246   0.635   5.311   5.420
 8097TIP3   OH224247   0.463   4.823   4.756
 8097TIP3    H124248   0.411   4.903   4.778
 8097TIP3    H224249   0.497   4.845   4.667
 8098TIP3   OH224250   1.198   5.308   5.418
 8098TIP3    H124251   1.101   5.299   5.407
 8098TIP3    H224252   1.230   5.300   5.327
 8099TIP3   OH224253   0.852   5.503   4.795
 8099TIP3    H124254   0.776   5.445   4.811
 8099TIP3    H224255   0.924   5.459   4.844
 8100TIP3   OH224256   0.826   6.453   4.750
 8100TIP3    H124257   0.784   6.501   4.675
 8100TIP3    H224258   0.920   6.473   4.729
 8101TIP3   OH224259   0.728   6.347   5.493
 8101TIP3    H124260   0.709   6.293   5.573
 8101TIP3    H224261   0.795   6.409   5.527
 8102TIP3   OH224262   0.498   6.068   3.813
 8102TIP3    H124263   0.535   5.997   3.868
 8102TIP3    H224264   0.549   6.060   3.730
 8103TIP3   OH224265   0.256   5.744   3.932
 8103TIP3    H124266   0.204   5.758   4.011
 8103TIP3    H224267   0.241   5.649   3.917
 8104TIP3   OH224268   0.821   5.991   5.308
 8104TIP3    H124269   0.901   6.027   5.264
 8104TIP3    H224270   0.758   6.063   5.289
 8105TIP3   OH224271   0.051   5.261   4.239
 8105TIP3    H124272   0.028   5.253   4.144
 8105TIP3    H224273   0.148   5.258   4.231
 8106TIP3   OH224274   0.678   5.888   5.713
 8106TIP3    H124275   0.747   5.893   5.646
 8106TIP3    H224276   0.724   5.840   5.784
 8107TIP3   OH224277   0.831   5.567   3.851
 8107TIP3    H124278   0.812   5.524   3.765
 8107TIP3    H224279   0.799   5.658   3.829
 8108TIP3   OH224280   0.273   5.037   5.423
 8108TIP3    H124281   0.320   5.104   5.371
 8108TIP3    H224282   0.233   5.089   5.494
 8109TIP3   OH224283   0.387   5.685   5.332
 8109TIP3    H124284   0.477   5.667   5.305
 8109TIP3    H224285   0.366   5.762   5.279
 8110TIP3   OH224286   0.940   5.596   5.762
 8110TIP3    H124287   0.979   5.508   5.774
 8110TIP3    H224288   1.007   5.639   5.706
 8111TIP3   OH224289   0.953   5.842   5.491
 8111TIP3    H124290   0.898   5.898   5.431
 8111TIP3    H224291   1.042   5.863   5.455
 8112TIP3   OH224292   0.451   4.848   5.556
 8112TIP3    H124293   0.387   4.916   5.528
 8112TIP3    H224294   0.398   4.768   5.541
 8113TIP3   OH224295   0.795   5.300   5.652
 8113TIP3    H124296   0.747   5.228   5.694
 8113TIP3    H224297   0.882   5.289   5.696
 8114TIP3   OH224298   1.023   5.243   5.789
 8114TIP3    H124299   1.040   5.147   5.804
 8114TIP3    H224300   1.017   5.278   5.880
 8115TIP3   OH224301   0.538   4.862   5.820
 8115TIP3    H124302   0.601   4.787   5.823
 8115TIP3    H224303   0.498   4.849   5.732
 8116TIP3   OH224304   0.615   5.092   5.947
 8116TIP3    H124305   0.590   5.007   5.905
 8116TIP3    H224306   0.529   5.133   5.964
 8117TIP3   OH224307   1.080   6.543   4.710
 8117TIP3    H124308   1.106   6.589   4.792
 8117TIP3    H224309   1.137   6.584   4.644
 8118TIP3   OH224310   1.104   6.567   5.000
 8118TIP3    H124311   1.061   6.480   4.987
 8118TIP3    H224312   1.189   6.539   5.037
 8119TIP3   OH224313   1.155   6.246   5.560
 8119TIP3    H124314   1.083   6.258   5.625
 8119TIP3    H224315   1.199   6.333   5.563
 8120TIP3   OH224316   0.968   5.757   4.179
 8120TIP3    H124317   1.033   5.822   4.146
 8120TIP3    H224318   1.016   5.720   4.256
 8121TIP3   OH224319   1.098   5.625   4.382
 8121TIP3    H124320   1.031   5.585   4.442
 8121TIP3    H224321   1.165   5.660   4.445
 8122TIP3   OH224322   1.152   6.016   4.814
 8122TIP3    H124323   1.204   5.949   4.767
 8122TIP3    H224324   1.152   6.091   4.751
 8123TIP3   OH224325   0.980   6.313   5.010
 8123TIP3    H124326   0.908   6.360   5.055
 8123TIP3    H224327   0.933   6.269   4.936
 8124TIP3   OH224328   1.034   5.532   4.030
 8124TIP3    H124329   0.963   5.533   3.962
 8124TIP3    H224330   1.005   5.609   4.084
 8125TIP3   OH224331   0.902   5.206   3.985
 8125TIP3    H124332   0.862   5.240   3.904
 8125TIP3    H224333   0.880   5.111   3.978
 8126TIP3   OH224334   0.909   5.485   4.527
 8126TIP3    H124335   0.918   5.389   4.518
 8126TIP3    H224336   0.894   5.496   4.624
 8127TIP3   OH224337   1.199   5.906   5.388
 8127TIP3    H124338   1.271   5.839   5.377
 8127TIP3    H224339   1.225   5.974   5.323
 8128TIP3   OH224340   1.379   5.706   5.400
 8128TIP3    H124341   1.307   5.654   5.442
 8128TIP3    H224342   1.455   5.645   5.414
 8129TIP3   OH224343   0.846   4.941   3.970
 8129TIP3    H124344   0.921   4.905   4.022
 8129TIP3    H224345   0.774   4.877   3.987
 8130TIP3   OH224346   0.909   5.200   4.420
 8130TIP3    H124347   0.948   5.111   4.433
 8130TIP3    H224348   0.966   5.234   4.348
 8131TIP3   OH224349   1.061   5.384   4.924
 8131TIP3    H124350   1.147   5.399   4.878
 8131TIP3    H224351   1.085   5.414   5.013
 8132TIP3   OH224352   1.141   5.519   5.157
 8132TIP3    H124353   1.061   5.556   5.198
 8132TIP3    H224354   1.174   5.596   5.106
 8133TIP3   OH224355   1.585   5.105   5.705
 8133TIP3    H124356   1.649   5.041   5.667
 8133TIP3    H224357   1.560   5.158   5.626
 8134TIP3   OH224358   1.007   4.949   4.473
 8134TIP3    H124359   1.067   4.919   4.544
 8134TIP3    H224360   0.950   4.871   4.462
 8135TIP3   OH224361   1.457   5.244   5.506
 8135TIP3    H124362   1.370   5.283   5.527
 8135TIP3    H224363   1.428   5.169   5.450
 8136TIP3   OH224364   1.093   4.879   4.096
 8136TIP3    H124365   1.131   4.808   4.040
 8136TIP3    H224366   1.161   4.949   4.090
 8137TIP3   OH224367   0.662   6.398   4.364
 8137TIP3    H124368   0.714   6.398   4.281
 8137TIP3    H224369   0.699   6.476   4.409
 8138TIP3   OH224370   0.567   6.644   5.315
 8138TIP3    H124371   0.605   6.573   5.262
 8138TIP3    H224372   0.613   6.722   5.284
 8139TIP3   OH224373   1.363   4.996   5.396
 8139TIP3    H124374   1.273   4.962   5.380
 8139TIP3    H224375   1.414   4.912   5.386
 8140TIP3   OH224376   0.543   6.460   5.041
 8140TIP3    H124377   0.452   6.491   5.052
 8140TIP3    H224378   0.578   6.526   4.978
 8141TIP3   OH224379   0.757   6.648   4.938
 8141TIP3    H124380   0.741   6.730   4.889
 8141TIP3    H224381   0.781   6.585   4.866
 8142TIP3   OH224382   0.586   4.905   5.015
 8142TIP3    H124383   0.532   4.846   5.071
 8142TIP3    H224384   0.572   4.864   4.928
 8143TIP3   OH224385   1.160   4.907   4.717
 8143TIP3    H124386   1.229   4.847   4.678
 8143TIP3    H224387   1.202   4.991   4.686
 8144TIP3   OH224388   0.277   4.657   4.909
 8144TIP3    H124389   0.328   4.709   4.845
 8144TIP3    H224390   0.312   4.690   4.993
 8145TIP3   OH224391   0.832   4.735   4.455
 8145TIP3    H124392   0.747   4.781   4.472
 8145TIP3    H224393   0.816   4.649   4.499
 8146TIP3   OH224394   0.286   4.836   4.520
 8146TIP3    H124395   0.230   4.785   4.579
 8146TIP3    H224396   0.268   4.928   4.548
 8147TIP3   OH224397   0.805   6.380   4.130
 8147TIP3    H124398   0.797   6.282   4.117
 8147TIP3    H224399   0.761   6.413   4.049
 8148TIP3   OH224400   1.096   4.975   5.822
 8148TIP3    H124401   1.112   4.942   5.913
 8148TIP3    H224402   1.186   4.968   5.783
 8149TIP3   OH224403   1.028   6.528   5.316
 8149TIP3    H124404   0.948   6.496   5.270
 8149TIP3    H224405   1.043   6.612   5.270
 8150TIP3   OH224406   2.299   5.896   4.080
 8150TIP3    H124407   2.268   5.987   4.059
 8150TIP3    H224408   2.223   5.845   4.046
 8151TIP3   OH224409   2.296   5.898   4.467
 8151TIP3    H124410   2.333   5.873   4.554
 8151TIP3    H224411   2.258   5.815   4.436
 8152TIP3   OH224412   1.594   5.791   4.834
 8152TIP3    H124413   1.625   5.721   4.895
 8152TIP3    H224414   1.676   5.838   4.815
 8153TIP3   OH224415   2.542   6.201   4.147
 8153TIP3    H124416   2.529   6.132   4.213
 8153TIP3    H224417   2.575   6.275   4.201
 8154TIP3   OH224418   1.570   6.200   4.551
 8154TIP3    H124419   1.562   6.102   4.552
 8154TIP3    H224420   1.666   6.210   4.542
 8155TIP3   OH224421   1.273   5.397   4.335
 8155TIP3    H124422   1.229   5.482   4.352
 8155TIP3    H224423   1.202   5.350   4.287
 8156TIP3   OH224424   1.332   5.690   4.514
 8156TIP3    H124425   1.382   5.612   4.546
 8156TIP3    H224426   1.395   5.730   4.452
 8157TIP3   OH224427   2.194   6.661   4.163
 8157TIP3    H124428   2.235   6.590   4.110
 8157TIP3    H224429   2.187   6.618   4.249
 8158TIP3   OH224430   2.096   6.123   4.512
 8158TIP3    H124431   2.138   6.046   4.470
 8158TIP3    H224432   2.178   6.171   4.537
 8159TIP3   OH224433   3.112   5.441   4.508
 8159TIP3    H124434   3.142   5.524   4.549
 8159TIP3    H224435   3.140   5.455   4.416
 8160TIP3   OH224436   2.507   5.622   4.541
 8160TIP3    H124437   2.552   5.538   4.563
 8160TIP3    H224438   2.477   5.604   4.450
 8161TIP3   OH224439   1.849   5.282   4.507
 8161TIP3    H124440   1.831   5.355   4.444
 8161TIP3    H224441   1.801   5.209   4.463
 8162TIP3   OH224442   2.544   5.376   4.127
 8162TIP3    H124443   2.614   5.361   4.194
 8162TIP3    H224444   2.598   5.409   4.053
 8163TIP3   OH224445   1.480   5.483   4.615
 8163TIP3    H124446   1.563   5.466   4.663
 8163TIP3    H224447   1.496   5.429   4.534
 8164TIP3   OH224448   1.920   5.681   4.415
 8164TIP3    H124449   2.015   5.658   4.424
 8164TIP3    H224450   1.883   5.597   4.379
 8165TIP3   OH224451   3.185   5.649   4.681
 8165TIP3    H124452   3.101   5.696   4.661
 8165TIP3    H224453   3.206   5.686   4.768
 8166TIP3   OH224454   1.844   5.267   4.942
 8166TIP3    H124455   1.784   5.303   4.874
 8166TIP3    H224456   1.792   5.284   5.023
 8167TIP3   OH224457   2.183   6.115   3.951
 8167TIP3    H124458   2.147   6.104   3.862
 8167TIP3    H224459   2.141   6.199   3.979
 8168TIP3   OH224460   1.950   6.042   4.733
 8168TIP3    H124461   1.892   6.112   4.770
 8168TIP3    H224462   1.994   6.089   4.660
 8169TIP3   OH224463   2.747   5.381   4.306
 8169TIP3    H124464   2.738   5.335   4.390
 8169TIP3    H224465   2.802   5.458   4.330
 8170TIP3   OH224466   1.715   5.381   4.726
 8170TIP3    H124467   1.777   5.453   4.750
 8170TIP3    H224468   1.764   5.341   4.650
 8171TIP3   OH224469   1.780   6.240   4.835
 8171TIP3    H124470   1.755   6.326   4.797
 8171TIP3    H224471   1.700   6.223   4.889
 8172TIP3   OH224472   1.167   5.927   4.070
 8172TIP3    H124473   1.130   5.955   3.984
 8172TIP3    H224474   1.200   6.012   4.106
 8173TIP3   OH224475   2.610   6.445   4.310
 8173TIP3    H124476   2.520   6.435   4.349
 8173TIP3    H224477   2.602   6.531   4.265
 8174TIP3   OH224478   2.905   5.339   4.673
 8174TIP3    H124479   2.819   5.369   4.640
 8174TIP3    H224480   2.967   5.374   4.605
 8175TIP3   OH224481   2.194   4.984   4.656
 8175TIP3    H124482   2.178   4.891   4.679
 8175TIP3    H224483   2.118   5.026   4.703
 8176TIP3   OH224484   2.309   6.488   3.980
 8176TIP3    H124485   2.358   6.404   3.963
 8176TIP3    H224486   2.373   6.552   3.942
 8177TIP3   OH224487   2.453   6.272   3.896
 8177TIP3    H124488   2.424   6.191   3.853
 8177TIP3    H224489   2.491   6.238   3.980
 8178TIP3   OH224490   2.836   6.353   4.655
 8178TIP3    H124491   2.825   6.276   4.595
 8178TIP3    H224492   2.820   6.428   4.594
 8179TIP3   OH224493   2.129   5.748   3.914
 8179TIP3    H124494   2.051   5.802   3.893
 8179TIP3    H224495   2.176   5.746   3.829
 8180TIP3   OH224496   2.087   5.536   3.624
 8180TIP3    H124497   2.153   5.588   3.673
 8180TIP3    H224498   2.146   5.473   3.578
 8181TIP3   OH224499   3.031   5.992   4.501
 8181TIP3    H124500   2.948   6.044   4.504
 8181TIP3    H224501   3.063   6.016   4.411
 8182TIP3   OH224502   2.477   5.831   3.882
 8182TIP3    H124503   2.424   5.854   3.961
 8182TIP3    H224504   2.562   5.807   3.924
 8183TIP3   OH224505   2.711   5.868   4.801
 8183TIP3    H124506   2.709   5.951   4.852
 8183TIP3    H224507   2.625   5.874   4.754
 8184TIP3   OH224508   1.709   5.827   4.303
 8184TIP3    H124509   1.668   5.770   4.235
 8184TIP3    H224510   1.785   5.774   4.333
 8185TIP3   OH224511   1.837   6.237   4.450
 8185TIP3    H124512   1.819   6.205   4.360
 8185TIP3    H224513   1.927   6.201   4.467
 8186TIP3   OH224514   1.837   5.802   4.656
 8186TIP3    H124515   1.874   5.773   4.569
 8186TIP3    H224516   1.886   5.885   4.673
 8187TIP3   OH224517   2.368   6.438   4.432
 8187TIP3    H124518   2.358   6.518   4.487
 8187TIP3    H224519   2.353   6.365   4.496
 8188TIP3   OH224520   1.985   6.356   4.980
 8188TIP3    H124521   1.923   6.417   5.025
 8188TIP3    H224522   1.922   6.302   4.928
 8189TIP3   OH224523   2.314   5.691   3.709
 8189TIP3    H124524   2.374   5.751   3.759
 8189TIP3    H224525   2.341   5.711   3.617
 8190TIP3   OH224526   1.742   5.911   5.088
 8190TIP3    H124527   1.744   6.000   5.127
 8190TIP3    H224528   1.646   5.892   5.094
 8191TIP3   OH224529   2.061   6.367   3.986
 8191TIP3    H124530   2.144   6.417   3.994
 8191TIP3    H224531   2.002   6.430   3.943
 8192TIP3   OH224532   1.777   6.521   5.066
 8192TIP3    H124533   1.743   6.526   4.975
 8192TIP3    H224534   1.696   6.501   5.117
 8193TIP3   OH224535   2.832   4.928   3.758
 8193TIP3    H124536   2.751   4.951   3.808
 8193TIP3    H224537   2.848   5.011   3.708
 8194TIP3   OH224538   1.575   5.672   4.106
 8194TIP3    H124539   1.507   5.715   4.051
 8194TIP3    H224540   1.541   5.583   4.113
 8195TIP3   OH224541   2.634   6.294   3.308
 8195TIP3    H124542   2.642   6.391   3.292
 8195TIP3    H224543   2.726   6.265   3.296
 8196TIP3   OH224544   1.355   6.056   5.014
 8196TIP3    H124545   1.291   6.034   4.943
 8196TIP3    H224546   1.394   5.969   5.036
 8197TIP3   OH224547   1.211   6.245   4.650
 8197TIP3    H124548   1.307   6.241   4.636
 8197TIP3    H224549   1.203   6.327   4.702
 8198TIP3   OH224550   3.073   6.701   4.703
 8198TIP3    H124551   3.073   6.605   4.717
 8198TIP3    H224552   2.990   6.726   4.749
 8199TIP3   OH224553   2.180   6.485   4.837
 8199TIP3    H124554   2.177   6.577   4.869
 8199TIP3    H224555   2.109   6.443   4.891
 8200TIP3   OH224556   1.944   6.611   3.790
 8200TIP3    H124557   1.898   6.596   3.706
 8200TIP3    H224558   1.911   6.699   3.817
 8201TIP3   OH224559   1.380   6.461   4.175
 8201TIP3    H124560   1.428   6.453   4.260
 8201TIP3    H224561   1.326   6.381   4.177
 8202TIP3   OH224562   2.142   6.515   3.426
 8202TIP3    H124563   2.201   6.445   3.390
 8202TIP3    H224564   2.178   6.526   3.517
 8203TIP3   OH224565   2.195   6.564   3.696
 8203TIP3    H124566   2.107   6.573   3.738
 8203TIP3    H224567   2.247   6.527   3.768
 8204TIP3   OH224568   2.961   5.827   4.979
 8204TIP3    H124569   2.881   5.837   4.926
 8204TIP3    H224570   2.979   5.732   4.969
 8205TIP3   OH224571   1.560   6.238   4.999
 8205TIP3    H124572   1.610   6.221   5.081
 8205TIP3    H224573   1.486   6.175   5.007
 8206TIP3   OH224574   1.959   5.061   4.787
 8206TIP3    H124575   1.870   5.030   4.758
 8206TIP3    H224576   1.932   5.141   4.836
 8207TIP3   OH224577   2.498   5.175   4.982
 8207TIP3    H124578   2.568   5.146   5.044
 8207TIP3    H224579   2.415   5.155   5.031
 8208TIP3   OH224580   2.728   5.603   4.897
 8208TIP3    H124581   2.679   5.602   4.982
 8208TIP3    H224582   2.709   5.692   4.862
 8209TIP3   OH224583   2.391   5.731   3.454
 8209TIP3    H124584   2.358   5.709   3.365
 8209TIP3    H224585   2.476   5.774   3.431
 8210TIP3   OH224586   2.103   5.110   3.758
 8210TIP3    H124587   2.069   5.105   3.850
 8210TIP3    H224588   2.065   5.027   3.722
 8211TIP3   OH224589   1.890   5.579   4.804
 8211TIP3    H124590   1.843   5.601   4.886
 8211TIP3    H224591   1.874   5.660   4.750
 8212TIP3   OH224592   1.776   5.463   4.319
 8212TIP3    H124593   1.683   5.437   4.337
 8212TIP3    H224594   1.788   5.423   4.230
 8213TIP3   OH224595   2.266   5.547   4.048
 8213TIP3    H124596   2.216   5.619   4.003
 8213TIP3    H224597   2.322   5.514   3.975
 8214TIP3   OH224598   2.442   5.824   5.131
 8214TIP3    H124599   2.420   5.751   5.194
 8214TIP3    H224600   2.536   5.838   5.153
 8215TIP3   OH224601   2.421   5.574   4.284
 8215TIP3    H124602   2.360   5.602   4.213
 8215TIP3    H224603   2.458   5.495   4.240
 8216TIP3   OH224604   1.710   5.605   5.015
 8216TIP3    H124605   1.753   5.666   5.077
 8216TIP3    H224606   1.704   5.523   5.067
 8217TIP3   OH224607   1.760   5.083   3.723
 8217TIP3    H124608   1.752   5.082   3.820
 8217TIP3    H224609   1.682   5.137   3.698
 8218TIP3   OH224610   1.297   5.110   4.607
 8218TIP3    H124611   1.374   5.151   4.653
 8218TIP3    H224612   1.333   5.090   4.519
 8219TIP3   OH224613   1.270   5.106   4.113
 8219TIP3    H124614   1.317   5.141   4.034
 8219TIP3    H224615   1.210   5.182   4.130
 8220TIP3   OH224616   2.429   5.820   4.706
 8220TIP3    H124617   2.464   5.749   4.647
 8220TIP3    H224618   2.401   5.766   4.782
 8221TIP3   OH224619   2.107   5.285   4.379
 8221TIP3    H124620   2.028   5.283   4.435
 8221TIP3    H224621   2.179   5.277   4.444
 8222TIP3   OH224622   1.537   5.341   4.387
 8222TIP3    H124623   1.443   5.346   4.357
 8222TIP3    H224624   1.563   5.250   4.364
 8223TIP3   OH224625   1.802   5.336   4.078
 8223TIP3    H124626   1.897   5.350   4.058
 8223TIP3    H224627   1.757   5.358   3.993
 8224TIP3   OH224628   2.595   5.362   4.584
 8224TIP3    H124629   2.562   5.375   4.675
 8224TIP3    H224630   2.529   5.301   4.548
 8225TIP3   OH224631   1.652   5.372   3.853
 8225TIP3    H124632   1.582   5.327   3.803
 8225TIP3    H224633   1.704   5.410   3.779
 8226TIP3   OH224634   2.769   7.050   4.803
 8226TIP3    H124635   2.766   7.074   4.708
 8226TIP3    H224636   2.849   7.097   4.832
 8227TIP3   OH224637   1.722   6.160   5.222
 8227TIP3    H124638   1.804   6.189   5.268
 8227TIP3    H224639   1.659   6.161   5.297
 8228TIP3   OH224640   2.185   5.614   4.476
 8228TIP3    H124641   2.260   5.578   4.426
 8228TIP3    H224642   2.194   5.569   4.561
 8229TIP3   OH224643   1.704   5.101   4.359
 8229TIP3    H124644   1.670   5.024   4.408
 8229TIP3    H224645   1.754   5.059   4.288
 8230TIP3   OH224646   2.162   5.512   4.768
 8230TIP3    H124647   2.073   5.549   4.781
 8230TIP3    H224648   2.220   5.574   4.817
 8231TIP3   OH224649   1.898   5.900   3.860
 8231TIP3    H124650   1.826   5.835   3.849
 8231TIP3    H224651   1.878   5.934   3.951
 8232TIP3   OH224652   2.798   6.138   4.488
 8232TIP3    H124653   2.823   6.189   4.407
 8232TIP3    H224654   2.714   6.095   4.460
 8233TIP3   OH224655   2.356   5.211   3.728
 8233TIP3    H124656   2.260   5.192   3.736
 8233TIP3    H224657   2.364   5.305   3.753
 8234TIP3   OH224658   2.293   6.217   4.860
 8234TIP3    H124659   2.333   6.203   4.947
 8234TIP3    H224660   2.260   6.308   4.865
 8235TIP3   OH224661   2.425   5.462   3.830
 8235TIP3    H124662   2.521   5.466   3.846
 8235TIP3    H224663   2.408   5.543   3.778
 8236TIP3   OH224664   1.590   5.920   4.535
 8236TIP3    H124665   1.627   5.895   4.448
 8236TIP3    H224666   1.644   5.867   4.595
 8237TIP3   OH224667   2.043   6.050   3.683
 8237TIP3    H124668   1.995   6.135   3.686
 8237TIP3    H224669   1.990   5.995   3.745
 8238TIP3   OH224670   1.473   5.847   5.153
 8238TIP3    H124671   1.497   5.833   5.247
 8238TIP3    H224672   1.408   5.776   5.138
 8239TIP3   OH224673   2.202   5.959   5.170
 8239TIP3    H124674   2.143   5.901   5.119
 8239TIP3    H224675   2.290   5.924   5.143
 8240TIP3   OH224676   2.456   6.478   4.758
 8240TIP3    H124677   2.360   6.479   4.770
 8240TIP3    H224678   2.485   6.531   4.835
 8241TIP3   OH224679   2.861   5.555   3.665
 8241TIP3    H124680   2.800   5.511   3.601
 8241TIP3    H224681   2.860   5.644   3.624
 8242TIP3   OH224682   3.087   6.413   4.743
 8242TIP3    H124683   2.989   6.405   4.735
 8242TIP3    H224684   3.114   6.381   4.653
 8243TIP3   OH224685   2.567   6.371   3.572
 8243TIP3    H124686   2.544   6.300   3.633
 8243TIP3    H224687   2.583   6.324   3.488
 8244TIP3   OH224688   2.564   6.001   4.405
 8244TIP3    H124689   2.470   5.976   4.418
 8244TIP3    H224690   2.597   5.920   4.361
 8245TIP3   OH224691   1.695   6.230   4.165
 8245TIP3    H124692   1.693   6.310   4.109
 8245TIP3    H224693   1.601   6.211   4.173
 8246TIP3   OH224694   1.258   5.531   3.868
 8246TIP3    H124695   1.303   5.615   3.889
 8246TIP3    H224696   1.181   5.534   3.929
 8247TIP3   OH224697   1.823   5.990   4.103
 8247TIP3    H124698   1.792   6.081   4.124
 8247TIP3    H224699   1.791   5.940   4.180
 8248TIP3   OH224700   1.963   6.570   4.631
 8248TIP3    H124701   2.005   6.643   4.580
 8248TIP3    H224702   2.040   6.533   4.677
 8249TIP3   OH224703   1.611   6.467   4.014
 8249TIP3    H124704   1.526   6.477   4.060
 8249TIP3    H224705   1.645   6.559   4.016
 8250TIP3   OH224706   2.347   6.205   4.591
 8250TIP3    H124707   2.336   6.201   4.689
 8250TIP3    H224708   2.427   6.153   4.579
 8251TIP3   OH224709   2.328   6.100   3.476
 8251TIP3    H124710   2.382   6.074   3.554
 8251TIP3    H224711   2.240   6.072   3.505
 8252TIP3   OH224712   2.597   6.737   4.640
 8252TIP3    H124713   2.516   6.682   4.633
 8252TIP3    H224714   2.582   6.801   4.568
 8253TIP3   OH224715   2.663   6.570   3.292
 8253TIP3    H124716   2.701   6.644   3.240
 8253TIP3    H224717   2.583   6.615   3.326
 8254TIP3   OH224718   1.685   5.348   5.159
 8254TIP3    H124719   1.589   5.338   5.170
 8254TIP3    H224720   1.719   5.291   5.230
 8255TIP3   OH224721   2.488   6.033   3.691
 8255TIP3    H124722   2.478   5.965   3.761
 8255TIP3    H224723   2.585   6.028   3.677
 8256TIP3   OH224724   1.399   6.433   4.791
 8256TIP3    H124725   1.455   6.362   4.826
 8256TIP3    H224726   1.433   6.509   4.839
 8257TIP3   OH224727   1.689   6.078   3.474
 8257TIP3    H124728   1.704   5.985   3.449
 8257TIP3    H224729   1.668   6.069   3.569
 8258TIP3   OH224730   1.634   6.084   3.746
 8258TIP3    H124731   1.710   6.057   3.799
 8258TIP3    H224732   1.637   6.182   3.753
 8259TIP3   OH224733   1.367   5.775   3.950
 8259TIP3    H124734   1.301   5.821   4.006
 8259TIP3    H224735   1.381   5.843   3.882
 8260TIP3   OH224736   2.520   5.413   4.844
 8260TIP3    H124737   2.603   5.452   4.877
 8260TIP3    H224738   2.511   5.332   4.898
 8261TIP3   OH224739   2.403   5.161   4.011
 8261TIP3    H124740   2.391   5.183   3.916
 8261TIP3    H224741   2.443   5.244   4.046
 8262TIP3   OH224742   1.901   6.279   3.693
 8262TIP3    H124743   1.815   6.304   3.730
 8262TIP3    H224744   1.918   6.356   3.636
 8263TIP3   OH224745   2.085   5.347   4.110
 8263TIP3    H124746   2.150   5.418   4.092
 8263TIP3    H224747   2.093   5.337   4.207
 8264TIP3   OH224748   2.360   5.659   4.915
 8264TIP3    H124749   2.386   5.710   4.994
 8264TIP3    H224750   2.413   5.579   4.923
 8265TIP3   OH224751   2.231   5.065   4.208
 8265TIP3    H124752   2.228   5.141   4.268
 8265TIP3    H224753   2.293   5.098   4.139
 8266TIP3   OH224754   1.647   6.355   3.763
 8266TIP3    H124755   1.617   6.425   3.701
 8266TIP3    H224756   1.631   6.398   3.850
 8267TIP3   OH224757   1.745   5.071   3.999
 8267TIP3    H124758   1.744   5.161   4.037
 8267TIP3    H224759   1.841   5.051   4.007
 8268TIP3   OH224760   2.997   5.563   4.901
 8268TIP3    H124761   2.899   5.559   4.904
 8268TIP3    H224762   3.013   5.523   4.815
 8269TIP3   OH224763   2.649   5.757   4.285
 8269TIP3    H124764   2.575   5.696   4.297
 8269TIP3    H224765   2.722   5.711   4.333
 8270TIP3   OH224766   1.364   5.981   3.753
 8270TIP3    H124767   1.434   6.049   3.763
 8270TIP3    H224768   1.409   5.923   3.687
 8271TIP3   OH224769   1.303   5.260   3.890
 8271TIP3    H124770   1.307   5.358   3.887
 8271TIP3    H224771   1.227   5.241   3.834
 8272TIP3   OH224772   2.619   6.715   4.232
 8272TIP3    H124773   2.576   6.763   4.157
 8272TIP3    H224774   2.713   6.734   4.212
 8273TIP3   OH224775   1.691   4.981   4.761
 8273TIP3    H124776   1.664   4.945   4.674
 8273TIP3    H224777   1.682   4.903   4.819
 8274TIP3   OH224778   1.229   6.195   4.137
 8274TIP3    H124779   1.164   6.229   4.200
 8274TIP3    H224780   1.200   6.239   4.054
 8275TIP3   OH224781   1.392   6.743   5.219
 8275TIP3    H124782   1.480   6.748   5.263
 8275TIP3    H224783   1.382   6.647   5.210
 8276TIP3   OH224784   1.867   6.702   5.259
 8276TIP3    H124785   1.962   6.689   5.265
 8276TIP3    H224786   1.844   6.640   5.186
 8277TIP3   OH224787   1.852   6.280   3.382
 8277TIP3    H124788   1.797   6.208   3.421
 8277TIP3    H224789   1.929   6.229   3.351
 8278TIP3   OH224790   2.508   6.614   4.993
 8278TIP3    H124791   2.502   6.543   5.062
 8278TIP3    H224792   2.587   6.664   5.022
 8279TIP3   OH224793   2.288   6.318   3.298
 8279TIP3    H124794   2.331   6.256   3.358
 8279TIP3    H224795   2.345   6.315   3.219
 8280TIP3   OH224796   1.520   6.148   5.414
 8280TIP3    H124797   1.537   6.052   5.420
 8280TIP3    H224798   1.434   6.150   5.366
 8281TIP3   OH224799   1.500   5.795   3.609
 8281TIP3    H124800   1.557   5.766   3.683
 8281TIP3    H224801   1.566   5.801   3.537
 8282TIP3   OH224802   2.126   6.235   5.188
 8282TIP3    H124803   2.089   6.256   5.100
 8282TIP3    H224804   2.159   6.143   5.176
 8283TIP3   OH224805   2.012   5.997   3.414
 8283TIP3    H124806   2.015   6.009   3.511
 8283TIP3    H224807   2.013   5.899   3.408
 8284TIP3   OH224808   2.620   6.248   4.795
 8284TIP3    H124809   2.698   6.286   4.751
 8284TIP3    H224810   2.553   6.317   4.777
 8285TIP3   OH224811   1.641   5.881   5.396
 8285TIP3    H124812   1.721   5.839   5.365
 8285TIP3    H224813   1.669   5.915   5.484
 8286TIP3   OH224814   1.703   5.704   3.825
 8286TIP3    H124815   1.679   5.663   3.910
 8286TIP3    H224816   1.743   5.629   3.776
 8287TIP3   OH224817   1.971   5.761   5.052
 8287TIP3    H124818   1.897   5.826   5.056
 8287TIP3    H224819   2.026   5.798   4.980
 8288TIP3   OH224820   1.809   5.499   3.668
 8288TIP3    H124821   1.785   5.507   3.574
 8288TIP3    H224822   1.907   5.500   3.662
 8289TIP3   OH224823   2.494   6.169   5.190
 8289TIP3    H124824   2.572   6.139   5.141
 8289TIP3    H224825   2.489   6.104   5.262
 8290TIP3   OH224826   2.624   5.825   3.336
 8290TIP3    H124827   2.607   5.782   3.250
 8290TIP3    H224828   2.592   5.916   3.315
 8291TIP3   OH224829   2.097   5.557   5.183
 8291TIP3    H124830   2.101   5.477   5.125
 8291TIP3    H224831   2.054   5.622   5.124
 8292TIP3   OH224832   2.102   5.344   4.993
 8292TIP3    H124833   2.132   5.384   4.909
 8292TIP3    H224834   2.009   5.320   4.971
 8293TIP3   OH224835   2.125   5.876   4.866
 8293TIP3    H124836   2.211   5.888   4.826
 8293TIP3    H224837   2.070   5.942   4.818
 8294TIP3   OH224838   2.709   5.843   5.242
 8294TIP3    H124839   2.756   5.759   5.254
 8294TIP3    H224840   2.778   5.899   5.205
 8295TIP3   OH224841   2.750   6.099   4.980
 8295TIP3    H124842   2.693   6.154   4.921
 8295TIP3    H224843   2.838   6.119   4.941
 8296TIP3   OH224844   1.975   5.664   5.415
 8296TIP3    H124845   1.909   5.593   5.430
 8296TIP3    H224846   2.010   5.638   5.328
 8297TIP3   OH224847   2.234   5.104   5.059
 8297TIP3    H124848   2.184   5.186   5.037
 8297TIP3    H224849   2.165   5.036   5.048
 8298TIP3   OH224850   2.359   5.607   5.275
 8298TIP3    H124851   2.348   5.591   5.370
 8298TIP3    H224852   2.270   5.583   5.244
 8299TIP3   OH224853   2.598   5.561   5.130
 8299TIP3    H124854   2.525   5.560   5.194
 8299TIP3    H224855   2.674   5.530   5.184
 8300TIP3   OH224856   2.825   5.500   5.278
 8300TIP3    H124857   2.840   5.404   5.293
 8300TIP3    H224858   2.824   5.536   5.369
 8301TIP3   OH224859   1.813   5.444   5.471
 8301TIP3    H124860   1.819   5.353   5.438
 8301TIP3    H224861   1.854   5.434   5.560
 8302TIP3   OH224862   2.325   5.115   5.318
 8302TIP3    H124863   2.393   5.045   5.314
 8302TIP3    H224864   2.288   5.109   5.228
 8303TIP3   OH224865   2.395   5.330   5.475
 8303TIP3    H124866   2.374   5.258   5.412
 8303TIP3    H224867   2.315   5.387   5.468
 8304TIP3   OH224868   1.617   6.557   3.575
 8304TIP3    H124869   1.712   6.549   3.556
 8304TIP3    H224870   1.589   6.610   3.498
 8305TIP3   OH224871   1.096   5.940   3.791
 8305TIP3    H124872   1.190   5.961   3.775
 8305TIP3    H224873   1.089   5.852   3.749
 8306TIP3   OH224874   1.011   6.551   4.206
 8306TIP3    H124875   0.945   6.491   4.166
 8306TIP3    H224876   1.055   6.491   4.270
 8307TIP3   OH224877   1.147   6.397   4.391
 8307TIP3    H124878   1.134   6.328   4.459
 8307TIP3    H224879   1.200   6.461   4.441
 8308TIP3   OH224880   2.873   6.806   4.193
 8308TIP3    H124881   2.903   6.836   4.281
 8308TIP3    H224882   2.941   6.841   4.135
 8309TIP3   OH224883   2.902   6.823   4.476
 8309TIP3    H124884   2.857   6.736   4.471
 8309TIP3    H224885   2.978   6.798   4.531
 8310TIP3   OH224886   2.948   6.500   5.048
 8310TIP3    H124887   2.876   6.511   5.114
 8310TIP3    H224888   2.991   6.588   5.052
 8311TIP3   OH224889   2.765   6.013   3.666
 8311TIP3    H124890   2.831   6.078   3.634
 8311TIP3    H224891   2.810   5.976   3.745
 8312TIP3   OH224892   2.892   5.882   3.871
 8312TIP3    H124893   2.827   5.841   3.932
 8312TIP3    H224894   2.961   5.915   3.931
 8313TIP3   OH224895   2.948   6.273   4.300
 8313TIP3    H124896   3.002   6.205   4.255
 8313TIP3    H224897   2.947   6.345   4.234
 8314TIP3   OH224898   2.776   6.574   4.496
 8314TIP3    H124899   2.703   6.615   4.546
 8314TIP3    H224900   2.728   6.527   4.424
 8315TIP3   OH224901   2.829   5.788   3.516
 8315TIP3    H124902   2.757   5.791   3.449
 8315TIP3    H224903   2.802   5.864   3.571
 8316TIP3   OH224904   2.698   5.461   3.470
 8316TIP3    H124905   2.657   5.496   3.390
 8316TIP3    H224906   2.676   5.366   3.462
 8317TIP3   OH224907   2.704   5.740   4.016
 8317TIP3    H124908   2.714   5.644   4.008
 8317TIP3    H224909   2.690   5.752   4.113
 8318TIP3   OH224910   1.330   5.809   4.766
 8318TIP3    H124911   1.329   5.777   4.674
 8318TIP3    H224912   1.428   5.812   4.782
 8319TIP3   OH224913   2.996   6.163   4.874
 8319TIP3    H124914   3.067   6.096   4.864
 8319TIP3    H224915   3.022   6.230   4.808
 8320TIP3   OH224916   3.177   5.963   4.887
 8320TIP3    H124917   3.103   5.913   4.927
 8320TIP3    H224918   3.251   5.901   4.902
 8321TIP3   OH224919   2.645   5.195   3.452
 8321TIP3    H124920   2.720   5.165   3.507
 8321TIP3    H224921   2.573   5.134   3.476
 8322TIP3   OH224922   2.703   5.454   3.907
 8322TIP3    H124923   2.744   5.366   3.922
 8322TIP3    H224924   2.761   5.488   3.837
 8323TIP3   OH224925   2.862   5.626   4.405
 8323TIP3    H124926   2.948   5.650   4.363
 8323TIP3    H224927   2.878   5.663   4.494
 8324TIP3   OH224928   2.935   5.771   4.636
 8324TIP3    H124929   2.858   5.807   4.684
 8324TIP3    H224930   2.969   5.852   4.590
 8325TIP3   OH224931   1.547   5.493   5.428
 8325TIP3    H124932   1.645   5.491   5.436
 8325TIP3    H224933   1.525   5.408   5.470
 8326TIP3   OH224934   3.384   5.365   5.192
 8326TIP3    H124935   3.445   5.300   5.151
 8326TIP3    H224936   3.354   5.416   5.114
 8327TIP3   OH224937   2.810   5.205   3.948
 8327TIP3    H124938   2.860   5.189   4.031
 8327TIP3    H224939   2.750   5.128   3.948
 8328TIP3   OH224940   1.508   5.191   4.772
 8328TIP3    H124941   1.569   5.114   4.778
 8328TIP3    H224942   1.572   5.263   4.760
 8329TIP3   OH224943   1.311   5.461   4.839
 8329TIP3    H124944   1.361   5.455   4.756
 8329TIP3    H224945   1.341   5.546   4.873
 8330TIP3   OH224946   3.252   5.500   4.995
 8330TIP3    H124947   3.166   5.543   5.012
 8330TIP3    H224948   3.223   5.426   4.938
 8331TIP3   OH224949   2.888   5.137   3.581
 8331TIP3    H124950   2.931   5.066   3.528
 8331TIP3    H224951   2.956   5.207   3.581
 8332TIP3   OH224952   1.298   4.974   4.345
 8332TIP3    H124953   1.204   4.962   4.362
 8332TIP3    H224954   1.297   5.029   4.264
 8333TIP3   OH224955   2.456   6.672   3.848
 8333TIP3    H124956   2.507   6.661   3.765
 8333TIP3    H224957   2.510   6.736   3.896
 8334TIP3   OH224958   1.522   5.057   5.161
 8334TIP3    H124959   1.467   5.044   5.240
 8334TIP3    H224960   1.456   5.082   5.095
 8335TIP3   OH224961   1.556   6.479   5.230
 8335TIP3    H124962   1.464   6.448   5.217
 8335TIP3    H224963   1.571   6.459   5.323
 8336TIP3   OH224964   1.737   6.511   4.780
 8336TIP3    H124965   1.691   6.588   4.740
 8336TIP3    H224966   1.823   6.523   4.736
 8337TIP3   OH224967   2.177   6.752   4.918
 8337TIP3    H124968   2.219   6.751   5.006
 8337TIP3    H224969   2.242   6.803   4.866
 8338TIP3   OH224970   2.357   6.905   4.780
 8338TIP3    H124971   2.427   6.855   4.736
 8338TIP3    H224972   2.410   6.962   4.840
 8339TIP3   OH224973   3.154   5.263   4.878
 8339TIP3    H124974   3.064   5.252   4.842
 8339TIP3    H224975   3.189   5.171   4.869
 8340TIP3   OH224976   1.411   6.761   4.809
 8340TIP3    H124977   1.321   6.792   4.784
 8340TIP3    H224978   1.427   6.816   4.887
 8341TIP3   OH224979   1.647   6.743   4.664
 8341TIP3    H124980   1.559   6.755   4.706
 8341TIP3    H224981   1.630   6.775   4.573
 8342TIP3   OH224982   2.073   6.769   4.462
 8342TIP3    H124983   2.004   6.787   4.396
 8342TIP3    H224984   2.085   6.857   4.503
 8343TIP3   OH224985   2.343   6.708   4.515
 8343TIP3    H124986   2.249   6.727   4.494
 8343TIP3    H224987   2.388   6.781   4.469
 8344TIP3   OH224988   2.548   6.900   4.425
 8344TIP3    H124989   2.534   6.984   4.377
 8344TIP3    H224990   2.576   6.840   4.353
 8345TIP3   OH224991   1.321   6.555   4.547
 8345TIP3    H124992   1.347   6.530   4.638
 8345TIP3    H224993   1.394   6.513   4.497
 8346TIP3   OH224994   1.518   6.429   4.409
 8346TIP3    H124995   1.535   6.345   4.458
 8346TIP3    H224996   1.609   6.466   4.403
 8347TIP3   OH224997   1.784   6.521   4.414
 8347TIP3    H124998   1.816   6.430   4.401
 8347TIP3    H224999   1.833   6.545   4.495
 8348TIP3   OH225000   2.355   5.178   4.494
 8348TIP3    H125001   2.316   5.107   4.546
 8348TIP3    H225002   2.432   5.135   4.453
 8349TIP3   OH225003   2.878   5.060   4.401
 8349TIP3    H125004   2.916   5.111   4.326
 8349TIP3    H225005   2.783   5.081   4.394
 8350TIP3   OH225006   2.975   5.157   4.165
 8350TIP3    H125007   3.048   5.105   4.127
 8350TIP3    H225008   3.010   5.248   4.151
 8351TIP3   OH225009   1.604   4.887   4.513
 8351TIP3    H125010   1.511   4.857   4.515
 8351TIP3    H225011   1.652   4.802   4.509
 8352TIP3   OH225012   1.391   4.760   4.161
 8352TIP3    H125013   1.426   4.813   4.087
 8352TIP3    H225014   1.371   4.829   4.227
 8353TIP3   OH225015   2.053   4.922   4.395
 8353TIP3    H125016   2.108   4.968   4.330
 8353TIP3    H225017   2.084   4.960   4.478
 8354TIP3   OH225018   2.591   5.068   4.377
 8354TIP3    H125019   2.598   5.028   4.289
 8354TIP3    H225020   2.581   4.988   4.434
 8355TIP3   OH225021   2.628   4.992   3.940
 8355TIP3    H125022   2.541   5.035   3.956
 8355TIP3    H225023   2.614   4.906   3.984
 8356TIP3   OH225024   1.110   6.335   3.939
 8356TIP3    H125025   1.024   6.303   3.906
 8356TIP3    H225026   1.103   6.429   3.913
 8357TIP3   OH225027   1.514   4.916   3.923
 8357TIP3    H125028   1.561   4.852   3.866
 8357TIP3    H225029   1.589   4.970   3.957
 8358TIP3   OH225030   2.022   5.096   4.022
 8358TIP3    H125031   2.082   5.047   4.081
 8358TIP3    H225032   2.045   5.188   4.048
 8359TIP3   OH225033   1.884   6.514   3.523
 8359TIP3    H125034   1.972   6.537   3.487
 8359TIP3    H225035   1.862   6.440   3.462
 8360TIP3   OH225036   2.602   6.637   3.616
 8360TIP3    H125037   2.594   6.540   3.606
 8360TIP3    H225038   2.557   6.668   3.535
 8361TIP3   OH225039   1.814   5.169   5.404
 8361TIP3    H125040   1.779   5.097   5.459
 8361TIP3    H225041   1.909   5.168   5.432
 8362TIP3   OH225042   2.065   5.167   5.521
 8362TIP3    H125043   2.150   5.141   5.482
 8362TIP3    H225044   2.054   5.097   5.590
 8363TIP3   OH225045   1.185   6.350   3.575
 8363TIP3    H125046   1.188   6.378   3.668
 8363TIP3    H225047   1.274   6.309   3.562
 8364TIP3   OH225048   2.891   5.230   5.309
 8364TIP3    H125049   2.909   5.198   5.400
 8364TIP3    H225050   2.981   5.224   5.269
 8365TIP3   OH225051   2.825   6.780   4.803
 8365TIP3    H125052   2.748   6.750   4.751
 8365TIP3    H225053   2.806   6.876   4.808
 8366TIP3   OH225054   4.103   6.159   3.560
 8366TIP3    H125055   4.066   6.247   3.539
 8366TIP3    H225056   4.023   6.105   3.565
 8367TIP3   OH225057   4.100   6.148   3.940
 8367TIP3    H125058   4.116   6.106   4.025
 8367TIP3    H225059   4.021   6.096   3.911
 8368TIP3   OH225060   3.391   6.050   4.320
 8368TIP3    H125061   3.420   5.980   4.381
 8368TIP3    H225062   3.475   6.088   4.293
 8369TIP3   OH225063   4.341   6.458   3.632
 8369TIP3    H125064   4.318   6.386   3.692
 8369TIP3    H225065   4.370   6.528   3.692
 8370TIP3   OH225066   3.366   6.455   4.036
 8370TIP3    H125067   3.359   6.357   4.035
 8370TIP3    H225068   3.462   6.465   4.030
 8371TIP3   OH225069   3.065   5.654   3.818
 8371TIP3    H125070   3.024   5.740   3.837
 8371TIP3    H225071   2.991   5.608   3.774
 8372TIP3   OH225072   3.130   5.945   3.998
 8372TIP3    H125073   3.179   5.867   4.032
 8372TIP3    H225074   3.196   5.985   3.940
 8373TIP3   OH225075   3.992   6.918   3.651
 8373TIP3    H125076   4.032   6.847   3.597
 8373TIP3    H225077   3.983   6.874   3.736
 8374TIP3   OH225078   3.888   6.380   4.000
 8374TIP3    H125079   3.915   6.297   3.958
 8374TIP3    H225080   3.976   6.419   4.018
 8375TIP3   OH225081   4.911   5.698   3.998
 8375TIP3    H125082   4.939   5.783   4.038
 8375TIP3    H225083   4.925   5.717   3.903
 8376TIP3   OH225084   4.309   5.881   4.028
 8376TIP3    H125085   4.344   5.792   4.043
 8376TIP3    H225086   4.267   5.870   3.940
 8377TIP3   OH225087   3.643   5.548   3.988
 8377TIP3    H125088   3.624   5.626   3.932
 8377TIP3    H225089   3.590   5.480   3.940
 8378TIP3   OH225090   4.341   5.621   3.614
 8378TIP3    H125091   4.411   5.610   3.682
 8378TIP3    H225092   4.392   5.666   3.544
 8379TIP3   OH225093   3.277   5.739   4.102
 8379TIP3    H125094   3.362   5.725   4.147
 8379TIP3    H225095   3.290   5.681   4.024
 8380TIP3   OH225096   4.983   5.910   4.165
 8380TIP3    H125097   4.898   5.954   4.144
 8380TIP3    H225098   4.994   5.936   4.257
 8381TIP3   OH225099   3.636   5.521   4.430
 8381TIP3    H125100   3.582   5.561   4.359
 8381TIP3    H225101   3.582   5.543   4.508
 8382TIP3   OH225102   3.985   6.379   3.434
 8382TIP3    H125103   3.939   6.357   3.352
 8382TIP3    H225104   3.937   6.459   3.462
 8383TIP3   OH225105   3.747   6.297   4.222
 8383TIP3    H125106   3.688   6.367   4.256
 8383TIP3    H225107   3.789   6.341   4.145
 8384TIP3   OH225108   4.547   5.633   3.795
 8384TIP3    H125109   4.515   5.599   3.879
 8384TIP3    H225110   4.593   5.715   3.822
 8385TIP3   OH225111   3.511   5.635   4.211
 8385TIP3    H125112   3.571   5.709   4.236
 8385TIP3    H225113   3.559   5.600   4.134
 8386TIP3   OH225114   3.576   6.497   4.323
 8386TIP3    H125115   3.550   6.583   4.285
 8386TIP3    H225116   3.497   6.477   4.376
 8387TIP3   OH225117   2.964   6.185   3.557
 8387TIP3    H125118   2.927   6.214   3.472
 8387TIP3    H225119   2.999   6.268   3.593
 8388TIP3   OH225120   4.408   6.702   3.799
 8388TIP3    H125121   4.318   6.691   3.838
 8388TIP3    H225122   4.397   6.788   3.753
 8389TIP3   OH225123   4.699   5.597   4.162
 8389TIP3    H125124   4.611   5.621   4.129
 8389TIP3    H225125   4.757   5.631   4.091
 8390TIP3   OH225126   3.994   5.239   4.146
 8390TIP3    H125127   3.974   5.145   4.162
 8390TIP3    H225128   3.917   5.281   4.192
 8391TIP3   OH225129   4.105   6.745   3.467
 8391TIP3    H125130   4.155   6.661   3.451
 8391TIP3    H225131   4.170   6.808   3.428
 8392TIP3   OH225132   4.252   6.530   3.382
 8392TIP3    H125133   4.208   6.451   3.349
 8392TIP3    H225134   4.292   6.497   3.466
 8393TIP3   OH225135   4.634   6.609   4.141
 8393TIP3    H125136   4.620   6.531   4.082
 8393TIP3    H225137   4.615   6.684   4.080
 8394TIP3   OH225138   3.921   5.997   3.397
 8394TIP3    H125139   3.846   6.056   3.380
 8394TIP3    H225140   3.972   6.003   3.315
 8395TIP3   OH225141   3.882   5.793   3.110
 8395TIP3    H125142   3.945   5.843   3.163
 8395TIP3    H225143   3.942   5.731   3.064
 8396TIP3   OH225144   4.829   6.252   3.989
 8396TIP3    H125145   4.743   6.300   3.993
 8396TIP3    H225146   4.858   6.276   3.898
 8397TIP3   OH225147   4.277   6.087   3.365
 8397TIP3    H125148   4.219   6.111   3.442
 8397TIP3    H225149   4.359   6.063   3.412
 8398TIP3   OH225150   4.510   6.125   4.285
 8398TIP3    H125151   4.502   6.210   4.332
 8398TIP3    H225152   4.422   6.122   4.241
 8399TIP3   OH225153   3.523   6.068   3.792
 8399TIP3    H125154   3.482   6.012   3.723
 8399TIP3    H225155   3.603   6.015   3.816
 8400TIP3   OH225156   3.635   6.498   3.936
 8400TIP3    H125157   3.616   6.459   3.849
 8400TIP3    H225158   3.723   6.460   3.955
 8401TIP3   OH225159   3.637   6.056   4.139
 8401TIP3    H125160   3.693   6.023   4.063
 8401TIP3    H225161   3.685   6.140   4.156
 8402TIP3   OH225162   4.166   6.695   3.919
 8402TIP3    H125163   4.155   6.772   3.977
 8402TIP3    H225164   4.151   6.619   3.979
 8403TIP3   OH225165   3.781   6.613   4.467
 8403TIP3    H125166   3.718   6.673   4.512
 8403TIP3    H225167   3.718   6.559   4.415
 8404TIP3   OH225168   4.112   5.947   3.196
 8404TIP3    H125169   4.172   6.006   3.246
 8404TIP3    H225170   4.139   5.968   3.103
 8405TIP3   OH225171   3.538   6.168   4.577
 8405TIP3    H125172   3.539   6.258   4.616
 8405TIP3    H225173   3.443   6.148   4.579
 8406TIP3   OH225174   3.856   6.625   3.472
 8406TIP3    H125175   3.940   6.674   3.481
 8406TIP3    H225176   3.798   6.688   3.429
 8407TIP3   OH225177   3.573   6.779   4.553
 8407TIP3    H125178   3.539   6.781   4.462
 8407TIP3    H225179   3.492   6.757   4.605
 8408TIP3   OH225180   4.629   5.184   3.248
 8408TIP3    H125181   4.547   5.208   3.296
 8408TIP3    H225182   4.645   5.267   3.197
 8409TIP3   OH225183   3.375   5.932   3.584
 8409TIP3    H125184   3.299   5.968   3.534
 8409TIP3    H225185   3.344   5.844   3.608
 8410TIP3   OH225186   4.429   6.552   2.795
 8410TIP3    H125187   4.438   6.648   2.779
 8410TIP3    H225188   4.522   6.522   2.782
 8411TIP3   OH225189   3.151   6.313   4.500
 8411TIP3    H125190   3.087   6.290   4.430
 8411TIP3    H225191   3.191   6.227   4.523
 8412TIP3   OH225192   3.008   6.504   4.131
 8412TIP3    H125193   3.103   6.493   4.120
 8412TIP3    H225194   3.004   6.581   4.189
 8413TIP3   OH225195   4.871   6.959   4.190
 8413TIP3    H125196   4.870   6.862   4.204
 8413TIP3    H225197   4.787   6.984   4.236
 8414TIP3   OH225198   3.975   6.742   4.324
 8414TIP3    H125199   3.972   6.834   4.356
 8414TIP3    H225200   3.904   6.701   4.377
 8415TIP3   OH225201   3.740   6.869   3.275
 8415TIP3    H125202   3.693   6.851   3.192
 8415TIP3    H225203   3.706   6.956   3.301
 8416TIP3   OH225204   3.176   6.718   3.663
 8416TIP3    H125205   3.224   6.709   3.748
 8416TIP3    H225206   3.127   6.634   3.661
 8417TIP3   OH225207   3.939   6.772   2.913
 8417TIP3    H125208   3.997   6.702   2.878
 8417TIP3    H225209   3.973   6.782   3.004
 8418TIP3   OH225210   3.991   6.820   3.183
 8418TIP3    H125211   3.903   6.829   3.225
 8418TIP3    H225212   4.042   6.780   3.255
 8419TIP3   OH225213   4.759   6.086   4.463
 8419TIP3    H125214   4.675   6.096   4.414
 8419TIP3    H225215   4.775   5.990   4.454
 8420TIP3   OH225216   3.355   6.497   4.486
 8420TIP3    H125217   3.406   6.478   4.567
 8420TIP3    H225218   3.282   6.432   4.493
 8421TIP3   OH225219   3.756   5.314   4.275
 8421TIP3    H125220   3.666   5.287   4.247
 8421TIP3    H225221   3.735   5.400   4.317
 8422TIP3   OH225222   4.293   5.432   4.467
 8422TIP3    H125223   4.360   5.404   4.532
 8422TIP3    H225224   4.209   5.412   4.513
 8423TIP3   OH225225   4.531   5.864   4.390
 8423TIP3    H125226   4.476   5.861   4.471
 8423TIP3    H225227   4.503   5.948   4.349
 8424TIP3   OH225228   4.189   5.989   2.940
 8424TIP3    H125229   4.154   5.966   2.852
 8424TIP3    H225230   4.273   6.032   2.917
 8425TIP3   OH225231   3.899   5.366   3.245
 8425TIP3    H125232   3.867   5.363   3.337
 8425TIP3    H225233   3.860   5.283   3.211
 8426TIP3   OH225234   3.677   5.833   4.287
 8426TIP3    H125235   3.635   5.864   4.369
 8426TIP3    H225236   3.670   5.913   4.230
 8427TIP3   OH225237   3.542   5.714   3.799
 8427TIP3    H125238   3.456   5.674   3.820
 8427TIP3    H225239   3.564   5.673   3.713
 8428TIP3   OH225240   4.060   5.797   3.529
 8428TIP3    H125241   4.009   5.873   3.492
 8428TIP3    H225242   4.116   5.772   3.454
 8429TIP3   OH225243   4.239   6.083   4.623
 8429TIP3    H125244   4.216   6.009   4.683
 8429TIP3    H225245   4.333   6.093   4.642
 8430TIP3   OH225246   4.236   5.840   3.766
 8430TIP3    H125247   4.151   5.869   3.729
 8430TIP3    H225248   4.251   5.758   3.716
 8431TIP3   OH225249   3.501   5.866   4.503
 8431TIP3    H125250   3.547   5.924   4.566
 8431TIP3    H225251   3.498   5.782   4.552
 8432TIP3   OH225252   3.555   5.339   3.209
 8432TIP3    H125253   3.549   5.339   3.307
 8432TIP3    H225254   3.479   5.396   3.186
 8433TIP3   OH225255   3.103   5.379   4.084
 8433TIP3    H125256   3.175   5.418   4.139
 8433TIP3    H225257   3.148   5.358   4.001
 8434TIP3   OH225258   3.064   5.362   3.600
 8434TIP3    H125259   3.113   5.397   3.522
 8434TIP3    H225260   3.006   5.438   3.618
 8435TIP3   OH225261   4.246   6.081   4.196
 8435TIP3    H125262   4.270   6.011   4.131
 8435TIP3    H225263   4.208   6.025   4.268
 8436TIP3   OH225264   3.903   5.527   3.868
 8436TIP3    H125265   3.818   5.533   3.916
 8436TIP3    H225266   3.961   5.578   3.926
 8437TIP3   OH225267   3.318   5.580   3.884
 8437TIP3    H125268   3.226   5.590   3.850
 8437TIP3    H225269   3.346   5.492   3.853
 8438TIP3   OH225270   3.599   5.586   3.563
 8438TIP3    H125271   3.693   5.609   3.551
 8438TIP3    H225272   3.557   5.615   3.479
 8439TIP3   OH225273   4.392   5.615   4.069
 8439TIP3    H125274   4.360   5.633   4.160
 8439TIP3    H225275   4.320   5.555   4.039
 8440TIP3   OH225276   3.446   5.630   3.338
 8440TIP3    H125277   3.376   5.585   3.287
 8440TIP3    H225278   3.499   5.669   3.266
 8441TIP3   OH225279   4.565   7.307   4.289
 8441TIP3    H125280   4.562   7.330   4.195
 8441TIP3    H225281   4.645   7.354   4.320
 8442TIP3   OH225282   3.518   6.419   4.708
 8442TIP3    H125283   3.599   6.446   4.756
 8442TIP3    H225284   3.454   6.416   4.782
 8443TIP3   OH225285   3.497   5.360   3.842
 8443TIP3    H125286   3.467   5.281   3.892
 8443TIP3    H225287   3.553   5.322   3.774
 8444TIP3   OH225288   3.955   5.750   4.292
 8444TIP3    H125289   3.877   5.790   4.252
 8444TIP3    H225290   4.019   5.822   4.295
 8445TIP3   OH225291   3.693   6.158   3.345
 8445TIP3    H125292   3.622   6.091   3.334
 8445TIP3    H225293   3.673   6.191   3.437
 8446TIP3   OH225294   4.592   6.392   3.975
 8446TIP3    H125295   4.614   6.443   3.894
 8446TIP3    H225296   4.508   6.348   3.950
 8447TIP3   OH225297   4.151   5.468   3.210
 8447TIP3    H125298   4.055   5.450   3.222
 8447TIP3    H225299   4.161   5.561   3.237
 8448TIP3   OH225300   4.100   6.480   4.343
 8448TIP3    H125301   4.122   6.454   4.432
 8448TIP3    H225302   4.056   6.566   4.354
 8449TIP3   OH225303   4.224   5.716   3.311
 8449TIP3    H125304   4.319   5.725   3.331
 8449TIP3    H225305   4.205   5.799   3.262
 8450TIP3   OH225306   3.394   6.174   4.014
 8450TIP3    H125307   3.435   6.145   3.930
 8450TIP3    H225308   3.448   6.123   4.077
 8451TIP3   OH225309   3.839   6.305   3.169
 8451TIP3    H125310   3.791   6.391   3.174
 8451TIP3    H225311   3.785   6.250   3.230
 8452TIP3   OH225312   3.268   6.104   4.640
 8452TIP3    H125313   3.290   6.087   4.734
 8452TIP3    H225314   3.203   6.033   4.622
 8453TIP3   OH225315   3.997   6.216   4.657
 8453TIP3    H125316   3.938   6.162   4.604
 8453TIP3    H225317   4.084   6.180   4.629
 8454TIP3   OH225318   4.254   6.745   4.239
 8454TIP3    H125319   4.158   6.734   4.254
 8454TIP3    H225320   4.280   6.792   4.320
 8455TIP3   OH225321   4.662   5.811   3.150
 8455TIP3    H125322   4.600   5.767   3.087
 8455TIP3    H225323   4.659   5.901   3.111
 8456TIP3   OH225324   4.884   6.670   4.229
 8456TIP3    H125325   4.786   6.662   4.221
 8456TIP3    H225326   4.910   6.637   4.140
 8457TIP3   OH225327   4.366   6.627   3.061
 8457TIP3    H125328   4.338   6.558   3.122
 8457TIP3    H225329   4.378   6.579   2.977
 8458TIP3   OH225330   4.358   6.255   3.893
 8458TIP3    H125331   4.265   6.226   3.907
 8458TIP3    H225332   4.393   6.175   3.849
 8459TIP3   OH225333   3.489   6.487   3.655
 8459TIP3    H125334   3.488   6.566   3.597
 8459TIP3    H225335   3.396   6.464   3.659
 8460TIP3   OH225336   3.053   5.786   3.353
 8460TIP3    H125337   3.099   5.870   3.375
 8460TIP3    H225338   2.977   5.790   3.416
 8461TIP3   OH225339   3.617   6.246   3.587
 8461TIP3    H125340   3.584   6.333   3.617
 8461TIP3    H225341   3.604   6.191   3.667
 8462TIP3   OH225342   3.759   6.827   4.118
 8462TIP3    H125343   3.803   6.899   4.067
 8462TIP3    H225344   3.835   6.787   4.163
 8463TIP3   OH225345   3.405   6.725   3.499
 8463TIP3    H125346   3.321   6.734   3.548
 8463TIP3    H225347   3.438   6.818   3.503
 8464TIP3   OH225348   4.145   6.461   4.074
 8464TIP3    H125349   4.135   6.459   4.172
 8464TIP3    H225350   4.217   6.397   4.061
 8465TIP3   OH225351   4.123   6.358   2.961
 8465TIP3    H125352   4.178   6.332   3.039
 8465TIP3    H225353   4.036   6.327   2.990
 8466TIP3   OH225354   4.394   6.993   4.128
 8466TIP3    H125355   4.316   6.935   4.125
 8466TIP3    H225356   4.375   7.056   4.055
 8467TIP3   OH225357   4.460   6.828   2.777
 8467TIP3    H125358   4.500   6.904   2.731
 8467TIP3    H225359   4.380   6.871   2.812
 8468TIP3   OH225360   3.477   5.607   4.644
 8468TIP3    H125361   3.381   5.607   4.655
 8468TIP3    H225362   3.506   5.549   4.716
 8469TIP3   OH225363   4.284   6.287   3.173
 8469TIP3    H125364   4.272   6.223   3.245
 8469TIP3    H225365   4.382   6.283   3.163
 8470TIP3   OH225366   3.195   6.688   4.276
 8470TIP3    H125367   3.250   6.614   4.308
 8470TIP3    H225368   3.227   6.760   4.332
 8471TIP3   OH225369   3.484   6.335   2.961
 8471TIP3    H125370   3.499   6.243   2.935
 8471TIP3    H225371   3.464   6.325   3.056
 8472TIP3   OH225372   3.429   6.340   3.234
 8472TIP3    H125373   3.504   6.310   3.286
 8472TIP3    H225374   3.435   6.438   3.243
 8473TIP3   OH225375   3.159   6.030   3.435
 8473TIP3    H125376   3.095   6.076   3.492
 8473TIP3    H225377   3.177   6.098   3.368
 8474TIP3   OH225378   4.321   5.672   4.331
 8474TIP3    H125379   4.402   5.706   4.370
 8474TIP3    H225380   4.305   5.590   4.382
 8475TIP3   OH225381   4.202   5.412   3.495
 8475TIP3    H125382   4.186   5.439   3.403
 8475TIP3    H225383   4.242   5.494   3.534
 8476TIP3   OH225384   3.698   6.536   3.180
 8476TIP3    H125385   3.611   6.560   3.218
 8476TIP3    H225386   3.713   6.611   3.120
 8477TIP3   OH225387   3.880   5.603   3.598
 8477TIP3    H125388   3.944   5.675   3.577
 8477TIP3    H225389   3.884   5.603   3.695
 8478TIP3   OH225390   4.162   5.923   4.398
 8478TIP3    H125391   4.185   5.969   4.480
 8478TIP3    H225392   4.205   5.837   4.408
 8479TIP3   OH225393   4.024   5.324   3.700
 8479TIP3    H125394   4.000   5.403   3.753
 8479TIP3    H225395   4.088   5.362   3.635
 8480TIP3   OH225396   3.444   6.613   3.250
 8480TIP3    H125397   3.413   6.683   3.188
 8480TIP3    H225398   3.427   6.655   3.337
 8481TIP3   OH225399   3.543   5.326   3.485
 8481TIP3    H125400   3.543   5.417   3.522
 8481TIP3    H225401   3.639   5.306   3.494
 8482TIP3   OH225402   4.796   5.817   4.383
 8482TIP3    H125403   4.698   5.819   4.394
 8482TIP3    H225404   4.802   5.773   4.298
 8483TIP3   OH225405   4.452   6.017   3.771
 8483TIP3    H125406   4.372   5.961   3.778
 8483TIP3    H225407   4.517   5.965   3.821
 8484TIP3   OH225408   3.161   6.239   3.239
 8484TIP3    H125409   3.234   6.303   3.250
 8484TIP3    H225410   3.204   6.179   3.173
 8485TIP3   OH225411   3.099   5.516   3.376
 8485TIP3    H125412   3.107   5.614   3.373
 8485TIP3    H225413   3.018   5.501   3.326
 8486TIP3   OH225414   4.415   6.973   3.719
 8486TIP3    H125415   4.373   7.020   3.644
 8486TIP3    H225416   4.510   6.991   3.698
 8487TIP3   OH225417   3.488   5.238   4.247
 8487TIP3    H125418   3.461   5.205   4.159
 8487TIP3    H225419   3.478   5.160   4.303
 8488TIP3   OH225420   3.028   6.457   3.624
 8488TIP3    H125421   2.962   6.486   3.688
 8488TIP3    H225422   2.996   6.499   3.541
 8489TIP3   OH225423   3.189   7.003   4.701
 8489TIP3    H125424   3.276   7.003   4.746
 8489TIP3    H225425   3.171   6.908   4.698
 8490TIP3   OH225426   3.665   6.959   4.744
 8490TIP3    H125427   3.760   6.941   4.750
 8490TIP3    H225428   3.639   6.898   4.672
 8491TIP3   OH225429   3.649   6.537   2.870
 8491TIP3    H125430   3.593   6.465   2.909
 8491TIP3    H225431   3.725   6.485   2.838
 8492TIP3   OH225432   4.304   6.871   4.480
 8492TIP3    H125433   4.298   6.800   4.548
 8492TIP3    H225434   4.383   6.920   4.509
 8493TIP3   OH225435   4.085   6.576   2.785
 8493TIP3    H125436   4.124   6.510   2.846
 8493TIP3    H225437   4.143   6.570   2.707
 8494TIP3   OH225438   3.316   6.405   4.901
 8494TIP3    H125439   3.333   6.309   4.906
 8494TIP3    H225440   3.230   6.407   4.853
 8495TIP3   OH225441   3.296   6.051   3.097
 8495TIP3    H125442   3.353   6.021   3.170
 8495TIP3    H225443   3.363   6.057   3.025
 8496TIP3   OH225444   3.922   6.491   4.675
 8496TIP3    H125445   3.883   6.511   4.587
 8496TIP3    H225446   3.954   6.399   4.664
 8497TIP3   OH225447   3.808   6.253   2.901
 8497TIP3    H125448   3.811   6.265   2.998
 8497TIP3    H225449   3.810   6.155   2.895
 8498TIP3   OH225450   4.419   6.504   4.286
 8498TIP3    H125451   4.493   6.547   4.239
 8498TIP3    H225452   4.346   6.564   4.264
 8499TIP3   OH225453   3.436   6.142   4.884
 8499TIP3    H125454   3.514   6.096   4.851
 8499TIP3    H225455   3.467   6.173   4.971
 8500TIP3   OH225456   3.496   5.963   3.310
 8500TIP3    H125457   3.476   5.928   3.398
 8500TIP3    H225458   3.537   5.885   3.266
 8501TIP3   OH225459   3.767   6.019   4.544
 8501TIP3    H125460   3.692   6.083   4.545
 8501TIP3    H225461   3.822   6.055   4.471
 8502TIP3   OH225462   3.605   5.755   3.155
 8502TIP3    H125463   3.581   5.763   3.060
 8502TIP3    H225464   3.703   5.757   3.150
 8503TIP3   OH225465   4.292   6.427   4.678
 8503TIP3    H125466   4.365   6.393   4.625
 8503TIP3    H225467   4.284   6.360   4.748
 8504TIP3   OH225468   4.423   6.082   2.822
 8504TIP3    H125469   4.404   6.038   2.737
 8504TIP3    H225470   4.389   6.172   2.801
 8505TIP3   OH225471   3.896   5.814   4.669
 8505TIP3    H125472   3.895   5.732   4.614
 8505TIP3    H225473   3.853   5.878   4.609
 8506TIP3   OH225474   3.892   5.589   4.499
 8506TIP3    H125475   3.923   5.641   4.422
 8506TIP3    H225476   3.800   5.569   4.472
 8507TIP3   OH225477   3.922   6.140   4.363
 8507TIP3    H125478   4.002   6.134   4.310
 8507TIP3    H225479   3.866   6.199   4.308
 8508TIP3   OH225480   4.505   6.100   4.730
 8508TIP3    H125481   4.552   6.015   4.738
 8508TIP3    H225482   4.573   6.157   4.691
 8509TIP3   OH225483   4.547   6.356   4.471
 8509TIP3    H125484   4.489   6.410   4.411
 8509TIP3    H225485   4.634   6.375   4.431
 8510TIP3   OH225486   3.775   5.919   4.903
 8510TIP3    H125487   3.707   5.850   4.917
 8510TIP3    H225488   3.807   5.898   4.814
 8511TIP3   OH225489   4.032   5.356   4.548
 8511TIP3    H125490   3.981   5.438   4.529
 8511TIP3    H225491   3.964   5.288   4.535
 8512TIP3   OH225492   4.156   5.862   4.761
 8512TIP3    H125493   4.138   5.847   4.856
 8512TIP3    H225494   4.067   5.840   4.725
 8513TIP3   OH225495   4.395   5.818   4.618
 8513TIP3    H125496   4.320   5.817   4.680
 8513TIP3    H225497   4.469   5.787   4.674
 8514TIP3   OH225498   4.625   5.757   4.766
 8514TIP3    H125499   4.638   5.661   4.781
 8514TIP3    H225500   4.622   5.793   4.857
 8515TIP3   OH225501   3.611   5.700   4.957
 8515TIP3    H125502   3.616   5.610   4.922
 8515TIP3    H225503   3.650   5.688   5.046
 8516TIP3   OH225504   4.122   5.370   4.806
 8516TIP3    H125505   4.189   5.299   4.799
 8516TIP3    H225506   4.083   5.367   4.716
 8517TIP3   OH225507   4.191   5.585   4.963
 8517TIP3    H125508   4.170   5.514   4.899
 8517TIP3    H225509   4.112   5.644   4.955
 8518TIP3   OH225510   3.413   6.818   3.063
 8518TIP3    H125511   3.508   6.807   3.044
 8518TIP3    H225512   3.386   6.868   2.984
 8519TIP3   OH225513   2.892   6.198   3.275
 8519TIP3    H125514   2.987   6.220   3.261
 8519TIP3    H225515   2.886   6.109   3.236
 8520TIP3   OH225516   2.807   6.809   3.694
 8520TIP3    H125517   2.742   6.748   3.654
 8520TIP3    H225518   2.852   6.750   3.758
 8521TIP3   OH225519   2.941   6.656   3.880
 8521TIP3    H125520   2.931   6.585   3.945
 8521TIP3    H225521   2.995   6.718   3.932
 8522TIP3   OH225522   4.670   7.061   3.680
 8522TIP3    H125523   4.697   7.091   3.768
 8522TIP3    H225524   4.737   7.100   3.622
 8523TIP3   OH225525   4.698   7.080   3.962
 8523TIP3    H125526   4.652   6.993   3.958
 8523TIP3    H225527   4.773   7.055   4.018
 8524TIP3   OH225528   4.745   6.757   4.535
 8524TIP3    H125529   4.673   6.767   4.600
 8524TIP3    H225530   4.787   6.845   4.539
 8525TIP3   OH225531   4.562   6.269   3.153
 8525TIP3    H125532   4.629   6.334   3.123
 8525TIP3    H225533   4.606   6.231   3.233
 8526TIP3   OH225534   4.690   6.136   3.358
 8526TIP3    H125535   4.622   6.094   3.415
 8526TIP3    H225536   4.752   6.173   3.423
 8527TIP3   OH225537   4.748   6.532   3.790
 8527TIP3    H125538   4.797   6.463   3.743
 8527TIP3    H225539   4.740   6.602   3.723
 8528TIP3   OH225540   4.573   6.831   3.983
 8528TIP3    H125541   4.500   6.871   4.034
 8528TIP3    H225542   4.524   6.784   3.912
 8529TIP3   OH225543   4.626   6.046   3.002
 8529TIP3    H125544   4.555   6.047   2.935
 8529TIP3    H225545   4.597   6.121   3.058
 8530TIP3   OH225546   4.498   5.718   2.955
 8530TIP3    H125547   4.452   5.752   2.878
 8530TIP3    H225548   4.475   5.622   2.949
 8531TIP3   OH225549   4.503   5.996   3.502
 8531TIP3    H125550   4.506   5.899   3.495
 8531TIP3    H225551   4.488   6.009   3.599
 8532TIP3   OH225552   3.127   6.068   4.251
 8532TIP3    H125553   3.126   6.033   4.159
 8532TIP3    H225554   3.224   6.070   4.268
 8533TIP3   OH225555   4.793   6.420   4.362
 8533TIP3    H125556   4.863   6.352   4.350
 8533TIP3    H225557   4.815   6.486   4.295
 8534TIP3   OH225558   4.975   6.220   4.369
 8534TIP3    H125559   4.900   6.171   4.409
 8534TIP3    H225560   5.048   6.156   4.387
 8535TIP3   OH225561   4.440   5.452   2.940
 8535TIP3    H125562   4.512   5.419   2.998
 8535TIP3    H225563   4.366   5.393   2.960
 8536TIP3   OH225564   4.499   5.714   3.395
 8536TIP3    H125565   4.538   5.624   3.410
 8536TIP3    H225566   4.558   5.745   3.323
 8537TIP3   OH225567   4.660   5.876   3.894
 8537TIP3    H125568   4.745   5.903   3.853
 8537TIP3    H225569   4.672   5.916   3.982
 8538TIP3   OH225570   4.732   6.028   4.122
 8538TIP3    H125571   4.654   6.060   4.170
 8538TIP3    H225572   4.763   6.110   4.078
 8539TIP3   OH225573   3.345   5.752   4.924
 8539TIP3    H125574   3.443   5.747   4.927
 8539TIP3    H225575   3.322   5.665   4.963
 8540TIP3   OH225576   5.179   5.620   4.678
 8540TIP3    H125577   5.241   5.557   4.637
 8540TIP3    H225578   5.149   5.673   4.601
 8541TIP3   OH225579   4.608   5.463   3.432
 8541TIP3    H125580   4.654   5.448   3.517
 8541TIP3    H225581   4.546   5.387   3.432
 8542TIP3   OH225582   3.305   5.449   4.262
 8542TIP3    H125583   3.367   5.373   4.266
 8542TIP3    H225584   3.368   5.522   4.247
 8543TIP3   OH225585   3.107   5.719   4.325
 8543TIP3    H125586   3.158   5.713   4.242
 8543TIP3    H225587   3.141   5.801   4.362
 8544TIP3   OH225588   5.050   5.757   4.482
 8544TIP3    H125589   4.965   5.801   4.502
 8544TIP3    H225590   5.017   5.684   4.425
 8545TIP3   OH225591   4.686   5.391   3.071
 8545TIP3    H125592   4.724   5.323   3.012
 8545TIP3    H225593   4.752   5.463   3.066
 8546TIP3   OH225594   3.094   5.218   3.825
 8546TIP3    H125595   3.002   5.217   3.856
 8546TIP3    H225596   3.089   5.279   3.749
 8547TIP3   OH225597   4.252   6.930   3.334
 8547TIP3    H125598   4.303   6.918   3.252
 8547TIP3    H225599   4.307   6.993   3.383
 8548TIP3   OH225600   3.314   5.303   4.643
 8548TIP3    H125601   3.262   5.300   4.724
 8548TIP3    H225602   3.249   5.341   4.581
 8549TIP3   OH225603   3.352   6.737   4.718
 8549TIP3    H125604   3.260   6.708   4.702
 8549TIP3    H225605   3.365   6.712   4.810
 8550TIP3   OH225606   3.532   6.768   4.268
 8550TIP3    H125607   3.487   6.845   4.227
 8550TIP3    H225608   3.619   6.779   4.224
 8551TIP3   OH225609   3.973   7.009   4.406
 8551TIP3    H125610   4.016   7.008   4.494
 8551TIP3    H225611   4.039   7.060   4.354
 8552TIP3   OH225612   4.153   7.163   4.266
 8552TIP3    H125613   4.221   7.111   4.222
 8552TIP3    H225614   4.207   7.218   4.326
 8553TIP3   OH225615   4.951   5.520   4.363
 8553TIP3    H125616   4.860   5.513   4.328
 8553TIP3    H225617   4.982   5.428   4.354
 8554TIP3   OH225618   3.206   7.022   4.290
 8554TIP3    H125619   3.116   7.054   4.269
 8554TIP3    H225620   3.220   7.063   4.376
 8555TIP3   OH225621   3.444   7.002   4.151
 8555TIP3    H125622   3.356   7.013   4.193
 8555TIP3    H225623   3.426   7.031   4.060
 8556TIP3   OH225624   3.869   7.026   3.949
 8556TIP3    H125625   3.800   7.044   3.883
 8556TIP3    H225626   3.881   7.114   3.990
 8557TIP3   OH225627   4.139   6.967   4.003
 8557TIP3    H125628   4.045   6.984   3.980
 8557TIP3    H225629   4.184   7.039   3.955
 8558TIP3   OH225630   4.344   7.157   3.912
 8558TIP3    H125631   4.331   7.241   3.863
 8558TIP3    H225632   4.372   7.096   3.841
 8559TIP3   OH225633   3.118   6.812   4.036
 8559TIP3    H125634   3.146   6.785   4.126
 8559TIP3    H225635   3.191   6.769   3.985
 8560TIP3   OH225636   3.315   6.686   3.897
 8560TIP3    H125637   3.330   6.601   3.944
 8560TIP3    H225638   3.406   6.720   3.890
 8561TIP3   OH225639   3.583   6.778   3.900
 8561TIP3    H125640   3.612   6.685   3.887
 8561TIP3    H225641   3.631   6.799   3.982
 8562TIP3   OH225642   4.179   5.439   4.004
 8562TIP3    H125643   4.114   5.378   4.042
 8562TIP3    H225644   4.231   5.383   3.945
 8563TIP3   OH225645   4.679   5.314   3.883
 8563TIP3    H125646   4.713   5.370   3.810
 8563TIP3    H225647   4.583   5.334   3.880
 8564TIP3   OH225648   4.772   5.414   3.648
 8564TIP3    H125649   4.847   5.366   3.608
 8564TIP3    H225650   4.803   5.507   3.637
 8565TIP3   OH225651   3.403   5.144   3.998
 8565TIP3    H125652   3.310   5.112   4.002
 8565TIP3    H225653   3.451   5.058   3.994
 8566TIP3   OH225654   3.187   5.015   3.647
 8566TIP3    H125655   3.221   5.072   3.576
 8566TIP3    H225656   3.164   5.081   3.715
 8567TIP3   OH225657   3.848   5.177   3.882
 8567TIP3    H125658   3.902   5.226   3.819
 8567TIP3    H225659   3.868   5.222   3.965
 8568TIP3   OH225660   4.404   5.321   3.856
 8568TIP3    H125661   4.379   5.286   3.770
 8568TIP3    H225662   4.385   5.244   3.915
 8569TIP3   OH225663   4.424   5.250   3.428
 8569TIP3    H125664   4.339   5.296   3.445
 8569TIP3    H225665   4.406   5.164   3.471
 8570TIP3   OH225666   2.906   6.590   3.424
 8570TIP3    H125667   2.820   6.557   3.392
 8570TIP3    H225668   2.897   6.684   3.399
 8571TIP3   OH225669   3.311   5.173   3.409
 8571TIP3    H125670   3.359   5.111   3.352
 8571TIP3    H225671   3.384   5.228   3.445
 8572TIP3   OH225672   3.821   5.351   3.510
 8572TIP3    H125673   3.882   5.306   3.570
 8572TIP3    H225674   3.839   5.444   3.536
 8573TIP3   OH225675   3.680   6.771   3.009
 8573TIP3    H125676   3.768   6.793   2.973
 8573TIP3    H225677   3.657   6.696   2.949
 8574TIP3   OH225678   4.399   6.894   3.103
 8574TIP3    H125679   4.392   6.796   3.094
 8574TIP3    H225680   4.353   6.923   3.022
 8575TIP3   OH225681   3.610   5.424   4.890
 8575TIP3    H125682   3.575   5.353   4.947
 8575TIP3    H225683   3.704   5.424   4.918
 8576TIP3   OH225684   3.861   5.424   5.009
 8576TIP3    H125685   3.945   5.400   4.968
 8576TIP3    H225686   3.850   5.352   5.075
 8577TIP3   OH225687   2.983   6.609   3.063
 8577TIP3    H125688   2.988   6.628   3.157
 8577TIP3    H225689   3.070   6.566   3.046
 8578TIP3   OH225690   4.688   5.486   4.796
 8578TIP3    H125691   4.705   5.455   4.888
 8578TIP3    H225692   4.778   5.481   4.757
 8579TIP3   OH225693   4.622   7.037   4.289
 8579TIP3    H125694   4.545   7.006   4.238
 8579TIP3    H225695   4.603   7.132   4.295
 8580TIP3   OH225696   5.891   6.410   3.053
 8580TIP3    H125697   5.861   6.501   3.032
 8580TIP3    H225698   5.816   6.359   3.018
 8581TIP3   OH225699   5.892   6.411   3.439
 8581TIP3    H125700   5.925   6.384   3.526
 8581TIP3    H225701   5.850   6.330   3.407
 8582TIP3   OH225702   5.188   6.302   3.801
 8582TIP3    H125703   5.217   6.233   3.863
 8582TIP3    H225704   5.267   6.357   3.796
 8583TIP3   OH225705   6.134   6.717   3.118
 8583TIP3    H125706   6.119   6.647   3.183
 8583TIP3    H225707   6.167   6.790   3.173
 8584TIP3   OH225708   5.163   6.716   3.524
 8584TIP3    H125709   5.155   6.618   3.525
 8584TIP3    H225710   5.259   6.725   3.517
 8585TIP3   OH225711   4.869   5.916   3.306
 8585TIP3    H125712   4.820   5.998   3.326
 8585TIP3    H225713   4.798   5.863   3.265
 8586TIP3   OH225714   4.926   6.205   3.488
 8586TIP3    H125715   4.975   6.126   3.520
 8586TIP3    H225716   4.983   6.236   3.417
 8587TIP3   OH225717   5.785   7.173   3.136
 8587TIP3    H125718   5.828   7.102   3.084
 8587TIP3    H225719   5.777   7.132   3.223
 8588TIP3   OH225720   5.688   6.637   3.485
 8588TIP3    H125721   5.728   6.560   3.441
 8588TIP3    H225722   5.770   6.684   3.510
 8589TIP3   OH225723   6.706   5.953   3.483
 8589TIP3    H125724   6.734   6.038   3.521
 8589TIP3    H225725   6.728   5.967   3.389
 8590TIP3   OH225726   6.101   6.134   3.515
 8590TIP3    H125727   6.145   6.049   3.534
 8590TIP3    H225728   6.069   6.118   3.424
 8591TIP3   OH225729   5.444   5.796   3.480
 8591TIP3    H125730   5.422   5.869   3.418
 8591TIP3    H225731   5.395   5.722   3.436
 8592TIP3   OH225732   6.136   5.890   3.101
 8592TIP3    H125733   6.208   5.874   3.167
 8592TIP3    H225734   6.189   5.923   3.026
 8593TIP3   OH225735   5.073   5.997   3.588
 8593TIP3    H125736   5.156   5.979   3.636
 8593TIP3    H225737   5.087   5.941   3.509
 8594TIP3   OH225738   5.512   6.195   3.385
 8594TIP3    H125739   5.607   6.171   3.396
 8594TIP3    H225740   5.474   6.111   3.351
 8595TIP3   OH225741   6.778   6.163   3.655
 8595TIP3    H125742   6.695   6.210   3.631
 8595TIP3    H225743   6.797   6.202   3.742
 8596TIP3   OH225744   5.436   5.780   3.917
 8596TIP3    H125745   5.377   5.817   3.849
 8596TIP3    H225746   5.383   5.797   3.997
 8597TIP3   OH225747   5.781   6.631   2.922
 8597TIP3    H125748   5.738   6.615   2.836
 8597TIP3    H225749   5.736   6.713   2.950
 8598TIP3   OH225750   5.543   6.556   3.708
 8598TIP3    H125751   5.483   6.624   3.745
 8598TIP3    H225752   5.585   6.604   3.633
 8599TIP3   OH225753   6.341   5.893   3.279
 8599TIP3    H125754   6.328   5.847   3.363
 8599TIP3    H225755   6.393   5.971   3.306
 8600TIP3   OH225756   5.309   5.894   3.699
 8600TIP3    H125757   5.371   5.967   3.723
 8600TIP3    H225758   5.358   5.855   3.623
 8601TIP3   OH225759   5.373   6.752   3.809
 8601TIP3    H125760   5.347   6.839   3.772
 8601TIP3    H225761   5.293   6.734   3.863
 8602TIP3   OH225762   4.763   6.441   3.043
 8602TIP3    H125763   4.722   6.469   2.959
 8602TIP3    H225764   4.795   6.525   3.079
 8603TIP3   OH225765   6.203   6.957   3.283
 8603TIP3    H125766   6.113   6.949   3.322
 8603TIP3    H225767   6.196   7.043   3.239
 8604TIP3   OH225768   6.497   5.853   3.649
 8604TIP3    H125769   6.410   5.879   3.615
 8604TIP3    H225770   6.557   5.886   3.579
 8605TIP3   OH225771   5.791   5.496   3.633
 8605TIP3    H125772   5.774   5.401   3.649
 8605TIP3    H225773   5.714   5.536   3.680
 8606TIP3   OH225774   5.903   7.000   2.953
 8606TIP3    H125775   5.953   6.917   2.937
 8606TIP3    H225776   5.967   7.065   2.917
 8607TIP3   OH225777   6.050   6.786   2.864
 8607TIP3    H125778   6.007   6.706   2.832
 8607TIP3    H225779   6.088   6.754   2.949
 8608TIP3   OH225780   6.429   6.865   3.630
 8608TIP3    H125781   6.418   6.789   3.569
 8608TIP3    H225782   6.411   6.941   3.571
 8609TIP3   OH225783   5.723   6.262   2.888
 8609TIP3    H125784   5.643   6.315   2.867
 8609TIP3    H225785   5.767   6.258   2.802
 8610TIP3   OH225786   5.680   6.048   2.599
 8610TIP3    H125787   5.747   6.101   2.646
 8610TIP3    H225788   5.738   5.985   2.552
 8611TIP3   OH225789   6.624   6.505   3.475
 8611TIP3    H125790   6.540   6.557   3.478
 8611TIP3    H225791   6.656   6.529   3.386
 8612TIP3   OH225792   6.070   6.346   2.855
 8612TIP3    H125793   6.016   6.369   2.934
 8612TIP3    H225794   6.154   6.322   2.897
 8613TIP3   OH225795   6.303   6.381   3.773
 8613TIP3    H125796   6.299   6.468   3.818
 8613TIP3    H225797   6.216   6.382   3.727
 8614TIP3   OH225798   5.301   6.341   3.275
 8614TIP3    H125799   5.260   6.283   3.208
 8614TIP3    H225800   5.377   6.286   3.305
 8615TIP3   OH225801   5.431   6.753   3.422
 8615TIP3    H125802   5.411   6.718   3.334
 8615TIP3    H225803   5.520   6.716   3.439
 8616TIP3   OH225804   5.439   6.311   3.631
 8616TIP3    H125805   5.470   6.287   3.541
 8616TIP3    H225806   5.481   6.398   3.646
 8617TIP3   OH225807   5.962   6.951   3.406
 8617TIP3    H125808   5.950   7.032   3.459
 8617TIP3    H225809   5.946   6.879   3.469
 8618TIP3   OH225810   5.577   6.868   3.955
 8618TIP3    H125811   5.514   6.930   4.000
 8618TIP3    H225812   5.513   6.815   3.903
 8619TIP3   OH225813   5.906   6.204   2.683
 8619TIP3    H125814   5.966   6.264   2.733
 8619TIP3    H225815   5.934   6.224   2.590
 8620TIP3   OH225816   5.332   6.422   4.058
 8620TIP3    H125817   5.336   6.511   4.099
 8620TIP3    H225818   5.237   6.402   4.071
 8621TIP3   OH225819   5.654   6.879   2.959
 8621TIP3    H125820   5.736   6.931   2.969
 8621TIP3    H225821   5.594   6.941   2.918
 8622TIP3   OH225822   5.370   7.034   4.041
 8622TIP3    H125823   5.335   7.039   3.950
 8622TIP3    H225824   5.289   7.013   4.093
 8623TIP3   OH225825   6.426   5.441   2.734
 8623TIP3    H125826   6.344   5.464   2.782
 8623TIP3    H225827   6.441   5.523   2.682
 8624TIP3   OH225828   5.168   6.184   3.079
 8624TIP3    H125829   5.099   6.228   3.024
 8624TIP3    H225830   5.130   6.096   3.090
 8625TIP3   OH225831   6.233   6.796   2.279
 8625TIP3    H125832   6.251   6.889   2.264
 8625TIP3    H225833   6.323   6.758   2.269
 8626TIP3   OH225834   4.949   6.568   3.987
 8626TIP3    H125835   4.880   6.549   3.920
 8626TIP3    H225836   4.985   6.480   4.007
 8627TIP3   OH225837   4.803   6.763   3.615
 8627TIP3    H125838   4.899   6.755   3.609
 8627TIP3    H225839   4.794   6.839   3.674
 8628TIP3   OH225840   6.668   7.216   3.680
 8628TIP3    H125841   6.665   7.119   3.691
 8628TIP3    H225842   6.583   7.241   3.724
 8629TIP3   OH225843   5.773   6.996   3.812
 8629TIP3    H125844   5.769   7.089   3.843
 8629TIP3    H225845   5.701   6.956   3.865
 8630TIP3   OH225846   5.537   7.126   2.763
 8630TIP3    H125847   5.487   7.111   2.680
 8630TIP3    H225848   5.505   7.214   2.791
 8631TIP3   OH225849   4.972   6.974   3.148
 8631TIP3    H125850   5.020   6.966   3.234
 8631TIP3    H225851   4.922   6.891   3.147
 8632TIP3   OH225852   5.734   7.028   2.402
 8632TIP3    H125853   5.796   6.959   2.369
 8632TIP3    H225854   5.766   7.039   2.494
 8633TIP3   OH225855   5.785   7.068   2.671
 8633TIP3    H125856   5.696   7.082   2.712
 8633TIP3    H225857   5.835   7.033   2.747
 8634TIP3   OH225858   6.551   6.340   3.953
 8634TIP3    H125859   6.472   6.353   3.899
 8634TIP3    H225860   6.568   6.244   3.940
 8635TIP3   OH225861   5.153   6.751   3.971
 8635TIP3    H125862   5.201   6.734   4.054
 8635TIP3    H225863   5.078   6.688   3.979
 8636TIP3   OH225864   5.553   5.574   3.762
 8636TIP3    H125865   5.465   5.545   3.731
 8636TIP3    H225866   5.527   5.655   3.809
 8637TIP3   OH225867   6.088   5.689   3.956
 8637TIP3    H125868   6.155   5.660   4.020
 8637TIP3    H225869   6.003   5.670   4.001
 8638TIP3   OH225870   6.324   6.118   3.874
 8638TIP3    H125871   6.272   6.117   3.958
 8638TIP3    H225872   6.301   6.205   3.836
 8639TIP3   OH225873   5.986   6.247   2.430
 8639TIP3    H125874   5.950   6.224   2.342
 8639TIP3    H225875   6.071   6.288   2.404
 8640TIP3   OH225876   5.697   5.621   2.732
 8640TIP3    H125877   5.661   5.617   2.823
 8640TIP3    H225878   5.657   5.540   2.695
 8641TIP3   OH225879   5.486   6.090   3.780
 8641TIP3    H125880   5.433   6.111   3.860
 8641TIP3    H225881   5.470   6.172   3.727
 8642TIP3   OH225882   5.368   5.976   3.293
 8642TIP3    H125883   5.276   5.951   3.311
 8642TIP3    H225884   5.380   5.936   3.204
 8643TIP3   OH225885   5.859   6.061   3.023
 8643TIP3    H125886   5.809   6.133   2.978
 8643TIP3    H225887   5.914   6.027   2.949
 8644TIP3   OH225888   6.033   6.338   4.106
 8644TIP3    H125889   6.010   6.265   4.169
 8644TIP3    H225890   6.128   6.348   4.126
 8645TIP3   OH225891   6.014   6.088   3.258
 8645TIP3    H125892   5.952   6.116   3.188
 8645TIP3    H225893   6.050   6.009   3.213
 8646TIP3   OH225894   5.305   6.118   3.986
 8646TIP3    H125895   5.328   6.183   4.054
 8646TIP3    H225896   5.292   6.036   4.038
 8647TIP3   OH225897   5.354   5.598   2.697
 8647TIP3    H125898   5.343   5.596   2.794
 8647TIP3    H225899   5.277   5.650   2.670
 8648TIP3   OH225900   4.897   5.638   3.569
 8648TIP3    H125901   4.972   5.672   3.622
 8648TIP3    H225902   4.938   5.610   3.485
 8649TIP3   OH225903   4.863   5.620   3.088
 8649TIP3    H125904   4.909   5.657   3.009
 8649TIP3    H225905   4.802   5.694   3.106
 8650TIP3   OH225906   6.028   6.333   3.680
 8650TIP3    H125907   6.060   6.261   3.620
 8650TIP3    H225908   5.995   6.279   3.755
 8651TIP3   OH225909   5.701   5.795   3.353
 8651TIP3    H125910   5.618   5.796   3.404
 8651TIP3    H225911   5.768   5.794   3.423
 8652TIP3   OH225912   5.130   5.855   3.360
 8652TIP3    H125913   5.036   5.865   3.331
 8652TIP3    H225914   5.151   5.763   3.337
 8653TIP3   OH225915   5.395   5.850   3.051
 8653TIP3    H125916   5.489   5.864   3.028
 8653TIP3    H225917   5.347   5.871   2.968
 8654TIP3   OH225918   6.189   5.873   3.558
 8654TIP3    H125919   6.154   5.887   3.649
 8654TIP3    H225920   6.121   5.813   3.522
 8655TIP3   OH225921   5.245   5.885   2.828
 8655TIP3    H125922   5.174   5.839   2.779
 8655TIP3    H225923   5.297   5.922   2.753
 8656TIP3   OH225924   6.361   7.562   3.776
 8656TIP3    H125925   6.358   7.587   3.682
 8656TIP3    H225926   6.442   7.610   3.805
 8657TIP3   OH225927   5.316   6.673   4.194
 8657TIP3    H125928   5.395   6.703   4.243
 8657TIP3    H225929   5.250   6.670   4.267
 8658TIP3   OH225930   5.777   6.127   3.450
 8658TIP3    H125931   5.852   6.090   3.401
 8658TIP3    H225932   5.784   6.082   3.537
 8659TIP3   OH225933   5.300   5.614   3.332
 8659TIP3    H125934   5.262   5.537   3.380
 8659TIP3    H225935   5.340   5.571   3.255
 8660TIP3   OH225936   5.754   6.026   3.740
 8660TIP3    H125937   5.664   6.061   3.753
 8660TIP3    H225938   5.810   6.089   3.789
 8661TIP3   OH225939   5.491   6.413   2.835
 8661TIP3    H125940   5.419   6.347   2.823
 8661TIP3    H225941   5.470   6.447   2.926
 8662TIP3   OH225942   6.391   6.650   3.462
 8662TIP3    H125943   6.415   6.702   3.382
 8662TIP3    H225944   6.306   6.608   3.434
 8663TIP3   OH225945   5.949   5.721   2.706
 8663TIP3    H125946   5.853   5.703   2.711
 8663TIP3    H225947   5.955   5.817   2.727
 8664TIP3   OH225948   5.890   6.733   3.832
 8664TIP3    H125949   5.914   6.716   3.924
 8664TIP3    H225950   5.852   6.822   3.836
 8665TIP3   OH225951   6.017   5.976   2.805
 8665TIP3    H125952   6.113   5.981   2.818
 8665TIP3    H225953   5.998   6.055   2.752
 8666TIP3   OH225954   5.187   6.440   3.510
 8666TIP3    H125955   5.223   6.409   3.424
 8666TIP3    H225956   5.226   6.377   3.572
 8667TIP3   OH225957   5.636   6.563   2.658
 8667TIP3    H125958   5.587   6.649   2.661
 8667TIP3    H225959   5.582   6.508   2.719
 8668TIP3   OH225960   5.068   6.353   4.124
 8668TIP3    H125961   5.081   6.339   4.219
 8668TIP3    H225962   4.996   6.291   4.105
 8669TIP3   OH225963   5.791   6.473   4.142
 8669TIP3    H125964   5.727   6.413   4.101
 8669TIP3    H225965   5.876   6.435   4.112
 8670TIP3   OH225966   6.050   6.990   3.732
 8670TIP3    H125967   5.953   6.990   3.744
 8670TIP3    H225968   6.078   7.045   3.808
 8671TIP3   OH225969   6.456   6.068   2.638
 8671TIP3    H125970   6.395   6.024   2.575
 8671TIP3    H225971   6.454   6.158   2.598
 8672TIP3   OH225972   6.680   6.925   3.718
 8672TIP3    H125973   6.582   6.918   3.708
 8672TIP3    H225974   6.707   6.894   3.628
 8673TIP3   OH225975   6.154   6.886   2.542
 8673TIP3    H125976   6.131   6.829   2.618
 8673TIP3    H225977   6.168   6.822   2.471
 8674TIP3   OH225978   6.157   6.513   3.381
 8674TIP3    H125979   6.063   6.489   3.393
 8674TIP3    H225980   6.190   6.432   3.335
 8675TIP3   OH225981   5.287   6.742   3.137
 8675TIP3    H125982   5.283   6.823   3.082
 8675TIP3    H225983   5.194   6.722   3.149
 8676TIP3   OH225984   4.852   6.043   2.843
 8676TIP3    H125985   4.895   6.129   2.865
 8676TIP3    H225986   4.774   6.047   2.903
 8677TIP3   OH225987   5.418   6.504   3.078
 8677TIP3    H125988   5.385   6.594   3.098
 8677TIP3    H225989   5.383   6.453   3.153
 8678TIP3   OH225990   5.556   7.084   3.604
 8678TIP3    H125991   5.598   7.157   3.553
 8678TIP3    H225992   5.632   7.046   3.650
 8679TIP3   OH225993   5.203   6.980   2.987
 8679TIP3    H125994   5.118   6.990   3.035
 8679TIP3    H225995   5.236   7.073   2.990
 8680TIP3   OH225996   5.939   6.718   3.564
 8680TIP3    H125997   5.930   6.716   3.662
 8680TIP3    H225998   6.019   6.665   3.551
 8681TIP3   OH225999   5.920   6.618   2.446
 8681TIP3    H126000   5.973   6.592   2.525
 8681TIP3    H226001   5.833   6.585   2.472
 8682TIP3   OH226002   6.190   7.250   3.612
 8682TIP3    H126003   6.109   7.196   3.604
 8682TIP3    H226004   6.176   7.315   3.540
 8683TIP3   OH226005   5.273   5.861   4.130
 8683TIP3    H126006   5.176   5.866   4.143
 8683TIP3    H226007   5.301   5.807   4.205
 8684TIP3   OH226008   6.080   6.544   2.658
 8684TIP3    H126009   6.068   6.479   2.730
 8684TIP3    H226010   6.177   6.541   2.648
 8685TIP3   OH226011   4.993   6.944   3.762
 8685TIP3    H126012   5.047   6.872   3.798
 8685TIP3    H226013   5.019   7.018   3.819
 8686TIP3   OH226014   5.282   6.592   2.448
 8686TIP3    H126015   5.294   6.499   2.420
 8686TIP3    H226016   5.261   6.581   2.543
 8687TIP3   OH226017   5.225   6.597   2.719
 8687TIP3    H126018   5.300   6.569   2.774
 8687TIP3    H226019   5.230   6.695   2.728
 8688TIP3   OH226020   4.961   6.289   2.924
 8688TIP3    H126021   4.894   6.334   2.980
 8688TIP3    H226022   4.974   6.357   2.855
 8689TIP3   OH226023   6.115   5.927   3.818
 8689TIP3    H126024   6.197   5.963   3.854
 8689TIP3    H226025   6.102   5.846   3.871
 8690TIP3   OH226026   5.995   5.673   2.985
 8690TIP3    H126027   5.980   5.693   2.890
 8690TIP3    H226028   6.033   5.757   3.018
 8691TIP3   OH226029   5.494   6.793   2.667
 8691TIP3    H126030   5.407   6.816   2.705
 8691TIP3    H226031   5.509   6.870   2.610
 8692TIP3   OH226032   5.680   5.858   3.083
 8692TIP3    H126033   5.744   5.931   3.065
 8692TIP3    H226034   5.687   5.851   3.180
 8693TIP3   OH226035   5.952   6.173   3.886
 8693TIP3    H126036   5.974   6.224   3.967
 8693TIP3    H226037   6.003   6.092   3.897
 8694TIP3   OH226038   5.823   5.579   3.183
 8694TIP3    H126039   5.811   5.659   3.237
 8694TIP3    H226040   5.886   5.612   3.115
 8695TIP3   OH226041   5.240   6.869   2.737
 8695TIP3    H126042   5.210   6.939   2.676
 8695TIP3    H226043   5.224   6.912   2.824
 8696TIP3   OH226044   5.337   5.584   2.974
 8696TIP3    H126045   5.335   5.675   3.011
 8696TIP3    H226046   5.433   5.566   2.980
 8697TIP3   OH226047   6.591   6.075   3.875
 8697TIP3    H126048   6.493   6.072   3.880
 8697TIP3    H226049   6.605   6.038   3.786
 8698TIP3   OH226050   6.242   6.269   3.259
 8698TIP3    H126051   6.166   6.209   3.270
 8698TIP3    H226052   6.313   6.221   3.307
 8699TIP3   OH226053   4.957   6.494   2.727
 8699TIP3    H126054   5.027   6.560   2.736
 8699TIP3    H226055   5.000   6.436   2.660
 8700TIP3   OH226056   4.897   5.773   2.863
 8700TIP3    H126057   4.899   5.871   2.861
 8700TIP3    H226058   4.819   5.753   2.812
 8701TIP3   OH226059   6.212   7.227   3.207
 8701TIP3    H126060   6.169   7.273   3.132
 8701TIP3    H226061   6.306   7.247   3.186
 8702TIP3   OH226062   5.289   5.496   3.727
 8702TIP3    H126063   5.258   5.465   3.640
 8702TIP3    H226064   5.274   5.418   3.783
 8703TIP3   OH226065   4.824   6.712   3.111
 8703TIP3    H126066   4.759   6.742   3.176
 8703TIP3    H226067   4.790   6.755   3.029
 8704TIP3   OH226068   4.985   7.260   4.187
 8704TIP3    H126069   5.072   7.260   4.233
 8704TIP3    H226070   4.965   7.165   4.185
 8705TIP3   OH226071   5.461   7.214   4.233
 8705TIP3    H126072   5.557   7.200   4.235
 8705TIP3    H226073   5.435   7.153   4.161
 8706TIP3   OH226074   5.446   6.793   2.357
 8706TIP3    H126075   5.389   6.723   2.396
 8706TIP3    H226076   5.521   6.739   2.326
 8707TIP3   OH226077   6.101   7.128   3.967
 8707TIP3    H126078   6.096   7.058   4.036
 8707TIP3    H226079   6.178   7.180   3.995
 8708TIP3   OH226080   5.886   6.836   2.275
 8708TIP3    H126081   5.921   6.766   2.334
 8708TIP3    H226082   5.943   6.829   2.196
 8709TIP3   OH226083   5.114   6.663   4.386
 8709TIP3    H126084   5.129   6.567   4.394
 8709TIP3    H226085   5.027   6.665   4.340
 8710TIP3   OH226086   5.092   6.309   2.582
 8710TIP3    H126087   5.149   6.278   2.655
 8710TIP3    H226088   5.159   6.314   2.510
 8711TIP3   OH226089   5.721   6.749   4.160
 8711TIP3    H126090   5.678   6.770   4.075
 8711TIP3    H226091   5.749   6.656   4.149
 8712TIP3   OH226092   5.607   6.512   2.389
 8712TIP3    H126093   5.608   6.522   2.486
 8712TIP3    H226094   5.609   6.414   2.382
 8713TIP3   OH226095   6.214   6.759   3.771
 8713TIP3    H126096   6.290   6.800   3.725
 8713TIP3    H226097   6.145   6.825   3.754
 8714TIP3   OH226098   5.234   6.400   4.370
 8714TIP3    H126099   5.309   6.344   4.346
 8714TIP3    H226100   5.262   6.432   4.459
 8715TIP3   OH226101   5.298   6.217   2.801
 8715TIP3    H126102   5.270   6.175   2.884
 8715TIP3    H226103   5.336   6.142   2.751
 8716TIP3   OH226104   5.571   6.283   4.033
 8716TIP3    H126105   5.491   6.338   4.032
 8716TIP3    H226106   5.620   6.317   3.955
 8717TIP3   OH226107   5.401   6.012   2.641
 8717TIP3    H126108   5.376   6.019   2.547
 8717TIP3    H226109   5.499   6.013   2.635
 8718TIP3   OH226110   6.089   6.684   4.166
 8718TIP3    H126111   6.157   6.647   4.108
 8718TIP3    H226112   6.079   6.614   4.233
 8719TIP3   OH226113   6.217   6.340   2.309
 8719TIP3    H126114   6.200   6.294   2.224
 8719TIP3    H226115   6.182   6.429   2.286
 8720TIP3   OH226116   5.695   6.071   4.152
 8720TIP3    H126117   5.692   5.992   4.094
 8720TIP3    H226118   5.649   6.138   4.097
 8721TIP3   OH226119   5.695   5.855   3.964
 8721TIP3    H126120   5.722   5.898   3.880
 8721TIP3    H226121   5.601   5.833   3.946
 8722TIP3   OH226122   5.719   6.391   3.837
 8722TIP3    H126123   5.804   6.406   3.793
 8722TIP3    H226124   5.661   6.456   3.791
 8723TIP3   OH226125   6.306   6.356   4.218
 8723TIP3    H126126   6.351   6.271   4.221
 8723TIP3    H226127   6.371   6.411   4.170
 8724TIP3   OH226128   6.342   6.612   3.957
 8724TIP3    H126129   6.285   6.667   3.898
 8724TIP3    H226130   6.430   6.633   3.918
 8725TIP3   OH226131   5.573   6.175   4.389
 8725TIP3    H126132   5.504   6.108   4.406
 8725TIP3    H226133   5.603   6.150   4.299
 8726TIP3   OH226134   5.827   5.617   4.033
 8726TIP3    H126135   5.776   5.698   4.010
 8726TIP3    H226136   5.758   5.548   4.022
 8727TIP3   OH226137   5.952   6.119   4.247
 8727TIP3    H126138   5.932   6.104   4.342
 8727TIP3    H226139   5.863   6.097   4.210
 8728TIP3   OH226140   6.192   6.077   4.107
 8728TIP3    H126141   6.116   6.075   4.168
 8728TIP3    H226142   6.265   6.043   4.163
 8729TIP3   OH226143   6.426   6.015   4.254
 8729TIP3    H126144   6.436   5.919   4.269
 8729TIP3    H226145   6.420   6.051   4.346
 8730TIP3   OH226146   5.410   5.957   4.442
 8730TIP3    H126147   5.412   5.865   4.411
 8730TIP3    H226148   5.447   5.946   4.532
 8731TIP3   OH226149   5.921   5.628   4.291
 8731TIP3    H126150   5.985   5.554   4.283
 8731TIP3    H226151   5.879   5.625   4.202
 8732TIP3   OH226152   5.989   5.844   4.448
 8732TIP3    H126153   5.966   5.772   4.384
 8732TIP3    H226154   5.910   5.902   4.442
 8733TIP3   OH226155   5.209   7.072   2.550
 8733TIP3    H126156   5.304   7.063   2.530
 8733TIP3    H226157   5.181   7.123   2.472
 8734TIP3   OH226158   4.687   6.454   2.762
 8734TIP3    H126159   4.782   6.475   2.748
 8734TIP3    H226160   4.680   6.365   2.722
 8735TIP3   OH226161   4.604   7.065   3.180
 8735TIP3    H126162   4.538   7.004   3.141
 8735TIP3    H226163   4.648   7.006   3.245
 8736TIP3   OH226164   4.738   6.912   3.366
 8736TIP3    H126165   4.726   6.841   3.432
 8736TIP3    H226166   4.791   6.975   3.418
 8737TIP3   OH226167   6.465   7.319   3.166
 8737TIP3    H126168   6.496   7.352   3.252
 8737TIP3    H226169   6.532   7.352   3.105
 8738TIP3   OH226170   6.491   7.338   3.451
 8738TIP3    H126171   6.449   7.249   3.445
 8738TIP3    H226172   6.573   7.315   3.497
 8739TIP3   OH226173   6.545   7.011   4.026
 8739TIP3    H126174   6.469   7.024   4.085
 8739TIP3    H226175   6.585   7.100   4.025
 8740TIP3   OH226176   6.358   6.528   2.639
 8740TIP3    H126177   6.425   6.591   2.608
 8740TIP3    H226178   6.403   6.490   2.718
 8741TIP3   OH226179   6.485   6.393   2.842
 8741TIP3    H126180   6.419   6.353   2.903
 8741TIP3    H226181   6.552   6.429   2.904
 8742TIP3   OH226182   6.542   6.787   3.275
 8742TIP3    H126183   6.593   6.719   3.227
 8742TIP3    H226184   6.541   6.861   3.212
 8743TIP3   OH226185   6.369   7.085   3.472
 8743TIP3    H126186   6.296   7.129   3.519
 8743TIP3    H226187   6.321   7.040   3.398
 8744TIP3   OH226188   6.421   6.302   2.490
 8744TIP3    H126189   6.350   6.304   2.422
 8744TIP3    H226190   6.394   6.378   2.545
 8745TIP3   OH226191   6.292   5.975   2.444
 8745TIP3    H126192   6.250   6.008   2.363
 8745TIP3    H226193   6.269   5.879   2.437
 8746TIP3   OH226194   6.296   6.253   2.989
 8746TIP3    H126195   6.305   6.157   2.980
 8746TIP3    H226196   6.282   6.264   3.086
 8747TIP3   OH226197   4.923   6.323   3.739
 8747TIP3    H126198   4.920   6.290   3.646
 8747TIP3    H226199   5.020   6.324   3.754
 8748TIP3   OH226200   6.588   6.677   3.850
 8748TIP3    H126201   6.659   6.610   3.838
 8748TIP3    H226202   6.609   6.743   3.783
 8749TIP3   OH226203   6.768   6.476   3.863
 8749TIP3    H126204   6.694   6.426   3.902
 8749TIP3    H226205   6.842   6.413   3.879
 8750TIP3   OH226206   6.236   5.709   2.428
 8750TIP3    H126207   6.308   5.675   2.484
 8750TIP3    H226208   6.162   5.649   2.447
 8751TIP3   OH226209   6.296   5.969   2.882
 8751TIP3    H126210   6.337   5.880   2.896
 8751TIP3    H226211   6.354   6.001   2.810
 8752TIP3   OH226212   6.456   6.137   3.381
 8752TIP3    H126213   6.541   6.162   3.338
 8752TIP3    H226214   6.471   6.176   3.469
 8753TIP3   OH226215   6.528   6.285   3.611
 8753TIP3    H126216   6.450   6.320   3.656
 8753TIP3    H226217   6.561   6.365   3.564
 8754TIP3   OH226218   5.144   6.010   4.413
 8754TIP3    H126219   5.241   6.004   4.417
 8754TIP3    H226220   5.119   5.923   4.450
 8755TIP3   OH226221   6.977   5.879   4.166
 8755TIP3    H126222   7.039   5.815   4.123
 8755TIP3    H226223   6.945   5.930   4.089
 8756TIP3   OH226224   6.404   5.718   2.922
 8756TIP3    H126225   6.451   5.701   3.006
 8756TIP3    H226226   6.343   5.642   2.920
 8757TIP3   OH226227   5.105   5.703   3.739
 8757TIP3    H126228   5.167   5.629   3.748
 8757TIP3    H226229   5.166   5.778   3.732
 8758TIP3   OH226230   4.906   5.974   3.815
 8758TIP3    H126231   4.954   5.972   3.730
 8758TIP3    H226232   4.931   6.060   3.850
 8759TIP3   OH226233   6.843   6.011   3.971
 8759TIP3    H126234   6.756   6.056   3.980
 8759TIP3    H226235   6.816   5.938   3.912
 8760TIP3   OH226236   6.482   5.648   2.557
 8760TIP3    H126237   6.521   5.579   2.499
 8760TIP3    H226238   6.549   5.719   2.552
 8761TIP3   OH226239   4.891   5.479   3.316
 8761TIP3    H126240   4.798   5.473   3.344
 8761TIP3    H226241   4.884   5.538   3.238
 8762TIP3   OH226242   6.054   7.182   2.824
 8762TIP3    H126243   6.111   7.176   2.745
 8762TIP3    H226244   6.096   7.254   2.874
 8763TIP3   OH226245   5.108   5.555   4.127
 8763TIP3    H126246   5.059   5.555   4.210
 8763TIP3    H226247   5.044   5.599   4.068
 8764TIP3   OH226248   5.149   6.990   4.205
 8764TIP3    H126249   5.057   6.964   4.189
 8764TIP3    H226250   5.159   6.968   4.298
 8765TIP3   OH226251   5.330   7.024   3.754
 8765TIP3    H126252   5.282   7.099   3.715
 8765TIP3    H226253   5.416   7.037   3.709
 8766TIP3   OH226254   5.770   7.263   3.891
 8766TIP3    H126255   5.812   7.265   3.980
 8766TIP3    H226256   5.835   7.316   3.839
 8767TIP3   OH226257   5.949   7.418   3.754
 8767TIP3    H126258   6.019   7.370   3.708
 8767TIP3    H226259   6.002   7.475   3.814
 8768TIP3   OH226260   6.745   5.777   3.851
 8768TIP3    H126261   6.656   5.771   3.812
 8768TIP3    H226262   6.777   5.685   3.841
 8769TIP3   OH226263   5.003   7.277   3.779
 8769TIP3    H126264   4.913   7.309   3.756
 8769TIP3    H226265   5.016   7.323   3.863
 8770TIP3   OH226266   5.240   7.256   3.638
 8770TIP3    H126267   5.152   7.268   3.680
 8770TIP3    H226268   5.222   7.288   3.547
 8771TIP3   OH226269   5.666   7.282   3.435
 8771TIP3    H126270   5.596   7.300   3.369
 8771TIP3    H226271   5.677   7.370   3.476
 8772TIP3   OH226272   5.935   7.221   3.489
 8772TIP3    H126273   5.842   7.241   3.468
 8772TIP3    H226274   5.981   7.293   3.443
 8773TIP3   OH226275   6.138   7.412   3.399
 8773TIP3    H126276   6.126   7.497   3.351
 8773TIP3    H226277   6.168   7.353   3.326
 8774TIP3   OH226278   4.915   7.070   3.522
 8774TIP3    H126279   4.942   7.042   3.612
 8774TIP3    H226280   4.987   7.027   3.471
 8775TIP3   OH226281   5.110   6.943   3.382
 8775TIP3    H126282   5.125   6.859   3.432
 8775TIP3    H226283   5.202   6.979   3.377
 8776TIP3   OH226284   5.378   7.035   3.387
 8776TIP3    H126285   5.408   6.942   3.376
 8776TIP3    H226286   5.425   7.058   3.468
 8777TIP3   OH226287   5.955   5.694   3.477
 8777TIP3    H126288   5.910   5.622   3.524
 8777TIP3    H226289   6.025   5.647   3.428
 8778TIP3   OH226290   6.473   5.575   3.381
 8778TIP3    H126291   6.509   5.625   3.304
 8778TIP3    H226292   6.377   5.591   3.371
 8779TIP3   OH226293   6.567   5.668   3.141
 8779TIP3    H126294   6.640   5.618   3.100
 8779TIP3    H226295   6.600   5.760   3.127
 8780TIP3   OH226296   5.198   5.402   3.483
 8780TIP3    H126297   5.105   5.371   3.486
 8780TIP3    H226298   5.245   5.316   3.478
 8781TIP3   OH226299   4.994   5.272   3.139
 8781TIP3    H126300   5.020   5.328   3.063
 8781TIP3    H226301   4.963   5.339   3.203
 8782TIP3   OH226302   5.648   5.430   3.368
 8782TIP3    H126303   5.701   5.477   3.303
 8782TIP3    H226304   5.671   5.476   3.450
 8783TIP3   OH226305   6.190   5.582   3.348
 8783TIP3    H126306   6.188   5.543   3.260
 8783TIP3    H226307   6.177   5.502   3.405
 8784TIP3   OH226308   6.221   5.506   2.914
 8784TIP3    H126309   6.134   5.549   2.928
 8784TIP3    H226310   6.205   5.419   2.957
 8785TIP3   OH226311   4.703   6.846   2.911
 8785TIP3    H126312   4.618   6.812   2.879
 8785TIP3    H226313   4.693   6.940   2.888
 8786TIP3   OH226314   5.106   5.427   2.898
 8786TIP3    H126315   5.153   5.365   2.838
 8786TIP3    H226316   5.180   5.481   2.932
 8787TIP3   OH226317   5.614   5.608   2.996
 8787TIP3    H126318   5.675   5.560   3.054
 8787TIP3    H226319   5.637   5.700   3.021
 8788TIP3   OH226320   5.475   7.028   2.495
 8788TIP3    H126321   5.563   7.050   2.461
 8788TIP3    H226322   5.454   6.952   2.436
 8789TIP3   OH226323   6.187   7.154   2.582
 8789TIP3    H126324   6.185   7.055   2.572
 8789TIP3    H226325   6.104   7.178   2.539
 8790TIP3   OH226326   5.407   5.684   4.377
 8790TIP3    H126327   5.369   5.612   4.430
 8790TIP3    H226328   5.501   5.681   4.406
 8791TIP3   OH226329   5.657   5.678   4.496
 8791TIP3    H126330   5.743   5.650   4.459
 8791TIP3    H226331   5.642   5.610   4.564
 8792TIP3   OH226332   4.780   6.868   2.550
 8792TIP3    H126333   4.783   6.884   2.645
 8792TIP3    H226334   4.867   6.824   2.534
 8793TIP3   OH226335   6.485   5.743   4.282
 8793TIP3    H126336   6.502   5.713   4.374
 8793TIP3    H226337   6.574   5.738   4.242
 8794TIP3   OH226338   6.416   7.292   3.779
 8794TIP3    H126339   6.340   7.263   3.724
 8794TIP3    H226340   6.400   7.388   3.781
 8795TIP3   OH226341   7.690   6.638   2.563
 8795TIP3    H126342   7.657   6.731   2.555
 8795TIP3    H226343   7.615   6.598   2.516
 8796TIP3   OH226344   7.684   6.661   2.920
 8796TIP3    H126345   7.707   6.629   3.008
 8796TIP3    H226346   7.636   6.587   2.881
 8797TIP3   OH226347   6.984   6.563   3.295
 8797TIP3    H126348   7.018   6.493   3.354
 8797TIP3    H226349   7.065   6.608   3.269
 8798TIP3   OH226350   7.927   6.959   2.615
 8798TIP3    H126351   7.891   6.897   2.680
 8798TIP3    H226352   7.914   7.044   2.659
 8799TIP3   OH226353   6.955   6.968   3.017
 8799TIP3    H126354   6.950   6.870   3.018
 8799TIP3    H226355   7.050   6.979   2.996
 8800TIP3   OH226356   6.663   6.168   2.794
 8800TIP3    H126357   6.619   6.253   2.812
 8800TIP3    H226358   6.591   6.120   2.749
 8801TIP3   OH226359   6.721   6.460   2.972
 8801TIP3    H126360   6.772   6.383   3.004
 8801TIP3    H226361   6.785   6.504   2.914
 8802TIP3   OH226362   7.479   6.891   2.974
 8802TIP3    H126363   7.515   6.829   2.909
 8802TIP3    H226364   7.563   6.931   3.005
 8803TIP3   OH226365   8.493   6.218   2.976
 8803TIP3    H126366   8.523   6.299   3.018
 8803TIP3    H226367   8.509   6.237   2.883
 8804TIP3   OH226368   7.895   6.391   3.002
 8804TIP3    H126369   7.936   6.305   3.021
 8804TIP3    H226370   7.864   6.378   2.910
 8805TIP3   OH226371   7.240   6.051   2.967
 8805TIP3    H126372   7.220   6.125   2.906
 8805TIP3    H226373   7.190   5.979   2.923
 8806TIP3   OH226374   7.935   6.146   2.596
 8806TIP3    H126375   8.010   6.127   2.655
 8806TIP3    H226376   7.982   6.180   2.518
 8807TIP3   OH226377   6.868   6.253   3.076
 8807TIP3    H126378   6.952   6.237   3.123
 8807TIP3    H226379   6.883   6.199   2.996
 8808TIP3   OH226380   7.308   6.450   2.878
 8808TIP3    H126381   7.403   6.426   2.885
 8808TIP3    H226382   7.271   6.368   2.839
 8809TIP3   OH226383   7.231   6.037   3.404
 8809TIP3    H126384   7.174   6.074   3.334
 8809TIP3    H226385   7.178   6.058   3.483
 8810TIP3   OH226386   7.339   6.811   3.196
 8810TIP3    H126387   7.280   6.882   3.229
 8810TIP3    H226388   7.380   6.854   3.118
 8811TIP3   OH226389   8.149   6.142   2.772
 8811TIP3    H126390   8.110   6.109   2.854
 8811TIP3    H226391   8.187   6.227   2.801
 8812TIP3   OH226392   7.105   6.150   3.186
 8812TIP3    H126393   7.166   6.223   3.209
 8812TIP3    H226394   7.154   6.111   3.110
 8813TIP3   OH226395   7.170   7.009   3.297
 8813TIP3    H126396   7.148   7.093   3.252
 8813TIP3    H226397   7.088   6.996   3.349
 8814TIP3   OH226398   6.558   6.697   2.532
 8814TIP3    H126399   6.526   6.728   2.446
 8814TIP3    H226400   6.592   6.779   2.572
 8815TIP3   OH226401   8.295   6.101   3.137
 8815TIP3    H126402   8.208   6.133   3.109
 8815TIP3    H226403   8.354   6.139   3.068
 8816TIP3   OH226404   7.587   5.753   3.120
 8816TIP3    H126405   7.567   5.658   3.134
 8816TIP3    H226406   7.510   5.793   3.166
 8817TIP3   OH226407   7.798   7.000   2.361
 8817TIP3    H126408   7.707   6.968   2.369
 8817TIP3    H226409   7.834   6.976   2.448
 8818TIP3   OH226410   7.518   6.510   2.377
 8818TIP3    H126411   7.442   6.570   2.365
 8818TIP3    H226412   7.564   6.521   2.292
 8819TIP3   OH226413   7.475   6.302   2.084
 8819TIP3    H126414   7.534   6.358   2.136
 8819TIP3    H226415   7.540   6.246   2.038
 8820TIP3   OH226416   8.451   6.741   2.998
 8820TIP3    H126417   8.360   6.774   3.007
 8820TIP3    H226418   8.469   6.776   2.909
 8821TIP3   OH226419   7.860   6.576   2.357
 8821TIP3    H126420   7.808   6.603   2.437
 8821TIP3    H226421   7.949   6.565   2.396
 8822TIP3   OH226422   8.098   6.635   3.261
 8822TIP3    H126423   8.096   6.720   3.309
 8822TIP3    H226424   8.009   6.637   3.218
 8823TIP3   OH226425   7.085   6.589   2.775
 8823TIP3    H126426   7.052   6.538   2.699
 8823TIP3    H226427   7.168   6.542   2.797
 8824TIP3   OH226428   7.212   6.982   2.919
 8824TIP3    H126429   7.196   6.982   2.823
 8824TIP3    H226430   7.307   6.959   2.926
 8825TIP3   OH226431   7.225   6.571   3.119
 8825TIP3    H126432   7.259   6.545   3.030
 8825TIP3    H226433   7.272   6.656   3.134
 8826TIP3   OH226434   7.789   7.207   2.902
 8826TIP3    H126435   7.707   7.251   2.879
 8826TIP3    H226436   7.760   7.126   2.946
 8827TIP3   OH226437   7.370   7.122   3.449
 8827TIP3    H126438   7.307   7.185   3.489
 8827TIP3    H226439   7.309   7.071   3.392
 8828TIP3   OH226440   7.704   6.451   2.169
 8828TIP3    H126441   7.762   6.510   2.222
 8828TIP3    H226442   7.734   6.473   2.077
 8829TIP3   OH226443   7.131   6.674   3.555
 8829TIP3    H126444   7.134   6.766   3.588
 8829TIP3    H226445   7.034   6.659   3.553
 8830TIP3   OH226446   7.166   7.292   3.526
 8830TIP3    H126447   7.136   7.299   3.433
 8830TIP3    H226448   7.084   7.269   3.574
 8831TIP3   OH226449   8.214   5.700   2.218
 8831TIP3    H126450   8.135   5.713   2.273
 8831TIP3    H226451   8.238   5.789   2.194
 8832TIP3   OH226452   6.964   6.437   2.566
 8832TIP3    H126453   6.902   6.485   2.509
 8832TIP3    H226454   6.921   6.351   2.572
 8833TIP3   OH226455   6.743   6.826   3.475
 8833TIP3    H126456   6.678   6.807   3.404
 8833TIP3    H226457   6.781   6.738   3.493
 8834TIP3   OH226458   6.602   7.016   3.108
 8834TIP3    H126459   6.697   7.007   3.091
 8834TIP3    H226460   6.600   7.096   3.163
 8835TIP3   OH226461   7.557   7.255   3.297
 8835TIP3    H126462   7.559   7.348   3.325
 8835TIP3    H226463   7.490   7.216   3.356
 8836TIP3   OH226464   7.258   7.457   2.240
 8836TIP3    H126465   7.256   7.389   2.172
 8836TIP3    H226466   7.351   7.470   2.255
 8837TIP3   OH226467   6.765   7.231   2.639
 8837TIP3    H126468   6.821   7.226   2.719
 8837TIP3    H226469   6.714   7.149   2.649
 8838TIP3   OH226470   8.355   6.604   3.452
 8838TIP3    H126471   8.295   6.623   3.379
 8838TIP3    H226472   8.388   6.515   3.428
 8839TIP3   OH226473   6.948   7.008   3.459
 8839TIP3    H126474   6.998   6.991   3.541
 8839TIP3    H226475   6.873   6.945   3.466
 8840TIP3   OH226476   7.349   5.829   3.249
 8840TIP3    H126477   7.261   5.800   3.219
 8840TIP3    H226478   7.324   5.912   3.294
 8841TIP3   OH226479   7.885   5.944   3.442
 8841TIP3    H126480   7.953   5.918   3.507
 8841TIP3    H226481   7.801   5.927   3.489
 8842TIP3   OH226482   8.114   6.369   3.354
 8842TIP3    H126483   8.068   6.371   3.441
 8842TIP3    H226484   8.103   6.461   3.323
 8843TIP3   OH226485   7.782   6.495   1.914
 8843TIP3    H126486   7.746   6.476   1.826
 8843TIP3    H226487   7.836   6.574   1.898
 8844TIP3   OH226488   7.491   5.877   2.218
 8844TIP3    H126489   7.456   5.874   2.309
 8844TIP3    H226490   7.451   5.795   2.182
 8845TIP3   OH226491   7.281   6.348   3.264
 8845TIP3    H126492   7.231   6.369   3.345
 8845TIP3    H226493   7.265   6.429   3.210
 8846TIP3   OH226494   7.168   6.231   2.780
 8846TIP3    H126495   7.073   6.211   2.796
 8846TIP3    H226496   7.178   6.192   2.690
 8847TIP3   OH226497   7.654   6.313   2.508
 8847TIP3    H126498   7.602   6.385   2.465
 8847TIP3    H226499   7.711   6.285   2.433
 8848TIP3   OH226500   7.830   6.593   3.591
 8848TIP3    H126501   7.811   6.521   3.654
 8848TIP3    H226502   7.925   6.609   3.609
 8849TIP3   OH226503   7.810   6.349   2.745
 8849TIP3    H126504   7.749   6.384   2.675
 8849TIP3    H226505   7.842   6.270   2.697
 8850TIP3   OH226506   7.102   6.376   3.473
 8850TIP3    H126507   7.131   6.443   3.537
 8850TIP3    H226508   7.092   6.296   3.528
 8851TIP3   OH226509   7.147   5.851   2.184
 8851TIP3    H126510   7.138   5.853   2.281
 8851TIP3    H226511   7.073   5.909   2.158
 8852TIP3   OH226512   6.693   5.891   3.060
 8852TIP3    H126513   6.768   5.928   3.110
 8852TIP3    H226514   6.731   5.870   2.974
 8853TIP3   OH226515   6.659   5.876   2.574
 8853TIP3    H126516   6.704   5.912   2.495
 8853TIP3    H226517   6.598   5.951   2.593
 8854TIP3   OH226518   7.826   6.589   3.172
 8854TIP3    H126519   7.857   6.520   3.109
 8854TIP3    H226520   7.791   6.533   3.245
 8855TIP3   OH226521   7.497   6.044   2.840
 8855TIP3    H126522   7.413   6.049   2.890
 8855TIP3    H226523   7.562   6.058   2.910
 8856TIP3   OH226524   6.925   6.111   2.849
 8856TIP3    H126525   6.831   6.119   2.819
 8856TIP3    H226526   6.949   6.021   2.823
 8857TIP3   OH226527   7.192   6.105   2.537
 8857TIP3    H126528   7.285   6.123   2.514
 8857TIP3    H226529   7.144   6.127   2.454
 8858TIP3   OH226530   7.981   6.129   3.036
 8858TIP3    H126531   7.954   6.144   3.130
 8858TIP3    H226532   7.910   6.069   3.007
 8859TIP3   OH226533   7.043   6.133   2.313
 8859TIP3    H126534   6.972   6.094   2.259
 8859TIP3    H226535   7.095   6.179   2.243
 8860TIP3   OH226536   7.110   6.927   3.683
 8860TIP3    H126537   7.191   6.959   3.727
 8860TIP3    H226538   7.046   6.933   3.756
 8861TIP3   OH226539   7.573   6.377   2.935
 8861TIP3    H126540   7.651   6.350   2.884
 8861TIP3    H226541   7.588   6.335   3.021
 8862TIP3   OH226542   7.095   5.871   2.819
 8862TIP3    H126543   7.059   5.792   2.865
 8862TIP3    H226544   7.134   5.832   2.740
 8863TIP3   OH226545   7.551   6.278   3.234
 8863TIP3    H126546   7.462   6.318   3.241
 8863TIP3    H226547   7.608   6.343   3.280
 8864TIP3   OH226548   7.293   6.656   2.314
 8864TIP3    H126549   7.207   6.612   2.317
 8864TIP3    H226550   7.290   6.710   2.396
 8865TIP3   OH226551   8.191   6.816   2.946
 8865TIP3    H126552   8.172   6.903   2.906
 8865TIP3    H226553   8.101   6.777   2.942
 8866TIP3   OH226554   7.747   5.975   2.195
 8866TIP3    H126555   7.649   5.962   2.196
 8866TIP3    H226556   7.756   6.072   2.211
 8867TIP3   OH226557   7.683   6.978   3.328
 8867TIP3    H126558   7.710   6.974   3.420
 8867TIP3    H226559   7.653   7.071   3.320
 8868TIP3   OH226560   7.812   6.229   2.291
 8868TIP3    H126561   7.908   6.243   2.301
 8868TIP3    H226562   7.786   6.307   2.237
 8869TIP3   OH226563   6.971   6.686   3.003
 8869TIP3    H126564   7.006   6.665   2.914
 8869TIP3    H226565   7.031   6.635   3.059
 8870TIP3   OH226566   7.432   6.814   2.119
 8870TIP3    H126567   7.397   6.902   2.145
 8870TIP3    H226568   7.412   6.765   2.201
 8871TIP3   OH226569   6.860   6.612   3.613
 8871TIP3    H126570   6.878   6.596   3.708
 8871TIP3    H226571   6.791   6.547   3.593
 8872TIP3   OH226572   7.589   6.726   3.632
 8872TIP3    H126573   7.529   6.673   3.579
 8872TIP3    H226574   7.676   6.692   3.602
 8873TIP3   OH226575   7.834   7.221   3.246
 8873TIP3    H126576   7.743   7.239   3.217
 8873TIP3    H226577   7.840   7.282   3.323
 8874TIP3   OH226578   7.936   6.754   2.876
 8874TIP3    H126579   7.841   6.732   2.886
 8874TIP3    H226580   7.964   6.682   2.817
 8875TIP3   OH226581   7.089   7.015   2.650
 8875TIP3    H126582   7.097   7.083   2.581
 8875TIP3    H226583   7.003   6.977   2.629
 8876TIP3   OH226584   6.647   6.299   2.328
 8876TIP3    H126585   6.693   6.383   2.349
 8876TIP3    H226586   6.571   6.304   2.390
 8877TIP3   OH226587   7.183   6.744   2.551
 8877TIP3    H126588   7.230   6.827   2.566
 8877TIP3    H226589   7.156   6.718   2.640
 8878TIP3   OH226590   7.354   7.331   3.089
 8878TIP3    H126591   7.402   7.385   3.021
 8878TIP3    H226592   7.431   7.301   3.141
 8879TIP3   OH226593   6.995   7.233   2.472
 8879TIP3    H126594   6.912   7.243   2.521
 8879TIP3    H226595   7.031   7.324   2.481
 8880TIP3   OH226596   7.732   6.964   3.054
 8880TIP3    H126597   7.722   6.961   3.151
 8880TIP3    H226598   7.811   6.910   3.039
 8881TIP3   OH226599   7.625   6.833   1.924
 8881TIP3    H126600   7.707   6.859   1.966
 8881TIP3    H226601   7.565   6.824   2.001
 8882TIP3   OH226602   7.069   6.118   3.618
 8882TIP3    H126603   6.972   6.121   3.627
 8882TIP3    H226604   7.094   6.059   3.690
 8883TIP3   OH226605   7.893   6.763   2.151
 8883TIP3    H126606   7.847   6.725   2.228
 8883TIP3    H226607   7.981   6.727   2.163
 8884TIP3   OH226608   6.785   7.204   3.251
 8884TIP3    H126609   6.844   7.131   3.277
 8884TIP3    H226610   6.824   7.278   3.299
 8885TIP3   OH226611   7.064   6.850   1.937
 8885TIP3    H126612   7.105   6.766   1.911
 8885TIP3    H226613   7.054   6.838   2.033
 8886TIP3   OH226614   7.021   6.852   2.213
 8886TIP3    H126615   7.107   6.830   2.251
 8886TIP3    H226616   7.022   6.950   2.218
 8887TIP3   OH226617   6.756   6.542   2.411
 8887TIP3    H126618   6.692   6.592   2.466
 8887TIP3    H226619   6.779   6.609   2.344
 8888TIP3   OH226620   7.914   6.180   3.296
 8888TIP3    H126621   7.992   6.226   3.332
 8888TIP3    H226622   7.904   6.102   3.356
 8889TIP3   OH226623   7.793   5.929   2.472
 8889TIP3    H126624   7.776   5.949   2.377
 8889TIP3    H226625   7.829   6.015   2.504
 8890TIP3   OH226626   7.282   7.043   2.158
 8890TIP3    H126627   7.197   7.068   2.197
 8890TIP3    H226628   7.300   7.123   2.106
 8891TIP3   OH226629   7.477   6.112   2.569
 8891TIP3    H126630   7.539   6.186   2.548
 8891TIP3    H226631   7.484   6.108   2.666
 8892TIP3   OH226632   7.746   6.428   3.377
 8892TIP3    H126633   7.771   6.483   3.453
 8892TIP3    H226634   7.803   6.350   3.387
 8893TIP3   OH226635   7.620   5.836   2.670
 8893TIP3    H126636   7.601   5.916   2.722
 8893TIP3    H226637   7.682   5.871   2.603
 8894TIP3   OH226638   7.022   7.124   2.223
 8894TIP3    H126639   6.997   7.196   2.162
 8894TIP3    H226640   7.013   7.168   2.310
 8895TIP3   OH226641   7.134   5.841   2.462
 8895TIP3    H126642   7.132   5.933   2.495
 8895TIP3    H226643   7.230   5.824   2.468
 8896TIP3   OH226644   8.386   6.345   3.346
 8896TIP3    H126645   8.289   6.341   3.356
 8896TIP3    H226646   8.396   6.311   3.257
 8897TIP3   OH226647   8.036   6.524   2.745
 8897TIP3    H126648   7.955   6.469   2.752
 8897TIP3    H226649   8.101   6.473   2.797
 8898TIP3   OH226650   6.754   6.755   2.212
 8898TIP3    H126651   6.829   6.816   2.226
 8898TIP3    H226652   6.797   6.695   2.147
 8899TIP3   OH226653   6.691   6.029   2.351
 8899TIP3    H126654   6.697   6.127   2.348
 8899TIP3    H226655   6.613   6.013   2.296
 8900TIP3   OH226656   7.084   5.751   3.219
 8900TIP3    H126657   7.053   5.718   3.131
 8900TIP3    H226658   7.071   5.672   3.275
 8901TIP3   OH226659   6.618   6.959   2.602
 8901TIP3    H126660   6.551   6.999   2.658
 8901TIP3    H226661   6.602   7.007   2.518
 8902TIP3   OH226662   6.781   7.517   3.675
 8902TIP3    H126663   6.868   7.518   3.721
 8902TIP3    H226664   6.765   7.421   3.671
 8903TIP3   OH226665   7.254   7.467   3.725
 8903TIP3    H126666   7.351   7.461   3.723
 8903TIP3    H226667   7.231   7.410   3.649
 8904TIP3   OH226668   7.237   7.046   1.842
 8904TIP3    H126669   7.181   6.976   1.883
 8904TIP3    H226670   7.314   6.992   1.815
 8905TIP3   OH226671   7.881   7.379   3.465
 8905TIP3    H126672   7.885   7.310   3.535
 8905TIP3    H226673   7.968   7.421   3.470
 8906TIP3   OH226674   6.908   6.916   3.876
 8906TIP3    H126675   6.924   6.820   3.875
 8906TIP3    H226676   6.823   6.922   3.828
 8907TIP3   OH226677   6.886   6.563   2.074
 8907TIP3    H126678   6.945   6.535   2.147
 8907TIP3    H226679   6.952   6.570   2.002
 8908TIP3   OH226680   7.515   7.003   3.650
 8908TIP3    H126681   7.474   7.030   3.565
 8908TIP3    H226682   7.544   6.912   3.633
 8909TIP3   OH226683   7.343   6.749   1.866
 8909TIP3    H126684   7.372   6.773   1.957
 8909TIP3    H226685   7.374   6.656   1.863
 8910TIP3   OH226686   8.010   7.013   3.249
 8910TIP3    H126687   8.063   7.082   3.207
 8910TIP3    H226688   7.925   7.062   3.255
 8911TIP3   OH226689   7.028   6.651   3.860
 8911TIP3    H126690   7.109   6.620   3.819
 8911TIP3    H226691   7.061   6.686   3.945
 8912TIP3   OH226692   7.068   6.469   2.279
 8912TIP3    H126693   7.067   6.435   2.370
 8912TIP3    H226694   7.122   6.402   2.232
 8913TIP3   OH226695   7.365   6.534   3.517
 8913TIP3    H126696   7.288   6.594   3.519
 8913TIP3    H226697   7.417   6.570   3.441
 8914TIP3   OH226698   7.199   6.267   2.131
 8914TIP3    H126699   7.174   6.278   2.037
 8914TIP3    H226700   7.296   6.271   2.124
 8915TIP3   OH226701   7.887   6.934   3.650
 8915TIP3    H126702   7.958   6.902   3.592
 8915TIP3    H226703   7.883   6.866   3.719
 8916TIP3   OH226704   7.489   6.327   3.642
 8916TIP3    H126705   7.489   6.249   3.583
 8916TIP3    H226706   7.446   6.395   3.585
 8917TIP3   OH226707   7.491   6.111   3.454
 8917TIP3    H126708   7.520   6.156   3.372
 8917TIP3    H226709   7.397   6.090   3.433
 8918TIP3   OH226710   7.515   6.648   3.327
 8918TIP3    H126711   7.600   6.667   3.286
 8918TIP3    H226712   7.457   6.712   3.281
 8919TIP3   OH226713   8.103   6.613   3.703
 8919TIP3    H126714   8.153   6.530   3.702
 8919TIP3    H226715   8.167   6.674   3.664
 8920TIP3   OH226716   8.109   6.872   3.459
 8920TIP3    H126717   8.060   6.923   3.391
 8920TIP3    H226718   8.199   6.876   3.417
 8921TIP3   OH226719   7.368   6.432   3.879
 8921TIP3    H126720   7.300   6.363   3.890
 8921TIP3    H226721   7.399   6.414   3.788
 8922TIP3   OH226722   7.622   5.874   3.522
 8922TIP3    H126723   7.573   5.956   3.498
 8922TIP3    H226724   7.553   5.806   3.508
 8923TIP3   OH226725   7.749   6.375   3.735
 8923TIP3    H126726   7.731   6.362   3.830
 8923TIP3    H226727   7.660   6.354   3.699
 8924TIP3   OH226728   7.988   6.330   3.591
 8924TIP3    H126729   7.913   6.332   3.654
 8924TIP3    H226730   8.063   6.302   3.647
 8925TIP3   OH226731   8.216   6.271   3.741
 8925TIP3    H126732   8.227   6.175   3.757
 8925TIP3    H226733   8.215   6.308   3.832
 8926TIP3   OH226734   7.203   6.213   3.931
 8926TIP3    H126735   7.208   6.123   3.894
 8926TIP3    H226736   7.242   6.200   4.020
 8927TIP3   OH226737   7.713   5.881   3.780
 8927TIP3    H126738   7.780   5.811   3.771
 8927TIP3    H226739   7.674   5.880   3.690
 8928TIP3   OH226740   7.781   6.097   3.939
 8928TIP3    H126741   7.760   6.027   3.873
 8928TIP3    H226742   7.704   6.157   3.930
 8929TIP3   OH226743   6.995   7.328   2.040
 8929TIP3    H126744   7.092   7.313   2.032
 8929TIP3    H226745   6.980   7.378   1.957
 8930TIP3   OH226746   6.488   6.710   2.248
 8930TIP3    H126747   6.583   6.733   2.234
 8930TIP3    H226748   6.484   6.620   2.208
 8931TIP3   OH226749   6.405   7.319   2.656
 8931TIP3    H126750   6.338   7.257   2.619
 8931TIP3    H226751   6.448   7.264   2.724
 8932TIP3   OH226752   6.532   7.170   2.851
 8932TIP3    H126753   6.523   7.100   2.917
 8932TIP3    H226754   6.588   7.233   2.900
 8933TIP3   OH226755   8.063   6.232   1.951
 8933TIP3    H126756   8.056   6.281   1.869
 8933TIP3    H226757   8.048   6.141   1.921
 8934TIP3   OH226758   8.098   6.505   2.478
 8934TIP3    H126759   8.098   6.409   2.467
 8934TIP3    H226760   8.082   6.517   2.574
 8935TIP3   OH226761   6.719   6.576   3.227
 8935TIP3    H126762   6.718   6.546   3.133
 8935TIP3    H226763   6.816   6.582   3.242
 8936TIP3   OH226764   8.339   6.904   3.317
 8936TIP3    H126765   8.430   6.877   3.339
 8936TIP3    H226766   8.356   6.965   3.243
 8937TIP3   OH226767   8.029   5.958   1.920
 8937TIP3    H126768   8.074   5.923   1.997
 8937TIP3    H226769   7.945   5.909   1.918
 8938TIP3   OH226770   8.090   6.227   2.380
 8938TIP3    H126771   8.127   6.136   2.391
 8938TIP3    H226772   8.136   6.256   2.300
 8939TIP3   OH226773   8.252   6.388   2.859
 8939TIP3    H126774   8.324   6.435   2.816
 8939TIP3    H226775   8.259   6.424   2.950
 8940TIP3   OH226776   8.299   6.521   3.090
 8940TIP3    H126777   8.229   6.565   3.141
 8940TIP3    H226778   8.362   6.594   3.075
 8941TIP3   OH226779   6.936   6.264   3.900
 8941TIP3    H126780   7.034   6.259   3.901
 8941TIP3    H226781   6.914   6.177   3.938
 8942TIP3   OH226782   8.181   5.974   2.423
 8942TIP3    H126783   8.241   5.945   2.494
 8942TIP3    H226784   8.123   5.895   2.415
 8943TIP3   OH226785   6.900   5.960   3.234
 8943TIP3    H126786   6.962   5.885   3.238
 8943TIP3    H226787   6.961   6.035   3.221
 8944TIP3   OH226788   6.701   6.232   3.302
 8944TIP3    H126789   6.750   6.227   3.217
 8944TIP3    H226790   6.726   6.320   3.332
 8945TIP3   OH226791   6.687   5.737   2.803
 8945TIP3    H126792   6.593   5.730   2.830
 8945TIP3    H226793   6.682   5.795   2.725
 8946TIP3   OH226794   6.906   5.814   3.616
 8946TIP3    H126795   6.854   5.814   3.698
 8946TIP3    H226796   6.843   5.854   3.553
 8947TIP3   OH226797   6.945   7.244   3.690
 8947TIP3    H126798   6.852   7.219   3.675
 8947TIP3    H226799   6.954   7.235   3.785
 8948TIP3   OH226800   7.130   7.282   3.243
 8948TIP3    H126801   7.081   7.354   3.198
 8948TIP3    H226802   7.215   7.292   3.195
 8949TIP3   OH226803   7.583   7.533   3.372
 8949TIP3    H126804   7.614   7.531   3.464
 8949TIP3    H226805   7.658   7.576   3.328
 8950TIP3   OH226806   8.520   6.002   3.355
 8950TIP3    H126807   8.459   6.057   3.305
 8950TIP3    H226808   8.577   5.965   3.286
 8951TIP3   OH226809   6.793   7.531   3.269
 8951TIP3    H126810   6.703   7.566   3.247
 8951TIP3    H226811   6.811   7.580   3.349
 8952TIP3   OH226812   7.022   7.500   3.123
 8952TIP3    H126813   6.935   7.515   3.163
 8952TIP3    H226814   7.009   7.532   3.031
 8953TIP3   OH226815   6.708   7.325   3.009
 8953TIP3    H126816   6.737   7.300   3.099
 8953TIP3    H226817   6.780   7.283   2.957
 8954TIP3   OH226818   6.901   7.197   2.871
 8954TIP3    H126819   6.920   7.111   2.917
 8954TIP3    H226820   6.992   7.234   2.869
 8955TIP3   OH226821   7.159   7.290   2.885
 8955TIP3    H126822   7.211   7.223   2.840
 8955TIP3    H226823   7.219   7.314   2.958
 8956TIP3   OH226824   7.757   5.952   2.968
 8956TIP3    H126825   7.706   5.882   3.013
 8956TIP3    H226826   7.821   5.902   2.915
 8957TIP3   OH226827   8.274   5.828   2.862
 8957TIP3    H126828   8.308   5.881   2.786
 8957TIP3    H226829   8.179   5.847   2.858
 8958TIP3   OH226830   8.377   5.921   2.620
 8958TIP3    H126831   8.448   5.871   2.578
 8958TIP3    H226832   8.407   6.012   2.611
 8959TIP3   OH226833   6.995   5.657   2.973
 8959TIP3    H126834   6.901   5.627   2.975
 8959TIP3    H226835   7.041   5.570   2.967
 8960TIP3   OH226836   6.789   5.529   2.624
 8960TIP3    H126837   6.816   5.585   2.549
 8960TIP3    H226838   6.759   5.596   2.689
 8961TIP3   OH226839   7.446   5.685   2.855
 8961TIP3    H126840   7.497   5.735   2.790
 8961TIP3    H226841   7.464   5.734   2.936
 8962TIP3   OH226842   7.992   5.837   2.835
 8962TIP3    H126843   7.983   5.802   2.746
 8962TIP3    H226844   7.975   5.758   2.891
 8963TIP3   OH226845   8.011   5.760   2.400
 8963TIP3    H126846   7.926   5.805   2.416
 8963TIP3    H226847   7.995   5.673   2.443
 8964TIP3   OH226848   6.502   7.109   2.405
 8964TIP3    H126849   6.437   7.072   2.345
 8964TIP3    H226850   6.489   7.204   2.390
 8965TIP3   OH226851   6.902   5.684   2.385
 8965TIP3    H126852   6.950   5.623   2.325
 8965TIP3    H226853   6.976   5.740   2.419
 8966TIP3   OH226854   7.411   5.863   2.483
 8966TIP3    H126855   7.473   5.817   2.542
 8966TIP3    H226856   7.431   5.956   2.506
 8967TIP3   OH226857   7.263   7.276   2.003
 8967TIP3    H126858   7.332   7.333   1.961
 8967TIP3    H226859   7.255   7.206   1.935
 8968TIP3   OH226860   7.202   5.936   3.864
 8968TIP3    H126861   7.167   5.866   3.921
 8968TIP3    H226862   7.296   5.937   3.892
 8969TIP3   OH226863   7.453   5.937   3.983
 8969TIP3    H126864   7.538   5.916   3.941
 8969TIP3    H226865   7.444   5.864   4.047
 8970TIP3   OH226866   6.574   7.115   2.046
 8970TIP3    H126867   6.604   7.152   2.130
 8970TIP3    H226868   6.656   7.071   2.015
 8971TIP3   OH226869   8.277   5.999   3.771
 8971TIP3    H126870   8.298   5.969   3.862
 8971TIP3    H226871   8.366   5.996   3.729
 8972TIP3   OH226872   0.954   6.996   4.660
 8972TIP3    H126873   0.979   7.081   4.701
 8972TIP3    H226874   0.976   7.013   4.567
 8973TIP3   OH226875   0.383   6.889   4.272
 8973TIP3    H126876   0.444   6.909   4.345
 8973TIP3    H226877   0.419   6.948   4.203
 8974TIP3   OH226878   1.017   7.206   4.841
 8974TIP3    H126879   0.937   7.259   4.820
 8974TIP3    H226880   1.053   7.256   4.916
 8975TIP3   OH226881   0.576   6.952   4.459
 8975TIP3    H126882   0.606   6.869   4.499
 8975TIP3    H226883   0.644   7.017   4.485
 8976TIP3   OH226884   0.747   6.904   4.823
 8976TIP3    H126885   0.672   6.949   4.784
 8976TIP3    H226886   0.819   6.928   4.761
 8977TIP3   OH226887   0.669   7.922   4.812
 8977TIP3    H126888   0.651   7.839   4.765
 8977TIP3    H226889   0.705   7.980   4.742
 8978TIP3   OH226890   0.875   7.548   4.653
 8978TIP3    H126891   0.792   7.601   4.657
 8978TIP3    H226892   0.907   7.574   4.563
 8979TIP3   OH226893   0.680   6.485   3.908
 8979TIP3    H126894   0.599   6.507   3.957
 8979TIP3    H226895   0.694   6.568   3.857
 8980TIP3   OH226896   0.822   7.383   5.139
 8980TIP3    H126897   0.751   7.417   5.082
 8980TIP3    H226898   0.817   7.287   5.120
 8981TIP3   OH226899   0.644   7.699   4.647
 8981TIP3    H126900   0.682   7.750   4.571
 8981TIP3    H226901   0.555   7.680   4.616
 8982TIP3   OH226902   0.712   7.111   3.809
 8982TIP3    H126903   0.646   7.070   3.747
 8982TIP3    H226904   0.707   7.202   3.773
 8983TIP3   OH226905   0.922   7.954   4.903
 8983TIP3    H126906   0.826   7.963   4.888
 8983TIP3    H226907   0.952   7.935   4.811
 8984TIP3   OH226908   0.816   7.123   5.053
 8984TIP3    H126909   0.732   7.078   5.045
 8984TIP3    H226910   0.858   7.102   4.968
 8985TIP3   OH226911   0.482   7.294   4.437
 8985TIP3    H126912   0.426   7.216   4.442
 8985TIP3    H226913   0.565   7.262   4.477
 8986TIP3   OH226914   0.485   7.380   3.474
 8986TIP3    H126915   0.432   7.337   3.404
 8986TIP3    H226916   0.466   7.474   3.460
 8987TIP3   OH226917   0.610   7.557   3.815
 8987TIP3    H126918   0.680   7.620   3.788
 8987TIP3    H226919   0.649   7.519   3.897
 8988TIP3   OH226920   0.741   7.434   4.020
 8988TIP3    H126921   0.677   7.388   4.079
 8988TIP3    H226922   0.806   7.471   4.083
 8989TIP3   OH226923   0.781   7.829   4.455
 8989TIP3    H126924   0.839   7.769   4.404
 8989TIP3    H226925   0.776   7.908   4.398
 8990TIP3   OH226926   0.675   7.341   3.663
 8990TIP3    H126927   0.604   7.343   3.595
 8990TIP3    H226928   0.644   7.416   3.719
 8991TIP3   OH226929   0.541   7.020   3.616
 8991TIP3    H126930   0.491   7.062   3.545
 8991TIP3    H226931   0.523   6.925   3.599
 8992TIP3   OH226932   0.575   7.289   4.175
 8992TIP3    H126933   0.553   7.197   4.149
 8992TIP3    H226934   0.537   7.295   4.264
 8993TIP3   OH226935   0.829   7.712   5.028
 8993TIP3    H126936   0.905   7.652   5.016
 8993TIP3    H226937   0.845   7.782   4.963
 8994TIP3   OH226938   1.026   7.522   5.031
 8994TIP3    H126939   0.954   7.476   5.080
 8994TIP3    H226940   1.099   7.459   5.046
 8995TIP3   OH226941   0.503   6.751   3.598
 8995TIP3    H126942   0.577   6.729   3.658
 8995TIP3    H226943   0.431   6.693   3.634
 8996TIP3   OH226944   0.551   7.018   4.081
 8996TIP3    H126945   0.591   6.929   4.088
 8996TIP3    H226946   0.584   7.046   3.994
 8997TIP3   OH226947   0.707   7.186   4.563
 8997TIP3    H126948   0.791   7.209   4.517
 8997TIP3    H226949   0.724   7.230   4.648
 8998TIP3   OH226950   0.767   7.335   4.791
 8998TIP3    H126951   0.681   7.364   4.827
 8998TIP3    H226952   0.801   7.416   4.748
 8999TIP3   OH226953   1.237   6.930   5.348
 8999TIP3    H126954   1.290   6.861   5.303
 8999TIP3    H226955   1.187   6.968   5.273
 9000TIP3   OH226956   0.663   6.760   4.093
 9000TIP3    H126957   0.704   6.749   4.181
 9000TIP3    H226958   0.596   6.689   4.096
 9001TIP3   OH226959   1.090   7.053   5.149
 9001TIP3    H126960   1.005   7.092   5.179
 9001TIP3    H226961   1.057   6.978   5.096
 9002TIP3   OH226962   0.737   6.694   3.735
 9002TIP3    H126963   0.776   6.626   3.676
 9002TIP3    H226964   0.803   6.766   3.731
 9003TIP3   OH226965   1.001   6.825   5.018
 9003TIP3    H126966   0.908   6.811   4.995
 9003TIP3    H226967   1.035   6.733   5.017
 9004TIP3   OH226968   0.742   6.614   4.554
 9004TIP3    H126969   0.778   6.661   4.476
 9004TIP3    H226970   0.647   6.636   4.546
 9005TIP3   OH226971   0.818   6.715   4.318
 9005TIP3    H126972   0.889   6.663   4.275
 9005TIP3    H226973   0.853   6.806   4.300
 9006TIP3   OH226974   0.482   6.660   4.519
 9006TIP3    H126975   0.414   6.666   4.451
 9006TIP3    H226976   0.458   6.578   4.567
 9007TIP3   OH226977   0.478   6.544   4.086
 9007TIP3    H126978   0.391   6.569   4.051
 9007TIP3    H226979   0.455   6.462   4.134
 9008TIP3   OH226980   1.939   7.693   3.727
 9008TIP3    H126981   1.904   7.780   3.696
 9008TIP3    H226982   1.867   7.636   3.693
 9009TIP3   OH226983   1.943   7.710   4.099
 9009TIP3    H126984   1.973   7.684   4.188
 9009TIP3    H226985   1.898   7.630   4.069
 9010TIP3   OH226986   1.232   7.607   4.468
 9010TIP3    H126987   1.266   7.538   4.528
 9010TIP3    H226988   1.309   7.664   4.458
 9011TIP3   OH226989   2.156   8.010   3.789
 9011TIP3    H126990   2.151   7.940   3.856
 9011TIP3    H226991   2.204   8.079   3.837
 9012TIP3   OH226992   1.272   7.942   4.282
 9012TIP3    H126993   1.231   7.865   4.239
 9012TIP3    H226994   1.349   7.960   4.224
 9013TIP3   OH226995   0.914   7.213   3.971
 9013TIP3    H126996   0.869   7.297   3.990
 9013TIP3    H226997   0.841   7.164   3.930
 9014TIP3   OH226998   0.968   7.507   4.156
 9014TIP3    H126999   1.019   7.427   4.183
 9014TIP3    H227000   1.036   7.561   4.114
 9015TIP3   OH227001   1.751   7.925   4.143
 9015TIP3    H127002   1.800   7.850   4.106
 9015TIP3    H227003   1.827   7.981   4.170
 9016TIP3   OH227004   2.749   7.256   4.146
 9016TIP3    H127005   2.779   7.339   4.187
 9016TIP3    H227006   2.772   7.270   4.053
 9017TIP3   OH227007   2.147   7.437   4.178
 9017TIP3    H127008   2.189   7.351   4.198
 9017TIP3    H227009   2.114   7.420   4.087
 9018TIP3   OH227010   1.489   7.097   4.143
 9018TIP3    H127011   1.467   7.170   4.081
 9018TIP3    H227012   1.439   7.024   4.100
 9019TIP3   OH227013   2.181   7.190   3.764
 9019TIP3    H127014   2.252   7.174   3.831
 9019TIP3    H227015   2.235   7.224   3.690
 9020TIP3   OH227016   1.117   7.297   4.254
 9020TIP3    H127017   1.201   7.279   4.300
 9020TIP3    H227018   1.130   7.244   4.172
 9021TIP3   OH227019   1.557   7.495   4.050
 9021TIP3    H127020   1.651   7.471   4.060
 9021TIP3    H227021   1.518   7.412   4.016
 9022TIP3   OH227022   2.823   7.467   4.315
 9022TIP3    H127023   2.737   7.511   4.296
 9022TIP3    H227024   2.838   7.495   4.406
 9023TIP3   OH227025   1.481   7.081   4.580
 9023TIP3    H127026   1.422   7.118   4.511
 9023TIP3    H227027   1.427   7.100   4.660
 9024TIP3   OH227028   1.825   7.894   3.580
 9024TIP3    H127029   1.768   7.894   3.502
 9024TIP3    H227030   1.839   7.989   3.596
 9025TIP3   OH227031   1.585   7.863   4.373
 9025TIP3    H127032   1.517   7.927   4.402
 9025TIP3    H227033   1.617   7.906   4.291
 9026TIP3   OH227034   2.385   7.194   3.943
 9026TIP3    H127035   2.370   7.149   4.027
 9026TIP3    H227036   2.437   7.272   3.970
 9027TIP3   OH227037   1.354   7.195   4.362
 9027TIP3    H127038   1.415   7.268   4.386
 9027TIP3    H227039   1.403   7.156   4.286
 9028TIP3   OH227040   1.413   8.079   4.481
 9028TIP3    H127041   1.371   8.068   4.394
 9028TIP3    H227042   1.333   8.076   4.538
 9029TIP3   OH227043   0.816   7.710   3.718
 9029TIP3    H127044   0.775   7.723   3.630
 9029TIP3    H227045   0.828   7.803   3.743
 9030TIP3   OH227046   2.542   7.156   4.313
 9030TIP3    H127047   2.454   7.182   4.279
 9030TIP3    H227048   2.602   7.188   4.243
 9031TIP3   OH227049   1.834   6.797   4.295
 9031TIP3    H127050   1.818   6.703   4.312
 9031TIP3    H227051   1.757   6.837   4.342
 9032TIP3   OH227052   2.191   8.023   3.509
 9032TIP3    H127053   2.155   7.945   3.465
 9032TIP3    H227054   2.196   7.996   3.602
 9033TIP3   OH227055   2.467   8.166   4.294
 9033TIP3    H127056   2.453   8.087   4.239
 9033TIP3    H227057   2.485   8.235   4.228
 9034TIP3   OH227058   1.769   7.555   3.556
 9034TIP3    H127059   1.688   7.609   3.542
 9034TIP3    H227060   1.810   7.558   3.468
 9035TIP3   OH227061   1.726   7.347   3.263
 9035TIP3    H127062   1.791   7.401   3.312
 9035TIP3    H227063   1.785   7.285   3.217
 9036TIP3   OH227064   2.671   7.809   4.138
 9036TIP3    H127065   2.586   7.857   4.146
 9036TIP3    H227066   2.697   7.834   4.047
 9037TIP3   OH227067   2.116   7.636   3.526
 9037TIP3    H127068   2.060   7.657   3.605
 9037TIP3    H227069   2.201   7.613   3.570
 9038TIP3   OH227070   2.348   7.682   4.437
 9038TIP3    H127071   2.346   7.767   4.486
 9038TIP3    H227072   2.261   7.686   4.393
 9039TIP3   OH227073   1.352   7.641   3.929
 9039TIP3    H127074   1.310   7.582   3.863
 9039TIP3    H227075   1.428   7.587   3.962
 9040TIP3   OH227076   1.484   8.004   4.135
 9040TIP3    H127077   1.445   8.009   4.048
 9040TIP3    H227078   1.580   8.007   4.117
 9041TIP3   OH227079   1.478   7.618   4.291
 9041TIP3    H127080   1.512   7.593   4.203
 9041TIP3    H227081   1.522   7.704   4.307
 9042TIP3   OH227082   1.665   8.072   4.615
 9042TIP3    H127083   1.627   8.160   4.634
 9042TIP3    H227084   1.593   8.036   4.561
 9043TIP3   OH227085   1.951   7.501   3.348
 9043TIP3    H127086   2.010   7.563   3.397
 9043TIP3    H227087   1.981   7.516   3.255
 9044TIP3   OH227088   1.379   7.721   4.723
 9044TIP3    H127089   1.384   7.811   4.761
 9044TIP3    H227090   1.283   7.702   4.735
 9045TIP3   OH227091   2.470   6.742   3.396
 9045TIP3    H127092   2.388   6.765   3.446
 9045TIP3    H227093   2.485   6.824   3.346
 9046TIP3   OH227094   1.216   7.482   3.739
 9046TIP3    H127095   1.150   7.529   3.683
 9046TIP3    H227096   1.169   7.401   3.759
 9047TIP3   OH227097   1.007   7.871   4.658
 9047TIP3    H127098   0.942   7.856   4.587
 9047TIP3    H227099   1.042   7.782   4.675
 9048TIP3   OH227100   2.601   7.643   4.614
 9048TIP3    H127101   2.517   7.655   4.567
 9048TIP3    H227102   2.617   7.547   4.603
 9049TIP3   OH227103   1.196   8.074   4.658
 9049TIP3    H127104   1.254   8.032   4.725
 9049TIP3    H227105   1.126   8.006   4.647
 9050TIP3   OH227106   1.598   6.874   4.426
 9050TIP3    H127107   1.509   6.845   4.395
 9050TIP3    H227108   1.571   6.956   4.472
 9051TIP3   OH227109   2.133   6.989   4.618
 9051TIP3    H127110   2.203   6.961   4.682
 9051TIP3    H227111   2.050   6.970   4.667
 9052TIP3   OH227112   2.368   7.420   4.537
 9052TIP3    H127113   2.316   7.417   4.621
 9052TIP3    H227114   2.345   7.508   4.501
 9053TIP3   OH227115   2.030   7.527   3.092
 9053TIP3    H127116   1.999   7.509   3.002
 9053TIP3    H227117   2.084   7.607   3.076
 9054TIP3   OH227118   1.742   6.922   3.396
 9054TIP3    H127119   1.707   6.919   3.487
 9054TIP3    H227120   1.702   6.841   3.359
 9055TIP3   OH227121   1.529   7.395   4.440
 9055TIP3    H127122   1.479   7.415   4.521
 9055TIP3    H227123   1.512   7.476   4.387
 9056TIP3   OH227124   1.414   7.277   3.956
 9056TIP3    H127125   1.320   7.254   3.975
 9056TIP3    H227126   1.424   7.236   3.867
 9057TIP3   OH227127   1.906   7.359   3.687
 9057TIP3    H127128   1.854   7.428   3.641
 9057TIP3    H227129   1.961   7.325   3.613
 9058TIP3   OH227130   2.082   7.635   4.765
 9058TIP3    H127131   2.059   7.564   4.829
 9058TIP3    H227132   2.175   7.652   4.789
 9059TIP3   OH227133   2.060   7.389   3.922
 9059TIP3    H127134   1.997   7.417   3.852
 9059TIP3    H227135   2.095   7.310   3.877
 9060TIP3   OH227136   1.352   7.420   4.649
 9060TIP3    H127137   1.376   7.487   4.715
 9060TIP3    H227138   1.342   7.340   4.704
 9061TIP3   OH227139   1.398   6.898   3.360
 9061TIP3    H127140   1.387   6.898   3.457
 9061TIP3    H227141   1.322   6.953   3.334
 9062TIP3   OH227142   0.945   6.935   4.238
 9062TIP3    H127143   1.019   6.973   4.288
 9062TIP3    H227144   0.981   6.919   4.150
 9063TIP3   OH227145   0.909   6.921   3.749
 9063TIP3    H127146   0.954   6.960   3.671
 9063TIP3    H227147   0.847   6.994   3.769
 9064TIP3   OH227148   2.073   7.635   4.344
 9064TIP3    H127149   2.105   7.563   4.284
 9064TIP3    H227150   2.040   7.581   4.419
 9065TIP3   OH227151   1.745   7.096   4.016
 9065TIP3    H127152   1.663   7.097   4.068
 9065TIP3    H227153   1.813   7.094   4.085
 9066TIP3   OH227154   1.174   7.157   4.025
 9066TIP3    H127155   1.080   7.168   3.995
 9066TIP3    H227156   1.194   7.066   3.999
 9067TIP3   OH227157   1.440   7.149   3.716
 9067TIP3    H127158   1.533   7.166   3.692
 9067TIP3    H227159   1.392   7.171   3.633
 9068TIP3   OH227160   2.233   7.175   4.219
 9068TIP3    H127161   2.201   7.189   4.311
 9068TIP3    H227162   2.164   7.115   4.185
 9069TIP3   OH227163   1.292   7.181   3.492
 9069TIP3    H127164   1.218   7.140   3.443
 9069TIP3    H227165   1.342   7.221   3.418
 9070TIP3   OH227166   1.365   7.970   4.856
 9070TIP3    H127167   1.443   7.999   4.908
 9070TIP3    H227168   1.300   7.960   4.929
 9071TIP3   OH227169   1.822   7.429   4.115
 9071TIP3    H127170   1.896   7.391   4.065
 9071TIP3    H227171   1.828   7.384   4.201
 9072TIP3   OH227172   1.345   6.914   3.996
 9072TIP3    H127173   1.308   6.837   4.044
 9072TIP3    H227174   1.386   6.873   3.920
 9073TIP3   OH227175   1.799   7.327   4.405
 9073TIP3    H127176   1.709   7.363   4.417
 9073TIP3    H227177   1.855   7.390   4.454
 9074TIP3   OH227178   1.539   7.699   3.509
 9074TIP3    H127179   1.461   7.642   3.494
 9074TIP3    H227180   1.513   7.745   3.592
 9075TIP3   OH227181   2.434   7.945   4.132
 9075TIP3    H127182   2.460   7.996   4.052
 9075TIP3    H227183   2.350   7.903   4.103
 9076TIP3   OH227184   1.994   7.024   3.367
 9076TIP3    H127185   1.897   7.005   3.373
 9076TIP3    H227186   2.001   7.118   3.390
 9077TIP3   OH227187   1.948   8.059   4.495
 9077TIP3    H127188   1.978   8.007   4.571
 9077TIP3    H227189   1.862   8.091   4.526
 9078TIP3   OH227190   2.062   7.275   3.468
 9078TIP3    H127191   2.159   7.282   3.481
 9078TIP3    H227192   2.042   7.356   3.417
 9079TIP3   OH227193   1.208   7.690   4.161
 9079TIP3    H127194   1.257   7.682   4.077
 9079TIP3    H227195   1.270   7.652   4.224
 9080TIP3   OH227196   1.645   7.884   3.338
 9080TIP3    H127197   1.606   7.957   3.393
 9080TIP3    H227198   1.609   7.807   3.386
 9081TIP3   OH227199   1.116   7.648   4.789
 9081TIP3    H127200   1.126   7.633   4.885
 9081TIP3    H227201   1.042   7.588   4.769
 9082TIP3   OH227202   1.842   7.761   4.813
 9082TIP3    H127203   1.778   7.712   4.759
 9082TIP3    H227204   1.927   7.726   4.779
 9083TIP3   OH227205   2.503   7.370   3.302
 9083TIP3    H127206   2.442   7.325   3.238
 9083TIP3    H227207   2.500   7.459   3.261
 9084TIP3   OH227208   2.724   8.205   4.382
 9084TIP3    H127209   2.627   8.217   4.372
 9084TIP3    H227210   2.749   8.193   4.287
 9085TIP3   OH227211   2.201   7.818   4.032
 9085TIP3    H127212   2.109   7.793   4.054
 9085TIP3    H227213   2.234   7.734   3.994
 9086TIP3   OH227214   0.899   7.344   3.506
 9086TIP3    H127215   0.941   7.430   3.525
 9086TIP3    H227216   0.820   7.348   3.565
 9087TIP3   OH227217   1.464   7.820   3.745
 9087TIP3    H127218   1.418   7.899   3.776
 9087TIP3    H227219   1.437   7.757   3.815
 9088TIP3   OH227220   1.993   8.017   4.225
 9088TIP3    H127221   1.980   8.030   4.321
 9088TIP3    H227222   2.076   7.969   4.222
 9089TIP3   OH227223   1.994   7.840   3.080
 9089TIP3    H127224   2.026   7.833   3.172
 9089TIP3    H227225   1.916   7.899   3.090
 9090TIP3   OH227226   1.320   7.161   4.796
 9090TIP3    H127227   1.223   7.158   4.808
 9090TIP3    H227228   1.350   7.105   4.869
 9091TIP3   OH227229   2.121   7.820   3.327
 9091TIP3    H127230   2.116   7.750   3.395
 9091TIP3    H227231   2.217   7.824   3.309
 9092TIP3   OH227232   1.314   7.842   3.157
 9092TIP3    H127233   1.353   7.755   3.137
 9092TIP3    H227234   1.339   7.857   3.248
 9093TIP3   OH227235   1.017   7.587   3.582
 9093TIP3    H127236   0.950   7.623   3.644
 9093TIP3    H227237   1.019   7.660   3.516
 9094TIP3   OH227238   2.161   7.227   4.479
 9094TIP3    H127239   2.241   7.265   4.518
 9094TIP3    H227240   2.148   7.146   4.534
 9095TIP3   OH227241   2.041   6.974   3.648
 9095TIP3    H127242   2.027   6.996   3.554
 9095TIP3    H227243   2.079   7.057   3.682
 9096TIP3   OH227244   1.725   7.159   3.746
 9096TIP3    H127245   1.789   7.232   3.730
 9096TIP3    H227246   1.731   7.150   3.844
 9097TIP3   OH227247   1.996   7.475   4.550
 9097TIP3    H127248   2.022   7.527   4.629
 9097TIP3    H227249   2.049   7.394   4.561
 9098TIP3   OH227250   1.868   6.879   3.846
 9098TIP3    H127251   1.858   6.958   3.903
 9098TIP3    H227252   1.931   6.913   3.778
 9099TIP3   OH227253   1.383   6.885   3.637
 9099TIP3    H127254   1.379   6.976   3.673
 9099TIP3    H227255   1.479   6.868   3.644
 9100TIP3   OH227256   2.635   7.377   4.534
 9100TIP3    H127257   2.537   7.376   4.542
 9100TIP3    H227258   2.645   7.329   4.451
 9101TIP3   OH227259   2.287   7.571   3.922
 9101TIP3    H127260   2.210   7.512   3.934
 9101TIP3    H227261   2.357   7.523   3.971
 9102TIP3   OH227262   1.006   7.801   3.396
 9102TIP3    H127263   1.029   7.895   3.387
 9102TIP3    H227264   1.062   7.759   3.327
 9103TIP3   OH227265   0.942   7.074   3.523
 9103TIP3    H127266   0.947   7.172   3.525
 9103TIP3    H227267   0.855   7.061   3.486
 9104TIP3   OH227268   1.332   6.795   4.396
 9104TIP3    H127269   1.302   6.762   4.308
 9104TIP3    H227270   1.320   6.717   4.452
 9105TIP3   OH227271   1.159   7.938   5.034
 9105TIP3    H127272   1.180   7.843   5.044
 9105TIP3    H227273   1.070   7.934   4.995
 9106TIP3   OH227274   1.132   7.603   3.247
 9106TIP3    H127275   1.180   7.571   3.325
 9106TIP3    H227276   1.205   7.605   3.182
 9107TIP3   OH227277   1.784   8.026   4.856
 9107TIP3    H127278   1.750   8.041   4.765
 9107TIP3    H227279   1.818   7.935   4.847
 9108TIP3   OH227280   1.589   7.782   3.062
 9108TIP3    H127281   1.619   7.800   3.152
 9108TIP3    H227282   1.617   7.690   3.048
 9109TIP3   OH227283   2.255   8.047   4.430
 9109TIP3    H127284   2.321   8.107   4.389
 9109TIP3    H227285   2.176   8.102   4.427
 9110TIP3   OH227286   1.285   7.689   5.038
 9110TIP3    H127287   1.367   7.649   5.007
 9110TIP3    H227288   1.312   7.726   5.125
 9111TIP3   OH227289   1.336   7.516   3.463
 9111TIP3    H127290   1.306   7.475   3.546
 9111TIP3    H227291   1.375   7.441   3.415
 9112TIP3   OH227292   1.614   7.580   4.694
 9112TIP3    H127293   1.536   7.639   4.695
 9112TIP3    H227294   1.665   7.617   4.617
 9113TIP3   OH227295   1.447   7.311   3.308
 9113TIP3    H127296   1.421   7.315   3.213
 9113TIP3    H227297   1.544   7.315   3.300
 9114TIP3   OH227298   2.135   7.972   4.827
 9114TIP3    H127299   2.215   7.948   4.779
 9114TIP3    H227300   2.133   7.908   4.900
 9115TIP3   OH227301   2.270   7.647   2.966
 9115TIP3    H127302   2.242   7.597   2.887
 9115TIP3    H227303   2.247   7.738   2.938
 9116TIP3   OH227304   1.737   7.371   4.818
 9116TIP3    H127305   1.737   7.293   4.759
 9116TIP3    H227306   1.693   7.439   4.761
 9117TIP3   OH227307   1.739   7.157   4.628
 9117TIP3    H127308   1.768   7.199   4.545
 9117TIP3    H227309   1.646   7.135   4.609
 9118TIP3   OH227310   1.760   7.698   4.502
 9118TIP3    H127311   1.843   7.707   4.453
 9118TIP3    H227312   1.702   7.763   4.457
 9119TIP3   OH227313   2.346   7.658   4.879
 9119TIP3    H127314   2.397   7.576   4.888
 9119TIP3    H227315   2.413   7.719   4.846
 9120TIP3   OH227316   2.388   7.909   4.619
 9120TIP3    H127317   2.331   7.963   4.559
 9120TIP3    H227318   2.476   7.930   4.580
 9121TIP3   OH227319   1.615   7.477   5.053
 9121TIP3    H127320   1.547   7.409   5.068
 9121TIP3    H227321   1.648   7.454   4.964
 9122TIP3   OH227322   1.871   6.919   4.698
 9122TIP3    H127323   1.821   7.000   4.674
 9122TIP3    H227324   1.803   6.850   4.685
 9123TIP3   OH227325   1.997   7.421   4.911
 9123TIP3    H127326   1.982   7.407   5.007
 9123TIP3    H227327   1.908   7.398   4.878
 9124TIP3   OH227328   2.235   7.372   4.767
 9124TIP3    H127329   2.161   7.374   4.830
 9124TIP3    H227330   2.310   7.343   4.823
 9125TIP3   OH227331   2.466   7.315   4.915
 9125TIP3    H127332   2.478   7.219   4.931
 9125TIP3    H227333   2.462   7.351   5.006
 9126TIP3   OH227334   1.451   7.258   5.107
 9126TIP3    H127335   1.458   7.167   5.073
 9126TIP3    H227336   1.489   7.248   5.197
 9127TIP3   OH227337   1.962   6.928   4.957
 9127TIP3    H127338   2.029   6.857   4.949
 9127TIP3    H227339   1.923   6.924   4.867
 9128TIP3   OH227340   2.031   7.144   5.114
 9128TIP3    H127341   2.010   7.073   5.049
 9128TIP3    H227342   1.953   7.202   5.106
 9129TIP3   OH227343   0.744   7.705   3.431
 9129TIP3    H127344   0.825   7.750   3.400
 9129TIP3    H227345   0.736   7.631   3.368
 9130TIP3   OH227346   2.620   8.332   4.662
 9130TIP3    H127347   2.542   8.315   4.720
 9130TIP3    H227348   2.653   8.415   4.698
 9131TIP3   OH227349   2.395   7.818   3.312
 9131TIP3    H127350   2.462   7.881   3.277
 9131TIP3    H227351   2.443   7.781   3.389
 9132TIP3   OH227352   2.532   7.693   3.514
 9132TIP3    H127353   2.464   7.649   3.569
 9132TIP3    H227354   2.592   7.732   3.580
 9133TIP3   OH227355   2.570   8.084   3.943
 9133TIP3    H127356   2.632   8.026   3.893
 9133TIP3    H227357   2.566   8.164   3.889
 9134TIP3   OH227358   2.465   7.603   3.151
 9134TIP3    H127359   2.396   7.606   3.081
 9134TIP3    H227360   2.435   7.678   3.207
 9135TIP3   OH227361   2.341   7.274   3.107
 9135TIP3    H127362   2.291   7.314   3.034
 9135TIP3    H227363   2.316   7.180   3.097
 9136TIP3   OH227364   2.345   7.552   3.655
 9136TIP3    H127365   2.351   7.455   3.644
 9136TIP3    H227366   2.330   7.561   3.752
 9137TIP3   OH227367   0.967   7.625   4.405
 9137TIP3    H127368   0.962   7.591   4.313
 9137TIP3    H227369   1.065   7.628   4.418
 9138TIP3   OH227370   2.632   7.974   4.514
 9138TIP3    H127371   2.704   7.909   4.502
 9138TIP3    H227372   2.656   8.045   4.452
 9139TIP3   OH227373   2.818   7.778   4.520
 9139TIP3    H127374   2.742   7.730   4.561
 9139TIP3    H227375   2.890   7.714   4.538
 9140TIP3   OH227376   2.281   7.009   3.090
 9140TIP3    H127377   2.354   6.977   3.147
 9140TIP3    H227378   2.207   6.950   3.111
 9141TIP3   OH227379   2.342   7.271   3.545
 9141TIP3    H127380   2.381   7.182   3.561
 9141TIP3    H227381   2.399   7.302   3.473
 9142TIP3   OH227382   2.498   7.439   4.044
 9142TIP3    H127383   2.584   7.463   4.001
 9142TIP3    H227384   2.514   7.476   4.132
 9143TIP3   OH227385   2.572   7.586   4.273
 9143TIP3    H127386   2.495   7.620   4.322
 9143TIP3    H227387   2.604   7.667   4.229
 9144TIP3   OH227388   1.184   7.303   5.067
 9144TIP3    H127389   1.281   7.302   5.075
 9144TIP3    H227390   1.161   7.216   5.106
 9145TIP3   OH227391   3.021   7.179   4.829
 9145TIP3    H127392   3.082   7.115   4.788
 9145TIP3    H227393   2.991   7.231   4.750
 9146TIP3   OH227394   2.448   7.020   3.585
 9146TIP3    H127395   2.496   7.003   3.669
 9146TIP3    H227396   2.387   6.943   3.584
 9147TIP3   OH227397   1.149   7.005   4.413
 9147TIP3    H127398   1.211   6.930   4.416
 9147TIP3    H227399   1.211   7.080   4.399
 9148TIP3   OH227400   0.952   7.275   4.481
 9148TIP3    H127401   0.998   7.271   4.395
 9148TIP3    H227402   0.974   7.365   4.509
 9149TIP3   OH227403   2.890   7.315   4.631
 9149TIP3    H127404   2.804   7.358   4.649
 9149TIP3    H227405   2.859   7.240   4.575
 9150TIP3   OH227406   2.526   6.950   3.220
 9150TIP3    H127407   2.566   6.880   3.164
 9150TIP3    H227408   2.593   7.021   3.216
 9151TIP3   OH227409   0.935   6.779   3.977
 9151TIP3    H127410   0.842   6.774   4.007
 9151TIP3    H227411   0.928   6.839   3.901
 9152TIP3   OH227412   1.157   6.857   4.788
 9152TIP3    H127413   1.106   6.860   4.871
 9152TIP3    H227414   1.093   6.897   4.726
 9153TIP3   OH227415   2.791   7.077   4.515
 9153TIP3    H127416   2.701   7.066   4.479
 9153TIP3    H227417   2.826   6.985   4.506
 9154TIP3   OH227418   1.998   6.994   4.137
 9154TIP3    H127419   1.954   6.922   4.186
 9154TIP3    H227420   2.071   6.948   4.091
 9155TIP3   OH227421   2.516   6.875   4.038
 9155TIP3    H127422   2.552   6.926   3.963
 9155TIP3    H227423   2.420   6.894   4.031
 9156TIP3   OH227424   2.612   6.973   3.802
 9156TIP3    H127425   2.686   6.921   3.764
 9156TIP3    H227426   2.646   7.064   3.787
 9157TIP3   OH227427   1.244   6.702   4.149
 9157TIP3    H127428   1.151   6.672   4.151
 9157TIP3    H227429   1.290   6.616   4.144
 9158TIP3   OH227430   1.038   6.574   3.801
 9158TIP3    H127431   1.063   6.631   3.726
 9158TIP3    H227432   1.006   6.639   3.866
 9159TIP3   OH227433   1.693   6.731   4.032
 9159TIP3    H127434   1.746   6.780   3.967
 9159TIP3    H227435   1.717   6.775   4.114
 9160TIP3   OH227436   2.231   6.882   4.013
 9160TIP3    H127437   2.235   6.841   3.926
 9160TIP3    H227438   2.220   6.803   4.071
 9161TIP3   OH227439   2.265   6.807   3.577
 9161TIP3    H127440   2.179   6.851   3.594
 9161TIP3    H227441   2.250   6.721   3.622
 9162TIP3   OH227442   1.151   6.729   3.561
 9162TIP3    H127443   1.199   6.668   3.502
 9162TIP3    H227444   1.223   6.784   3.596
 9163TIP3   OH227445   1.660   6.909   3.659
 9163TIP3    H127446   1.721   6.863   3.719
 9163TIP3    H227447   1.681   7.002   3.684
 9164TIP3   OH227448   1.452   6.981   5.037
 9164TIP3    H127449   1.413   6.915   5.097
 9164TIP3    H227450   1.546   6.980   5.067
 9165TIP3   OH227451   1.702   6.980   5.159
 9165TIP3    H127452   1.787   6.959   5.117
 9165TIP3    H227453   1.693   6.908   5.224
 9166TIP3   OH227454   2.529   7.044   4.946
 9166TIP3    H127455   2.547   7.013   5.037
 9166TIP3    H227456   2.618   7.039   4.906
 9167TIP3   OH227457   3.733   7.952   3.212
 9167TIP3    H127458   3.693   8.038   3.188
 9167TIP3    H227459   3.664   7.894   3.176
 9168TIP3   OH227460   3.730   7.967   3.590
 9168TIP3    H127461   3.767   7.944   3.677
 9168TIP3    H227462   3.693   7.883   3.561
 9169TIP3   OH227463   3.028   7.864   3.947
 9169TIP3    H127464   3.050   7.794   4.011
 9169TIP3    H227465   3.114   7.908   3.940
 9170TIP3   OH227466   3.949   8.270   3.279
 9170TIP3    H127467   3.949   8.198   3.344
 9170TIP3    H227468   4.009   8.334   3.320
 9171TIP3   OH227469   2.709   7.475   3.457
 9171TIP3    H127470   2.657   7.556   3.474
 9171TIP3    H227471   2.640   7.420   3.415
 9172TIP3   OH227472   2.774   7.764   3.639
 9172TIP3    H127473   2.820   7.684   3.673
 9172TIP3    H227474   2.815   7.773   3.552
 9173TIP3   OH227475   3.538   8.180   3.633
 9173TIP3    H127476   3.590   8.104   3.600
 9173TIP3    H227477   3.613   8.238   3.658
 9174TIP3   OH227478   4.545   7.513   3.633
 9174TIP3    H127479   4.575   7.596   3.675
 9174TIP3    H227480   4.570   7.528   3.540
 9175TIP3   OH227481   3.942   7.694   3.664
 9175TIP3    H127482   3.985   7.610   3.686
 9175TIP3    H227483   3.910   7.675   3.574
 9176TIP3   OH227484   3.283   7.354   3.630
 9176TIP3    H127485   3.263   7.426   3.567
 9176TIP3    H227486   3.235   7.280   3.587
 9177TIP3   OH227487   3.977   7.447   3.250
 9177TIP3    H127488   4.047   7.431   3.318
 9177TIP3    H227489   4.032   7.480   3.177
 9178TIP3   OH227490   2.914   7.554   3.739
 9178TIP3    H127491   2.997   7.535   3.787
 9178TIP3    H227492   2.928   7.498   3.660
 9179TIP3   OH227493   3.351   7.755   3.535
 9179TIP3    H127494   3.446   7.731   3.546
 9179TIP3    H227495   3.314   7.670   3.503
 9180TIP3   OH227496   4.619   7.722   3.803
 9180TIP3    H127497   4.534   7.767   3.784
 9180TIP3    H227498   4.638   7.755   3.892
 9181TIP3   OH227499   3.277   7.338   4.066
 9181TIP3    H127500   3.217   7.374   3.998
 9181TIP3    H227501   3.225   7.355   4.147
 9182TIP3   OH227502   3.607   8.156   3.076
 9182TIP3    H127503   3.570   8.156   2.986
 9182TIP3    H227504   3.645   8.246   3.083
 9183TIP3   OH227505   3.382   8.118   3.854
 9183TIP3    H127506   3.323   8.189   3.886
 9183TIP3    H227507   3.427   8.160   3.778
 9184TIP3   OH227508   4.181   7.452   3.429
 9184TIP3    H127509   4.171   7.404   3.512
 9184TIP3    H227510   4.234   7.529   3.456
 9185TIP3   OH227511   3.149   7.453   3.849
 9185TIP3    H127512   3.212   7.524   3.874
 9185TIP3    H227513   3.198   7.412   3.774
 9186TIP3   OH227514   3.210   8.327   3.955
 9186TIP3    H127515   3.175   8.375   3.878
 9186TIP3    H227516   3.131   8.322   4.013
 9187TIP3   OH227517   2.602   7.964   3.202
 9187TIP3    H127518   2.569   7.962   3.109
 9187TIP3    H227519   2.616   8.060   3.210
 9188TIP3   OH227520   4.338   7.412   3.798
 9188TIP3    H127521   4.251   7.440   3.765
 9188TIP3    H227522   4.399   7.445   3.729
 9189TIP3   OH227523   3.628   7.052   3.780
 9189TIP3    H127524   3.615   6.958   3.800
 9189TIP3    H227525   3.552   7.091   3.828
 9190TIP3   OH227526   3.984   8.281   2.997
 9190TIP3    H127527   3.956   8.201   2.950
 9190TIP3    H227528   3.994   8.252   3.089
 9191TIP3   OH227529   4.261   8.423   3.781
 9191TIP3    H127530   4.251   8.345   3.723
 9191TIP3    H227531   4.294   8.491   3.719
 9192TIP3   OH227532   3.566   7.813   3.042
 9192TIP3    H127533   3.485   7.865   3.024
 9192TIP3    H227534   3.609   7.812   2.954
 9193TIP3   OH227535   3.521   7.604   2.752
 9193TIP3    H127536   3.587   7.657   2.799
 9193TIP3    H227537   3.578   7.541   2.705
 9194TIP3   OH227538   4.467   8.062   3.624
 9194TIP3    H127539   4.384   8.113   3.630
 9194TIP3    H227540   4.498   8.088   3.535
 9195TIP3   OH227541   3.912   7.893   3.013
 9195TIP3    H127542   3.858   7.914   3.093
 9195TIP3    H227543   3.997   7.869   3.056
 9196TIP3   OH227544   4.144   7.939   3.925
 9196TIP3    H127545   4.143   8.022   3.975
 9196TIP3    H227546   4.058   7.945   3.879
 9197TIP3   OH227547   3.145   7.903   3.424
 9197TIP3    H127548   3.101   7.844   3.359
 9197TIP3    H227549   3.220   7.847   3.455
 9198TIP3   OH227550   3.258   8.285   3.597
 9198TIP3    H127551   3.302   8.220   3.540
 9198TIP3    H227552   3.335   8.337   3.626
 9199TIP3   OH227553   3.273   7.875   3.778
 9199TIP3    H127554   3.308   7.846   3.692
 9199TIP3    H227555   3.321   7.959   3.794
 9200TIP3   OH227556   3.452   8.325   4.104
 9200TIP3    H127557   3.419   8.414   4.125
 9200TIP3    H227558   3.378   8.292   4.050
 9201TIP3   OH227559   3.747   7.759   2.835
 9201TIP3    H127560   3.806   7.819   2.885
 9201TIP3    H227561   3.778   7.773   2.743
 9202TIP3   OH227562   3.172   7.983   4.206
 9202TIP3    H127563   3.177   8.071   4.247
 9202TIP3    H227564   3.078   7.961   4.222
 9203TIP3   OH227565   4.266   6.999   2.883
 9203TIP3    H127566   4.184   7.020   2.933
 9203TIP3    H227567   4.280   7.083   2.833
 9204TIP3   OH227568   3.005   7.746   3.241
 9204TIP3    H127569   2.942   7.786   3.177
 9204TIP3    H227570   2.976   7.654   3.241
 9205TIP3   OH227571   2.808   8.126   4.134
 9205TIP3    H127572   2.730   8.107   4.079
 9205TIP3    H227573   2.838   8.037   4.162
 9206TIP3   OH227574   4.397   7.899   4.102
 9206TIP3    H127575   4.314   7.909   4.053
 9206TIP3    H227576   4.414   7.803   4.092
 9207TIP3   OH227577   2.998   8.326   4.133
 9207TIP3    H127578   3.051   8.290   4.207
 9207TIP3    H227579   2.924   8.260   4.128
 9208TIP3   OH227580   3.393   7.131   3.912
 9208TIP3    H127581   3.305   7.101   3.882
 9208TIP3    H227582   3.366   7.212   3.961
 9209TIP3   OH227583   3.930   7.247   4.105
 9209TIP3    H127584   3.999   7.217   4.167
 9209TIP3    H227585   3.847   7.226   4.154
 9210TIP3   OH227586   4.162   7.675   4.022
 9210TIP3    H127587   4.113   7.673   4.107
 9210TIP3    H227588   4.142   7.764   3.987
 9211TIP3   OH227589   3.832   7.784   2.581
 9211TIP3    H127590   3.795   7.766   2.492
 9211TIP3    H227591   3.869   7.873   2.568
 9212TIP3   OH227592   3.539   7.179   2.883
 9212TIP3    H127593   3.503   7.175   2.974
 9212TIP3    H227594   3.499   7.098   2.846
 9213TIP3   OH227595   3.324   7.652   3.927
 9213TIP3    H127596   3.275   7.672   4.009
 9213TIP3    H227597   3.307   7.733   3.874
 9214TIP3   OH227598   3.208   7.536   3.443
 9214TIP3    H127599   3.116   7.508   3.462
 9214TIP3    H227600   3.221   7.495   3.354
 9215TIP3   OH227601   3.702   7.616   3.173
 9215TIP3    H127602   3.650   7.685   3.127
 9215TIP3    H227603   3.758   7.581   3.101
 9216TIP3   OH227604   3.878   7.892   4.253
 9216TIP3    H127605   3.856   7.821   4.316
 9216TIP3    H227606   3.971   7.908   4.276
 9217TIP3   OH227607   3.856   7.645   3.408
 9217TIP3    H127608   3.793   7.672   3.337
 9217TIP3    H227609   3.892   7.566   3.364
 9218TIP3   OH227610   3.141   7.676   4.134
 9218TIP3    H127611   3.176   7.739   4.200
 9218TIP3    H227612   3.132   7.594   4.186
 9219TIP3   OH227613   3.195   7.155   2.846
 9219TIP3    H127614   3.184   7.154   2.944
 9219TIP3    H227615   3.117   7.208   2.820
 9220TIP3   OH227616   2.738   7.196   3.719
 9220TIP3    H127617   2.814   7.229   3.772
 9220TIP3    H227618   2.778   7.165   3.637
 9221TIP3   OH227619   2.703   7.178   3.238
 9221TIP3    H127620   2.749   7.213   3.159
 9221TIP3    H227621   2.642   7.252   3.255
 9222TIP3   OH227622   3.863   7.891   3.829
 9222TIP3    H127623   3.898   7.820   3.770
 9222TIP3    H227624   3.835   7.837   3.906
 9223TIP3   OH227625   3.541   7.358   3.503
 9223TIP3    H127626   3.461   7.355   3.559
 9223TIP3    H227627   3.612   7.347   3.569
 9224TIP3   OH227628   2.970   7.412   3.511
 9224TIP3    H127629   2.877   7.419   3.481
 9224TIP3    H227630   2.994   7.320   3.488
 9225TIP3   OH227631   3.236   7.409   3.202
 9225TIP3    H127632   3.330   7.421   3.181
 9225TIP3    H227633   3.190   7.429   3.117
 9226TIP3   OH227634   4.028   7.434   3.707
 9226TIP3    H127635   3.996   7.446   3.799
 9226TIP3    H227636   3.962   7.371   3.672
 9227TIP3   OH227637   3.085   7.445   2.978
 9227TIP3    H127638   3.015   7.398   2.929
 9227TIP3    H227639   3.138   7.481   2.904
 9228TIP3   OH227640   3.159   8.232   4.343
 9228TIP3    H127641   3.239   8.257   4.395
 9228TIP3    H227642   3.095   8.219   4.415
 9229TIP3   OH227643   3.617   7.688   3.600
 9229TIP3    H127644   3.690   7.647   3.551
 9229TIP3    H227645   3.623   7.642   3.686
 9230TIP3   OH227646   3.138   7.172   3.483
 9230TIP3    H127647   3.102   7.095   3.533
 9230TIP3    H227648   3.187   7.128   3.412
 9231TIP3   OH227649   3.595   7.585   3.889
 9231TIP3    H127650   3.505   7.621   3.904
 9231TIP3    H227651   3.652   7.645   3.940
 9232TIP3   OH227652   3.335   7.953   2.988
 9232TIP3    H127653   3.258   7.894   2.974
 9232TIP3    H227654   3.311   7.995   3.074
 9233TIP3   OH227655   4.232   8.204   3.615
 9233TIP3    H127656   4.260   8.254   3.535
 9233TIP3    H227657   4.149   8.162   3.586
 9234TIP3   OH227658   3.789   7.282   2.851
 9234TIP3    H127659   3.693   7.261   2.861
 9234TIP3    H227660   3.795   7.376   2.878
 9235TIP3   OH227661   3.741   8.311   3.983
 9235TIP3    H127662   3.776   8.262   4.057
 9235TIP3    H227663   3.663   8.353   4.021
 9236TIP3   OH227664   3.859   7.532   2.955
 9236TIP3    H127665   3.955   7.538   2.971
 9236TIP3    H227666   3.840   7.613   2.905
 9237TIP3   OH227667   3.016   8.010   3.643
 9237TIP3    H127668   3.061   7.961   3.570
 9237TIP3    H227669   3.040   7.953   3.719
 9238TIP3   OH227670   3.445   8.145   2.829
 9238TIP3    H127671   3.400   8.215   2.882
 9238TIP3    H227672   3.409   8.065   2.873
 9239TIP3   OH227673   2.910   7.907   4.276
 9239TIP3    H127674   2.924   7.891   4.372
 9239TIP3    H227675   2.838   7.844   4.257
 9240TIP3   OH227676   3.639   8.017   4.299
 9240TIP3    H127677   3.576   7.966   4.246
 9240TIP3    H227678   3.725   7.983   4.267
 9241TIP3   OH227679   4.296   7.625   2.789
 9241TIP3    H127680   4.239   7.581   2.722
 9241TIP3    H227681   4.294   7.716   2.750
 9242TIP3   OH227682   4.519   8.460   3.871
 9242TIP3    H127683   4.423   8.476   3.862
 9242TIP3    H227684   4.544   8.446   3.777
 9243TIP3   OH227685   3.996   8.077   3.517
 9243TIP3    H127686   3.904   8.051   3.540
 9243TIP3    H227687   4.030   7.992   3.481
 9244TIP3   OH227688   2.694   7.600   2.994
 9244TIP3    H127689   2.736   7.687   3.011
 9244TIP3    H227690   2.614   7.607   3.051
 9245TIP3   OH227691   3.261   8.063   3.225
 9245TIP3    H127692   3.251   8.154   3.254
 9245TIP3    H227693   3.234   8.011   3.304
 9246TIP3   OH227694   3.781   8.271   3.712
 9246TIP3    H127695   3.772   8.284   3.809
 9246TIP3    H227696   3.869   8.232   3.705
 9247TIP3   OH227697   3.791   8.091   2.569
 9247TIP3    H127698   3.824   8.090   2.661
 9247TIP3    H227699   3.715   8.152   2.576
 9248TIP3   OH227700   3.115   7.420   4.280
 9248TIP3    H127701   3.018   7.421   4.292
 9248TIP3    H227702   3.143   7.363   4.353
 9249TIP3   OH227703   3.917   8.078   2.816
 9249TIP3    H127704   3.914   8.007   2.883
 9249TIP3    H227705   4.013   8.081   2.796
 9250TIP3   OH227706   3.108   8.097   2.646
 9250TIP3    H127707   3.147   8.011   2.621
 9250TIP3    H227708   3.143   8.111   2.734
 9251TIP3   OH227709   2.813   7.845   3.070
 9251TIP3    H127710   2.743   7.881   3.129
 9251TIP3    H227711   2.815   7.915   3.002
 9252TIP3   OH227712   3.954   7.485   3.968
 9252TIP3    H127713   4.036   7.523   4.003
 9252TIP3    H227714   3.943   7.404   4.022
 9253TIP3   OH227715   3.836   7.232   3.134
 9253TIP3    H127716   3.823   7.253   3.040
 9253TIP3    H227717   3.875   7.315   3.169
 9254TIP3   OH227718   3.519   7.418   3.234
 9254TIP3    H127719   3.585   7.488   3.217
 9254TIP3    H227720   3.527   7.407   3.331
 9255TIP3   OH227721   3.793   7.731   4.038
 9255TIP3    H127722   3.820   7.781   4.117
 9255TIP3    H227723   3.846   7.650   4.045
 9256TIP3   OH227724   3.664   7.136   3.332
 9256TIP3    H127725   3.662   7.212   3.392
 9256TIP3    H227726   3.727   7.169   3.263
 9257TIP3   OH227727   3.178   7.142   3.123
 9257TIP3    H127728   3.176   7.231   3.162
 9257TIP3    H227729   3.274   7.123   3.130
 9258TIP3   OH227730   4.430   7.633   4.023
 9258TIP3    H127731   4.332   7.631   4.028
 9258TIP3    H227732   4.444   7.589   3.938
 9259TIP3   OH227733   4.082   7.828   3.411
 9259TIP3    H127734   4.007   7.767   3.423
 9259TIP3    H227735   4.154   7.781   3.458
 9260TIP3   OH227736   2.806   8.060   2.885
 9260TIP3    H127737   2.827   8.153   2.867
 9260TIP3    H227738   2.858   8.013   2.816
 9261TIP3   OH227739   2.737   7.330   3.014
 9261TIP3    H127740   2.740   7.428   3.013
 9261TIP3    H227741   2.659   7.313   2.961
 9262TIP3   OH227742   3.127   7.052   3.883
 9262TIP3    H127743   3.098   7.017   3.796
 9262TIP3    H227744   3.117   6.974   3.941
 9263TIP3   OH227745   2.956   8.199   4.523
 9263TIP3    H127746   2.977   8.104   4.531
 9263TIP3    H227747   2.866   8.195   4.483
 9264TIP3   OH227748   2.927   7.859   2.737
 9264TIP3    H127749   2.977   7.825   2.812
 9264TIP3    H227750   2.998   7.864   2.669
 9265TIP3   OH227751   3.577   8.281   4.340
 9265TIP3    H127752   3.542   8.293   4.250
 9265TIP3    H227753   3.613   8.190   4.333
 9266TIP3   OH227754   3.381   8.039   2.553
 9266TIP3    H127755   3.419   8.056   2.640
 9266TIP3    H227756   3.412   7.949   2.535
 9267TIP3   OH227757   4.050   8.307   3.915
 9267TIP3    H127758   4.122   8.358   3.873
 9267TIP3    H227759   3.977   8.371   3.908
 9268TIP3   OH227760   3.081   7.950   4.521
 9268TIP3    H127761   3.158   7.899   4.495
 9268TIP3    H227762   3.109   7.984   4.609
 9269TIP3   OH227763   3.132   7.770   2.949
 9269TIP3    H127764   3.106   7.721   3.029
 9269TIP3    H227765   3.174   7.699   2.895
 9270TIP3   OH227766   3.406   7.835   4.178
 9270TIP3    H127767   3.330   7.897   4.179
 9270TIP3    H227768   3.460   7.871   4.104
 9271TIP3   OH227769   3.243   7.570   2.794
 9271TIP3    H127770   3.218   7.572   2.699
 9271TIP3    H227771   3.341   7.571   2.786
 9272TIP3   OH227772   3.932   8.231   4.312
 9272TIP3    H127773   4.014   8.208   4.266
 9272TIP3    H227774   3.931   8.167   4.385
 9273TIP3   OH227775   4.078   7.905   2.445
 9273TIP3    H127776   4.037   7.855   2.372
 9273TIP3    H227777   4.049   7.996   2.422
 9274TIP3   OH227778   3.532   7.628   4.306
 9274TIP3    H127779   3.534   7.549   4.249
 9274TIP3    H227780   3.488   7.694   4.248
 9275TIP3   OH227781   3.535   7.416   4.116
 9275TIP3    H127782   3.564   7.455   4.031
 9275TIP3    H227783   3.442   7.392   4.096
 9276TIP3   OH227784   3.557   7.950   3.989
 9276TIP3    H127785   3.642   7.957   3.944
 9276TIP3    H227786   3.503   8.017   3.941
 9277TIP3   OH227787   4.142   7.915   4.366
 9277TIP3    H127788   4.192   7.832   4.375
 9277TIP3    H227789   4.210   7.976   4.334
 9278TIP3   OH227790   4.183   8.166   4.103
 9278TIP3    H127791   4.126   8.220   4.044
 9278TIP3    H227792   4.271   8.187   4.066
 9279TIP3   OH227793   3.409   7.735   4.540
 9279TIP3    H127794   3.344   7.664   4.555
 9279TIP3    H227795   3.444   7.711   4.452
 9280TIP3   OH227796   3.667   7.176   4.184
 9280TIP3    H127797   3.616   7.256   4.161
 9280TIP3    H227798   3.600   7.106   4.173
 9281TIP3   OH227799   3.793   7.678   4.399
 9281TIP3    H127800   3.780   7.662   4.494
 9281TIP3    H227801   3.703   7.655   4.366
 9282TIP3   OH227802   4.032   7.631   4.254
 9282TIP3    H127803   3.958   7.630   4.318
 9282TIP3    H227804   4.107   7.601   4.309
 9283TIP3   OH227805   4.260   7.571   4.402
 9283TIP3    H127806   4.274   7.476   4.417
 9283TIP3    H227807   4.257   7.607   4.493
 9284TIP3   OH227808   3.250   7.514   4.594
 9284TIP3    H127809   3.253   7.423   4.561
 9284TIP3    H227810   3.289   7.502   4.683
 9285TIP3   OH227811   3.759   7.186   4.443
 9285TIP3    H127812   3.826   7.115   4.437
 9285TIP3    H227813   3.721   7.181   4.353
 9286TIP3   OH227814   3.828   7.401   4.600
 9286TIP3    H127815   3.807   7.329   4.536
 9286TIP3    H227816   3.749   7.458   4.592
 9287TIP3   OH227817   2.545   7.955   2.936
 9287TIP3    H127818   2.616   8.007   2.894
 9287TIP3    H227819   2.526   7.888   2.868
 9288TIP3   OH227820   4.411   8.592   4.146
 9288TIP3    H127821   4.337   8.575   4.207
 9288TIP3    H227822   4.456   8.665   4.189
 9289TIP3   OH227823   4.189   8.075   2.797
 9289TIP3    H127824   4.258   8.135   2.761
 9289TIP3    H227825   4.237   8.038   2.874
 9290TIP3   OH227826   4.324   7.948   2.995
 9290TIP3    H127827   4.262   7.907   3.059
 9290TIP3    H227828   4.396   7.983   3.053
 9291TIP3   OH227829   4.365   8.339   3.421
 9291TIP3    H127830   4.429   8.280   3.376
 9291TIP3    H227831   4.372   8.421   3.371
 9292TIP3   OH227832   4.260   7.858   2.642
 9292TIP3    H127833   4.193   7.865   2.571
 9292TIP3    H227834   4.233   7.933   2.697
 9293TIP3   OH227835   4.143   7.530   2.583
 9293TIP3    H127836   4.073   7.570   2.530
 9293TIP3    H227837   4.117   7.435   2.579
 9294TIP3   OH227838   4.138   7.808   3.143
 9294TIP3    H127839   4.149   7.712   3.134
 9294TIP3    H227840   4.125   7.818   3.240
 9295TIP3   OH227841   2.763   7.892   3.885
 9295TIP3    H127842   2.763   7.851   3.796
 9295TIP3    H227843   2.860   7.888   3.906
 9296TIP3   OH227844   4.427   8.230   4.000
 9296TIP3    H127845   4.500   8.165   3.988
 9296TIP3    H227846   4.454   8.302   3.940
 9297TIP3   OH227847   4.612   8.034   4.008
 9297TIP3    H127848   4.538   7.985   4.050
 9297TIP3    H227849   4.686   7.971   4.026
 9298TIP3   OH227850   4.077   7.264   2.571
 9298TIP3    H127851   4.149   7.235   2.630
 9298TIP3    H227852   4.002   7.208   2.597
 9299TIP3   OH227853   4.137   7.526   3.031
 9299TIP3    H127854   4.177   7.437   3.046
 9299TIP3    H227855   4.196   7.558   2.961
 9300TIP3   OH227856   4.295   7.697   3.529
 9300TIP3    H127857   4.381   7.721   3.488
 9300TIP3    H227858   4.311   7.733   3.619
 9301TIP3   OH227859   4.368   7.842   3.759
 9301TIP3    H127860   4.291   7.877   3.809
 9301TIP3    H227861   4.402   7.923   3.715
 9302TIP3   OH227862   2.984   7.567   4.564
 9302TIP3    H127863   3.082   7.560   4.566
 9302TIP3    H227864   2.960   7.480   4.601
 9303TIP3   OH227865   4.818   7.436   4.315
 9303TIP3    H127866   4.879   7.371   4.274
 9303TIP3    H227867   4.787   7.487   4.238
 9304TIP3   OH227868   4.244   7.276   3.072
 9304TIP3    H127869   4.293   7.260   3.155
 9304TIP3    H227870   4.183   7.199   3.071
 9305TIP3   OH227871   2.944   7.262   3.894
 9305TIP3    H127872   3.004   7.185   3.901
 9305TIP3    H227873   3.008   7.334   3.884
 9306TIP3   OH227874   2.743   7.533   3.963
 9306TIP3    H127875   2.794   7.528   3.880
 9306TIP3    H227876   2.780   7.611   4.004
 9307TIP3   OH227877   4.686   7.570   4.119
 9307TIP3    H127878   4.600   7.614   4.138
 9307TIP3    H227879   4.654   7.497   4.062
 9308TIP3   OH227880   4.320   7.209   2.704
 9308TIP3    H127881   4.362   7.137   2.651
 9308TIP3    H227882   4.390   7.277   2.704
 9309TIP3   OH227883   2.731   7.039   3.467
 9309TIP3    H127884   2.638   7.032   3.494
 9309TIP3    H227885   2.726   7.097   3.388
 9310TIP3   OH227886   2.952   7.120   4.281
 9310TIP3    H127887   2.899   7.113   4.362
 9310TIP3    H227888   2.885   7.155   4.219
 9311TIP3   OH227889   4.587   7.333   4.001
 9311TIP3    H127890   4.497   7.322   3.966
 9311TIP3    H227891   4.622   7.241   3.992
 9312TIP3   OH227892   3.788   7.248   3.618
 9312TIP3    H127893   3.749   7.177   3.671
 9312TIP3    H227894   3.865   7.204   3.577
 9313TIP3   OH227895   4.312   7.133   3.525
 9313TIP3    H127896   4.348   7.183   3.449
 9313TIP3    H227897   4.216   7.150   3.517
 9314TIP3   OH227898   4.408   7.229   3.288
 9314TIP3    H127899   4.482   7.177   3.251
 9314TIP3    H227900   4.443   7.320   3.274
 9315TIP3   OH227901   3.040   6.958   3.635
 9315TIP3    H127902   2.947   6.926   3.639
 9315TIP3    H227903   3.088   6.872   3.632
 9316TIP3   OH227904   2.828   6.831   3.286
 9316TIP3    H127905   2.859   6.886   3.212
 9316TIP3    H227906   2.803   6.897   3.352
 9317TIP3   OH227907   3.486   6.992   3.519
 9317TIP3    H127908   3.542   7.038   3.454
 9317TIP3    H227909   3.518   7.028   3.603
 9318TIP3   OH227910   4.026   7.138   3.500
 9318TIP3    H127911   4.032   7.096   3.414
 9318TIP3    H227912   4.016   7.060   3.559
 9319TIP3   OH227913   4.061   7.063   3.064
 9319TIP3    H127914   3.974   7.104   3.080
 9319TIP3    H227915   4.048   6.977   3.109
 9320TIP3   OH227916   2.947   6.986   3.047
 9320TIP3    H127917   2.994   6.923   2.989
 9320TIP3    H227918   3.021   7.040   3.082
 9321TIP3   OH227919   3.455   7.167   3.146
 9321TIP3    H127920   3.514   7.118   3.205
 9321TIP3    H227921   3.478   7.259   3.172
 9322TIP3   OH227922   3.248   7.241   4.529
 9322TIP3    H127923   3.212   7.169   4.584
 9322TIP3    H227924   3.342   7.239   4.556
 9323TIP3   OH227925   3.499   7.238   4.646
 9323TIP3    H127926   3.583   7.213   4.606
 9323TIP3    H227927   3.487   7.167   4.713
 9324TIP3   OH227928   4.325   7.301   4.433
 9324TIP3    H127929   4.343   7.269   4.524
 9324TIP3    H227930   4.415   7.295   4.393
 9325TIP3   OH227931   5.529   8.207   2.702
 9325TIP3    H127932   5.491   8.293   2.676
 9325TIP3    H227933   5.459   8.149   2.665
 9326TIP3   OH227934   5.531   8.225   3.075
 9326TIP3    H127935   5.564   8.198   3.162
 9326TIP3    H227936   5.490   8.143   3.042
 9327TIP3   OH227937   4.822   8.118   3.442
 9327TIP3    H127938   4.856   8.050   3.503
 9327TIP3    H227939   4.901   8.174   3.432
 9328TIP3   OH227940   5.745   8.525   2.765
 9328TIP3    H127941   5.745   8.451   2.828
 9328TIP3    H227942   5.802   8.589   2.810
 9329TIP3   OH227943   4.861   8.460   3.250
 9329TIP3    H127944   4.826   8.379   3.211
 9329TIP3    H227945   4.940   8.476   3.195
 9330TIP3   OH227946   4.506   7.724   2.943
 9330TIP3    H127947   4.465   7.810   2.962
 9330TIP3    H227948   4.431   7.678   2.901
 9331TIP3   OH227949   4.559   8.017   3.123
 9331TIP3    H127950   4.610   7.939   3.154
 9331TIP3    H227951   4.630   8.074   3.088
 9332TIP3   OH227952   5.343   8.439   3.117
 9332TIP3    H127953   5.393   8.363   3.083
 9332TIP3    H227954   5.420   8.495   3.144
 9333TIP3   OH227955   6.340   7.768   3.119
 9333TIP3    H127956   6.372   7.853   3.156
 9333TIP3    H227957   6.368   7.777   3.026
 9334TIP3   OH227958   5.736   7.949   3.152
 9334TIP3    H127959   5.782   7.865   3.173
 9334TIP3    H227960   5.707   7.932   3.061
 9335TIP3   OH227961   5.079   7.610   3.117
 9335TIP3    H127962   5.060   7.683   3.055
 9335TIP3    H227963   5.030   7.537   3.074
 9336TIP3   OH227964   5.776   7.705   2.736
 9336TIP3    H127965   5.846   7.688   2.802
 9336TIP3    H227966   5.831   7.734   2.661
 9337TIP3   OH227967   4.710   7.812   3.226
 9337TIP3    H127968   4.793   7.794   3.274
 9337TIP3    H227969   4.725   7.758   3.146
 9338TIP3   OH227970   5.149   8.009   3.024
 9338TIP3    H127971   5.244   7.986   3.033
 9338TIP3    H227972   5.111   7.925   2.990
 9339TIP3   OH227973   6.416   7.979   3.290
 9339TIP3    H127974   6.332   8.024   3.269
 9339TIP3    H227975   6.430   8.010   3.381
 9340TIP3   OH227976   5.073   7.595   3.553
 9340TIP3    H127977   5.014   7.632   3.485
 9340TIP3    H227978   5.020   7.612   3.634
 9341TIP3   OH227979   5.407   8.410   2.561
 9341TIP3    H127980   5.367   8.411   2.473
 9341TIP3    H227981   5.438   8.501   2.572
 9342TIP3   OH227982   5.178   8.375   3.346
 9342TIP3    H127983   5.112   8.441   3.375
 9342TIP3    H227984   5.212   8.418   3.264
 9343TIP3   OH227985   5.976   7.706   2.918
 9343TIP3    H127986   5.966   7.665   3.005
 9343TIP3    H227987   6.033   7.783   2.939
 9344TIP3   OH227988   4.945   7.709   3.336
 9344TIP3    H127989   5.007   7.782   3.360
 9344TIP3    H227990   4.995   7.669   3.261
 9345TIP3   OH227991   5.004   8.591   3.454
 9345TIP3    H127992   4.962   8.579   3.367
 9345TIP3    H227993   4.925   8.587   3.511
 9346TIP3   OH227994   4.398   8.218   2.690
 9346TIP3    H127995   4.367   8.235   2.598
 9346TIP3    H227996   4.417   8.309   2.717
 9347TIP3   OH227997   6.134   7.667   3.285
 9347TIP3    H127998   6.047   7.695   3.252
 9347TIP3    H227999   6.195   7.701   3.216
 9348TIP3   OH228000   5.426   7.309   3.269
 9348TIP3    H128001   5.410   7.214   3.287
 9348TIP3    H228002   5.349   7.349   3.316
 9349TIP3   OH228003   5.776   8.541   2.481
 9349TIP3    H128004   5.756   8.460   2.431
 9349TIP3    H228005   5.790   8.509   2.571
 9350TIP3   OH228006   6.061   8.680   3.267
 9350TIP3    H128007   6.049   8.600   3.211
 9350TIP3    H228008   6.089   8.747   3.202
 9351TIP3   OH228009   5.362   8.069   2.530
 9351TIP3    H128010   5.282   8.123   2.513
 9351TIP3    H228011   5.406   8.070   2.443
 9352TIP3   OH228012   5.317   7.861   2.237
 9352TIP3    H128013   5.382   7.915   2.286
 9352TIP3    H228014   5.378   7.801   2.189
 9353TIP3   OH228015   6.260   8.318   3.111
 9353TIP3    H128016   6.176   8.368   3.117
 9353TIP3    H228017   6.289   8.343   3.021
 9354TIP3   OH228018   5.706   8.148   2.499
 9354TIP3    H128019   5.654   8.169   2.580
 9354TIP3    H228020   5.793   8.123   2.539
 9355TIP3   OH228021   5.940   8.195   3.411
 9355TIP3    H128022   5.939   8.280   3.460
 9355TIP3    H228023   5.854   8.200   3.366
 9356TIP3   OH228024   4.944   8.155   2.904
 9356TIP3    H128025   4.903   8.095   2.838
 9356TIP3    H228026   5.020   8.102   2.937
 9357TIP3   OH228027   5.078   8.519   3.110
 9357TIP3    H128028   5.041   8.522   3.021
 9357TIP3    H228029   5.175   8.519   3.093
 9358TIP3   OH228030   5.067   8.133   3.264
 9358TIP3    H128031   5.104   8.105   3.177
 9358TIP3    H228032   5.114   8.217   3.281
 9359TIP3   OH228033   5.257   8.586   3.588
 9359TIP3    H128034   5.218   8.673   3.608
 9359TIP3    H228035   5.185   8.549   3.534
 9360TIP3   OH228036   5.540   8.016   2.322
 9360TIP3    H128037   5.602   8.073   2.372
 9360TIP3    H228038   5.569   8.031   2.229
 9361TIP3   OH228039   4.970   8.236   3.695
 9361TIP3    H128040   4.975   8.325   3.735
 9361TIP3    H228041   4.875   8.216   3.708
 9362TIP3   OH228042   4.809   7.997   2.714
 9362TIP3    H128043   4.742   8.041   2.657
 9362TIP3    H228044   4.767   7.912   2.731
 9363TIP3   OH228045   4.602   8.382   3.625
 9363TIP3    H128046   4.536   8.361   3.558
 9363TIP3    H228047   4.637   8.294   3.650
 9364TIP3   OH228048   6.194   8.157   3.587
 9364TIP3    H128049   6.111   8.168   3.539
 9364TIP3    H228050   6.210   8.061   3.576
 9365TIP3   OH228051   4.788   8.588   3.630
 9365TIP3    H128052   4.845   8.548   3.698
 9365TIP3    H228053   4.719   8.519   3.619
 9366TIP3   OH228054   5.189   7.388   3.399
 9366TIP3    H128055   5.101   7.358   3.369
 9366TIP3    H228056   5.163   7.469   3.447
 9367TIP3   OH228057   5.726   7.502   3.592
 9367TIP3    H128058   5.794   7.475   3.656
 9367TIP3    H228059   5.642   7.484   3.640
 9368TIP3   OH228060   5.960   7.932   3.510
 9368TIP3    H128061   5.909   7.930   3.594
 9368TIP3    H228062   5.939   8.020   3.474
 9369TIP3   OH228063   5.615   8.042   2.065
 9369TIP3    H128064   5.588   8.023   1.974
 9369TIP3    H228065   5.687   8.107   2.048
 9370TIP3   OH228066   5.335   7.436   2.369
 9370TIP3    H128067   5.301   7.432   2.461
 9370TIP3    H228068   5.294   7.354   2.334
 9371TIP3   OH228069   5.120   7.909   3.413
 9371TIP3    H128070   5.071   7.929   3.495
 9371TIP3    H228071   5.103   7.990   3.361
 9372TIP3   OH228072   5.006   7.791   2.930
 9372TIP3    H128073   4.913   7.766   2.948
 9372TIP3    H228074   5.017   7.750   2.841
 9373TIP3   OH228075   5.499   7.870   2.658
 9373TIP3    H128076   5.447   7.940   2.613
 9373TIP3    H228077   5.558   7.840   2.586
 9374TIP3   OH228078   5.674   8.148   3.739
 9374TIP3    H128079   5.652   8.077   3.803
 9374TIP3    H228080   5.767   8.165   3.763
 9375TIP3   OH228081   5.653   7.902   2.895
 9375TIP3    H128082   5.591   7.930   2.824
 9375TIP3    H228083   5.690   7.824   2.849
 9376TIP3   OH228084   4.942   7.932   3.623
 9376TIP3    H128085   4.971   7.997   3.689
 9376TIP3    H228086   4.932   7.851   3.676
 9377TIP3   OH228087   4.990   7.409   2.334
 9377TIP3    H128088   4.982   7.409   2.431
 9377TIP3    H228089   4.914   7.467   2.310
 9378TIP3   OH228090   4.535   7.452   3.206
 9378TIP3    H128091   4.608   7.487   3.261
 9378TIP3    H228092   4.578   7.426   3.124
 9379TIP3   OH228093   4.498   7.434   2.721
 9379TIP3    H128094   4.549   7.472   2.646
 9379TIP3    H228095   4.441   7.511   2.742
 9380TIP3   OH228096   5.662   8.148   3.317
 9380TIP3    H128097   5.695   8.076   3.258
 9380TIP3    H228098   5.631   8.094   3.393
 9381TIP3   OH228099   5.337   7.610   2.989
 9381TIP3    H128100   5.256   7.610   3.044
 9381TIP3    H228101   5.407   7.606   3.056
 9382TIP3   OH228102   4.767   7.670   2.998
 9382TIP3    H128103   4.673   7.677   2.969
 9382TIP3    H228104   4.791   7.578   2.975
 9383TIP3   OH228105   5.032   7.662   2.689
 9383TIP3    H128106   5.126   7.678   2.669
 9383TIP3    H228107   4.986   7.684   2.605
 9384TIP3   OH228108   5.827   7.689   3.196
 9384TIP3    H128109   5.793   7.702   3.287
 9384TIP3    H228110   5.760   7.629   3.159
 9385TIP3   OH228111   4.883   7.696   2.464
 9385TIP3    H128112   4.808   7.657   2.416
 9385TIP3    H228113   4.934   7.735   2.390
 9386TIP3   OH228114   4.957   8.485   3.830
 9386TIP3    H128115   5.035   8.513   3.881
 9386TIP3    H228116   4.892   8.474   3.903
 9387TIP3   OH228117   5.415   7.941   3.086
 9387TIP3    H128118   5.490   7.906   3.036
 9387TIP3    H228119   5.423   7.896   3.172
 9388TIP3   OH228120   4.934   7.428   2.970
 9388TIP3    H128121   4.899   7.351   3.019
 9388TIP3    H228122   4.982   7.386   2.898
 9389TIP3   OH228123   5.391   7.839   3.379
 9389TIP3    H128124   5.301   7.877   3.391
 9389TIP3    H228125   5.448   7.902   3.428
 9390TIP3   OH228126   5.130   8.212   2.480
 9390TIP3    H128127   5.052   8.155   2.465
 9390TIP3    H228128   5.106   8.257   2.564
 9391TIP3   OH228129   6.026   8.459   3.105
 9391TIP3    H128130   6.054   8.509   3.025
 9391TIP3    H228131   5.943   8.417   3.075
 9392TIP3   OH228132   5.586   7.542   2.336
 9392TIP3    H128133   5.490   7.526   2.348
 9392TIP3    H228134   5.598   7.635   2.364
 9393TIP3   OH228135   5.539   8.570   3.469
 9393TIP3    H128136   5.571   8.519   3.544
 9393TIP3    H228137   5.454   8.603   3.504
 9394TIP3   OH228138   5.664   7.788   2.440
 9394TIP3    H128139   5.761   7.792   2.452
 9394TIP3    H228140   5.646   7.867   2.386
 9395TIP3   OH228141   4.799   8.201   3.136
 9395TIP3    H128142   4.849   8.195   3.052
 9395TIP3    H228143   4.863   8.165   3.199
 9396TIP3   OH228144   5.238   8.401   2.314
 9396TIP3    H128145   5.197   8.471   2.369
 9396TIP3    H228146   5.204   8.322   2.361
 9397TIP3   OH228147   4.707   8.163   3.764
 9397TIP3    H128148   4.721   8.147   3.859
 9397TIP3    H228149   4.636   8.100   3.744
 9398TIP3   OH228150   5.434   8.274   3.786
 9398TIP3    H128151   5.371   8.225   3.733
 9398TIP3    H228152   5.520   8.240   3.753
 9399TIP3   OH228153   6.317   8.721   3.357
 9399TIP3    H128154   6.221   8.732   3.345
 9399TIP3    H228155   6.344   8.704   3.264
 9400TIP3   OH228156   5.793   8.332   3.007
 9400TIP3    H128157   5.701   8.306   3.027
 9400TIP3    H228158   5.827   8.248   2.969
 9401TIP3   OH228159   4.477   7.859   2.469
 9401TIP3    H128160   4.528   7.941   2.486
 9401TIP3    H228161   4.408   7.865   2.538
 9402TIP3   OH228162   5.055   8.331   2.716
 9402TIP3    H128163   5.017   8.413   2.752
 9402TIP3    H228164   5.029   8.269   2.787
 9403TIP3   OH228165   5.584   8.531   3.199
 9403TIP3    H128166   5.573   8.543   3.295
 9403TIP3    H228167   5.668   8.485   3.193
 9404TIP3   OH228168   5.589   8.363   2.055
 9404TIP3    H128169   5.621   8.349   2.146
 9404TIP3    H228170   5.510   8.418   2.069
 9405TIP3   OH228171   4.911   7.676   3.767
 9405TIP3    H128172   4.814   7.677   3.779
 9405TIP3    H228173   4.939   7.619   3.841
 9406TIP3   OH228174   5.710   8.335   2.303
 9406TIP3    H128175   5.707   8.264   2.370
 9406TIP3    H228176   5.807   8.337   2.283
 9407TIP3   OH228177   4.902   8.353   2.134
 9407TIP3    H128178   4.945   8.268   2.111
 9407TIP3    H228179   4.942   8.374   2.218
 9408TIP3   OH228180   4.606   8.099   2.556
 9408TIP3    H128181   4.538   8.135   2.616
 9408TIP3    H228182   4.611   8.170   2.489
 9409TIP3   OH228183   5.750   7.742   3.455
 9409TIP3    H128184   5.833   7.780   3.490
 9409TIP3    H228185   5.739   7.660   3.509
 9410TIP3   OH228186   5.635   7.489   2.622
 9410TIP3    H128187   5.624   7.513   2.528
 9410TIP3    H228188   5.677   7.570   2.657
 9411TIP3   OH228189   5.315   7.673   2.719
 9411TIP3    H128190   5.380   7.744   2.701
 9411TIP3    H228191   5.323   7.664   2.817
 9412TIP3   OH228192   5.588   7.988   3.524
 9412TIP3    H128193   5.615   8.039   3.603
 9412TIP3    H228194   5.641   7.907   3.533
 9413TIP3   OH228195   5.461   7.393   2.818
 9413TIP3    H128196   5.455   7.470   2.877
 9413TIP3    H228197   5.524   7.428   2.751
 9414TIP3   OH228198   4.976   7.398   2.610
 9414TIP3    H128199   4.973   7.488   2.648
 9414TIP3    H228200   5.072   7.380   2.618
 9415TIP3   OH228201   6.228   7.890   3.508
 9415TIP3    H128202   6.129   7.888   3.515
 9415TIP3    H228203   6.239   7.847   3.423
 9416TIP3   OH228204   5.879   8.085   2.897
 9416TIP3    H128205   5.804   8.023   2.907
 9416TIP3    H228206   5.951   8.037   2.944
 9417TIP3   OH228207   4.598   8.315   2.371
 9417TIP3    H128208   4.624   8.408   2.358
 9417TIP3    H228209   4.652   8.269   2.304
 9418TIP3   OH228210   4.537   7.594   2.499
 9418TIP3    H128211   4.541   7.691   2.484
 9418TIP3    H228212   4.451   7.573   2.462
 9419TIP3   OH228213   4.924   7.309   3.369
 9419TIP3    H128214   4.894   7.274   3.283
 9419TIP3    H228215   4.914   7.231   3.428
 9420TIP3   OH228216   4.752   8.453   4.009
 9420TIP3    H128217   4.773   8.358   4.017
 9420TIP3    H228218   4.663   8.450   3.969
 9421TIP3   OH228219   4.725   8.115   2.226
 9421TIP3    H128220   4.777   8.083   2.301
 9421TIP3    H228221   4.796   8.121   2.158
 9422TIP3   OH228222   5.375   8.538   3.829
 9422TIP3    H128223   5.342   8.553   3.738
 9422TIP3    H228224   5.410   8.447   3.821
 9423TIP3   OH228225   5.173   8.292   2.040
 9423TIP3    H128226   5.215   8.314   2.124
 9423TIP3    H228227   5.205   8.202   2.023
 9424TIP3   OH228228   5.849   8.562   3.403
 9424TIP3    H128229   5.918   8.618   3.361
 9424TIP3    H228230   5.772   8.621   3.397
 9425TIP3   OH228231   4.875   8.204   4.010
 9425TIP3    H128232   4.955   8.158   3.981
 9425TIP3    H228233   4.903   8.240   4.097
 9426TIP3   OH228234   4.925   8.029   2.434
 9426TIP3    H128235   4.901   7.987   2.519
 9426TIP3    H228236   4.967   7.955   2.386
 9427TIP3   OH228237   5.205   8.092   3.666
 9427TIP3    H128238   5.128   8.153   3.668
 9427TIP3    H228239   5.257   8.129   3.591
 9428TIP3   OH228240   5.039   7.824   2.279
 9428TIP3    H128241   5.014   7.826   2.185
 9428TIP3    H228242   5.136   7.828   2.273
 9429TIP3   OH228243   5.728   8.487   3.800
 9429TIP3    H128244   5.809   8.463   3.753
 9429TIP3    H228245   5.726   8.422   3.873
 9430TIP3   OH228246   5.839   8.163   1.939
 9430TIP3    H128247   5.822   8.112   1.858
 9430TIP3    H228248   5.821   8.253   1.905
 9431TIP3   OH228249   5.329   7.885   3.792
 9431TIP3    H128250   5.330   7.806   3.734
 9431TIP3    H228251   5.285   7.952   3.735
 9432TIP3   OH228252   5.332   7.670   3.603
 9432TIP3    H128253   5.360   7.712   3.519
 9432TIP3    H228254   5.238   7.648   3.583
 9433TIP3   OH228255   5.353   8.209   3.475
 9433TIP3    H128256   5.436   8.218   3.428
 9433TIP3    H228257   5.296   8.275   3.429
 9434TIP3   OH228258   5.938   8.171   3.853
 9434TIP3    H128259   5.990   8.090   3.860
 9434TIP3    H228260   6.005   8.234   3.820
 9435TIP3   OH228261   5.981   8.422   3.591
 9435TIP3    H128262   5.924   8.477   3.531
 9435TIP3    H228263   6.069   8.444   3.553
 9436TIP3   OH228264   5.207   7.990   4.027
 9436TIP3    H128265   5.140   7.921   4.042
 9436TIP3    H228266   5.240   7.967   3.938
 9437TIP3   OH228267   5.463   7.432   3.671
 9437TIP3    H128268   5.413   7.513   3.648
 9437TIP3    H228269   5.395   7.363   3.659
 9438TIP3   OH228270   5.589   7.934   3.885
 9438TIP3    H128271   5.574   7.920   3.981
 9438TIP3    H228272   5.500   7.912   3.851
 9439TIP3   OH228273   5.828   7.886   3.741
 9439TIP3    H128274   5.753   7.888   3.804
 9439TIP3    H228275   5.903   7.857   3.796
 9440TIP3   OH228276   6.057   7.828   3.889
 9440TIP3    H128277   6.070   7.733   3.905
 9440TIP3    H228278   6.054   7.865   3.980
 9441TIP3   OH228279   5.045   7.771   4.080
 9441TIP3    H128280   5.049   7.679   4.047
 9441TIP3    H228281   5.083   7.760   4.170
 9442TIP3   OH228282   5.556   7.441   3.929
 9442TIP3    H128283   5.622   7.370   3.922
 9442TIP3    H228284   5.516   7.438   3.840
 9443TIP3   OH228285   5.623   7.656   4.088
 9443TIP3    H128286   5.602   7.585   4.023
 9443TIP3    H228287   5.545   7.715   4.080
 9444TIP3   OH228288   4.335   8.221   2.415
 9444TIP3    H128289   4.412   8.271   2.382
 9444TIP3    H228290   4.324   8.153   2.348
 9445TIP3   OH228291   6.206   8.850   3.632
 9445TIP3    H128292   6.132   8.833   3.694
 9445TIP3    H228293   6.257   8.917   3.680
 9446TIP3   OH228294   5.980   8.341   2.284
 9446TIP3    H128295   6.053   8.397   2.252
 9446TIP3    H228296   6.022   8.305   2.366
 9447TIP3   OH228297   6.108   8.232   2.494
 9447TIP3    H128298   6.057   8.163   2.541
 9447TIP3    H228299   6.191   8.236   2.543
 9448TIP3   OH228300   6.158   8.592   2.910
 9448TIP3    H128301   6.221   8.531   2.865
 9448TIP3    H228302   6.163   8.672   2.857
 9449TIP3   OH228303   6.058   8.142   2.101
 9449TIP3    H128304   5.977   8.144   2.046
 9449TIP3    H228305   6.031   8.198   2.176
 9450TIP3   OH228306   5.872   7.780   2.088
 9450TIP3    H128307   5.898   7.843   2.021
 9450TIP3    H228308   5.874   7.696   2.040
 9451TIP3   OH228309   5.934   8.059   2.625
 9451TIP3    H128310   5.946   7.963   2.612
 9451TIP3    H228311   5.923   8.067   2.722
 9452TIP3   OH228312   4.559   8.144   3.375
 9452TIP3    H128313   4.557   8.108   3.284
 9452TIP3    H228314   4.657   8.143   3.392
 9453TIP3   OH228315   6.225   8.487   3.485
 9453TIP3    H128316   6.299   8.424   3.476
 9453TIP3    H228317   6.251   8.560   3.425
 9454TIP3   OH228318   6.413   8.292   3.500
 9454TIP3    H128319   6.336   8.245   3.539
 9454TIP3    H228320   6.483   8.225   3.517
 9455TIP3   OH228321   5.880   7.494   2.059
 9455TIP3    H128322   5.921   7.522   2.141
 9455TIP3    H228323   5.787   7.477   2.084
 9456TIP3   OH228324   5.945   7.783   2.518
 9456TIP3    H128325   5.971   7.690   2.538
 9456TIP3    H228326   6.022   7.807   2.464
 9457TIP3   OH228327   6.092   7.953   3.017
 9457TIP3    H128328   6.178   7.977   2.975
 9457TIP3    H228329   6.109   7.990   3.106
 9458TIP3   OH228330   6.165   8.098   3.248
 9458TIP3    H128331   6.087   8.133   3.296
 9458TIP3    H228332   6.196   8.178   3.200
 9459TIP3   OH228333   4.779   7.822   4.047
 9459TIP3    H128334   4.877   7.818   4.052
 9459TIP3    H228335   4.756   7.736   4.087
 9460TIP3   OH228336   6.612   7.691   3.802
 9460TIP3    H128337   6.675   7.628   3.761
 9460TIP3    H228338   6.583   7.744   3.725
 9461TIP3   OH228339   6.006   7.529   2.581
 9461TIP3    H128340   6.078   7.514   2.644
 9461TIP3    H228341   5.969   7.439   2.570
 9462TIP3   OH228342   4.740   7.518   3.381
 9462TIP3    H128343   4.801   7.442   3.388
 9462TIP3    H228344   4.803   7.592   3.371
 9463TIP3   OH228345   4.540   7.790   3.450
 9463TIP3    H128346   4.591   7.787   3.366
 9463TIP3    H228347   4.571   7.873   3.488
 9464TIP3   OH228348   6.482   7.828   3.606
 9464TIP3    H128349   6.396   7.871   3.624
 9464TIP3    H228350   6.451   7.754   3.549
 9465TIP3   OH228351   6.159   7.464   2.160
 9465TIP3    H128352   6.247   7.498   2.140
 9465TIP3    H228353   6.141   7.515   2.240
 9466TIP3   OH228354   4.527   7.292   2.950
 9466TIP3    H128355   4.435   7.288   2.981
 9466TIP3    H228356   4.521   7.353   2.873
 9467TIP3   OH228357   4.748   7.375   3.767
 9467TIP3    H128358   4.696   7.369   3.848
 9467TIP3    H228359   4.682   7.411   3.705
 9468TIP3   OH228360   6.382   7.591   3.489
 9468TIP3    H128361   6.293   7.582   3.451
 9468TIP3    H228362   6.416   7.499   3.479
 9469TIP3   OH228363   5.586   7.507   3.108
 9469TIP3    H128364   5.546   7.434   3.159
 9469TIP3    H228365   5.663   7.463   3.066
 9470TIP3   OH228366   6.105   7.384   3.012
 9470TIP3    H128367   6.144   7.435   2.938
 9470TIP3    H228368   6.011   7.410   3.007
 9471TIP3   OH228369   6.204   7.474   2.773
 9471TIP3    H128370   6.279   7.427   2.732
 9471TIP3    H228371   6.235   7.566   2.761
 9472TIP3   OH228372   4.836   7.214   3.122
 9472TIP3    H128373   4.743   7.182   3.127
 9472TIP3    H228374   4.884   7.129   3.118
 9473TIP3   OH228375   4.621   7.087   2.772
 9473TIP3    H128376   4.655   7.144   2.700
 9473TIP3    H228377   4.598   7.154   2.840
 9474TIP3   OH228378   5.283   7.246   3.005
 9474TIP3    H128379   5.337   7.295   2.941
 9474TIP3    H228380   5.310   7.287   3.089
 9475TIP3   OH228381   5.820   7.397   2.990
 9475TIP3    H128382   5.824   7.361   2.901
 9475TIP3    H228383   5.810   7.315   3.044
 9476TIP3   OH228384   5.863   7.299   2.548
 9476TIP3    H128385   5.782   7.351   2.559
 9476TIP3    H228386   5.840   7.217   2.595
 9477TIP3   OH228387   4.745   7.244   2.534
 9477TIP3    H128388   4.793   7.180   2.477
 9477TIP3    H228389   4.819   7.298   2.569
 9478TIP3   OH228390   5.252   7.422   2.633
 9478TIP3    H128391   5.314   7.377   2.693
 9478TIP3    H228392   5.273   7.515   2.658
 9479TIP3   OH228393   5.043   7.496   4.014
 9479TIP3    H128394   5.007   7.425   4.071
 9479TIP3    H228395   5.137   7.495   4.043
 9480TIP3   OH228396   5.294   7.494   4.133
 9480TIP3    H128397   5.379   7.470   4.093
 9480TIP3    H228398   5.282   7.424   4.200
 9481TIP3   OH228399   6.122   7.557   3.919
 9481TIP3    H128400   6.139   7.527   4.011
 9481TIP3    H228401   6.211   7.553   3.879
 9482TIP3   OH228402   6.612   8.367   2.916
 9482TIP3    H128403   6.669   8.326   2.982
 9482TIP3    H228404   6.679   8.406   2.854
 9483TIP3   OH228405   6.363   8.274   2.613
 9483TIP3    H128406   6.412   8.194   2.645
 9483TIP3    H228407   6.416   8.300   2.537
 9484TIP3   OH228408   6.818   7.865   2.619
 9484TIP3    H128409   6.812   7.928   2.545
 9484TIP3    H228410   6.793   7.783   2.571
 9485TIP3   OH228411   6.502   8.060   2.706
 9485TIP3    H128412   6.584   8.043   2.756
 9485TIP3    H228413   6.513   7.999   2.629
 9486TIP3   OH228414   6.857   7.846   3.051
 9486TIP3    H128415   6.802   7.887   2.981
 9486TIP3    H228416   6.802   7.866   3.129
 9487TIP3   OH228417   6.730   7.974   2.844
 9487TIP3    H128418   6.799   8.042   2.861
 9487TIP3    H228419   6.767   7.932   2.763
 9488TIP3   OH228420   6.200   8.478   2.192
 9488TIP3    H128421   6.174   8.500   2.101
 9488TIP3    H228422   6.237   8.563   2.219
 9489TIP3   OH228423   7.207   7.574   2.735
 9489TIP3    H128424   7.267   7.512   2.778
 9489TIP3    H228425   7.136   7.585   2.802
 9490TIP3   OH228426   6.727   8.501   3.185
 9490TIP3    H128427   6.708   8.590   3.216
 9490TIP3    H228428   6.639   8.461   3.196
 9491TIP3   OH228429   6.593   8.230   2.160
 9491TIP3    H128430   6.571   8.319   2.189
 9491TIP3    H228431   6.528   8.174   2.204
 9492TIP3   OH228432   6.387   8.633   3.114
 9492TIP3    H128433   6.323   8.619   3.043
 9492TIP3    H228434   6.421   8.544   3.134
 9493TIP3   OH228435   6.977   7.646   2.896
 9493TIP3    H128436   6.892   7.613   2.859
 9493TIP3    H228437   6.944   7.722   2.948
 9494TIP3   OH228438   7.477   7.795   3.138
 9494TIP3    H128439   7.544   7.734   3.171
 9494TIP3    H228440   7.398   7.738   3.132
 9495TIP3   OH228441   6.926   8.153   2.916
 9495TIP3    H128442   6.867   8.192   2.983
 9495TIP3    H228443   6.934   8.223   2.849
 9496TIP3   OH228444   6.765   8.026   2.396
 9496TIP3    H128445   6.676   7.997   2.425
 9496TIP3    H228446   6.744   8.068   2.311
 9497TIP3   OH228447   6.753   8.201   3.122
 9497TIP3    H128448   6.730   8.263   3.192
 9497TIP3    H228449   6.734   8.115   3.165
 9498TIP3   OH228450   6.759   7.626   1.814
 9498TIP3    H128451   6.764   7.633   1.911
 9498TIP3    H228452   6.692   7.693   1.793
 9499TIP3   OH228453   6.318   7.707   2.707
 9499TIP3    H128454   6.401   7.746   2.738
 9499TIP3    H228455   6.313   7.733   2.613
 9500TIP3   OH228456   7.074   7.822   2.525
 9500TIP3    H128457   7.001   7.815   2.588
 9500TIP3    H228458   7.151   7.832   2.583
 9501TIP3   OH228459   6.531   7.902   2.477
 9501TIP3    H128460   6.444   7.872   2.443
 9501TIP3    H228461   6.580   7.818   2.465
 9502TIP3   OH228462   6.619   7.939   1.985
 9502TIP3    H128463   6.556   7.895   1.926
 9502TIP3    H228464   6.625   8.027   1.948
 9503TIP3   OH228465   6.737   7.678   2.446
 9503TIP3    H128466   6.701   7.601   2.495
 9503TIP3    H228467   6.809   7.638   2.396
 9504TIP3   OH228468   6.483   8.407   3.256
 9504TIP3    H128469   6.486   8.387   3.352
 9504TIP3    H228470   6.406   8.354   3.227
 9505TIP3   OH228471   6.287   8.117   1.966
 9505TIP3    H128472   6.318   8.204   1.991
 9505TIP3    H228473   6.203   8.114   2.017
 9506TIP3   OH228474   6.703   7.935   3.259
 9506TIP3    H128475   6.606   7.936   3.268
 9506TIP3    H228476   6.730   7.877   3.331
 9507TIP3   OH228477   6.737   7.649   2.088
 9507TIP3    H128478   6.719   7.738   2.121
 9507TIP3    H228479   6.831   7.638   2.116
 9508TIP3   OH228480   6.314   7.845   1.937
 9508TIP3    H128481   6.321   7.940   1.956
 9508TIP3    H228482   6.284   7.811   2.021
 9509TIP3   OH228483   6.714   7.567   2.858
 9509TIP3    H128484   6.690   7.533   2.769
 9509TIP3    H228485   6.706   7.486   2.913
 9510TIP3   OH228486   6.559   8.717   3.481
 9510TIP3    H128487   6.591   8.624   3.478
 9510TIP3    H228488   6.470   8.708   3.442
 9511TIP3   OH228489   6.677   8.468   3.491
 9511TIP3    H128490   6.743   8.398   3.479
 9511TIP3    H228491   6.695   8.497   3.583
 9512TIP3   OH228492   7.091   8.154   3.277
 9512TIP3    H128493   7.136   8.069   3.260
 9512TIP3    H228494   7.040   8.165   3.197
 9513TIP3   OH228495   7.106   7.949   3.062
 9513TIP3    H128496   7.076   7.984   2.977
 9513TIP3    H228497   7.023   7.905   3.089
 9514TIP3   OH228498   7.003   8.246   3.521
 9514TIP3    H128499   6.934   8.177   3.534
 9514TIP3    H228500   7.036   8.222   3.431
 9515TIP3   OH228501   7.225   7.682   3.169
 9515TIP3    H128502   7.179   7.754   3.125
 9515TIP3    H228503   7.166   7.605   3.152
 9516TIP3   OH228504   6.843   8.026   3.566
 9516TIP3    H128505   6.846   7.935   3.532
 9516TIP3    H228506   6.878   8.012   3.657
 9517TIP3   OH228507   7.342   7.683   3.419
 9517TIP3    H128508   7.419   7.626   3.402
 9517TIP3    H228509   7.300   7.684   3.331
 9518TIP3   OH228510   7.415   7.894   3.584
 9518TIP3    H128511   7.398   7.831   3.511
 9518TIP3    H228512   7.349   7.964   3.566
 9519TIP3   OH228513   6.109   8.486   1.873
 9519TIP3    H128514   6.195   8.521   1.849
 9519TIP3    H228515   6.103   8.406   1.818
 9520TIP3   OH228516   6.350   8.400   2.861
 9520TIP3    H128517   6.349   8.360   2.771
 9520TIP3    H228518   6.447   8.396   2.879
 9521TIP3   OH228519   6.577   8.080   3.538
 9521TIP3    H128520   6.675   8.074   3.541
 9521TIP3    H228521   6.553   7.992   3.574
 9522TIP3   OH228522   6.535   7.779   2.882
 9522TIP3    H128523   6.595   7.701   2.879
 9522TIP3    H228524   6.599   7.851   2.873
 9523TIP3   OH228525   6.337   8.047   2.937
 9523TIP3    H128526   6.387   8.038   2.854
 9523TIP3    H228527   6.369   8.132   2.969
 9524TIP3   OH228528   6.542   7.635   3.256
 9524TIP3    H128529   6.488   7.629   3.336
 9524TIP3    H228530   6.478   7.669   3.192
 9525TIP3   OH228531   6.637   7.473   2.608
 9525TIP3    H128532   6.545   7.442   2.617
 9525TIP3    H228533   6.685   7.387   2.605
 9526TIP3   OH228534   6.409   7.347   2.249
 9526TIP3    H128535   6.458   7.390   2.176
 9526TIP3    H228536   6.399   7.420   2.312
 9527TIP3   OH228537   7.057   7.493   2.518
 9527TIP3    H128538   7.119   7.511   2.446
 9527TIP3    H228539   7.105   7.530   2.595
 9528TIP3   OH228540   6.525   7.482   2.024
 9528TIP3    H128541   6.579   7.427   1.964
 9528TIP3    H228542   6.594   7.544   2.057
 9529TIP3   OH228543   7.003   7.661   2.157
 9529TIP3    H128544   7.056   7.585   2.133
 9529TIP3    H228545   7.065   7.733   2.137
 9530TIP3   OH228546   6.839   7.753   3.500
 9530TIP3    H128547   6.803   7.683   3.556
 9530TIP3    H228548   6.933   7.752   3.527
 9531TIP3   OH228549   7.089   7.748   3.617
 9531TIP3    H128550   7.176   7.737   3.575
 9531TIP3    H228551   7.088   7.674   3.680
 9532TIP3   OH228552   2.274   0.941   7.516
 9532TIP3    H128553   2.265   0.878   7.588
 9532TIP3    H228554   2.304   1.021   7.561
 9533TIP3   OH228555   1.924   1.392   7.536
 9533TIP3    H128556   1.990   1.336   7.488
 9533TIP3    H228557   1.938   1.362   7.626
 9534TIP3   OH228558   1.942   0.887   7.338
 9534TIP3    H128559   1.902   0.854   7.257
 9534TIP3    H228560   1.933   0.983   7.326
 9535TIP3   OH228561   2.094   1.238   7.399
 9535TIP3    H128562   2.126   1.154   7.359
 9535TIP3    H228563   2.139   1.302   7.340
 9536TIP3   OH228564   2.197   1.020   7.266
 9536TIP3    H128565   2.164   0.941   7.220
 9536TIP3    H228566   2.229   0.980   7.350
 9537TIP3   OH228567   2.205   0.599   7.271
 9537TIP3    H128568   2.148   0.590   7.348
 9537TIP3    H228569   2.287   0.556   7.301
 9538TIP3   OH228570   1.833   1.147   7.312
 9538TIP3    H128571   1.872   1.206   7.377
 9538TIP3    H228572   1.742   1.180   7.305
 9539TIP3   OH228573   2.370   1.045   6.680
 9539TIP3    H128574   2.386   1.141   6.671
 9539TIP3    H228575   2.462   1.011   6.669
 9540TIP3   OH228576   1.665   1.359   7.165
 9540TIP3    H128577   1.629   1.355   7.075
 9540TIP3    H228578   1.643   1.449   7.192
 9541TIP3   OH228579   1.884   1.254   6.805
 9541TIP3    H128580   1.942   1.180   6.781
 9541TIP3    H228581   1.914   1.274   6.896
 9542TIP3   OH228582   1.922   1.306   7.074
 9542TIP3    H128583   1.835   1.309   7.121
 9542TIP3    H228584   1.975   1.260   7.140
 9543TIP3   OH228585   2.117   0.498   6.825
 9543TIP3    H128586   2.094   0.451   6.744
 9543TIP3    H228587   2.206   0.530   6.806
 9544TIP3   OH228588   1.844   0.860   7.007
 9544TIP3    H128589   1.777   0.929   7.022
 9544TIP3    H228590   1.811   0.790   7.066
 9545TIP3   OH228591   2.615   0.308   7.031
 9545TIP3    H128592   2.552   0.251   6.982
 9545TIP3    H228593   2.592   0.394   6.991
 9546TIP3   OH228594   2.287   1.107   6.943
 9546TIP3    H128595   2.276   1.040   7.013
 9546TIP3    H228596   2.320   1.056   6.868
 9547TIP3   OH228597   2.064   0.858   6.848
 9547TIP3    H128598   2.123   0.822   6.919
 9547TIP3    H228599   1.980   0.859   6.899
 9548TIP3   OH228600   2.403   1.320   6.676
 9548TIP3    H128601   2.445   1.393   6.627
 9548TIP3    H228602   2.323   1.367   6.707
 9549TIP3   OH228603   2.224   0.784   7.064
 9549TIP3    H128604   2.205   0.715   7.130
 9549TIP3    H228605   2.321   0.773   7.054
 9550TIP3   OH228606   1.647   1.040   7.065
 9550TIP3    H128607   1.577   1.046   7.131
 9550TIP3    H228608   1.648   1.129   7.027
 9551TIP3   OH228609   2.352   1.470   7.645
 9551TIP3    H128610   2.308   1.515   7.571
 9551TIP3    H228611   2.445   1.477   7.617
 9552TIP3   OH228612   1.593   1.004   6.778
 9552TIP3    H128613   1.602   0.957   6.863
 9552TIP3    H228614   1.668   0.967   6.727
 9553TIP3   OH228615   2.048   1.064   6.665
 9553TIP3    H128616   2.069   0.992   6.728
 9553TIP3    H228617   2.129   1.117   6.669
 9554TIP3   OH228618   2.362   0.575   6.708
 9554TIP3    H128619   2.348   0.531   6.621
 9554TIP3    H228620   2.326   0.664   6.686
 9555TIP3   OH228621   1.361   1.324   6.938
 9555TIP3    H128622   1.456   1.304   6.927
 9555TIP3    H228623   1.344   1.371   6.854
 9556TIP3   OH228624   2.626   1.535   7.591
 9556TIP3    H128625   2.637   1.615   7.644
 9556TIP3    H228626   2.665   1.562   7.507
 9557TIP3   OH228627   2.502   0.761   7.042
 9557TIP3    H128628   2.568   0.825   7.010
 9557TIP3    H228629   2.547   0.723   7.120
 9558TIP3   OH228630   2.625   0.630   7.247
 9558TIP3    H128631   2.555   0.591   7.304
 9558TIP3    H228632   2.683   0.676   7.311
 9559TIP3   OH228633   2.657   1.021   7.671
 9559TIP3    H128634   2.730   0.962   7.649
 9559TIP3    H228635   2.675   1.097   7.614
 9560TIP3   OH228636   2.559   0.538   6.891
 9560TIP3    H128637   2.489   0.544   6.822
 9560TIP3    H228638   2.533   0.613   6.947
 9561TIP3   OH228639   2.441   0.195   6.841
 9561TIP3    H128640   2.400   0.267   6.792
 9561TIP3    H228641   2.387   0.120   6.815
 9562TIP3   OH228642   2.440   0.486   7.399
 9562TIP3    H128643   2.460   0.393   7.384
 9562TIP3    H228644   2.438   0.493   7.495
 9563TIP3   OH228645   2.186   1.420   7.224
 9563TIP3    H128646   2.237   1.408   7.141
 9563TIP3    H228647   2.242   1.484   7.272
 9564TIP3   OH228648   1.625   1.260   6.896
 9564TIP3    H128649   1.714   1.278   6.860
 9564TIP3    H228650   1.599   1.185   6.838
 9565TIP3   OH228651   2.326   1.369   6.994
 9565TIP3    H128652   2.314   1.273   6.977
 9565TIP3    H228653   2.286   1.407   6.913
 9566TIP3   OH228654   3.831   0.899   6.945
 9566TIP3    H128655   3.802   0.990   6.923
 9566TIP3    H228656   3.756   0.849   6.910
 9567TIP3   OH228657   3.835   0.899   7.330
 9567TIP3    H128658   3.856   0.872   7.421
 9567TIP3    H228659   3.800   0.817   7.291
 9568TIP3   OH228660   4.079   1.198   7.013
 9568TIP3    H128661   4.057   1.133   7.081
 9568TIP3    H228662   4.106   1.275   7.065
 9569TIP3   OH228663   3.105   1.210   7.419
 9569TIP3    H128664   3.091   1.115   7.408
 9569TIP3    H228665   3.201   1.218   7.404
 9570TIP3   OH228666   2.791   0.414   7.225
 9570TIP3    H128667   2.737   0.495   7.223
 9570TIP3    H228668   2.739   0.358   7.163
 9571TIP3   OH228669   2.861   0.714   7.371
 9571TIP3    H128670   2.904   0.632   7.403
 9571TIP3    H228671   2.907   0.729   7.288
 9572TIP3   OH228672   3.728   1.663   7.029
 9572TIP3    H128673   3.770   1.592   6.976
 9572TIP3    H228674   3.715   1.620   7.113
 9573TIP3   OH228675   3.626   1.120   7.383
 9573TIP3    H128676   3.665   1.044   7.337
 9573TIP3    H228677   3.708   1.168   7.405
 9574TIP3   OH228678   4.058   0.639   7.417
 9574TIP3    H128679   4.071   0.544   7.432
 9574TIP3    H228680   4.018   0.641   7.328
 9575TIP3   OH228681   3.343   0.257   7.373
 9575TIP3    H128682   3.332   0.329   7.306
 9575TIP3    H228683   3.292   0.185   7.334
 9576TIP3   OH228684   4.035   0.412   7.040
 9576TIP3    H128685   4.045   0.351   7.115
 9576TIP3    H228686   4.108   0.389   6.981
 9577TIP3   OH228687   2.999   0.502   7.470
 9577TIP3    H128688   3.053   0.447   7.530
 9577TIP3    H228689   2.987   0.440   7.396
 9578TIP3   OH228690   3.442   0.674   7.288
 9578TIP3    H128691   3.538   0.659   7.299
 9578TIP3    H228692   3.413   0.589   7.249
 9579TIP3   OH228693   4.691   0.663   7.532
 9579TIP3    H128694   4.612   0.719   7.532
 9579TIP3    H228695   4.745   0.701   7.602
 9580TIP3   OH228696   3.720   1.119   6.814
 9580TIP3    H128697   3.679   1.106   6.728
 9580TIP3    H228698   3.675   1.201   6.844
 9581TIP3   OH228699   3.487   1.045   7.612
 9581TIP3    H128700   3.420   1.114   7.633
 9581TIP3    H228701   3.522   1.076   7.526
 9582TIP3   OH228702   3.259   0.446   7.566
 9582TIP3    H128703   3.326   0.413   7.628
 9582TIP3    H228704   3.263   0.373   7.502
 9583TIP3   OH228705   3.299   1.230   7.706
 9583TIP3    H128706   3.269   1.307   7.652
 9583TIP3    H228707   3.236   1.231   7.780
 9584TIP3   OH228708   2.702   0.923   6.936
 9584TIP3    H128709   2.664   0.953   6.851
 9584TIP3    H228710   2.731   1.009   6.975
 9585TIP3   OH228711   4.148   1.445   7.174
 9585TIP3    H128712   4.059   1.436   7.215
 9585TIP3    H228713   4.138   1.531   7.128
 9586TIP3   OH228714   3.845   1.488   6.850
 9586TIP3    H128715   3.894   1.405   6.830
 9586TIP3    H228716   3.908   1.553   6.811
 9587TIP3   OH228717   3.989   1.272   6.763
 9587TIP3    H128718   3.948   1.194   6.724
 9587TIP3    H228719   4.027   1.236   6.845
 9588TIP3   OH228720   4.368   1.353   7.521
 9588TIP3    H128721   4.358   1.274   7.464
 9588TIP3    H228722   4.348   1.426   7.459
 9589TIP3   OH228723   3.662   0.757   6.775
 9589TIP3    H128724   3.581   0.808   6.758
 9589TIP3    H228725   3.701   0.752   6.687
 9590TIP3   OH228726   3.619   0.531   6.497
 9590TIP3    H128727   3.690   0.584   6.537
 9590TIP3    H228728   3.671   0.466   6.446
 9591TIP3   OH228729   4.009   0.832   6.748
 9591TIP3    H128730   3.954   0.856   6.825
 9591TIP3    H228731   4.095   0.815   6.792
 9592TIP3   OH228732   4.235   0.872   7.667
 9592TIP3    H128733   4.236   0.952   7.724
 9592TIP3    H228734   4.149   0.882   7.623
 9593TIP3   OH228735   3.247   0.830   7.160
 9593TIP3    H128736   3.205   0.767   7.100
 9593TIP3    H228737   3.317   0.778   7.204
 9594TIP3   OH228738   3.365   1.228   7.318
 9594TIP3    H128739   3.350   1.205   7.226
 9594TIP3    H228740   3.455   1.193   7.334
 9595TIP3   OH228741   3.909   1.439   7.298
 9595TIP3    H128742   3.888   1.519   7.349
 9595TIP3    H228743   3.888   1.366   7.360
 9596TIP3   OH228744   3.518   1.385   7.795
 9596TIP3    H128745   3.460   1.453   7.834
 9596TIP3    H228746   3.453   1.316   7.770
 9597TIP3   OH228747   3.849   0.689   6.574
 9597TIP3    H128748   3.905   0.753   6.624
 9597TIP3    H228749   3.877   0.708   6.481
 9598TIP3   OH228750   3.595   1.367   6.855
 9598TIP3    H128751   3.676   1.421   6.861
 9598TIP3    H228752   3.534   1.425   6.808
 9599TIP3   OH228753   3.310   1.571   7.845
 9599TIP3    H128754   3.304   1.581   7.749
 9599TIP3    H228755   3.243   1.504   7.860
 9600TIP3   OH228756   3.104   0.664   6.974
 9600TIP3    H128757   3.042   0.717   6.920
 9600TIP3    H228758   3.063   0.577   6.970
 9601TIP3   OH228759   4.166   1.296   6.175
 9601TIP3    H128760   4.173   1.393   6.158
 9601TIP3    H228761   4.259   1.268   6.163
 9602TIP3   OH228762   2.745   1.253   7.522
 9602TIP3    H128763   2.838   1.260   7.498
 9602TIP3    H228764   2.725   1.342   7.556
 9603TIP3   OH228765   4.607   1.701   7.575
 9603TIP3    H128766   4.605   1.604   7.589
 9603TIP3    H228767   4.522   1.727   7.616
 9604TIP3   OH228768   3.739   1.487   7.691
 9604TIP3    H128769   3.723   1.582   7.713
 9604TIP3    H228770   3.657   1.447   7.728
 9605TIP3   OH228771   3.481   1.613   6.656
 9605TIP3    H128772   3.432   1.596   6.573
 9605TIP3    H228773   3.445   1.699   6.685
 9606TIP3   OH228774   2.928   1.448   7.029
 9606TIP3    H128775   2.970   1.444   7.117
 9606TIP3    H228776   2.838   1.418   7.050
 9607TIP3   OH228777   3.676   1.518   6.292
 9607TIP3    H128778   3.735   1.448   6.256
 9607TIP3    H228779   3.711   1.528   6.383
 9608TIP3   OH228780   3.730   1.565   6.561
 9608TIP3    H128781   3.640   1.576   6.601
 9608TIP3    H228782   3.779   1.527   6.636
 9609TIP3   OH228783   4.497   0.816   7.819
 9609TIP3    H128784   4.414   0.861   7.799
 9609TIP3    H228785   4.463   0.726   7.835
 9610TIP3   OH228786   4.309   0.622   7.785
 9610TIP3    H128787   4.249   0.599   7.856
 9610TIP3    H228788   4.260   0.690   7.736
 9611TIP3   OH228789   3.932   0.724   6.321
 9611TIP3    H128790   3.889   0.708   6.235
 9611TIP3    H228791   4.007   0.781   6.295
 9612TIP3   OH228792   3.408   0.675   7.667
 9612TIP3    H128793   3.440   0.608   7.733
 9612TIP3    H228794   3.495   0.711   7.640
 9613TIP3   OH228795   3.307   0.454   7.192
 9613TIP3    H128796   3.210   0.444   7.194
 9613TIP3    H228797   3.325   0.431   7.098
 9614TIP3   OH228798   3.789   0.558   6.914
 9614TIP3    H128799   3.744   0.628   6.863
 9614TIP3    H228800   3.859   0.528   6.853
 9615TIP3   OH228801   3.943   0.633   7.165
 9615TIP3    H128802   3.882   0.666   7.095
 9615TIP3    H228803   3.967   0.547   7.123
 9616TIP3   OH228804   2.882   0.229   7.020
 9616TIP3    H128805   2.896   0.225   6.923
 9616TIP3    H228806   2.786   0.249   7.020
 9617TIP3   OH228807   3.955   0.829   7.579
 9617TIP3    H128808   4.002   0.764   7.521
 9617TIP3    H228809   3.942   0.773   7.659
 9618TIP3   OH228810   3.050   0.342   7.240
 9618TIP3    H128811   2.958   0.371   7.223
 9618TIP3    H228812   3.050   0.262   7.185
 9619TIP3   OH228813   3.352   0.363   6.942
 9619TIP3    H128814   3.442   0.348   6.909
 9619TIP3    H228815   3.296   0.351   6.863
 9620TIP3   OH228816   3.186   0.344   6.719
 9620TIP3    H128817   3.113   0.325   6.656
 9620TIP3    H228818   3.245   0.392   6.658
 9621TIP3   OH228819   4.303   2.052   7.663
 9621TIP3    H128820   4.302   2.080   7.570
 9621TIP3    H228821   4.381   2.101   7.697
 9622TIP3   OH228822   3.706   0.604   7.349
 9622TIP3    H128823   3.790   0.568   7.318
 9622TIP3    H228824   3.707   0.583   7.444
 9623TIP3   OH228825   3.700   0.564   7.625
 9623TIP3    H128826   3.650   0.498   7.675
 9623TIP3    H228827   3.769   0.592   7.686
 9624TIP3   OH228828   3.430   0.902   6.729
 9624TIP3    H128829   3.357   0.837   6.716
 9624TIP3    H228830   3.410   0.937   6.819
 9625TIP3   OH228831   4.337   1.133   7.360
 9625TIP3    H128832   4.374   1.166   7.277
 9625TIP3    H228833   4.254   1.091   7.331
 9626TIP3   OH228834   3.870   0.284   6.546
 9626TIP3    H128835   3.809   0.233   6.603
 9626TIP3    H228836   3.904   0.349   6.611
 9627TIP3   OH228837   3.841   1.223   7.718
 9627TIP3    H128838   3.830   1.179   7.803
 9627TIP3    H228839   3.795   1.308   7.729
 9628TIP3   OH228840   3.966   0.479   6.711
 9628TIP3    H128841   4.062   0.493   6.723
 9628TIP3    H228842   3.940   0.557   6.659
 9629TIP3   OH228843   3.579   1.053   6.556
 9629TIP3    H128844   3.530   1.138   6.556
 9629TIP3    H228845   3.523   0.998   6.615
 9630TIP3   OH228846   4.004   1.481   7.631
 9630TIP3    H128847   3.908   1.463   7.633
 9630TIP3    H228848   4.007   1.562   7.683
 9631TIP3   OH228849   4.398   0.552   6.520
 9631TIP3    H128850   4.340   0.502   6.458
 9631TIP3    H228851   4.384   0.643   6.483
 9632TIP3   OH228852   4.619   1.411   7.609
 9632TIP3    H128853   4.521   1.403   7.601
 9632TIP3    H228854   4.645   1.380   7.519
 9633TIP3   OH228855   4.106   1.371   6.440
 9633TIP3    H128856   4.073   1.301   6.498
 9633TIP3    H228857   4.116   1.326   6.354
 9634TIP3   OH228858   4.097   1.001   7.276
 9634TIP3    H128859   4.003   0.975   7.287
 9634TIP3    H228860   4.132   0.922   7.230
 9635TIP3   OH228861   3.227   1.234   7.034
 9635TIP3    H128862   3.229   1.313   6.976
 9635TIP3    H228863   3.133   1.215   7.036
 9636TIP3   OH228864   2.791   0.531   6.739
 9636TIP3    H128865   2.834   0.617   6.757
 9636TIP3    H228866   2.712   0.538   6.797
 9637TIP3   OH228867   3.358   0.996   6.970
 9637TIP3    H128868   3.324   1.085   6.992
 9637TIP3    H228869   3.323   0.943   7.044
 9638TIP3   OH228870   3.498   1.574   7.483
 9638TIP3    H128871   3.538   1.650   7.436
 9638TIP3    H228872   3.574   1.543   7.534
 9639TIP3   OH228873   3.157   1.463   6.878
 9639TIP3    H128874   3.070   1.469   6.921
 9639TIP3    H228875   3.186   1.557   6.882
 9640TIP3   OH228876   3.882   1.206   7.452
 9640TIP3    H128877   3.875   1.204   7.551
 9640TIP3    H228878   3.958   1.147   7.438
 9641TIP3   OH228879   3.860   1.099   6.339
 9641TIP3    H128880   3.910   1.074   6.421
 9641TIP3    H228881   3.770   1.073   6.364
 9642TIP3   OH228882   4.127   1.739   7.504
 9642TIP3    H128883   4.045   1.689   7.485
 9642TIP3    H228884   4.122   1.806   7.433
 9643TIP3   OH228885   4.196   1.571   6.158
 9643TIP3    H128886   4.232   1.643   6.104
 9643TIP3    H228887   4.117   1.616   6.194
 9644TIP3   OH228888   4.020   1.032   6.555
 9644TIP3    H128889   4.010   0.966   6.627
 9644TIP3    H228890   4.117   1.029   6.542
 9645TIP3   OH228891   2.949   1.446   7.640
 9645TIP3    H128892   2.973   1.358   7.669
 9645TIP3    H228893   2.912   1.485   7.720
 9646TIP3   OH228894   3.226   1.079   6.341
 9646TIP3    H128895   3.235   0.986   6.313
 9646TIP3    H228896   3.202   1.069   6.435
 9647TIP3   OH228897   3.167   1.084   6.613
 9647TIP3    H128898   3.243   1.061   6.668
 9647TIP3    H228899   3.167   1.182   6.618
 9648TIP3   OH228900   2.903   0.778   6.818
 9648TIP3    H128901   2.836   0.824   6.872
 9648TIP3    H228902   2.916   0.844   6.747
 9649TIP3   OH228903   3.436   1.281   6.562
 9649TIP3    H128904   3.348   1.304   6.596
 9649TIP3    H228905   3.449   1.355   6.499
 9650TIP3   OH228906   3.643   0.331   6.940
 9650TIP3    H128907   3.690   0.418   6.930
 9650TIP3    H228908   3.655   0.314   7.034
 9651TIP3   OH228909   3.918   0.673   7.803
 9651TIP3    H128910   3.927   0.734   7.879
 9651TIP3    H228911   3.937   0.588   7.846
 9652TIP3   OH228912   3.180   1.354   6.627
 9652TIP3    H128913   3.150   1.425   6.565
 9652TIP3    H228914   3.168   1.398   6.714
 9653TIP3   OH228915   4.189   0.759   7.152
 9653TIP3    H128916   4.101   0.719   7.158
 9653TIP3    H228917   4.244   0.700   7.207
 9654TIP3   OH228918   2.894   0.981   6.619
 9654TIP3    H128919   2.959   1.053   6.628
 9654TIP3    H228920   2.942   0.926   6.554
 9655TIP3   OH228921   2.839   0.260   6.745
 9655TIP3    H128922   2.834   0.357   6.737
 9655TIP3    H228923   2.747   0.234   6.731
 9656TIP3   OH228924   4.153   1.715   7.099
 9656TIP3    H128925   4.110   1.762   7.024
 9656TIP3    H228926   4.247   1.734   7.078
 9657TIP3   OH228927   2.755   1.178   7.008
 9657TIP3    H128928   2.699   1.227   7.069
 9657TIP3    H228929   2.743   1.231   6.926
 9658TIP3   OH228930   3.387   1.282   6.250
 9658TIP3    H128931   3.332   1.209   6.287
 9658TIP3    H228932   3.461   1.231   6.213
 9659TIP3   OH228933   4.054   1.600   7.892
 9659TIP3    H128934   4.100   1.526   7.850
 9659TIP3    H228935   4.128   1.662   7.908
 9660TIP3   OH228936   3.822   1.321   6.164
 9660TIP3    H128937   3.867   1.257   6.222
 9660TIP3    H228938   3.876   1.318   6.083
 9661TIP3   OH228939   3.034   0.797   6.476
 9661TIP3    H128940   3.092   0.769   6.549
 9661TIP3    H228941   3.098   0.804   6.403
 9662TIP3   OH228942   3.553   1.002   6.285
 9662TIP3    H128943   3.549   1.013   6.382
 9662TIP3    H228944   3.552   0.904   6.277
 9663TIP3   OH228945   4.160   1.247   7.671
 9663TIP3    H128946   4.234   1.285   7.621
 9663TIP3    H228947   4.088   1.309   7.649
 9664TIP3   OH228948   3.237   0.705   6.695
 9664TIP3    H128949   3.214   0.663   6.779
 9664TIP3    H228950   3.275   0.631   6.643
 9665TIP3   OH228951   3.339   0.498   6.542
 9665TIP3    H128952   3.313   0.505   6.448
 9665TIP3    H228953   3.437   0.499   6.533
 9666TIP3   OH228954   4.164   0.824   6.199
 9666TIP3    H128955   4.140   0.785   6.113
 9666TIP3    H228956   4.132   0.916   6.182
 9667TIP3   OH228957   3.657   0.879   7.747
 9667TIP3    H128958   3.744   0.879   7.706
 9667TIP3    H228959   3.608   0.943   7.689
 9668TIP3   OH228960   4.294   1.095   7.850
 9668TIP3    H128961   4.231   1.148   7.796
 9668TIP3    H228962   4.379   1.118   7.806
 9669TIP3   OH228963   3.150   1.555   6.440
 9669TIP3    H128964   3.245   1.550   6.419
 9669TIP3    H228965   3.119   1.610   6.365
 9670TIP3   OH228966   2.626   0.939   6.660
 9670TIP3    H128967   2.720   0.963   6.642
 9670TIP3    H228968   2.620   0.852   6.616
 9671TIP3   OH228969   2.513   1.546   7.080
 9671TIP3    H128970   2.459   1.475   7.040
 9671TIP3    H228971   2.583   1.497   7.125
 9672TIP3   OH228972   2.688   1.396   7.240
 9672TIP3    H128973   2.665   1.335   7.311
 9672TIP3    H228974   2.735   1.466   7.290
 9673TIP3   OH228975   4.410   1.798   7.061
 9673TIP3    H128976   4.435   1.842   7.145
 9673TIP3    H228977   4.468   1.843   6.997
 9674TIP3   OH228978   4.430   1.826   7.346
 9674TIP3    H128979   4.391   1.737   7.336
 9674TIP3    H228980   4.512   1.804   7.392
 9675TIP3   OH228981   4.486   1.505   7.897
 9675TIP3    H128982   4.413   1.509   7.959
 9675TIP3    H228983   4.528   1.593   7.906
 9676TIP3   OH228984   4.297   1.014   6.526
 9676TIP3    H128985   4.361   1.081   6.497
 9676TIP3    H228986   4.342   0.978   6.606
 9677TIP3   OH228987   4.421   0.883   6.729
 9677TIP3    H128988   4.355   0.847   6.791
 9677TIP3    H228989   4.487   0.925   6.788
 9678TIP3   OH228990   4.497   1.264   7.161
 9678TIP3    H128991   4.523   1.230   7.075
 9678TIP3    H228992   4.467   1.353   7.136
 9679TIP3   OH228993   4.308   1.573   7.362
 9679TIP3    H128994   4.236   1.617   7.411
 9679TIP3    H228995   4.259   1.530   7.289
 9680TIP3   OH228996   4.357   0.786   6.383
 9680TIP3    H128997   4.289   0.796   6.312
 9680TIP3    H228998   4.333   0.864   6.438
 9681TIP3   OH228999   4.226   0.444   6.321
 9681TIP3    H129000   4.212   0.531   6.281
 9681TIP3    H229001   4.167   0.390   6.267
 9682TIP3   OH229002   4.239   0.751   6.880
 9682TIP3    H129003   4.235   0.657   6.854
 9682TIP3    H229004   4.227   0.749   6.978
 9683TIP3   OH229005   2.879   0.867   7.606
 9683TIP3    H129006   2.866   0.821   7.521
 9683TIP3    H229007   2.898   0.796   7.667
 9684TIP3   OH229008   4.530   1.164   7.732
 9684TIP3    H129009   4.599   1.095   7.724
 9684TIP3    H229010   4.562   1.233   7.672
 9685TIP3   OH229011   4.705   0.961   7.733
 9685TIP3    H129012   4.635   0.907   7.777
 9685TIP3    H229013   4.784   0.909   7.760
 9686TIP3   OH229014   4.240   0.500   6.754
 9686TIP3    H129015   4.272   0.421   6.801
 9686TIP3    H229016   4.300   0.504   6.676
 9687TIP3   OH229017   4.404   0.626   7.279
 9687TIP3    H129018   4.472   0.675   7.233
 9687TIP3    H229019   4.412   0.663   7.368
 9688TIP3   OH229020   4.445   0.805   7.491
 9688TIP3    H129021   4.375   0.801   7.559
 9688TIP3    H229022   4.440   0.898   7.468
 9689TIP3   OH229023   3.993   1.670   6.716
 9689TIP3    H129024   4.041   1.660   6.632
 9689TIP3    H229025   4.042   1.742   6.759
 9690TIP3   OH229026   3.266   1.480   7.591
 9690TIP3    H129027   3.210   1.552   7.556
 9690TIP3    H229028   3.352   1.505   7.550
 9691TIP3   OH229029   3.697   1.749   7.753
 9691TIP3    H129030   3.725   1.757   7.846
 9691TIP3    H229031   3.764   1.806   7.708
 9692TIP3   OH229032   3.891   1.901   7.641
 9692TIP3    H129033   3.962   1.866   7.586
 9692TIP3    H229034   3.941   1.963   7.699
 9693TIP3   OH229035   2.943   1.775   7.657
 9693TIP3    H129036   2.858   1.812   7.631
 9693TIP3    H229037   2.945   1.796   7.751
 9694TIP3   OH229038   3.184   1.738   7.525
 9694TIP3    H129039   3.097   1.752   7.569
 9694TIP3    H229040   3.166   1.775   7.436
 9695TIP3   OH229041   3.609   1.771   7.327
 9695TIP3    H129042   3.538   1.788   7.261
 9695TIP3    H229043   3.619   1.860   7.367
 9696TIP3   OH229044   3.877   1.708   7.382
 9696TIP3    H129045   3.783   1.727   7.362
 9696TIP3    H229046   3.921   1.779   7.333
 9697TIP3   OH229047   4.082   1.900   7.292
 9697TIP3    H129048   4.067   1.986   7.246
 9697TIP3    H229049   4.108   1.842   7.218
 9698TIP3   OH229050   2.850   1.555   7.410
 9698TIP3    H129051   2.889   1.535   7.498
 9698TIP3    H229052   2.922   1.518   7.354
 9699TIP3   OH229053   3.050   1.436   7.274
 9699TIP3    H129054   3.069   1.355   7.327
 9699TIP3    H229055   3.140   1.475   7.265
 9700TIP3   OH229056   3.315   1.525   7.274
 9700TIP3    H129057   3.348   1.435   7.257
 9700TIP3    H229058   3.370   1.549   7.352
 9701TIP3   OH229059   2.646   1.338   6.812
 9701TIP3    H129060   2.559   1.309   6.778
 9701TIP3    H229061   2.641   1.433   6.792
 9702TIP3   OH229062   3.418   1.515   6.390
 9702TIP3    H129063   3.505   1.539   6.352
 9702TIP3    H229064   3.395   1.442   6.328
 9703TIP3   OH229065   4.136   1.639   6.483
 9703TIP3    H129066   4.129   1.541   6.472
 9703TIP3    H229067   4.089   1.669   6.403
 9704TIP3   OH229068   2.722   1.358   6.445
 9704TIP3    H129069   2.729   1.387   6.537
 9704TIP3    H229070   2.808   1.313   6.429
 9705TIP3   OH229071   4.352   1.782   7.670
 9705TIP3    H129072   4.280   1.756   7.609
 9705TIP3    H229073   4.341   1.880   7.669
 9706TIP3   OH229074   5.625   1.150   6.436
 9706TIP3    H129075   5.600   1.243   6.417
 9706TIP3    H229076   5.549   1.104   6.395
 9707TIP3   OH229077   5.630   1.156   6.817
 9707TIP3    H129078   5.660   1.133   6.907
 9707TIP3    H229079   5.588   1.074   6.787
 9708TIP3   OH229080   4.929   1.023   7.196
 9708TIP3    H129081   4.958   1.019   7.285
 9708TIP3    H229082   4.936   1.119   7.176
 9709TIP3   OH229083   5.872   1.455   6.499
 9709TIP3    H129084   5.856   1.392   6.571
 9709TIP3    H229085   5.900   1.535   6.547
 9710TIP3   OH229086   4.899   1.455   6.905
 9710TIP3    H129087   4.894   1.358   6.909
 9710TIP3    H229088   4.996   1.467   6.891
 9711TIP3   OH229089   4.584   0.664   6.723
 9711TIP3    H129090   4.534   0.748   6.720
 9711TIP3    H229091   4.536   0.614   6.654
 9712TIP3   OH229092   4.651   0.960   6.850
 9712TIP3    H129093   4.707   0.890   6.886
 9712TIP3    H229094   4.715   1.019   6.806
 9713TIP3   OH229095   5.470   1.856   6.534
 9713TIP3    H129096   5.532   1.836   6.462
 9713TIP3    H229097   5.528   1.893   6.600
 9714TIP3   OH229098   5.424   1.378   6.867
 9714TIP3    H129099   5.467   1.306   6.820
 9714TIP3    H229100   5.505   1.427   6.894
 9715TIP3   OH229101   5.841   0.880   6.912
 9715TIP3    H129102   5.866   0.790   6.937
 9715TIP3    H229103   5.805   0.868   6.822
 9716TIP3   OH229104   5.140   0.506   6.853
 9716TIP3    H129105   5.126   0.587   6.800
 9716TIP3    H229106   5.089   0.441   6.803
 9717TIP3   OH229107   5.831   0.654   6.533
 9717TIP3    H129108   5.892   0.610   6.595
 9717TIP3    H229109   5.889   0.660   6.455
 9718TIP3   OH229110   4.776   0.750   6.988
 9718TIP3    H129111   4.866   0.710   6.977
 9718TIP3    H229112   4.725   0.693   6.931
 9719TIP3   OH229113   5.245   0.940   6.770
 9719TIP3    H129114   5.340   0.918   6.782
 9719TIP3    H229115   5.210   0.854   6.740
 9720TIP3   OH229116   6.472   0.890   7.067
 9720TIP3    H129117   6.401   0.946   7.030
 9720TIP3    H229118   6.535   0.955   7.101
 9721TIP3   OH229119   5.517   1.375   6.302
 9721TIP3    H129120   5.477   1.367   6.215
 9721TIP3    H229121   5.478   1.459   6.332
 9722TIP3   OH229122   5.277   1.296   7.086
 9722TIP3    H129123   5.220   1.367   7.122
 9722TIP3    H229124   5.321   1.342   7.011
 9723TIP3   OH229125   5.030   0.717   7.045
 9723TIP3    H129126   5.113   0.751   7.087
 9723TIP3    H229127   5.066   0.631   7.013
 9724TIP3   OH229128   5.109   1.496   7.187
 9724TIP3    H129129   5.086   1.583   7.149
 9724TIP3    H229130   5.030   1.482   7.243
 9725TIP3   OH229131   4.499   1.185   6.423
 9725TIP3    H129132   4.459   1.212   6.338
 9725TIP3    H229133   4.529   1.271   6.459
 9726TIP3   OH229134   5.945   1.703   6.660
 9726TIP3    H129135   5.857   1.693   6.704
 9726TIP3    H229136   5.932   1.788   6.614
 9727TIP3   OH229137   5.646   1.748   6.342
 9727TIP3    H129138   5.692   1.665   6.318
 9727TIP3    H229139   5.709   1.812   6.303
 9728TIP3   OH229140   5.787   1.527   6.246
 9728TIP3    H129141   5.739   1.450   6.214
 9728TIP3    H229142   5.824   1.494   6.331
 9729TIP3   OH229143   6.165   1.611   7.008
 9729TIP3    H129144   6.153   1.534   6.948
 9729TIP3    H229145   6.146   1.686   6.948
 9730TIP3   OH229146   5.458   1.010   6.264
 9730TIP3    H129147   5.378   1.064   6.245
 9730TIP3    H229148   5.501   1.008   6.177
 9731TIP3   OH229149   5.415   0.789   5.981
 9731TIP3    H129150   5.484   0.842   6.025
 9731TIP3    H229151   5.469   0.725   5.933
 9732TIP3   OH229152   6.362   1.254   6.855
 9732TIP3    H129153   6.278   1.304   6.857
 9732TIP3    H229154   6.393   1.277   6.765
 9733TIP3   OH229155   5.803   1.088   6.236
 9733TIP3    H129156   5.750   1.112   6.315
 9733TIP3    H229157   5.890   1.070   6.278
 9734TIP3   OH229158   6.039   1.127   7.157
 9734TIP3    H129159   6.035   1.209   7.209
 9734TIP3    H229160   5.953   1.133   7.111
 9735TIP3   OH229161   5.035   1.085   6.656
 9735TIP3    H129162   4.997   1.027   6.587
 9735TIP3    H229163   5.113   1.034   6.686
 9736TIP3   OH229164   5.161   1.482   6.807
 9736TIP3    H129165   5.149   1.466   6.712
 9736TIP3    H229166   5.254   1.453   6.821
 9737TIP3   OH229167   5.160   1.056   7.009
 9737TIP3    H129168   5.202   1.027   6.925
 9737TIP3    H229169   5.208   1.139   7.031
 9738TIP3   OH229170   5.711   1.694   6.792
 9738TIP3    H129171   5.685   1.775   6.838
 9738TIP3    H229172   5.684   1.623   6.854
 9739TIP3   OH229173   5.314   1.613   7.334
 9739TIP3    H129174   5.252   1.674   7.379
 9739TIP3    H229175   5.250   1.560   7.281
 9740TIP3   OH229176   5.644   0.945   6.062
 9740TIP3    H129177   5.701   1.008   6.111
 9740TIP3    H229178   5.672   0.965   5.969
 9741TIP3   OH229179   5.049   1.180   7.421
 9741TIP3    H129180   5.067   1.260   7.473
 9741TIP3    H229181   4.959   1.159   7.449
 9742TIP3   OH229182   5.389   1.622   6.336
 9742TIP3    H129183   5.459   1.676   6.376
 9742TIP3    H229184   5.332   1.690   6.297
 9743TIP3   OH229185   5.107   1.779   7.420
 9743TIP3    H129186   5.073   1.785   7.329
 9743TIP3    H229187   5.026   1.758   7.471
 9744TIP3   OH229188   4.903   0.927   6.460
 9744TIP3    H129189   4.840   0.978   6.405
 9744TIP3    H229190   4.860   0.840   6.461
 9745TIP3   OH229191   5.961   1.552   5.659
 9745TIP3    H129192   5.969   1.649   5.646
 9745TIP3    H229193   6.054   1.524   5.648
 9746TIP3   OH229194   4.685   1.306   7.368
 9746TIP3    H129195   4.619   1.287   7.299
 9746TIP3    H229196   4.714   1.217   7.395
 9747TIP3   OH229197   4.541   1.508   7.002
 9747TIP3    H129198   4.637   1.508   6.991
 9747TIP3    H229199   4.529   1.591   7.052
 9748TIP3   OH229200   6.404   1.961   7.056
 9748TIP3    H129201   6.403   1.864   7.069
 9748TIP3    H229202   6.320   1.985   7.102
 9749TIP3   OH229203   5.511   1.741   7.192
 9749TIP3    H129204   5.507   1.834   7.222
 9749TIP3    H229205   5.439   1.700   7.245
 9750TIP3   OH229206   5.269   1.862   6.143
 9750TIP3    H129207   5.227   1.857   6.055
 9750TIP3    H229208   5.245   1.952   6.173
 9751TIP3   OH229209   4.708   1.720   6.528
 9751TIP3    H129210   4.758   1.712   6.613
 9751TIP3    H229211   4.653   1.641   6.532
 9752TIP3   OH229212   5.470   1.773   5.781
 9752TIP3    H129213   5.531   1.703   5.747
 9752TIP3    H229214   5.505   1.787   5.872
 9753TIP3   OH229215   5.524   1.823   6.052
 9753TIP3    H129216   5.437   1.832   6.096
 9753TIP3    H229217   5.581   1.800   6.128
 9754TIP3   OH229218   6.291   1.072   7.315
 9754TIP3    H129219   6.208   1.103   7.275
 9754TIP3    H229220   6.280   0.977   7.315
 9755TIP3   OH229221   4.889   1.495   7.352
 9755TIP3    H129222   4.940   1.481   7.434
 9755TIP3    H229223   4.815   1.432   7.362
 9756TIP3   OH229224   6.062   0.869   7.276
 9756TIP3    H129225   6.034   0.904   7.360
 9756TIP3    H229226   6.048   0.944   7.215
 9757TIP3   OH229227   5.724   0.981   5.807
 9757TIP3    H129228   5.687   0.964   5.718
 9757TIP3    H229229   5.802   1.036   5.784
 9758TIP3   OH229230   5.238   0.842   7.171
 9758TIP3    H129231   5.199   0.869   7.256
 9758TIP3    H229232   5.226   0.924   7.118
 9759TIP3   OH229233   5.107   0.716   6.682
 9759TIP3    H129234   5.010   0.710   6.688
 9759TIP3    H229235   5.122   0.690   6.589
 9760TIP3   OH229236   5.588   0.809   6.399
 9760TIP3    H129237   5.543   0.883   6.353
 9760TIP3    H229238   5.656   0.783   6.333
 9761TIP3   OH229239   5.781   1.112   7.470
 9761TIP3    H129240   5.757   1.032   7.522
 9761TIP3    H229241   5.875   1.122   7.495
 9762TIP3   OH229242   5.730   0.874   6.659
 9762TIP3    H129243   5.679   0.924   6.593
 9762TIP3    H229244   5.752   0.794   6.607
 9763TIP3   OH229245   5.038   0.854   7.386
 9763TIP3    H129246   5.079   0.918   7.448
 9763TIP3    H229247   5.035   0.773   7.439
 9764TIP3   OH229248   4.675   0.485   6.510
 9764TIP3    H129249   4.694   0.485   6.414
 9764TIP3    H229250   4.579   0.501   6.507
 9765TIP3   OH229251   5.754   1.084   7.062
 9765TIP3    H129252   5.793   1.014   7.005
 9765TIP3    H229253   5.731   1.030   7.140
 9766TIP3   OH229254   4.848   0.605   6.733
 9766TIP3    H129255   4.754   0.632   6.723
 9766TIP3    H229256   4.849   0.532   6.669
 9767TIP3   OH229257   5.144   0.617   6.432
 9767TIP3    H129258   5.236   0.605   6.403
 9767TIP3    H229259   5.092   0.606   6.350
 9768TIP3   OH229260   4.980   0.599   6.204
 9768TIP3    H129261   4.907   0.584   6.141
 9768TIP3    H229262   5.041   0.648   6.145
 9769TIP3   OH229263   6.097   2.307   7.155
 9769TIP3    H129264   6.092   2.330   7.060
 9769TIP3    H229265   6.174   2.359   7.184
 9770TIP3   OH229266   5.054   1.417   7.574
 9770TIP3    H129267   5.134   1.444   7.622
 9770TIP3    H229268   4.990   1.415   7.648
 9771TIP3   OH229269   5.501   0.867   6.829
 9771TIP3    H129270   5.588   0.849   6.791
 9771TIP3    H229271   5.511   0.835   6.922
 9772TIP3   OH229272   5.513   0.800   7.093
 9772TIP3    H129273   5.425   0.795   7.133
 9772TIP3    H229274   5.566   0.842   7.163
 9773TIP3   OH229275   5.227   1.157   6.215
 9773TIP3    H129276   5.153   1.095   6.202
 9773TIP3    H229277   5.207   1.192   6.305
 9774TIP3   OH229278   6.127   1.395   6.842
 9774TIP3    H129279   6.151   1.446   6.762
 9774TIP3    H229280   6.042   1.352   6.815
 9775TIP3   OH229281   5.662   0.540   6.035
 9775TIP3    H129282   5.605   0.491   6.097
 9775TIP3    H229283   5.700   0.607   6.095
 9776TIP3   OH229284   5.621   1.474   7.215
 9776TIP3    H129285   5.660   1.463   7.303
 9776TIP3    H229286   5.589   1.566   7.217
 9777TIP3   OH229287   5.764   0.734   6.197
 9777TIP3    H129288   5.861   0.746   6.206
 9777TIP3    H229289   5.738   0.813   6.145
 9778TIP3   OH229290   4.924   1.163   6.895
 9778TIP3    H129291   4.950   1.153   6.801
 9778TIP3    H229292   5.002   1.124   6.939
 9779TIP3   OH229293   5.374   1.307   6.037
 9779TIP3    H129294   5.325   1.393   6.039
 9779TIP3    H229295   5.320   1.254   6.100
 9780TIP3   OH229296   4.801   1.097   7.518
 9780TIP3    H129297   4.857   1.119   7.596
 9780TIP3    H229298   4.747   1.029   7.561
 9781TIP3   OH229299   5.533   1.220   7.523
 9781TIP3    H129300   5.478   1.167   7.464
 9781TIP3    H229301   5.623   1.193   7.495
 9782TIP3   OH229302   5.787   1.731   7.115
 9782TIP3    H129303   5.690   1.735   7.124
 9782TIP3    H229304   5.815   1.788   7.190
 9783TIP3   OH229305   6.194   0.809   6.005
 9783TIP3    H129306   6.135   0.760   5.944
 9783TIP3    H229307   6.181   0.900   5.969
 9784TIP3   OH229308   6.416   1.670   7.094
 9784TIP3    H129309   6.318   1.663   7.086
 9784TIP3    H229310   6.443   1.639   7.005
 9785TIP3   OH229311   5.904   1.630   5.927
 9785TIP3    H129312   5.869   1.567   5.991
 9785TIP3    H229313   5.911   1.578   5.845
 9786TIP3   OH229314   5.894   1.260   6.760
 9786TIP3    H129315   5.800   1.235   6.773
 9786TIP3    H229316   5.927   1.181   6.713
 9787TIP3   OH229317   5.026   1.488   6.519
 9787TIP3    H129318   5.029   1.568   6.463
 9787TIP3    H229319   4.932   1.473   6.524
 9788TIP3   OH229320   4.586   0.788   6.223
 9788TIP3    H129321   4.630   0.874   6.241
 9788TIP3    H229322   4.509   0.795   6.284
 9789TIP3   OH229323   5.152   1.247   6.457
 9789TIP3    H129324   5.123   1.339   6.475
 9789TIP3    H229325   5.118   1.201   6.535
 9790TIP3   OH229326   5.292   1.828   6.982
 9790TIP3    H129327   5.333   1.901   6.930
 9790TIP3    H229328   5.370   1.792   7.027
 9791TIP3   OH229329   4.942   1.725   6.369
 9791TIP3    H129330   4.856   1.736   6.414
 9791TIP3    H229331   4.977   1.817   6.371
 9792TIP3   OH229332   5.674   1.459   6.947
 9792TIP3    H129333   5.665   1.457   7.045
 9792TIP3    H229334   5.757   1.413   6.934
 9793TIP3   OH229335   5.656   1.354   5.827
 9793TIP3    H129336   5.709   1.328   5.906
 9793TIP3    H229337   5.567   1.333   5.857
 9794TIP3   OH229338   5.926   1.995   6.991
 9794TIP3    H129339   5.844   1.942   6.981
 9794TIP3    H229340   5.913   2.061   6.919
 9795TIP3   OH229341   5.992   1.828   5.644
 9795TIP3    H129342   6.027   1.901   5.592
 9795TIP3    H229343   5.912   1.871   5.681
 9796TIP3   OH229344   5.817   1.282   6.038
 9796TIP3    H129345   5.807   1.220   6.113
 9796TIP3    H229346   5.914   1.284   6.029
 9797TIP3   OH229347   4.730   1.691   7.143
 9797TIP3    H129348   4.788   1.622   7.180
 9797TIP3    H229349   4.760   1.769   7.192
 9798TIP3   OH229350   5.019   1.336   5.827
 9798TIP3    H129351   5.033   1.243   5.802
 9798TIP3    H229352   4.999   1.328   5.922
 9799TIP3   OH229353   4.964   1.341   6.100
 9799TIP3    H129354   5.042   1.320   6.153
 9799TIP3    H229355   4.964   1.439   6.104
 9800TIP3   OH229356   4.698   1.034   6.304
 9800TIP3    H129357   4.632   1.081   6.359
 9800TIP3    H229358   4.712   1.101   6.234
 9801TIP3   OH229359   5.229   1.534   6.044
 9801TIP3    H129360   5.143   1.562   6.082
 9801TIP3    H229361   5.254   1.616   5.999
 9802TIP3   OH229362   5.428   0.592   6.424
 9802TIP3    H129363   5.480   0.675   6.414
 9802TIP3    H229364   5.450   0.569   6.515
 9803TIP3   OH229365   5.700   0.921   7.272
 9803TIP3    H129366   5.699   0.982   7.348
 9803TIP3    H229367   5.753   0.849   7.308
 9804TIP3   OH229368   4.974   1.612   6.117
 9804TIP3    H129369   4.946   1.682   6.054
 9804TIP3    H229370   4.961   1.657   6.203
 9805TIP3   OH229371   5.981   1.017   6.639
 9805TIP3    H129372   5.902   0.965   6.662
 9805TIP3    H229373   6.052   0.969   6.688
 9806TIP3   OH229374   4.693   1.238   6.108
 9806TIP3    H129375   4.760   1.308   6.117
 9806TIP3    H229376   4.738   1.183   6.040
 9807TIP3   OH229377   4.632   0.517   6.238
 9807TIP3    H129378   4.633   0.614   6.226
 9807TIP3    H229379   4.544   0.494   6.206
 9808TIP3   OH229380   5.946   1.975   6.586
 9808TIP3    H129381   5.900   2.018   6.510
 9808TIP3    H229382   6.039   1.991   6.560
 9809TIP3   OH229383   4.557   1.450   6.491
 9809TIP3    H129384   4.492   1.485   6.553
 9809TIP3    H229385   4.530   1.495   6.408
 9810TIP3   OH229386   4.723   2.003   7.569
 9810TIP3    H129387   4.810   2.006   7.614
 9810TIP3    H229388   4.709   1.908   7.563
 9811TIP3   OH229389   5.197   1.959   7.612
 9811TIP3    H129390   5.292   1.945   7.618
 9811TIP3    H229391   5.173   1.899   7.540
 9812TIP3   OH229392   5.181   1.539   5.733
 9812TIP3    H129393   5.127   1.468   5.774
 9812TIP3    H229394   5.258   1.488   5.703
 9813TIP3   OH229395   5.838   1.872   7.346
 9813TIP3    H129396   5.832   1.802   7.415
 9813TIP3    H229397   5.916   1.924   7.376
 9814TIP3   OH229398   5.618   1.576   5.650
 9814TIP3    H129399   5.663   1.514   5.710
 9814TIP3    H229400   5.674   1.574   5.571
 9815TIP3   OH229401   4.850   1.412   7.763
 9815TIP3    H129402   4.864   1.319   7.787
 9815TIP3    H229403   4.763   1.409   7.718
 9816TIP3   OH229404   4.829   1.052   5.963
 9816TIP3    H129405   4.888   1.027   6.036
 9816TIP3    H229406   4.894   1.059   5.890
 9817TIP3   OH229407   5.457   1.495   7.542
 9817TIP3    H129408   5.418   1.515   7.454
 9817TIP3    H229409   5.487   1.403   7.531
 9818TIP3   OH229410   5.343   1.257   5.769
 9818TIP3    H129411   5.345   1.269   5.866
 9818TIP3    H229412   5.343   1.159   5.763
 9819TIP3   OH229413   5.949   1.505   7.148
 9819TIP3    H129414   6.026   1.544   7.103
 9819TIP3    H229415   5.882   1.574   7.132
 9820TIP3   OH229416   4.970   1.143   7.732
 9820TIP3    H129417   5.037   1.073   7.730
 9820TIP3    H229418   4.990   1.180   7.821
 9821TIP3   OH229419   5.030   0.962   6.180
 9821TIP3    H129420   5.011   0.921   6.265
 9821TIP3    H229421   5.071   0.888   6.130
 9822TIP3   OH229422   5.287   1.041   7.394
 9822TIP3    H129423   5.212   1.105   7.392
 9822TIP3    H229424   5.346   1.076   7.324
 9823TIP3   OH229425   5.136   0.753   6.030
 9823TIP3    H129426   5.110   0.762   5.935
 9823TIP3    H229427   5.233   0.756   6.021
 9824TIP3   OH229428   5.825   1.429   7.544
 9824TIP3    H129429   5.897   1.394   7.491
 9824TIP3    H229430   5.813   1.361   7.612
 9825TIP3   OH229431   5.957   1.081   5.687
 9825TIP3    H129432   5.936   1.041   5.600
 9825TIP3    H229433   5.925   1.172   5.670
 9826TIP3   OH229434   5.393   0.831   7.526
 9826TIP3    H129435   5.348   0.771   7.465
 9826TIP3    H229436   5.362   0.917   7.490
 9827TIP3   OH229437   5.463   1.142   7.217
 9827TIP3    H129438   5.547   1.151   7.172
 9827TIP3    H229439   5.407   1.205   7.167
 9828TIP3   OH229440   6.034   1.110   7.575
 9828TIP3    H129441   6.066   1.044   7.641
 9828TIP3    H229442   6.117   1.152   7.549
 9829TIP3   OH229443   6.080   1.356   7.330
 9829TIP3    H129444   6.021   1.411   7.273
 9829TIP3    H229445   6.167   1.379   7.291
 9830TIP3   OH229446   5.273   0.960   7.751
 9830TIP3    H129447   5.221   0.898   7.803
 9830TIP3    H229448   5.329   0.904   7.695
 9831TIP3   OH229449   5.671   0.887   7.566
 9831TIP3    H129450   5.698   0.852   7.653
 9831TIP3    H229451   5.575   0.875   7.570
 9832TIP3   OH229452   4.944   1.811   5.927
 9832TIP3    H129453   5.041   1.805   5.910
 9832TIP3    H229454   4.919   1.866   5.850
 9833TIP3   OH229455   4.425   1.197   6.145
 9833TIP3    H129456   4.519   1.220   6.129
 9833TIP3    H229457   4.418   1.110   6.102
 9834TIP3   OH229458   4.341   1.810   6.559
 9834TIP3    H129459   4.275   1.749   6.519
 9834TIP3    H229460   4.385   1.750   6.622
 9835TIP3   OH229461   4.476   1.655   6.743
 9835TIP3    H129462   4.462   1.587   6.811
 9835TIP3    H229463   4.530   1.719   6.794
 9836TIP3   OH229464   6.207   2.052   6.547
 9836TIP3    H129465   6.230   2.089   6.634
 9836TIP3    H229466   6.261   2.104   6.486
 9837TIP3   OH229467   6.231   2.081   6.830
 9837TIP3    H129468   6.184   1.995   6.821
 9837TIP3    H229469   6.304   2.052   6.887
 9838TIP3   OH229470   6.278   1.759   7.402
 9838TIP3    H129471   6.203   1.769   7.464
 9838TIP3    H229472   6.320   1.847   7.405
 9839TIP3   OH229473   6.095   1.269   6.016
 9839TIP3    H129474   6.159   1.337   5.987
 9839TIP3    H229475   6.140   1.235   6.097
 9840TIP3   OH229476   6.221   1.143   6.222
 9840TIP3    H129477   6.153   1.106   6.283
 9840TIP3    H229478   6.286   1.183   6.284
 9841TIP3   OH229479   6.280   1.533   6.658
 9841TIP3    H129480   6.329   1.464   6.609
 9841TIP3    H229481   6.275   1.605   6.593
 9842TIP3   OH229482   6.105   1.832   6.850
 9842TIP3    H129483   6.032   1.874   6.898
 9842TIP3    H229484   6.058   1.787   6.776
 9843TIP3   OH229485   6.153   1.044   5.869
 9843TIP3    H129486   6.084   1.054   5.799
 9843TIP3    H229487   6.129   1.121   5.926
 9844TIP3   OH229488   6.021   0.704   5.809
 9844TIP3    H129489   6.006   0.787   5.765
 9844TIP3    H229490   5.969   0.643   5.755
 9845TIP3   OH229491   6.033   1.011   6.367
 9845TIP3    H129492   6.037   0.917   6.343
 9845TIP3    H229493   6.021   1.010   6.465
 9846TIP3   OH229494   6.322   1.421   7.220
 9846TIP3    H129495   6.395   1.355   7.215
 9846TIP3    H229496   6.350   1.489   7.156
 9847TIP3   OH229497   6.506   1.226   7.246
 9847TIP3    H129498   6.432   1.169   7.277
 9847TIP3    H229499   6.580   1.164   7.259
 9848TIP3   OH229500   6.035   0.758   6.237
 9848TIP3    H129501   6.065   0.680   6.288
 9848TIP3    H229502   6.097   0.760   6.162
 9849TIP3   OH229503   6.188   0.888   6.766
 9849TIP3    H129504   6.274   0.911   6.724
 9849TIP3    H229505   6.205   0.926   6.855
 9850TIP3   OH229506   6.255   1.039   6.989
 9850TIP3    H129507   6.179   1.076   7.038
 9850TIP3    H229508   6.291   1.119   6.944
 9851TIP3   OH229509   4.880   0.754   7.771
 9851TIP3    H129510   4.958   0.786   7.819
 9851TIP3    H229511   4.855   0.675   7.821
 9852TIP3   OH229512   5.801   1.912   6.198
 9852TIP3    H129513   5.856   1.915   6.118
 9852TIP3    H229514   5.809   2.002   6.232
 9853TIP3   OH229515   4.885   1.734   7.584
 9853TIP3    H129516   4.792   1.707   7.571
 9853TIP3    H229517   4.900   1.713   7.676
 9854TIP3   OH229518   5.067   1.768   7.133
 9854TIP3    H129519   5.020   1.844   7.093
 9854TIP3    H229520   5.153   1.781   7.088
 9855TIP3   OH229521   5.506   2.008   7.271
 9855TIP3    H129522   5.548   2.009   7.360
 9855TIP3    H229523   5.570   2.060   7.219
 9856TIP3   OH229524   5.685   2.162   7.134
 9856TIP3    H129525   5.753   2.114   7.086
 9856TIP3    H229526   5.739   2.218   7.194
 9857TIP3   OH229527   4.738   2.017   7.163
 9857TIP3    H129528   4.649   2.049   7.138
 9857TIP3    H229529   4.755   2.073   7.240
 9858TIP3   OH229530   4.976   2.000   7.019
 9858TIP3    H129531   4.888   2.013   7.060
 9858TIP3    H229532   4.961   2.032   6.928
 9859TIP3   OH229533   5.403   2.026   6.819
 9859TIP3    H129534   5.339   2.037   6.746
 9859TIP3    H229535   5.410   2.117   6.854
 9860TIP3   OH229536   5.671   1.965   6.868
 9860TIP3    H129537   5.576   1.983   6.852
 9860TIP3    H229538   5.713   2.037   6.818
 9861TIP3   OH229539   5.881   2.160   6.778
 9861TIP3    H129540   5.863   2.244   6.730
 9861TIP3    H229541   5.904   2.100   6.704
 9862TIP3   OH229542   4.650   1.813   6.900
 9862TIP3    H129543   4.678   1.788   6.991
 9862TIP3    H229544   4.724   1.771   6.850
 9863TIP3   OH229545   4.846   1.686   6.762
 9863TIP3    H129546   4.864   1.603   6.811
 9863TIP3    H229547   4.936   1.725   6.758
 9864TIP3   OH229548   5.108   1.781   6.769
 9864TIP3    H129549   5.151   1.698   6.744
 9864TIP3    H229550   5.159   1.803   6.849
 9865TIP3   OH229551   4.439   1.592   6.293
 9865TIP3    H129552   4.353   1.560   6.261
 9865TIP3    H229553   4.433   1.685   6.266
 9866TIP3   OH229554   5.212   1.773   5.875
 9866TIP3    H129555   5.300   1.797   5.840
 9866TIP3    H229556   5.191   1.698   5.816
 9867TIP3   OH229557   5.941   1.898   5.961
 9867TIP3    H129558   5.930   1.801   5.954
 9867TIP3    H229559   5.887   1.928   5.886
 9868TIP3   OH229560   4.514   1.606   5.929
 9868TIP3    H129561   4.520   1.636   6.021
 9868TIP3    H229562   4.603   1.566   5.914
 9869TIP3   OH229563   6.154   2.036   7.156
 9869TIP3    H129564   6.077   2.006   7.104
 9869TIP3    H229565   6.135   2.132   7.161
 9870TIP3   OH229566   7.425   1.411   5.920
 9870TIP3    H129567   7.394   1.502   5.898
 9870TIP3    H229568   7.350   1.360   5.884
 9871TIP3   OH229569   7.413   1.419   6.292
 9871TIP3    H129570   7.437   1.396   6.384
 9871TIP3    H229571   7.374   1.335   6.264
 9872TIP3   OH229572   6.720   1.303   6.665
 9872TIP3    H129573   6.750   1.234   6.726
 9872TIP3    H229574   6.799   1.357   6.658
 9873TIP3   OH229575   7.672   1.716   5.984
 9873TIP3    H129576   7.646   1.648   6.047
 9873TIP3    H229577   7.701   1.789   6.041
 9874TIP3   OH229578   6.698   1.717   6.392
 9874TIP3    H129579   6.688   1.619   6.393
 9874TIP3    H229580   6.794   1.725   6.382
 9875TIP3   OH229581   6.387   0.927   6.190
 9875TIP3    H129582   6.333   1.007   6.201
 9875TIP3    H229583   6.329   0.874   6.133
 9876TIP3   OH229584   6.453   1.217   6.350
 9876TIP3    H129585   6.492   1.132   6.380
 9876TIP3    H229586   6.517   1.246   6.284
 9877TIP3   OH229587   7.323   2.177   6.004
 9877TIP3    H129588   7.363   2.107   5.949
 9877TIP3    H229589   7.306   2.131   6.087
 9878TIP3   OH229590   7.220   1.636   6.352
 9878TIP3    H129591   7.258   1.559   6.307
 9878TIP3    H229592   7.303   1.682   6.376
 9879TIP3   OH229593   7.630   1.141   6.402
 9879TIP3    H129594   7.660   1.052   6.422
 9879TIP3    H229595   7.598   1.134   6.310
 9880TIP3   OH229596   6.945   0.749   6.353
 9880TIP3    H129597   6.936   0.837   6.310
 9880TIP3    H229598   6.889   0.695   6.297
 9881TIP3   OH229599   7.630   0.913   6.024
 9881TIP3    H129600   7.688   0.864   6.085
 9881TIP3    H229601   7.684   0.910   5.944
 9882TIP3   OH229602   6.577   0.996   6.444
 9882TIP3    H129603   6.669   1.006   6.478
 9882TIP3    H229604   6.594   0.936   6.370
 9883TIP3   OH229605   7.040   1.196   6.255
 9883TIP3    H129606   7.134   1.175   6.271
 9883TIP3    H229607   7.005   1.107   6.232
 9884TIP3   OH229608   7.313   1.632   5.789
 9884TIP3    H129609   7.272   1.616   5.703
 9884TIP3    H229610   7.267   1.713   5.817
 9885TIP3   OH229611   7.082   1.555   6.578
 9885TIP3    H129612   7.018   1.621   6.613
 9885TIP3    H229613   7.117   1.601   6.499
 9886TIP3   OH229614   6.834   0.980   6.513
 9886TIP3    H129615   6.910   1.017   6.561
 9886TIP3    H229616   6.851   0.885   6.521
 9887TIP3   OH229617   6.906   1.751   6.675
 9887TIP3    H129618   6.878   1.837   6.637
 9887TIP3    H229619   6.827   1.731   6.729
 9888TIP3   OH229620   6.295   1.442   5.909
 9888TIP3    H129621   6.254   1.470   5.825
 9888TIP3    H229622   6.326   1.527   5.946
 9889TIP3   OH229623   7.738   1.959   6.151
 9889TIP3    H129624   7.648   1.950   6.191
 9889TIP3    H229625   7.728   2.044   6.104
 9890TIP3   OH229626   7.436   2.003   5.822
 9890TIP3    H129627   7.485   1.919   5.803
 9890TIP3    H229628   7.500   2.067   5.783
 9891TIP3   OH229629   7.580   1.788   5.735
 9891TIP3    H129630   7.543   1.708   5.695
 9891TIP3    H229631   7.619   1.753   5.817
 9892TIP3   OH229632   7.951   1.859   6.495
 9892TIP3    H129633   7.944   1.789   6.428
 9892TIP3    H229634   7.945   1.940   6.440
 9893TIP3   OH229635   7.256   1.269   5.751
 9893TIP3    H129636   7.174   1.319   5.732
 9893TIP3    H229637   7.296   1.261   5.663
 9894TIP3   OH229638   7.211   1.045   5.470
 9894TIP3    H129639   7.283   1.098   5.510
 9894TIP3    H229640   7.262   0.979   5.421
 9895TIP3   OH229641   8.189   1.509   6.337
 9895TIP3    H129642   8.095   1.534   6.346
 9895TIP3    H229643   8.206   1.532   6.243
 9896TIP3   OH229644   7.601   1.347   5.720
 9896TIP3    H129645   7.547   1.369   5.799
 9896TIP3    H229646   7.687   1.326   5.763
 9897TIP3   OH229647   7.848   1.366   6.511
 9897TIP3    H129648   7.910   1.434   6.540
 9897TIP3    H229649   7.801   1.408   6.439
 9898TIP3   OH229650   6.835   1.342   6.141
 9898TIP3    H129651   6.794   1.283   6.074
 9898TIP3    H229652   6.910   1.287   6.173
 9899TIP3   OH229653   6.964   1.755   6.288
 9899TIP3    H129654   6.942   1.721   6.200
 9899TIP3    H229655   7.052   1.715   6.303
 9900TIP3   OH229656   6.978   1.306   6.506
 9900TIP3    H129657   7.000   1.279   6.414
 9900TIP3    H229658   7.018   1.395   6.513
 9901TIP3   OH229659   7.498   1.952   6.274
 9901TIP3    H129660   7.484   2.033   6.326
 9901TIP3    H229661   7.479   1.880   6.337
 9902TIP3   OH229662   7.105   1.870   6.819
 9902TIP3    H129663   7.042   1.932   6.863
 9902TIP3    H229664   7.041   1.817   6.767
 9903TIP3   OH229665   7.441   1.201   5.549
 9903TIP3    H129666   7.498   1.265   5.598
 9903TIP3    H229667   7.468   1.221   5.455
 9904TIP3   OH229668   6.847   1.445   6.909
 9904TIP3    H129669   6.853   1.524   6.967
 9904TIP3    H229670   6.757   1.414   6.932
 9905TIP3   OH229671   7.188   1.880   5.828
 9905TIP3    H129672   7.269   1.934   5.834
 9905TIP3    H229673   7.127   1.938   5.781
 9906TIP3   OH229674   6.903   2.039   6.909
 9906TIP3    H129675   6.868   2.041   6.818
 9906TIP3    H229676   6.823   2.015   6.961
 9907TIP3   OH229677   6.701   1.185   5.945
 9907TIP3    H129678   6.632   1.230   5.891
 9907TIP3    H229679   6.663   1.097   5.956
 9908TIP3   OH229680   7.752   1.812   5.149
 9908TIP3    H129681   7.763   1.908   5.132
 9908TIP3    H229682   7.844   1.780   5.138
 9909TIP3   OH229683   6.482   1.571   6.852
 9909TIP3    H129684   6.414   1.552   6.784
 9909TIP3    H229685   6.519   1.483   6.872
 9910TIP3   OH229686   6.334   1.760   6.488
 9910TIP3    H129687   6.430   1.763   6.478
 9910TIP3    H229688   6.318   1.843   6.537
 9911TIP3   OH229689   8.182   2.223   6.534
 9911TIP3    H129690   8.202   2.130   6.544
 9911TIP3    H229691   8.100   2.233   6.588
 9912TIP3   OH229692   7.303   1.994   6.676
 9912TIP3    H129693   7.303   2.087   6.708
 9912TIP3    H229694   7.229   1.957   6.730
 9913TIP3   OH229695   7.072   2.127   5.628
 9913TIP3    H129696   7.023   2.108   5.546
 9913TIP3    H229697   7.035   2.213   5.656
 9914TIP3   OH229698   6.507   1.976   6.014
 9914TIP3    H129699   6.552   1.967   6.101
 9914TIP3    H229700   6.450   1.897   6.014
 9915TIP3   OH229701   7.269   2.031   5.266
 9915TIP3    H129702   7.327   1.960   5.230
 9915TIP3    H229703   7.303   2.040   5.357
 9916TIP3   OH229704   7.322   2.078   5.536
 9916TIP3    H129705   7.232   2.089   5.575
 9916TIP3    H229706   7.370   2.037   5.609
 9917TIP3   OH229707   6.686   1.754   6.839
 9917TIP3    H129708   6.736   1.735   6.921
 9917TIP3    H229709   6.612   1.690   6.844
 9918TIP3   OH229710   7.522   1.243   5.296
 9918TIP3    H129711   7.481   1.223   5.209
 9918TIP3    H229712   7.603   1.290   5.267
 9919TIP3   OH229713   7.038   1.095   6.668
 9919TIP3    H129714   6.973   1.116   6.738
 9919TIP3    H229715   7.025   1.172   6.608
 9920TIP3   OH229716   6.907   0.965   6.175
 9920TIP3    H129717   6.811   0.951   6.185
 9920TIP3    H229718   6.920   0.941   6.080
 9921TIP3   OH229719   7.387   1.070   5.889
 9921TIP3    H129720   7.339   1.141   5.841
 9921TIP3    H229721   7.452   1.041   5.823
 9922TIP3   OH229722   7.532   1.136   6.144
 9922TIP3    H129723   7.472   1.177   6.079
 9922TIP3    H229724   7.555   1.054   6.094
 9923TIP3   OH229725   6.838   1.126   6.856
 9923TIP3    H129726   6.857   1.186   6.930
 9923TIP3    H229727   6.817   1.043   6.901
 9924TIP3   OH229728   6.470   0.736   5.991
 9924TIP3    H129729   6.487   0.738   5.895
 9924TIP3    H229730   6.375   0.756   5.991
 9925TIP3   OH229731   7.503   1.341   6.536
 9925TIP3    H129732   7.541   1.263   6.490
 9925TIP3    H229733   7.568   1.350   6.608
 9926TIP3   OH229734   6.648   0.858   6.208
 9926TIP3    H129735   6.555   0.889   6.192
 9926TIP3    H229736   6.644   0.775   6.160
 9927TIP3   OH229737   6.942   0.876   5.918
 9927TIP3    H129738   7.033   0.861   5.886
 9927TIP3    H229739   6.888   0.864   5.838
 9928TIP3   OH229740   6.777   0.856   5.691
 9928TIP3    H129741   6.704   0.840   5.629
 9928TIP3    H229742   6.837   0.905   5.631
 9929TIP3   OH229743   7.894   2.565   6.639
 9929TIP3    H129744   7.892   2.591   6.545
 9929TIP3    H229745   7.959   2.627   6.676
 9930TIP3   OH229746   6.847   1.681   7.063
 9930TIP3    H129747   6.927   1.709   7.112
 9930TIP3    H229748   6.783   1.674   7.136
 9931TIP3   OH229749   7.298   1.139   6.326
 9931TIP3    H129750   7.373   1.098   6.282
 9931TIP3    H229751   7.293   1.086   6.408
 9932TIP3   OH229752   7.313   1.051   6.605
 9932TIP3    H129753   7.219   1.054   6.628
 9932TIP3    H229754   7.356   1.086   6.684
 9933TIP3   OH229755   7.023   1.415   5.702
 9933TIP3    H129756   6.951   1.350   5.690
 9933TIP3    H229757   7.003   1.449   5.792
 9934TIP3   OH229758   7.932   1.636   6.329
 9934TIP3    H129759   7.959   1.688   6.250
 9934TIP3    H229760   7.847   1.598   6.299
 9935TIP3   OH229761   7.460   0.799   5.522
 9935TIP3    H129762   7.401   0.747   5.580
 9935TIP3    H229763   7.496   0.863   5.586
 9936TIP3   OH229764   7.441   1.747   6.708
 9936TIP3    H129765   7.394   1.696   6.774
 9936TIP3    H229766   7.389   1.830   6.703
 9937TIP3   OH229767   7.560   0.992   5.687
 9937TIP3    H129768   7.658   1.004   5.694
 9937TIP3    H229769   7.534   1.069   5.632
 9938TIP3   OH229770   6.723   1.441   6.376
 9938TIP3    H129771   6.758   1.410   6.290
 9938TIP3    H229772   6.757   1.374   6.438
 9939TIP3   OH229773   7.171   1.565   5.528
 9939TIP3    H129774   7.122   1.651   5.530
 9939TIP3    H229775   7.115   1.510   5.587
 9940TIP3   OH229776   6.598   1.358   6.989
 9940TIP3    H129777   6.624   1.345   7.083
 9940TIP3    H229778   6.527   1.293   6.978
 9941TIP3   OH229779   7.312   1.487   7.008
 9941TIP3    H129780   7.240   1.436   6.966
 9941TIP3    H229781   7.382   1.421   7.007
 9942TIP3   OH229782   7.579   1.998   6.588
 9942TIP3    H129783   7.483   1.984   6.594
 9942TIP3    H229784   7.594   2.048   6.670
 9943TIP3   OH229785   7.990   1.063   5.490
 9943TIP3    H129786   7.930   1.015   5.429
 9943TIP3    H229787   7.979   1.154   5.455
 9944TIP3   OH229788   7.698   1.884   5.415
 9944TIP3    H129789   7.666   1.815   5.474
 9944TIP3    H229790   7.706   1.839   5.329
 9945TIP3   OH229791   7.689   1.504   6.267
 9945TIP3    H129792   7.593   1.485   6.264
 9945TIP3    H229793   7.721   1.433   6.208
 9946TIP3   OH229794   6.820   1.745   6.006
 9946TIP3    H129795   6.815   1.824   5.949
 9946TIP3    H229796   6.727   1.722   6.015
 9947TIP3   OH229797   6.380   1.045   5.710
 9947TIP3    H129798   6.426   1.130   5.729
 9947TIP3    H229799   6.304   1.051   5.771
 9948TIP3   OH229800   6.951   1.506   5.945
 9948TIP3    H129801   6.917   1.596   5.965
 9948TIP3    H229802   6.917   1.455   6.020
 9949TIP3   OH229803   7.088   2.086   6.470
 9949TIP3    H129804   7.130   2.158   6.419
 9949TIP3    H229805   7.165   2.047   6.515
 9950TIP3   OH229806   6.737   1.980   5.854
 9950TIP3    H129807   6.651   1.989   5.901
 9950TIP3    H229808   6.769   2.073   5.856
 9951TIP3   OH229809   7.473   1.719   6.434
 9951TIP3    H129810   7.472   1.716   6.532
 9951TIP3    H229811   7.546   1.660   6.413
 9952TIP3   OH229812   7.452   1.615   5.314
 9952TIP3    H129813   7.504   1.590   5.393
 9952TIP3    H229814   7.364   1.585   5.338
 9953TIP3   OH229815   7.720   2.252   6.480
 9953TIP3    H129816   7.641   2.196   6.471
 9953TIP3    H229817   7.706   2.315   6.406
 9954TIP3   OH229818   7.789   2.088   5.131
 9954TIP3    H129819   7.817   2.162   5.075
 9954TIP3    H229820   7.708   2.127   5.169
 9955TIP3   OH229821   7.613   1.548   5.529
 9955TIP3    H129822   7.602   1.481   5.599
 9955TIP3    H229823   7.710   1.544   5.515
 9956TIP3   OH229824   6.529   1.946   6.627
 9956TIP3    H129825   6.579   1.871   6.662
 9956TIP3    H229826   6.554   2.015   6.689
 9957TIP3   OH229827   6.816   1.593   5.314
 9957TIP3    H129828   6.827   1.500   5.286
 9957TIP3    H229829   6.794   1.582   5.409
 9958TIP3   OH229830   6.759   1.598   5.586
 9958TIP3    H129831   6.834   1.572   5.641
 9958TIP3    H229832   6.763   1.696   5.593
 9959TIP3   OH229833   6.493   1.290   5.790
 9959TIP3    H129834   6.427   1.336   5.846
 9959TIP3    H229835   6.507   1.357   5.721
 9960TIP3   OH229836   7.029   1.795   5.535
 9960TIP3    H129837   6.941   1.819   5.571
 9960TIP3    H229838   7.041   1.866   5.470
 9961TIP3   OH229839   7.232   0.847   5.909
 9961TIP3    H129840   7.282   0.932   5.906
 9961TIP3    H229841   7.239   0.824   6.002
 9962TIP3   OH229842   7.495   1.142   6.811
 9962TIP3    H129843   7.528   1.231   6.791
 9962TIP3    H229844   7.569   1.091   6.777
 9963TIP3   OH229845   6.774   1.870   5.603
 9963TIP3    H129846   6.743   1.940   5.541
 9963TIP3    H229847   6.757   1.912   5.690
 9964TIP3   OH229848   7.772   1.282   6.124
 9964TIP3    H129849   7.693   1.227   6.142
 9964TIP3    H229850   7.843   1.235   6.173
 9965TIP3   OH229851   6.489   1.494   5.594
 9965TIP3    H129852   6.557   1.563   5.602
 9965TIP3    H229853   6.533   1.438   5.526
 9966TIP3   OH229854   6.432   0.775   5.720
 9966TIP3    H129855   6.427   0.872   5.710
 9966TIP3    H229856   6.343   0.747   5.694
 9967TIP3   OH229857   7.744   2.230   6.073
 9967TIP3    H129858   7.700   2.277   5.998
 9967TIP3    H229859   7.838   2.250   6.051
 9968TIP3   OH229860   6.354   1.710   5.977
 9968TIP3    H129861   6.292   1.743   6.043
 9968TIP3    H229862   6.321   1.754   5.896
 9969TIP3   OH229863   6.517   2.259   7.052
 9969TIP3    H129864   6.604   2.254   7.097
 9969TIP3    H229865   6.493   2.165   7.049
 9970TIP3   OH229866   6.999   2.221   7.093
 9970TIP3    H129867   7.092   2.193   7.099
 9970TIP3    H229868   6.966   2.162   7.023
 9971TIP3   OH229869   6.980   1.795   5.225
 9971TIP3    H129870   6.924   1.722   5.261
 9971TIP3    H229871   7.054   1.744   5.188
 9972TIP3   OH229872   7.595   2.123   6.833
 9972TIP3    H129873   7.593   2.052   6.902
 9972TIP3    H229874   7.679   2.170   6.855
 9973TIP3   OH229875   7.414   1.834   5.138
 9973TIP3    H129876   7.455   1.768   5.197
 9973TIP3    H229877   7.471   1.829   5.058
 9974TIP3   OH229878   6.645   1.666   7.252
 9974TIP3    H129879   6.659   1.571   7.267
 9974TIP3    H229880   6.559   1.667   7.204
 9975TIP3   OH229881   6.625   1.309   5.449
 9975TIP3    H129882   6.683   1.280   5.521
 9975TIP3    H229883   6.691   1.315   5.376
 9976TIP3   OH229884   7.260   1.758   7.010
 9976TIP3    H129885   7.202   1.780   6.934
 9976TIP3    H229886   7.273   1.661   7.001
 9977TIP3   OH229887   7.143   1.514   5.258
 9977TIP3    H129888   7.142   1.525   5.355
 9977TIP3    H229889   7.144   1.416   5.250
 9978TIP3   OH229890   7.756   1.763   6.660
 9978TIP3    H129891   7.818   1.803   6.597
 9978TIP3    H229892   7.672   1.808   6.636
 9979TIP3   OH229893   6.775   1.391   7.218
 9979TIP3    H129894   6.850   1.329   7.213
 9979TIP3    H229895   6.779   1.413   7.313
 9980TIP3   OH229896   6.829   1.219   5.668
 9980TIP3    H129897   6.806   1.179   5.753
 9980TIP3    H229898   6.868   1.144   5.619
 9981TIP3   OH229899   7.094   1.338   6.885
 9981TIP3    H129900   7.005   1.379   6.881
 9981TIP3    H229901   7.134   1.361   6.799
 9982TIP3   OH229902   6.932   1.011   5.516
 9982TIP3    H129903   6.906   1.018   5.421
 9982TIP3    H229904   7.029   1.012   5.508
 9983TIP3   OH229905   7.752   1.338   5.174
 9983TIP3    H129906   7.734   1.297   5.087
 9983TIP3    H229907   7.719   1.429   5.155
 9984TIP3   OH229908   7.207   1.114   6.975
 9984TIP3    H129909   7.169   1.046   6.918
 9984TIP3    H229910   7.176   1.197   6.932
 9985TIP3   OH229911   7.281   1.410   6.698
 9985TIP3    H129912   7.349   1.384   6.632
 9985TIP3    H229913   7.220   1.465   6.645
 9986TIP3   OH229914   7.035   1.187   7.181
 9986TIP3    H129915   6.998   1.099   7.180
 9986TIP3    H229916   7.101   1.181   7.110
 9987TIP3   OH229917   6.743   2.074   5.417
 9987TIP3    H129918   6.838   2.065   5.395
 9987TIP3    H229919   6.713   2.124   5.339
 9988TIP3   OH229920   6.220   1.455   5.630
 9988TIP3    H129921   6.315   1.476   5.615
 9988TIP3    H229922   6.214   1.366   5.588
 9989TIP3   OH229923   6.142   2.068   6.043
 9989TIP3    H129924   6.074   2.010   6.003
 9989TIP3    H229925   6.182   2.007   6.108
 9990TIP3   OH229926   6.274   1.912   6.230
 9990TIP3    H129927   6.252   1.845   6.295
 9990TIP3    H229928   6.324   1.975   6.285
 9991TIP3   OH229929   7.999   2.317   6.034
 9991TIP3    H129930   8.031   2.353   6.118
 9991TIP3    H229931   8.066   2.348   5.971
 9992TIP3   OH229932   8.025   2.341   6.317
 9992TIP3    H129933   7.980   2.254   6.307
 9992TIP3    H229934   8.101   2.313   6.371
 9993TIP3   OH229935   7.890   1.530   5.501
 9993TIP3    H129936   7.957   1.595   5.472
 9993TIP3    H229937   7.932   1.495   5.583
 9994TIP3   OH229938   8.010   1.412   5.714
 9994TIP3    H129939   7.942   1.364   5.767
 9994TIP3    H229940   8.071   1.444   5.782
 9995TIP3   OH229941   8.068   1.790   6.141
 9995TIP3    H129942   8.120   1.723   6.093
 9995TIP3    H229943   8.064   1.863   6.076
 9996TIP3   OH229944   7.904   2.088   6.336
 9996TIP3    H129945   7.829   2.126   6.384
 9996TIP3    H229946   7.860   2.043   6.261
 9997TIP3   OH229947   7.948   1.301   5.357
 9997TIP3    H129948   7.880   1.309   5.286
 9997TIP3    H229949   7.923   1.379   5.411
 9998TIP3   OH229950   7.817   0.962   5.297
 9998TIP3    H129951   7.801   1.040   5.244
 9998TIP3    H229952   7.768   0.894   5.247
 9999TIP3   OH229953   7.830   1.266   5.852
 9999TIP3    H129954   7.832   1.172   5.826
 9999TIP3    H229955   7.815   1.263   5.949
10000TIP3   OH229956   6.455   1.323   6.605
10000TIP3    H129957   6.452   1.294   6.512
10000TIP3    H229958   6.552   1.324   6.620
10001TIP3   OH229959   7.833   1.017   5.724
10001TIP3    H129960   7.860   0.938   5.775
10001TIP3    H229961   7.896   1.016   5.649
10002TIP3   OH229962   7.984   1.166   6.254
10002TIP3    H129963   8.077   1.156   6.229
10002TIP3    H229964   7.989   1.177   6.349
10003TIP3   OH229965   6.662   1.004   7.264
10003TIP3    H129966   6.757   1.006   7.277
10003TIP3    H229967   6.637   0.922   7.310
10004TIP3   OH229968   6.434   0.975   6.681
10004TIP3    H129969   6.478   0.979   6.594
10004TIP3    H229970   6.461   1.059   6.720
10005TIP3   OH229971   7.585   2.186   5.689
10005TIP3    H129972   7.633   2.173   5.605
10005TIP3    H229973   7.639   2.253   5.733
10006TIP3   OH229974   6.683   1.995   7.076
10006TIP3    H129975   6.592   1.967   7.057
10006TIP3    H229976   6.695   1.966   7.167
10007TIP3   OH229977   6.864   2.026   6.624
10007TIP3    H129978   6.813   2.099   6.583
10007TIP3    H229979   6.949   2.040   6.576
10008TIP3   OH229980   7.301   2.262   6.758
10008TIP3    H129981   7.342   2.268   6.847
10008TIP3    H229982   7.366   2.313   6.704
10009TIP3   OH229983   7.477   2.415   6.616
10009TIP3    H129984   7.545   2.367   6.566
10009TIP3    H229985   7.533   2.477   6.669
10010TIP3   OH229986   6.538   2.281   6.644
10010TIP3    H129987   6.448   2.312   6.618
10010TIP3    H229988   6.541   2.315   6.734
10011TIP3   OH229989   6.775   2.259   6.504
10011TIP3    H129990   6.687   2.271   6.547
10011TIP3    H229991   6.756   2.289   6.413
10012TIP3   OH229992   7.199   2.284   6.302
10012TIP3    H129993   7.129   2.298   6.236
10012TIP3    H229994   7.208   2.373   6.340
10013TIP3   OH229995   7.468   2.224   6.356
10013TIP3    H129996   7.374   2.241   6.335
10013TIP3    H229997   7.512   2.293   6.304
10014TIP3   OH229998   7.676   2.415   6.266
10014TIP3    H129999   7.660   2.499   6.217
10014TIP3    H230000   7.702   2.354   6.193
10015TIP3   OH230001   6.450   2.072   6.388
10015TIP3    H130002   6.475   2.044   6.478
10015TIP3    H230003   6.521   2.028   6.337
10016TIP3   OH230004   6.644   1.944   6.248
10016TIP3    H130005   6.659   1.860   6.299
10016TIP3    H230006   6.735   1.979   6.242
10017TIP3   OH230007   6.912   2.036   6.251
10017TIP3    H130008   6.941   1.944   6.239
10017TIP3    H230009   6.958   2.057   6.335
10018TIP3   OH230010   6.237   1.847   5.776
10018TIP3    H130011   6.150   1.815   5.746
10018TIP3    H230012   6.227   1.941   5.753
10019TIP3   OH230013   7.010   2.029   5.362
10019TIP3    H130014   7.097   2.052   5.325
10019TIP3    H230015   6.987   1.955   5.301
10020TIP3   OH230016   7.729   2.151   5.457
10020TIP3    H130017   7.722   2.053   5.447
10020TIP3    H230018   7.681   2.181   5.377
10021TIP3   OH230019   6.312   1.867   5.415
10021TIP3    H130020   6.312   1.889   5.510
10021TIP3    H230021   6.400   1.825   5.403
10022TIP3   OH230022   7.935   2.294   6.644
10022TIP3    H130023   7.864   2.269   6.581
10022TIP3    H230024   7.926   2.391   6.643
10023TIP3   OH230025   8.471   1.956   5.930
10023TIP3    H130026   8.433   1.885   5.878
10023TIP3    H230027   8.562   1.958   5.893
10024TIP3   OH230028   8.196   1.206   5.698
10024TIP3    H130029   8.122   1.265   5.679
10024TIP3    H230030   8.180   1.132   5.638
10025TIP3   OH230031   8.276   1.456   5.834
10025TIP3    H130032   8.281   1.360   5.818
10025TIP3    H230033   8.315   1.491   5.753
10026TIP3   OH230034   8.093   1.696   5.396
10026TIP3    H130035   8.047   1.726   5.316
10026TIP3    H230036   8.120   1.782   5.436
10027TIP3   OH230037   8.290   1.810   6.307
10027TIP3    H130038   8.216   1.821   6.244
10027TIP3    H230039   8.251   1.750   6.371
10028TIP3   OH230040   8.135   2.019   5.975
10028TIP3    H130041   8.231   2.023   5.968
10028TIP3    H230042   8.117   2.099   6.027
10029TIP3   OH230043   8.270   2.227   5.496
10029TIP3    H130044   8.354   2.239   5.543
10029TIP3    H230045   8.237   2.147   5.538
10030TIP3   OH230046   8.260   0.995   5.469
10030TIP3    H130047   8.275   1.002   5.373
10030TIP3    H230048   8.163   1.006   5.473
10031TIP3   OH230049   8.175   1.293   5.197
10031TIP3    H130050   8.223   1.377   5.217
10031TIP3    H230051   8.099   1.301   5.259
10032TIP3   OH230052   8.313   2.208   6.117
10032TIP3    H130053   8.372   2.136   6.143
10032TIP3    H230054   8.352   2.284   6.162
10033TIP3   OH230055   8.276   1.541   5.262
10033TIP3    H130056   8.213   1.584   5.323
10033TIP3    H230057   8.277   1.603   5.187
10034TIP3   OH230058   8.276   1.734   5.063
10034TIP3    H130059   8.346   1.794   5.094
10034TIP3    H230060   8.300   1.722   4.969
10035TIP3   OH230061   8.235   1.027   5.191
10035TIP3    H130062   8.223   1.124   5.192
10035TIP3    H230063   8.145   0.996   5.176
10036TIP3   OH230064   8.134   1.955   5.467
10036TIP3    H130065   8.072   1.997   5.527
10036TIP3    H230066   8.122   2.008   5.385
10037TIP3   OH230067   8.268   2.478   6.515
10037TIP3    H130068   8.359   2.476   6.549
10037TIP3    H230069   8.242   2.384   6.520
10038TIP3   OH230070   8.006   1.709   5.116
10038TIP3    H130071   8.101   1.724   5.099
10038TIP3    H230072   7.995   1.618   5.079
10039TIP3   OH230073   7.933   2.324   5.533
10039TIP3    H130074   7.867   2.263   5.495
10039TIP3    H230075   7.980   2.264   5.595
10040TIP3   OH230076   8.067   2.166   5.717
10040TIP3    H130077   8.056   2.099   5.786
10040TIP3    H230078   8.121   2.231   5.765
10041TIP3   OH230079   8.252   1.590   6.074
10041TIP3    H130080   8.254   1.541   5.989
10041TIP3    H230081   8.345   1.607   6.089
10042TIP3   OH230082   8.323   2.528   6.141
10042TIP3    H130083   8.241   2.567   6.103
10042TIP3    H230084   8.314   2.560   6.231
10043TIP3   OH230085   8.586   2.514   6.016
10043TIP3    H130086   8.493   2.520   6.043
10043TIP3    H230087   8.579   2.543   5.922
10044TIP3   OH230088   8.236   2.330   5.877
10044TIP3    H130089   8.267   2.306   5.967
10044TIP3    H230090   8.309   2.289   5.824
10045TIP3   OH230091   8.424   2.194   5.736
10045TIP3    H130092   8.434   2.099   5.752
10045TIP3    H230093   8.515   2.215   5.704
10046TIP3   OH230094   8.040   2.099   5.253
10046TIP3    H130095   7.950   2.073   5.226
10046TIP3    H230096   8.033   2.195   5.246
10047TIP3   OH230097   8.111   2.135   4.921
10047TIP3    H130098   8.073   2.168   5.003
10047TIP3    H230099   8.175   2.070   4.952
10048TIP3   OH230100   1.675   2.453   7.095
10048TIP3    H130101   1.646   2.545   7.079
10048TIP3    H230102   1.596   2.405   7.064
10049TIP3   OH230103   1.648   2.463   7.463
10049TIP3    H130104   1.703   2.449   7.543
10049TIP3    H230105   1.616   2.374   7.444
10050TIP3   OH230106   1.917   2.760   7.164
10050TIP3    H130107   1.904   2.692   7.231
10050TIP3    H230108   1.948   2.836   7.217
10051TIP3   OH230109   0.946   2.763   7.559
10051TIP3    H130110   0.933   2.666   7.564
10051TIP3    H230111   1.043   2.767   7.559
10052TIP3   OH230112   0.696   2.232   7.499
10052TIP3    H130113   0.751   2.199   7.570
10052TIP3    H230114   0.752   2.298   7.459
10053TIP3   OH230115   1.567   3.221   7.179
10053TIP3    H130116   1.609   3.148   7.129
10053TIP3    H230117   1.564   3.184   7.268
10054TIP3   OH230118   1.471   2.680   7.514
10054TIP3    H130119   1.515   2.601   7.478
10054TIP3    H230120   1.550   2.725   7.550
10055TIP3   OH230121   2.477   2.000   7.516
10055TIP3    H130122   2.495   2.082   7.566
10055TIP3    H230123   2.503   2.026   7.426
10056TIP3   OH230124   1.865   2.156   7.563
10056TIP3    H130125   1.925   2.081   7.580
10056TIP3    H230126   1.849   2.147   7.468
10057TIP3   OH230127   1.253   1.844   7.524
10057TIP3    H130128   1.209   1.922   7.486
10057TIP3    H230129   1.190   1.773   7.502
10058TIP3   OH230130   1.918   1.935   7.144
10058TIP3    H130131   1.988   1.921   7.211
10058TIP3    H230132   1.973   1.965   7.069
10059TIP3   OH230133   1.297   2.241   7.431
10059TIP3    H130134   1.391   2.217   7.437
10059TIP3    H230135   1.258   2.159   7.394
10060TIP3   OH230136   2.540   2.196   7.696
10060TIP3    H130137   2.453   2.242   7.692
10060TIP3    H230138   2.592   2.257   7.752
10061TIP3   OH230139   1.562   2.676   6.965
10061TIP3    H130140   1.520   2.662   6.880
10061TIP3    H230141   1.518   2.758   6.994
10062TIP3   OH230142   2.115   1.944   7.330
10062TIP3    H130143   2.129   1.889   7.407
10062TIP3    H230144   2.174   2.019   7.347
10063TIP3   OH230145   0.559   2.481   7.085
10063TIP3    H130146   0.507   2.506   7.007
10063TIP3    H230147   0.579   2.567   7.127
10064TIP3   OH230148   1.984   3.002   7.322
10064TIP3    H130149   1.896   2.992   7.364
10064TIP3    H230150   1.975   3.091   7.281
10065TIP3   OH230151   2.277   1.891   7.700
10065TIP3    H130152   2.189   1.915   7.667
10065TIP3    H230153   2.336   1.926   7.632
10066TIP3   OH230154   1.684   3.046   6.997
10066TIP3    H130155   1.734   2.963   6.980
10066TIP3    H230156   1.747   3.111   6.959
10067TIP3   OH230157   1.830   2.831   6.913
10067TIP3    H130158   1.791   2.751   6.877
10067TIP3    H230159   1.868   2.798   6.997
10068TIP3   OH230160   2.210   2.911   7.670
10068TIP3    H130161   2.197   2.834   7.610
10068TIP3    H230162   2.190   2.986   7.611
10069TIP3   OH230163   1.502   2.305   6.930
10069TIP3    H130164   1.423   2.360   6.909
10069TIP3    H230165   1.549   2.304   6.845
10070TIP3   OH230166   1.461   2.095   6.641
10070TIP3    H130167   1.527   2.147   6.690
10070TIP3    H230168   1.520   2.032   6.594
10071TIP3   OH230169   2.406   2.549   7.519
10071TIP3    H130170   2.323   2.601   7.526
10071TIP3    H230171   2.436   2.576   7.429
10072TIP3   OH230172   1.852   2.390   6.897
10072TIP3    H130173   1.798   2.413   6.976
10072TIP3    H230174   1.937   2.367   6.940
10073TIP3   OH230175   2.072   2.456   7.787
10073TIP3    H130176   2.073   2.552   7.801
10073TIP3    H230177   1.993   2.448   7.731
10074TIP3   OH230178   1.085   2.388   7.316
10074TIP3    H130179   1.047   2.328   7.249
10074TIP3    H230180   1.160   2.336   7.351
10075TIP3   OH230181   1.220   2.802   7.464
10075TIP3    H130182   1.201   2.760   7.379
10075TIP3    H230183   1.308   2.764   7.485
10076TIP3   OH230184   1.200   2.383   7.649
10076TIP3    H130185   1.233   2.322   7.580
10076TIP3    H230186   1.279   2.433   7.670
10077TIP3   OH230187   1.745   2.991   7.446
10077TIP3    H130188   1.732   3.077   7.490
10077TIP3    H230189   1.722   2.926   7.515
10078TIP3   OH230190   1.688   2.250   6.725
10078TIP3    H130191   1.749   2.309   6.776
10078TIP3    H230192   1.715   2.270   6.633
10079TIP3   OH230193   1.436   2.924   6.999
10079TIP3    H130194   1.519   2.975   7.011
10079TIP3    H230195   1.376   2.991   6.962
10080TIP3   OH230196   2.203   1.484   6.775
10080TIP3    H130197   2.124   1.511   6.825
10080TIP3    H230198   2.221   1.566   6.724
10081TIP3   OH230199   0.954   2.231   7.118
10081TIP3    H130200   0.883   2.270   7.063
10081TIP3    H230201   0.917   2.144   7.139
10082TIP3   OH230202   2.007   2.853   6.324
10082TIP3    H130203   2.016   2.949   6.309
10082TIP3    H230204   2.100   2.823   6.312
10083TIP3   OH230205   2.451   3.261   7.707
10083TIP3    H130206   2.453   3.166   7.729
10083TIP3    H230207   2.372   3.285   7.761
10084TIP3   OH230208   1.567   3.067   7.867
10084TIP3    H130209   1.529   3.131   7.930
10084TIP3    H230210   1.501   2.995   7.868
10085TIP3   OH230211   1.317   3.171   6.805
10085TIP3    H130212   1.271   3.155   6.721
10085TIP3    H230213   1.284   3.258   6.832
10086TIP3   OH230214   0.753   3.021   7.191
10086TIP3    H130215   0.804   3.014   7.275
10086TIP3    H230216   0.709   2.934   7.190
10087TIP3   OH230217   1.516   3.074   6.443
10087TIP3    H130218   1.575   3.004   6.408
10087TIP3    H230219   1.551   3.085   6.534
10088TIP3   OH230220   1.568   3.123   6.713
10088TIP3    H130221   1.480   3.131   6.756
10088TIP3    H230222   1.620   3.085   6.786
10089TIP3   OH230223   1.763   2.290   6.468
10089TIP3    H130224   1.731   2.269   6.378
10089TIP3    H230225   1.849   2.332   6.448
10090TIP3   OH230226   1.481   1.665   6.770
10090TIP3    H130227   1.447   1.659   6.862
10090TIP3    H230228   1.435   1.589   6.730
10091TIP3   OH230229   1.164   2.027   7.329
10091TIP3    H130230   1.075   1.990   7.345
10091TIP3    H230231   1.180   1.989   7.240
10092TIP3   OH230232   1.641   2.107   7.063
10092TIP3    H130233   1.591   2.178   7.019
10092TIP3    H230234   1.697   2.074   6.990
10093TIP3   OH230235   1.795   2.133   7.298
10093TIP3    H130236   1.736   2.164   7.226
10093TIP3    H230237   1.832   2.055   7.251
10094TIP3   OH230238   1.145   1.638   6.750
10094TIP3    H130239   1.118   1.626   6.843
10094TIP3    H230240   1.071   1.691   6.715
10095TIP3   OH230241   1.817   2.404   7.670
10095TIP3    H130242   1.836   2.310   7.646
10095TIP3    H230243   1.786   2.397   7.762
10096TIP3   OH230244   1.489   1.834   7.390
10096TIP3    H130245   1.403   1.841   7.436
10096TIP3    H230246   1.550   1.861   7.461
10097TIP3   OH230247   0.945   1.879   7.375
10097TIP3    H130248   0.854   1.893   7.407
10097TIP3    H230249   0.960   1.785   7.392
10098TIP3   OH230250   1.184   1.899   7.089
10098TIP3    H130251   1.277   1.916   7.063
10098TIP3    H230252   1.132   1.923   7.009
10099TIP3   OH230253   1.975   1.907   7.624
10099TIP3    H130254   1.939   1.920   7.713
10099TIP3    H230255   1.903   1.857   7.580
10100TIP3   OH230256   1.021   1.935   6.875
10100TIP3    H130257   0.949   1.887   6.832
10100TIP3    H230258   1.073   1.963   6.796
10101TIP3   OH230259   2.163   3.604   7.800
10101TIP3    H130260   2.163   3.620   7.704
10101TIP3    H230261   2.242   3.653   7.829
10102TIP3   OH230262   1.566   2.170   7.473
10102TIP3    H130263   1.642   2.144   7.419
10102TIP3    H230264   1.597   2.152   7.563
10103TIP3   OH230265   1.111   1.635   7.395
10103TIP3    H130266   1.053   1.581   7.342
10103TIP3    H230267   1.186   1.649   7.335
10104TIP3   OH230268   1.272   2.458   6.875
10104TIP3    H130269   1.200   2.393   6.864
10104TIP3    H230270   1.253   2.493   6.966
10105TIP3   OH230271   2.175   2.694   7.503
10105TIP3    H130272   2.199   2.748   7.424
10105TIP3    H230273   2.089   2.655   7.477
10106TIP3   OH230274   1.733   1.768   6.747
10106TIP3    H130275   1.636   1.750   6.753
10106TIP3    H230276   1.740   1.862   6.770
10107TIP3   OH230277   1.800   2.021   6.847
10107TIP3    H130278   1.897   2.026   6.862
10107TIP3    H230279   1.783   2.101   6.794
10108TIP3   OH230280   0.964   2.483   7.548
10108TIP3    H130281   1.000   2.457   7.461
10108TIP3    H230282   1.036   2.450   7.606
10109TIP3   OH230283   1.417   2.608   6.698
10109TIP3    H130284   1.368   2.694   6.702
10109TIP3    H230285   1.364   2.553   6.760
10110TIP3   OH230286   1.831   3.019   7.792
10110TIP3    H130287   1.740   3.049   7.813
10110TIP3    H230288   1.884   3.077   7.850
10111TIP3   OH230289   2.226   2.120   6.699
10111TIP3    H130290   2.177   2.070   6.630
10111TIP3    H230291   2.226   2.207   6.654
10112TIP3   OH230292   2.455   2.973   7.761
10112TIP3    H130293   2.358   2.965   7.751
10112TIP3    H230294   2.482   2.937   7.673
10113TIP3   OH230295   1.942   2.930   6.589
10113TIP3    H130296   1.917   2.861   6.652
10113TIP3    H230297   1.956   2.881   6.506
10114TIP3   OH230298   1.941   2.566   7.412
10114TIP3    H130299   1.850   2.541   7.434
10114TIP3    H230300   1.973   2.484   7.370
10115TIP3   OH230301   1.068   2.786   7.174
10115TIP3    H130302   1.064   2.868   7.122
10115TIP3    H230303   0.976   2.770   7.193
10116TIP3   OH230304   0.610   2.093   6.906
10116TIP3    H130305   0.678   2.164   6.903
10116TIP3    H230306   0.556   2.127   6.979
10117TIP3   OH230307   1.199   2.549   7.117
10117TIP3    H130308   1.167   2.639   7.138
10117TIP3    H230309   1.168   2.499   7.194
10118TIP3   OH230310   1.336   3.132   7.633
10118TIP3    H130311   1.382   3.206   7.589
10118TIP3    H230312   1.408   3.091   7.682
10119TIP3   OH230313   0.983   3.029   7.029
10119TIP3    H130314   0.899   3.039   7.077
10119TIP3    H230315   1.017   3.121   7.033
10120TIP3   OH230316   1.725   2.762   7.614
10120TIP3    H130317   1.759   2.786   7.701
10120TIP3    H230318   1.804   2.720   7.577
10121TIP3   OH230319   1.701   2.659   6.492
10121TIP3    H130320   1.756   2.633   6.569
10121TIP3    H230321   1.614   2.630   6.522
10122TIP3   OH230322   1.968   3.288   7.649
10122TIP3    H130323   1.884   3.241   7.644
10122TIP3    H230324   1.953   3.361   7.585
10123TIP3   OH230325   2.038   3.129   6.308
10123TIP3    H130326   2.076   3.203   6.258
10123TIP3    H230327   1.957   3.173   6.343
10124TIP3   OH230328   1.862   2.589   6.704
10124TIP3    H130329   1.851   2.524   6.776
10124TIP3    H230330   1.959   2.587   6.693
10125TIP3   OH230331   1.062   2.637   6.491
10125TIP3    H130332   1.077   2.544   6.465
10125TIP3    H230333   1.043   2.628   6.586
10126TIP3   OH230334   1.008   2.643   6.763
10126TIP3    H130335   1.083   2.615   6.817
10126TIP3    H230336   1.013   2.741   6.771
10127TIP3   OH230337   0.747   2.329   6.959
10127TIP3    H130338   0.682   2.375   7.017
10127TIP3    H230339   0.764   2.399   6.894
10128TIP3   OH230340   1.779   1.719   7.028
10128TIP3    H130341   1.765   1.739   6.933
10128TIP3    H230342   1.820   1.802   7.060
10129TIP3   OH230343   1.274   2.837   6.708
10129TIP3    H130344   1.189   2.862   6.747
10129TIP3    H230345   1.292   2.916   6.654
10130TIP3   OH230346   1.464   1.906   7.124
10130TIP3    H130347   1.527   1.980   7.107
10130TIP3    H230348   1.470   1.899   7.221
10131TIP3   OH230349   1.611   1.631   7.230
10131TIP3    H130350   1.590   1.714   7.279
10131TIP3    H230351   1.674   1.665   7.162
10132TIP3   OH230352   1.021   2.915   6.780
10132TIP3    H130353   0.991   2.986   6.718
10132TIP3    H230354   1.005   2.958   6.867
10133TIP3   OH230355   1.134   1.637   7.036
10133TIP3    H130356   1.145   1.732   7.054
10133TIP3    H230357   1.228   1.611   7.030
10134TIP3   OH230358   2.023   2.314   7.302
10134TIP3    H130359   1.948   2.252   7.311
10134TIP3    H230360   2.095   2.268   7.349
10135TIP3   OH230361   0.743   2.542   6.767
10135TIP3    H130362   0.815   2.607   6.777
10135TIP3    H230363   0.786   2.484   6.701
10136TIP3   OH230364   0.729   1.854   6.818
10136TIP3    H130365   0.713   1.937   6.867
10136TIP3    H230366   0.671   1.793   6.865
10137TIP3   OH230367   1.993   3.273   7.247
10137TIP3    H130368   1.951   3.321   7.173
10137TIP3    H230369   2.087   3.293   7.228
10138TIP3   OH230370   0.608   2.772   7.161
10138TIP3    H130371   0.525   2.799   7.203
10138TIP3    H230372   0.590   2.803   7.070
10139TIP3   OH230373   1.226   2.838   6.398
10139TIP3    H130374   1.169   2.768   6.438
10139TIP3    H230375   1.303   2.785   6.373
10140TIP3   OH230376   1.661   2.878   6.315
10140TIP3    H130377   1.703   2.814   6.376
10140TIP3    H230378   1.720   2.874   6.237
10141TIP3   OH230379   0.874   2.352   6.627
10141TIP3    H130380   0.932   2.323   6.699
10141TIP3    H230381   0.941   2.358   6.554
10142TIP3   OH230382   1.386   2.558   6.430
10142TIP3    H130383   1.389   2.569   6.527
10142TIP3    H230384   1.387   2.460   6.423
10143TIP3   OH230385   1.979   2.781   7.768
10143TIP3    H130386   2.071   2.813   7.758
10143TIP3    H230387   1.935   2.866   7.789
10144TIP3   OH230388   1.074   2.264   6.841
10144TIP3    H130389   1.052   2.225   6.927
10144TIP3    H230390   1.114   2.188   6.794
10145TIP3   OH230391   1.183   2.058   6.686
10145TIP3    H130392   1.157   2.062   6.592
10145TIP3    H230393   1.280   2.059   6.679
10146TIP3   OH230394   1.997   2.384   6.352
10146TIP3    H130395   1.981   2.340   6.267
10146TIP3    H230396   1.964   2.474   6.330
10147TIP3   OH230397   0.991   3.119   6.593
10147TIP3    H130398   1.086   3.109   6.574
10147TIP3    H230399   0.964   3.169   6.514
10148TIP3   OH230400   0.479   2.489   6.810
10148TIP3    H130401   0.573   2.515   6.795
10148TIP3    H230402   0.474   2.403   6.765
10149TIP3   OH230403   0.363   3.113   7.227
10149TIP3    H130404   0.326   3.044   7.171
10149TIP3    H230405   0.410   3.061   7.296
10150TIP3   OH230406   0.505   2.971   7.412
10150TIP3    H130407   0.535   2.886   7.445
10150TIP3    H230408   0.562   3.033   7.462
10151TIP3   OH230409   2.248   3.364   7.210
10151TIP3    H130410   2.274   3.388   7.301
10151TIP3    H230411   2.317   3.405   7.156
10152TIP3   OH230412   2.280   3.380   7.490
10152TIP3    H130413   2.231   3.295   7.487
10152TIP3    H230414   2.346   3.356   7.556
10153TIP3   OH230415   2.139   2.574   6.683
10153TIP3    H130416   2.206   2.637   6.652
10153TIP3    H230417   2.183   2.536   6.762
10154TIP3   OH230418   2.266   2.443   6.888
10154TIP3    H130419   2.199   2.399   6.945
10154TIP3    H230420   2.331   2.477   6.953
10155TIP3   OH230421   2.326   2.835   7.319
10155TIP3    H130422   2.376   2.766   7.271
10155TIP3    H230423   2.318   2.906   7.252
10156TIP3   OH230424   2.150   3.133   7.509
10156TIP3    H130425   2.080   3.174   7.564
10156TIP3    H230426   2.098   3.087   7.440
10157TIP3   OH230427   2.201   2.350   6.534
10157TIP3    H130428   2.130   2.350   6.466
10157TIP3    H230429   2.172   2.426   6.588
10158TIP3   OH230430   2.070   2.023   6.493
10158TIP3    H130431   2.040   2.056   6.408
10158TIP3    H230432   2.052   1.927   6.484
10159TIP3   OH230433   2.079   2.300   7.031
10159TIP3    H130434   2.086   2.204   7.018
10159TIP3    H230435   2.065   2.308   7.128
10160TIP3   OH230436   2.343   2.690   7.863
10160TIP3    H130437   2.435   2.669   7.889
10160TIP3    H230438   2.348   2.785   7.843
10161TIP3   OH230439   2.553   2.522   7.917
10161TIP3    H130440   2.470   2.477   7.937
10161TIP3    H230441   2.612   2.449   7.894
10162TIP3   OH230442   2.022   1.755   6.466
10162TIP3    H130443   2.097   1.724   6.521
10162TIP3    H230444   1.949   1.698   6.494
10163TIP3   OH230445   2.075   2.021   6.924
10163TIP3    H130446   2.113   1.931   6.941
10163TIP3    H230447   2.136   2.051   6.853
10164TIP3   OH230448   2.236   2.189   7.426
10164TIP3    H130449   2.323   2.211   7.385
10164TIP3    H230450   2.251   2.226   7.515
10165TIP3   OH230451   2.303   2.335   7.664
10165TIP3    H130452   2.228   2.375   7.712
10165TIP3    H230453   2.338   2.414   7.615
10166TIP3   OH230454   2.155   1.771   6.986
10166TIP3    H130455   2.226   1.754   7.051
10166TIP3    H230456   2.114   1.683   6.978
10167TIP3   OH230457   2.257   1.690   6.601
10167TIP3    H130458   2.317   1.629   6.556
10167TIP3    H230459   2.308   1.774   6.596
10168TIP3   OH230460   1.828   3.233   6.863
10168TIP3    H130461   1.882   3.222   6.782
10168TIP3    H230462   1.883   3.294   6.915
10169TIP3   OH230463   1.089   3.069   7.784
10169TIP3    H130464   1.076   3.157   7.745
10169TIP3    H230465   1.184   3.059   7.770
10170TIP3   OH230466   1.733   3.468   7.752
10170TIP3    H130467   1.807   3.411   7.775
10170TIP3    H230468   1.727   3.526   7.831
10171TIP3   OH230469   1.012   3.309   7.671
10171TIP3    H130470   0.942   3.357   7.718
10171TIP3    H230471   0.998   3.336   7.579
10172TIP3   OH230472   1.450   3.332   7.473
10172TIP3    H130473   1.376   3.349   7.412
10172TIP3    H230474   1.462   3.420   7.514
10173TIP3   OH230475   1.716   3.258   7.515
10173TIP3    H130476   1.622   3.282   7.504
10173TIP3    H230477   1.760   3.344   7.502
10174TIP3   OH230478   1.929   3.462   7.443
10174TIP3    H130479   1.910   3.544   7.393
10174TIP3    H230480   1.949   3.398   7.371
10175TIP3   OH230481   0.696   3.112   7.553
10175TIP3    H130482   0.719   3.103   7.647
10175TIP3    H230483   0.773   3.067   7.510
10176TIP3   OH230484   0.896   2.988   7.420
10176TIP3    H130485   0.911   2.903   7.469
10176TIP3    H230486   0.988   3.024   7.419
10177TIP3   OH230487   1.160   3.077   7.429
10177TIP3    H130488   1.189   2.984   7.422
10177TIP3    H230489   1.212   3.102   7.508
10178TIP3   OH230490   1.761   1.752   7.520
10178TIP3    H130491   1.718   1.672   7.550
10178TIP3    H230492   1.828   1.715   7.458
10179TIP3   OH230493   2.257   1.612   7.419
10179TIP3    H130494   2.294   1.666   7.345
10179TIP3    H230495   2.163   1.637   7.415
10180TIP3   OH230496   2.347   1.728   7.186
10180TIP3    H130497   2.413   1.667   7.145
10180TIP3    H230498   2.387   1.814   7.160
10181TIP3   OH230499   1.407   1.496   7.369
10181TIP3    H130500   1.479   1.547   7.329
10181TIP3    H230501   1.417   1.515   7.463
10182TIP3   OH230502   1.965   1.621   7.391
10182TIP3    H130503   1.979   1.590   7.301
10182TIP3    H230504   1.950   1.538   7.440
10183TIP3   OH230505   1.998   1.544   6.954
10183TIP3    H130506   1.916   1.594   6.972
10183TIP3    H230507   1.980   1.461   7.003
10184TIP3   OH230508   0.469   2.892   6.961
10184TIP3    H130509   0.405   2.842   6.910
10184TIP3    H230510   0.464   2.980   6.917
10185TIP3   OH230511   1.410   1.654   7.037
10185TIP3    H130512   1.468   1.609   7.100
10185TIP3    H230513   1.430   1.748   7.059
10186TIP3   OH230514   1.257   3.073   6.539
10186TIP3    H130515   1.346   3.096   6.503
10186TIP3    H230516   1.235   2.999   6.478
10187TIP3   OH230517   1.978   3.197   6.633
10187TIP3    H130518   1.969   3.099   6.623
10187TIP3    H230519   1.931   3.226   6.552
10188TIP3   OH230520   0.562   2.912   6.595
10188TIP3    H130521   0.568   2.948   6.684
10188TIP3    H230522   0.651   2.870   6.582
10189TIP3   OH230523   2.200   3.329   7.798
10189TIP3    H130524   2.116   3.304   7.754
10189TIP3    H230525   2.182   3.421   7.823
10190TIP3   OH230526   3.470   2.713   6.583
10190TIP3    H130527   3.438   2.803   6.561
10190TIP3    H230528   3.395   2.661   6.548
10191TIP3   OH230529   3.471   2.714   6.969
10191TIP3    H130530   3.504   2.687   7.056
10191TIP3    H230531   3.428   2.633   6.937
10192TIP3   OH230532   2.767   2.606   7.327
10192TIP3    H130533   2.794   2.537   7.391
10192TIP3    H230534   2.845   2.661   7.324
10193TIP3   OH230535   3.715   3.016   6.650
10193TIP3    H130536   3.696   2.947   6.714
10193TIP3    H230537   3.744   3.090   6.705
10194TIP3   OH230538   2.739   3.018   7.052
10194TIP3    H130539   2.732   2.920   7.053
10194TIP3    H230540   2.836   3.028   7.049
10195TIP3   OH230541   2.446   2.225   6.837
10195TIP3    H130542   2.394   2.305   6.854
10195TIP3    H230543   2.376   2.167   6.801
10196TIP3   OH230544   2.504   2.505   7.018
10196TIP3    H130545   2.552   2.425   7.048
10196TIP3    H230546   2.560   2.537   6.946
10197TIP3   OH230547   3.366   3.479   6.667
10197TIP3    H130548   3.407   3.407   6.614
10197TIP3    H230549   3.353   3.435   6.752
10198TIP3   OH230550   3.266   2.939   7.015
10198TIP3    H130551   3.305   2.863   6.970
10198TIP3    H230552   3.348   2.986   7.040
10199TIP3   OH230553   4.284   2.256   7.014
10199TIP3    H130554   4.312   2.341   7.053
10199TIP3    H230555   4.305   2.271   6.920
10200TIP3   OH230556   3.679   2.437   7.045
10200TIP3    H130557   3.722   2.351   7.064
10200TIP3    H230558   3.647   2.421   6.954
10201TIP3   OH230559   3.014   2.084   7.004
10201TIP3    H130560   2.992   2.157   6.942
10201TIP3    H230561   2.956   2.014   6.973
10202TIP3   OH230562   3.715   2.192   6.632
10202TIP3    H130563   3.786   2.176   6.697
10202TIP3    H230564   3.767   2.226   6.557
10203TIP3   OH230565   2.650   2.294   7.115
10203TIP3    H130566   2.734   2.278   7.161
10203TIP3    H230567   2.661   2.236   7.037
10204TIP3   OH230568   3.089   2.496   6.915
10204TIP3    H130569   3.183   2.471   6.924
10204TIP3    H230570   3.049   2.412   6.884
10205TIP3   OH230571   4.356   2.466   7.185
10205TIP3    H130572   4.272   2.513   7.163
10205TIP3    H230573   4.375   2.504   7.272
10206TIP3   OH230574   3.016   2.083   7.443
10206TIP3    H130575   2.957   2.117   7.372
10206TIP3    H230576   2.961   2.105   7.522
10207TIP3   OH230577   3.357   2.932   6.453
10207TIP3    H130578   3.316   2.917   6.366
10207TIP3    H230579   3.312   3.015   6.481
10208TIP3   OH230580   3.122   2.858   7.238
10208TIP3    H130581   3.061   2.926   7.275
10208TIP3    H230582   3.163   2.906   7.164
10209TIP3   OH230583   3.920   2.195   6.809
10209TIP3    H130584   3.902   2.152   6.894
10209TIP3    H230585   3.971   2.273   6.836
10210TIP3   OH230586   2.888   2.195   7.226
10210TIP3    H130587   2.949   2.268   7.250
10210TIP3    H230588   2.937   2.156   7.150
10211TIP3   OH230589   2.950   3.054   7.337
10211TIP3    H130590   2.925   3.142   7.302
10211TIP3    H230591   2.871   3.035   7.391
10212TIP3   OH230592   2.340   2.743   6.573
10212TIP3    H130593   2.301   2.772   6.489
10212TIP3    H230594   2.373   2.828   6.609
10213TIP3   OH230595   3.782   3.261   6.814
10213TIP3    H130596   3.692   3.250   6.854
10213TIP3    H230597   3.772   3.346   6.769
10214TIP3   OH230598   4.076   2.153   7.179
10214TIP3    H130599   3.988   2.181   7.146
10214TIP3    H230600   4.135   2.188   7.109
10215TIP3   OH230601   3.372   1.801   7.167
10215TIP3    H130602   3.350   1.706   7.173
10215TIP3    H230603   3.294   1.840   7.211
10216TIP3   OH230604   3.481   3.304   6.485
10216TIP3    H130605   3.529   3.221   6.468
10216TIP3    H230606   3.544   3.368   6.446
10217TIP3   OH230607   3.625   3.089   6.399
10217TIP3    H130608   3.589   3.009   6.359
10217TIP3    H230609   3.663   3.054   6.483
10218TIP3   OH230610   4.007   3.169   7.158
10218TIP3    H130611   3.994   3.091   7.099
10218TIP3    H230612   3.989   3.243   7.097
10219TIP3   OH230613   3.301   2.565   6.418
10219TIP3    H130614   3.220   2.617   6.398
10219TIP3    H230615   3.344   2.560   6.331
10220TIP3   OH230616   3.258   2.351   6.128
10220TIP3    H130617   3.325   2.404   6.175
10220TIP3    H230618   3.316   2.287   6.081
10221TIP3   OH230619   4.202   2.809   7.006
10221TIP3    H130620   4.118   2.860   7.009
10221TIP3    H230621   4.233   2.833   6.916
10222TIP3   OH230622   3.648   2.648   6.385
10222TIP3    H130623   3.593   2.671   6.464
10222TIP3    H230624   3.732   2.624   6.429
10223TIP3   OH230625   3.881   2.684   7.304
10223TIP3    H130626   3.878   2.767   7.354
10223TIP3    H230627   3.795   2.688   7.258
10224TIP3   OH230628   2.879   2.644   6.806
10224TIP3    H130629   2.836   2.586   6.739
10224TIP3    H230630   2.955   2.588   6.835
10225TIP3   OH230631   3.010   3.058   6.951
10225TIP3    H130632   2.988   3.021   6.864
10225TIP3    H230633   3.099   3.020   6.968
10226TIP3   OH230634   3.019   2.613   7.160
10226TIP3    H130635   3.047   2.590   7.070
10226TIP3    H230636   3.060   2.701   7.175
10227TIP3   OH230637   3.542   3.253   6.937
10227TIP3    H130638   3.529   3.333   6.991
10227TIP3    H230639   3.524   3.180   6.999
10228TIP3   OH230640   3.154   3.171   7.482
10228TIP3    H130641   3.092   3.232   7.529
10228TIP3    H230642   3.089   3.118   7.432
10229TIP3   OH230643   3.485   2.505   6.213
10229TIP3    H130644   3.544   2.566   6.263
10229TIP3    H230645   3.512   2.525   6.120
10230TIP3   OH230646   2.914   2.721   7.587
10230TIP3    H130647   2.920   2.812   7.622
10230TIP3    H230648   2.818   2.705   7.595
10231TIP3   OH230649   3.233   3.181   6.490
10231TIP3    H130650   3.314   3.234   6.498
10231TIP3    H230651   3.172   3.242   6.445
10232TIP3   OH230652   2.947   3.335   7.572
10232TIP3    H130653   2.910   3.339   7.483
10232TIP3    H230654   2.868   3.315   7.627
10233TIP3   OH230655   4.003   1.743   6.264
10233TIP3    H130656   3.921   1.766   6.312
10233TIP3    H230657   4.019   1.825   6.212
10234TIP3   OH230658   2.744   2.488   6.613
10234TIP3    H130659   2.675   2.529   6.557
10234TIP3    H230660   2.715   2.396   6.617
10235TIP3   OH230661   3.804   3.111   5.813
10235TIP3    H130662   3.812   3.207   5.796
10235TIP3    H230663   3.896   3.081   5.800
10236TIP3   OH230664   2.525   2.873   7.518
10236TIP3    H130665   2.455   2.855   7.452
10236TIP3    H230666   2.563   2.785   7.535
10237TIP3   OH230667   2.381   3.066   7.144
10237TIP3    H130668   2.478   3.059   7.141
10237TIP3    H230669   2.369   3.140   7.205
10238TIP3   OH230670   4.244   3.518   7.206
10238TIP3    H130671   4.244   3.421   7.220
10238TIP3    H230672   4.161   3.543   7.252
10239TIP3   OH230673   3.350   3.299   7.340
10239TIP3    H130674   3.347   3.391   7.373
10239TIP3    H230675   3.278   3.258   7.394
10240TIP3   OH230676   3.115   3.428   6.292
10240TIP3    H130677   3.068   3.409   6.209
10240TIP3    H230678   3.080   3.515   6.318
10241TIP3   OH230679   2.550   3.277   6.678
10241TIP3    H130680   2.597   3.269   6.764
10241TIP3    H230681   2.500   3.194   6.677
10242TIP3   OH230682   3.313   3.332   5.930
10242TIP3    H130683   3.372   3.261   5.894
10242TIP3    H230684   3.348   3.341   6.021
10243TIP3   OH230685   3.366   3.380   6.200
10243TIP3    H130686   3.277   3.389   6.240
10243TIP3    H230687   3.415   3.338   6.272
10244TIP3   OH230688   4.134   2.644   7.481
10244TIP3    H130689   4.050   2.655   7.434
10244TIP3    H230690   4.149   2.548   7.472
10245TIP3   OH230691   2.730   3.054   7.498
10245TIP3    H130692   2.780   3.041   7.580
10245TIP3    H230693   2.654   2.993   7.510
10246TIP3   OH230694   3.134   1.877   7.292
10246TIP3    H130695   3.045   1.846   7.266
10246TIP3    H230696   3.107   1.959   7.338
10247TIP3   OH230697   3.664   1.991   7.484
10247TIP3    H130698   3.732   1.966   7.549
10247TIP3    H230699   3.580   1.974   7.531
10248TIP3   OH230700   3.903   2.421   7.402
10248TIP3    H130701   3.851   2.418   7.486
10248TIP3    H230702   3.879   2.509   7.367
10249TIP3   OH230703   3.565   2.548   5.960
10249TIP3    H130704   3.527   2.526   5.872
10249TIP3    H230705   3.649   2.591   5.933
10250TIP3   OH230706   3.277   1.922   6.262
10250TIP3    H130707   3.241   1.918   6.352
10250TIP3    H230708   3.234   1.842   6.224
10251TIP3   OH230709   3.064   2.392   7.308
10251TIP3    H130710   3.010   2.413   7.388
10251TIP3    H230711   3.049   2.473   7.254
10252TIP3   OH230712   2.940   2.276   6.829
10252TIP3    H130713   2.848   2.246   6.841
10252TIP3    H230714   2.956   2.247   6.736
10253TIP3   OH230715   3.438   2.366   6.553
10253TIP3    H130716   3.387   2.436   6.508
10253TIP3    H230717   3.492   2.331   6.479
10254TIP3   OH230718   3.615   2.643   7.629
10254TIP3    H130719   3.593   2.570   7.691
10254TIP3    H230720   3.708   2.659   7.654
10255TIP3   OH230721   3.592   2.391   6.788
10255TIP3    H130722   3.530   2.419   6.717
10255TIP3    H230723   3.628   2.311   6.743
10256TIP3   OH230724   2.884   2.422   7.514
10256TIP3    H130725   2.904   2.491   7.579
10256TIP3    H230726   2.873   2.342   7.568
10257TIP3   OH230727   2.935   1.900   6.221
10257TIP3    H130728   2.924   1.898   6.319
10257TIP3    H230729   2.857   1.954   6.196
10258TIP3   OH230730   2.488   1.938   7.090
10258TIP3    H130731   2.557   1.972   7.149
10258TIP3    H230732   2.536   1.921   7.006
10259TIP3   OH230733   2.410   1.918   6.565
10259TIP3    H130734   2.506   1.916   6.558
10259TIP3    H230735   2.397   1.967   6.646
10260TIP3   OH230736   3.604   2.635   7.210
10260TIP3    H130737   3.637   2.564   7.151
10260TIP3    H230738   3.572   2.581   7.286
10261TIP3   OH230739   3.279   2.097   6.883
10261TIP3    H130740   3.194   2.096   6.932
10261TIP3    H230741   3.344   2.098   6.954
10262TIP3   OH230742   2.701   2.148   6.885
10262TIP3    H130743   2.609   2.173   6.861
10262TIP3    H230744   2.697   2.052   6.863
10263TIP3   OH230745   2.977   2.173   6.583
10263TIP3    H130746   3.068   2.170   6.550
10263TIP3    H230747   2.924   2.174   6.500
10264TIP3   OH230748   3.766   2.175   7.085
10264TIP3    H130749   3.734   2.190   7.177
10264TIP3    H230750   3.696   2.115   7.052
10265TIP3   OH230751   2.819   2.190   6.361
10265TIP3    H130752   2.743   2.146   6.318
10265TIP3    H230753   2.868   2.222   6.283
10266TIP3   OH230754   3.939   3.865   7.306
10266TIP3    H130755   3.937   3.889   7.212
10266TIP3    H230756   4.019   3.913   7.337
10267TIP3   OH230757   2.912   2.975   7.711
10267TIP3    H130758   2.986   3.006   7.767
10267TIP3    H230759   2.839   2.981   7.776
10268TIP3   OH230760   3.355   2.429   6.980
10268TIP3    H130761   3.430   2.393   6.929
10268TIP3    H230762   3.364   2.384   7.066
10269TIP3   OH230763   3.333   2.326   7.274
10269TIP3    H130764   3.242   2.363   7.284
10269TIP3    H230765   3.389   2.391   7.321
10270TIP3   OH230766   3.068   2.715   6.365
10270TIP3    H130767   2.997   2.649   6.354
10270TIP3    H230768   3.048   2.749   6.456
10271TIP3   OH230769   3.968   2.952   6.992
10271TIP3    H130770   3.991   3.004   6.912
10271TIP3    H230771   3.884   2.909   6.965
10272TIP3   OH230772   3.527   2.024   6.236
10272TIP3    H130773   3.431   2.004   6.241
10272TIP3    H230774   3.532   2.119   6.257
10273TIP3   OH230775   3.470   3.037   7.363
10273TIP3    H130776   3.496   3.018   7.454
10273TIP3    H230777   3.428   3.124   7.369
10274TIP3   OH230778   3.594   2.278   6.336
10274TIP3    H130779   3.691   2.284   6.348
10274TIP3    H230780   3.575   2.357   6.282
10275TIP3   OH230781   2.765   2.743   7.039
10275TIP3    H130782   2.801   2.711   6.954
10275TIP3    H230783   2.802   2.679   7.102
10276TIP3   OH230784   3.215   2.865   6.190
10276TIP3    H130785   3.166   2.951   6.192
10276TIP3    H230786   3.160   2.810   6.250
10277TIP3   OH230787   2.648   2.654   7.641
10277TIP3    H130788   2.666   2.656   7.737
10277TIP3    H230789   2.566   2.602   7.636
10278TIP3   OH230790   3.373   2.775   7.671
10278TIP3    H130791   3.311   2.719   7.621
10278TIP3    H230792   3.459   2.741   7.639
10279TIP3   OH230793   3.627   3.297   7.258
10279TIP3    H130794   3.531   3.293   7.273
10279TIP3    H230795   3.656   3.348   7.337
10280TIP3   OH230796   4.035   2.370   6.168
10280TIP3    H130797   3.974   2.326   6.104
10280TIP3    H230798   4.033   2.460   6.128
10281TIP3   OH230799   4.258   3.228   7.246
10281TIP3    H130800   4.160   3.221   7.238
10281TIP3    H230801   4.284   3.196   7.156
10282TIP3   OH230802   3.742   3.186   6.078
10282TIP3    H130803   3.712   3.116   6.137
10282TIP3    H230804   3.753   3.140   5.993
10283TIP3   OH230805   3.735   2.815   6.910
10283TIP3    H130806   3.641   2.792   6.923
10283TIP3    H230807   3.767   2.735   6.865
10284TIP3   OH230808   2.865   3.045   6.667
10284TIP3    H130809   2.860   3.125   6.611
10284TIP3    H230810   2.772   3.024   6.679
10285TIP3   OH230811   2.422   2.352   6.372
10285TIP3    H130812   2.469   2.435   6.395
10285TIP3    H230813   2.347   2.354   6.435
10286TIP3   OH230814   2.996   2.807   6.608
10286TIP3    H130815   2.963   2.896   6.628
10286TIP3    H230816   2.961   2.755   6.683
10287TIP3   OH230817   3.134   3.386   7.134
10287TIP3    H130818   3.177   3.458   7.084
10287TIP3    H230819   3.209   3.348   7.182
10288TIP3   OH230820   2.780   3.283   6.517
10288TIP3    H130821   2.695   3.292   6.565
10288TIP3    H230822   2.812   3.376   6.520
10289TIP3   OH230823   3.518   3.020   7.095
10289TIP3    H130824   3.507   3.019   7.193
10289TIP3    H230825   3.597   2.966   7.083
10290TIP3   OH230826   3.497   2.918   5.978
10290TIP3    H130827   3.550   2.891   6.057
10290TIP3    H230828   3.410   2.886   6.004
10291TIP3   OH230829   3.768   3.551   7.144
10291TIP3    H130830   3.688   3.495   7.140
10291TIP3    H230831   3.750   3.615   7.071
10292TIP3   OH230832   3.834   3.386   5.795
10292TIP3    H130833   3.870   3.460   5.742
10292TIP3    H230834   3.754   3.430   5.830
10293TIP3   OH230835   2.854   2.159   7.652
10293TIP3    H130836   2.758   2.157   7.670
10293TIP3    H230837   2.889   2.105   7.725
10294TIP3   OH230838   3.658   2.849   6.193
10294TIP3    H130839   3.646   2.782   6.263
10294TIP3    H230840   3.755   2.844   6.180
10295TIP3   OH230841   2.572   3.246   7.291
10295TIP3    H130842   2.626   3.175   7.329
10295TIP3    H230843   2.587   3.317   7.355
10296TIP3   OH230844   2.859   2.894   5.978
10296TIP3    H130845   2.872   2.801   5.951
10296TIP3    H230846   2.838   2.883   6.072
10297TIP3   OH230847   2.803   2.900   6.250
10297TIP3    H130848   2.878   2.871   6.303
10297TIP3    H230849   2.808   2.997   6.258
10298TIP3   OH230850   2.539   2.592   6.454
10298TIP3    H130851   2.472   2.637   6.510
10298TIP3    H230852   2.552   2.660   6.385
10299TIP3   OH230853   3.694   2.228   7.345
10299TIP3    H130854   3.773   2.268   7.385
10299TIP3    H230855   3.680   2.148   7.399
10300TIP3   OH230856   3.576   1.974   6.514
10300TIP3    H130857   3.558   1.995   6.421
10300TIP3    H230858   3.612   2.059   6.548
10301TIP3   OH230859   3.073   3.095   6.198
10301TIP3    H130860   2.986   3.120   6.234
10301TIP3    H230861   3.086   3.167   6.135
10302TIP3   OH230862   3.267   2.157   6.612
10302TIP3    H130863   3.326   2.234   6.596
10302TIP3    H230864   3.266   2.153   6.710
10303TIP3   OH230865   3.530   2.476   7.418
10303TIP3    H130866   3.555   2.530   7.495
10303TIP3    H230867   3.583   2.396   7.430
10304TIP3   OH230868   3.403   1.883   6.716
10304TIP3    H130869   3.386   1.965   6.766
10304TIP3    H230870   3.465   1.916   6.647
10305TIP3   OH230871   2.819   3.172   6.267
10305TIP3    H130872   2.788   3.242   6.205
10305TIP3    H230873   2.802   3.214   6.354
10306TIP3   OH230874   2.915   1.878   6.494
10306TIP3    H130875   2.891   1.938   6.566
10306TIP3    H230876   3.012   1.872   6.507
10307TIP3   OH230877   4.168   2.376   7.403
10307TIP3    H130878   4.070   2.375   7.410
10307TIP3    H230879   4.180   2.341   7.314
10308TIP3   OH230880   3.820   2.571   6.788
10308TIP3    H130881   3.743   2.512   6.799
10308TIP3    H230882   3.891   2.523   6.836
10309TIP3   OH230883   2.535   2.797   6.256
10309TIP3    H130884   2.606   2.862   6.266
10309TIP3    H230885   2.577   2.738   6.190
10310TIP3   OH230886   2.493   2.089   6.344
10310TIP3    H130887   2.476   2.182   6.367
10310TIP3    H230888   2.425   2.042   6.395
10311TIP3   OH230889   3.789   3.532   6.736
10311TIP3    H130890   3.746   3.579   6.661
10311TIP3    H230891   3.884   3.550   6.714
10312TIP3   OH230892   2.867   1.804   7.287
10312TIP3    H130893   2.836   1.767   7.200
10312TIP3    H230894   2.857   1.725   7.343
10313TIP3   OH230895   2.402   3.015   6.641
10313TIP3    H130896   2.338   3.044   6.707
10313TIP3    H230897   2.368   3.057   6.559
10314TIP3   OH230898   2.563   3.564   7.716
10314TIP3    H130899   2.648   3.560   7.764
10314TIP3    H230900   2.538   3.469   7.715
10315TIP3   OH230901   3.040   3.523   7.756
10315TIP3    H130902   3.133   3.500   7.767
10315TIP3    H230903   3.013   3.459   7.687
10316TIP3   OH230904   3.023   3.096   5.888
10316TIP3    H130905   2.968   3.023   5.925
10316TIP3    H230906   3.099   3.045   5.853
10317TIP3   OH230907   3.682   3.428   7.494
10317TIP3    H130908   3.674   3.359   7.563
10317TIP3    H230909   3.758   3.480   7.526
10318TIP3   OH230910   3.459   3.135   5.802
10318TIP3    H130911   3.498   3.069   5.862
10318TIP3    H230912   3.515   3.130   5.723
10319TIP3   OH230913   2.701   2.978   7.879
10319TIP3    H130914   2.709   2.885   7.906
10319TIP3    H230915   2.607   2.982   7.850
10320TIP3   OH230916   2.669   2.611   6.112
10320TIP3    H130917   2.725   2.578   6.185
10320TIP3    H230918   2.736   2.617   6.040
10321TIP3   OH230919   3.300   3.054   7.687
10321TIP3    H130920   3.256   3.072   7.602
10321TIP3    H230921   3.329   2.961   7.678
10322TIP3   OH230922   3.186   2.814   5.920
10322TIP3    H130923   3.186   2.824   6.017
10322TIP3    H230924   3.186   2.716   5.912
10323TIP3   OH230925   3.791   3.061   7.299
10323TIP3    H130926   3.867   3.105   7.254
10323TIP3    H230927   3.721   3.127   7.283
10324TIP3   OH230928   2.804   2.694   7.878
10324TIP3    H130929   2.893   2.677   7.846
10324TIP3    H230930   2.804   2.654   7.967
10325TIP3   OH230931   2.876   2.518   6.331
10325TIP3    H130932   2.849   2.474   6.413
10325TIP3    H230933   2.914   2.443   6.280
10326TIP3   OH230934   3.150   2.580   7.563
10326TIP3    H130935   3.070   2.637   7.563
10326TIP3    H230936   3.199   2.615   7.485
10327TIP3   OH230937   2.978   2.315   6.171
10327TIP3    H130938   2.953   2.321   6.076
10327TIP3    H230939   3.076   2.315   6.164
10328TIP3   OH230940   3.664   2.986   7.694
10328TIP3    H130941   3.741   2.953   7.646
10328TIP3    H230942   3.657   2.921   7.767
10329TIP3   OH230943   3.797   2.641   5.839
10329TIP3    H130944   3.779   2.597   5.754
10329TIP3    H230945   3.763   2.731   5.818
10330TIP3   OH230946   3.274   2.371   7.684
10330TIP3    H130947   3.273   2.292   7.625
10330TIP3    H230948   3.230   2.438   7.627
10331TIP3   OH230949   3.272   2.159   7.496
10331TIP3    H130950   3.301   2.202   7.414
10331TIP3    H230951   3.179   2.137   7.475
10332TIP3   OH230952   3.296   2.693   7.369
10332TIP3    H130953   3.381   2.707   7.325
10332TIP3    H230954   3.238   2.756   7.323
10333TIP3   OH230955   3.878   2.658   7.742
10333TIP3    H130956   3.929   2.578   7.763
10333TIP3    H230957   3.946   2.718   7.709
10334TIP3   OH230958   3.921   2.913   7.483
10334TIP3    H130959   3.863   2.968   7.425
10334TIP3    H230960   4.009   2.935   7.444
10335TIP3   OH230961   3.121   2.498   7.885
10335TIP3    H130962   3.063   2.420   7.893
10335TIP3    H230963   3.172   2.475   7.806
10336TIP3   OH230964   3.401   1.920   7.562
10336TIP3    H130965   3.352   2.001   7.537
10336TIP3    H230966   3.334   1.851   7.548
10337TIP3   OH230967   3.535   2.424   7.766
10337TIP3    H130968   3.518   2.416   7.863
10337TIP3    H230969   3.447   2.399   7.733
10338TIP3   OH230970   3.768   2.369   7.628
10338TIP3    H130971   3.694   2.375   7.692
10338TIP3    H230972   3.843   2.343   7.686
10339TIP3   OH230973   4.001   2.315   7.771
10339TIP3    H130974   4.009   2.219   7.789
10339TIP3    H230975   3.995   2.354   7.861
10340TIP3   OH230976   2.974   2.268   7.935
10340TIP3    H130977   2.992   2.174   7.914
10340TIP3    H230978   3.021   2.278   8.020
10341TIP3   OH230979   3.503   1.933   7.815
10341TIP3    H130980   3.561   1.857   7.798
10341TIP3    H230981   3.454   1.936   7.730
10342TIP3   OH230982   3.577   2.152   7.965
10342TIP3    H130983   3.557   2.069   7.918
10342TIP3    H230984   3.491   2.195   7.964
10343TIP3   OH230985   2.788   3.377   6.080
10343TIP3    H130986   2.883   3.366   6.060
10343TIP3    H230987   2.760   3.426   6.001
10344TIP3   OH230988   2.265   2.757   6.292
10344TIP3    H130989   2.360   2.778   6.278
10344TIP3    H230990   2.259   2.668   6.252
10345TIP3   OH230991   2.182   3.368   6.711
10345TIP3    H130992   2.117   3.307   6.672
10345TIP3    H230993   2.226   3.309   6.775
10346TIP3   OH230994   2.316   3.215   6.897
10346TIP3    H130995   2.305   3.144   6.963
10346TIP3    H230996   2.368   3.278   6.949
10347TIP3   OH230997   4.045   3.619   6.697
10347TIP3    H130998   4.072   3.649   6.785
10347TIP3    H230999   4.112   3.659   6.639
10348TIP3   OH231000   4.073   3.639   6.979
10348TIP3    H131001   4.026   3.553   6.974
10348TIP3    H231002   4.147   3.613   7.036
10349TIP3   OH231003   4.119   3.315   7.551
10349TIP3    H131004   4.046   3.326   7.616
10349TIP3    H231005   4.161   3.404   7.555
10350TIP3   OH231006   3.935   2.828   6.170
10350TIP3    H131007   4.001   2.893   6.138
10350TIP3    H231008   3.981   2.791   6.249
10351TIP3   OH231009   4.064   2.696   6.375
10351TIP3    H131010   3.996   2.655   6.433
10351TIP3    H231011   4.128   2.732   6.439
10352TIP3   OH231012   4.121   3.091   6.806
10352TIP3    H131013   4.171   3.021   6.759
10352TIP3    H231014   4.115   3.161   6.739
10353TIP3   OH231015   3.947   3.390   6.999
10353TIP3    H131016   3.874   3.431   7.051
10353TIP3    H231017   3.898   3.344   6.928
10354TIP3   OH231018   4.000   2.605   6.019
10354TIP3    H131019   3.929   2.605   5.951
10354TIP3    H231020   3.971   2.680   6.074
10355TIP3   OH231021   3.871   2.277   5.973
10355TIP3    H131022   3.827   2.312   5.895
10355TIP3    H231023   3.848   2.182   5.965
10356TIP3   OH231024   3.875   2.555   6.519
10356TIP3    H131025   3.882   2.459   6.509
10356TIP3    H231026   3.861   2.566   6.616
10357TIP3   OH231027   2.500   2.623   7.269
10357TIP3    H131028   2.498   2.591   7.176
10357TIP3    H231029   2.597   2.626   7.284
10358TIP3   OH231030   4.167   2.979   7.377
10358TIP3    H131031   4.238   2.912   7.366
10358TIP3    H231032   4.191   3.046   7.311
10359TIP3   OH231033   4.349   2.779   7.385
10359TIP3    H131034   4.275   2.730   7.427
10359TIP3    H231035   4.422   2.716   7.403
10360TIP3   OH231036   3.814   2.011   5.958
10360TIP3    H131037   3.885   1.977   6.015
10360TIP3    H231038   3.738   1.953   5.976
10361TIP3   OH231039   3.875   2.271   6.412
10361TIP3    H131040   3.915   2.183   6.426
10361TIP3    H231041   3.931   2.304   6.340
10362TIP3   OH231042   4.033   2.439   6.910
10362TIP3    H131043   4.118   2.464   6.868
10362TIP3    H231044   4.048   2.478   6.999
10363TIP3   OH231045   4.106   2.587   7.139
10363TIP3    H131046   4.028   2.621   7.188
10363TIP3    H231047   4.138   2.668   7.095
10364TIP3   OH231048   2.712   2.306   7.875
10364TIP3    H131049   2.810   2.310   7.871
10364TIP3    H231050   2.702   2.249   7.952
10365TIP3   OH231051   4.554   2.178   7.695
10365TIP3    H131052   4.616   2.115   7.652
10365TIP3    H231053   4.523   2.231   7.619
10366TIP3   OH231054   3.982   2.021   6.452
10366TIP3    H131055   4.029   2.004   6.536
10366TIP3    H231056   3.920   1.945   6.450
10367TIP3   OH231057   2.681   2.009   7.284
10367TIP3    H131058   2.740   1.932   7.285
10367TIP3    H231059   2.744   2.081   7.265
10368TIP3   OH231060   2.484   2.276   7.345
10368TIP3    H131061   2.533   2.273   7.260
10368TIP3    H231062   2.504   2.364   7.377
10369TIP3   OH231063   4.423   2.316   7.502
10369TIP3    H131064   4.339   2.362   7.523
10369TIP3    H231065   4.389   2.246   7.442
10370TIP3   OH231066   4.060   1.950   6.088
10370TIP3    H131067   4.099   1.882   6.030
10370TIP3    H231068   4.126   2.022   6.083
10371TIP3   OH231069   3.628   3.488   6.352
10371TIP3    H131070   3.677   3.476   6.268
10371TIP3    H231071   3.684   3.553   6.398
10372TIP3   OH231072   2.675   1.875   7.662
10372TIP3    H131073   2.583   1.871   7.690
10372TIP3    H231074   2.660   1.929   7.582
10373TIP3   OH231075   2.727   3.292   7.738
10373TIP3    H131076   2.633   3.269   7.720
10373TIP3    H231077   2.735   3.265   7.830
10374TIP3   OH231078   2.908   3.324   7.283
10374TIP3    H131079   2.858   3.400   7.245
10374TIP3    H231080   2.994   3.340   7.238
10375TIP3   OH231081   3.348   3.566   7.421
10375TIP3    H131082   3.389   3.566   7.510
10375TIP3    H231083   3.413   3.619   7.370
10376TIP3   OH231084   3.527   3.722   7.283
10376TIP3    H131085   3.597   3.669   7.241
10376TIP3    H231086   3.580   3.778   7.344
10377TIP3   OH231087   4.323   2.081   7.380
10377TIP3    H131088   4.234   2.076   7.340
10377TIP3    H231089   4.355   1.989   7.370
10378TIP3   OH231090   2.582   3.582   7.306
10378TIP3    H131091   2.492   3.615   7.286
10378TIP3    H231092   2.594   3.618   7.395
10379TIP3   OH231093   2.819   3.560   7.168
10379TIP3    H131094   2.731   3.571   7.211
10379TIP3    H231095   2.799   3.590   7.077
10380TIP3   OH231096   3.244   3.585   6.964
10380TIP3    H131097   3.173   3.603   6.900
10380TIP3    H231098   3.254   3.673   7.007
10381TIP3   OH231099   3.513   3.525   7.018
10381TIP3    H131100   3.419   3.542   6.997
10381TIP3    H231101   3.557   3.598   6.972
10382TIP3   OH231102   3.721   3.717   6.929
10382TIP3    H131103   3.706   3.800   6.880
10382TIP3    H231104   3.747   3.656   6.857
10383TIP3   OH231105   2.494   3.373   7.053
10383TIP3    H131106   2.521   3.344   7.143
10383TIP3    H231107   2.565   3.329   7.001
10384TIP3   OH231108   2.689   3.246   6.911
10384TIP3    H131109   2.702   3.162   6.961
10384TIP3    H231110   2.780   3.280   6.907
10385TIP3   OH231111   2.957   3.338   6.916
10385TIP3    H131112   2.986   3.245   6.905
10385TIP3    H231113   3.004   3.360   6.999
10386TIP3   OH231114   3.535   1.998   7.010
10386TIP3    H131115   3.488   1.926   7.057
10386TIP3    H231116   3.601   1.950   6.958
10387TIP3   OH231117   4.050   1.876   6.907
10387TIP3    H131118   4.087   1.927   6.831
10387TIP3    H231119   3.955   1.894   6.899
10388TIP3   OH231120   4.145   1.972   6.670
10388TIP3    H131121   4.219   1.922   6.629
10388TIP3    H231122   4.178   2.064   6.655
10389TIP3   OH231123   2.791   1.698   7.056
10389TIP3    H131124   2.736   1.743   6.989
10389TIP3    H231125   2.832   1.629   7.003
10390TIP3   OH231126   2.562   1.580   6.654
10390TIP3    H131127   2.593   1.629   6.576
10390TIP3    H231128   2.572   1.651   6.722
10391TIP3   OH231129   3.236   1.727   6.900
10391TIP3    H131130   3.286   1.779   6.835
10391TIP3    H231131   3.243   1.782   6.979
10392TIP3   OH231132   3.768   1.884   6.878
10392TIP3    H131133   3.762   1.846   6.789
10392TIP3    H231134   3.755   1.804   6.935
10393TIP3   OH231135   3.798   1.809   6.444
10393TIP3    H131136   3.713   1.853   6.460
10393TIP3    H231137   3.782   1.722   6.487
10394TIP3   OH231138   2.281   3.149   6.441
10394TIP3    H131139   2.195   3.115   6.409
10394TIP3    H231140   2.271   3.243   6.417
10395TIP3   OH231141   2.677   1.729   6.425
10395TIP3    H131142   2.733   1.677   6.365
10395TIP3    H231143   2.744   1.784   6.469
10396TIP3   OH231144   3.195   1.910   6.525
10396TIP3    H131145   3.251   1.861   6.588
10396TIP3    H231146   3.220   2.002   6.549
10397TIP3   OH231147   3.054   3.330   6.026
10397TIP3    H131148   3.142   3.353   5.989
10397TIP3    H231149   3.031   3.256   5.965
10398TIP3   OH231150   3.774   3.453   6.120
10398TIP3    H131151   3.767   3.355   6.110
10398TIP3    H231152   3.727   3.482   6.039
10399TIP3   OH231153   3.027   2.005   7.872
10399TIP3    H131154   3.021   1.939   7.944
10399TIP3    H231155   3.122   2.010   7.856
10400TIP3   OH231156   2.358   3.169   6.079
10400TIP3    H131157   2.361   3.186   6.174
10400TIP3    H231158   2.444   3.125   6.063
10401TIP3   OH231159   4.061   2.046   7.794
10401TIP3    H131160   4.090   2.028   7.887
10401TIP3    H231161   4.149   2.050   7.750
10402TIP3   OH231162   3.997   3.595   7.305
10402TIP3    H131163   3.918   3.564   7.255
10402TIP3    H231164   3.976   3.690   7.313
10403TIP3   OH231165   5.266   2.972   6.069
10403TIP3    H131166   5.233   3.061   6.046
10403TIP3    H231167   5.192   2.917   6.037
10404TIP3   OH231168   5.264   2.972   6.457
10404TIP3    H131169   5.299   2.941   6.543
10404TIP3    H231170   5.226   2.890   6.421
10405TIP3   OH231171   4.561   2.862   6.820
10405TIP3    H131172   4.591   2.793   6.881
10405TIP3    H231173   4.643   2.911   6.806
10406TIP3   OH231174   5.510   3.274   6.136
10406TIP3    H131175   5.492   3.202   6.198
10406TIP3    H231176   5.541   3.346   6.194
10407TIP3   OH231177   4.537   3.275   6.541
10407TIP3    H131178   4.528   3.177   6.542
10407TIP3    H231179   4.633   3.284   6.533
10408TIP3   OH231180   4.241   2.473   6.324
10408TIP3    H131181   4.194   2.556   6.342
10408TIP3    H231182   4.170   2.422   6.280
10409TIP3   OH231183   4.300   2.763   6.505
10409TIP3    H131184   4.349   2.684   6.537
10409TIP3    H231185   4.358   2.795   6.435
10410TIP3   OH231186   5.162   3.734   6.155
10410TIP3    H131187   5.203   3.664   6.100
10410TIP3    H231188   5.151   3.689   6.239
10411TIP3   OH231189   5.062   3.196   6.502
10411TIP3    H131190   5.102   3.117   6.460
10411TIP3    H231191   5.145   3.243   6.526
10412TIP3   OH231192   6.083   2.512   6.501
10412TIP3    H131193   6.110   2.599   6.536
10412TIP3    H231194   6.095   2.526   6.405
10413TIP3   OH231195   5.476   2.695   6.532
10413TIP3    H131196   5.522   2.611   6.552
10413TIP3    H231197   5.443   2.677   6.442
10414TIP3   OH231198   4.812   2.355   6.500
10414TIP3    H131199   4.799   2.427   6.435
10414TIP3    H231200   4.766   2.282   6.453
10415TIP3   OH231201   5.495   2.448   6.111
10415TIP3    H131202   5.537   2.390   6.179
10415TIP3    H231203   5.573   2.480   6.063
10416TIP3   OH231204   4.447   2.555   6.605
10416TIP3    H131205   4.530   2.538   6.653
10416TIP3    H231206   4.462   2.501   6.525
10417TIP3   OH231207   4.886   2.753   6.405
10417TIP3    H131208   4.981   2.731   6.414
10417TIP3    H231209   4.849   2.670   6.370
10418TIP3   OH231210   6.156   2.727   6.668
10418TIP3    H131211   6.072   2.771   6.643
10418TIP3    H231212   6.156   2.746   6.763
10419TIP3   OH231213   4.809   2.340   6.934
10419TIP3    H131214   4.751   2.376   6.864
10419TIP3    H231215   4.756   2.359   7.013
10420TIP3   OH231216   5.153   3.190   5.939
10420TIP3    H131217   5.112   3.174   5.853
10420TIP3    H231218   5.107   3.272   5.967
10421TIP3   OH231219   4.918   3.115   6.724
10421TIP3    H131220   4.858   3.183   6.760
10421TIP3    H231221   4.960   3.162   6.649
10422TIP3   OH231222   5.736   2.475   6.266
10422TIP3    H131223   5.697   2.398   6.312
10422TIP3    H231224   5.767   2.532   6.338
10423TIP3   OH231225   4.681   2.454   6.717
10423TIP3    H131226   4.745   2.525   6.741
10423TIP3    H231227   4.729   2.414   6.641
10424TIP3   OH231228   4.747   3.311   6.826
10424TIP3    H131229   4.721   3.398   6.789
10424TIP3    H231230   4.667   3.293   6.880
10425TIP3   OH231231   4.135   2.999   6.060
10425TIP3    H131232   4.096   3.026   5.975
10425TIP3    H231233   4.168   3.085   6.095
10426TIP3   OH231234   5.578   3.518   6.302
10426TIP3    H131235   5.488   3.507   6.341
10426TIP3    H231236   5.568   3.603   6.255
10427TIP3   OH231237   5.868   2.417   6.667
10427TIP3    H131238   5.778   2.434   6.631
10427TIP3    H231239   5.925   2.446   6.594
10428TIP3   OH231240   5.164   2.050   6.651
10428TIP3    H131241   5.148   1.955   6.664
10428TIP3    H231242   5.086   2.088   6.696
10429TIP3   OH231243   5.276   3.561   5.971
10429TIP3    H131244   5.325   3.477   5.954
10429TIP3    H231245   5.340   3.624   5.932
10430TIP3   OH231246   5.421   3.346   5.886
10430TIP3    H131247   5.385   3.265   5.846
10430TIP3    H231248   5.460   3.312   5.969
10431TIP3   OH231249   5.804   3.425   6.645
10431TIP3    H131250   5.791   3.348   6.586
10431TIP3    H231251   5.786   3.500   6.584
10432TIP3   OH231252   5.096   2.823   5.903
10432TIP3    H131253   5.017   2.875   5.881
10432TIP3    H231254   5.142   2.818   5.817
10433TIP3   OH231255   5.053   2.607   5.616
10433TIP3    H131256   5.120   2.659   5.664
10433TIP3    H231257   5.111   2.544   5.568
10434TIP3   OH231258   5.999   3.069   6.494
10434TIP3    H131259   5.913   3.117   6.496
10434TIP3    H231260   6.028   3.091   6.402
10435TIP3   OH231261   5.445   2.904   5.872
10435TIP3    H131262   5.390   2.927   5.951
10435TIP3    H231263   5.529   2.877   5.916
10436TIP3   OH231264   5.677   2.941   6.788
10436TIP3    H131265   5.671   3.026   6.836
10436TIP3    H231266   5.590   2.941   6.743
10437TIP3   OH231267   4.676   2.900   6.293
10437TIP3    H131268   4.634   2.842   6.226
10437TIP3    H231269   4.751   2.845   6.323
10438TIP3   OH231270   4.805   3.313   6.439
10438TIP3    H131271   4.784   3.278   6.351
10438TIP3    H231272   4.894   3.275   6.455
10439TIP3   OH231273   4.808   2.872   6.647
10439TIP3    H131274   4.841   2.844   6.559
10439TIP3    H231275   4.854   2.957   6.662
10440TIP3   OH231276   5.337   3.511   6.423
10440TIP3    H131277   5.325   3.589   6.479
10440TIP3    H231278   5.321   3.436   6.485
10441TIP3   OH231279   4.951   3.429   6.971
10441TIP3    H131280   4.888   3.489   7.016
10441TIP3    H231281   4.888   3.375   6.919
10442TIP3   OH231282   5.280   2.764   5.700
10442TIP3    H131283   5.341   2.823   5.750
10442TIP3    H231284   5.308   2.784   5.607
10443TIP3   OH231285   4.707   2.982   7.077
10443TIP3    H131286   4.710   3.071   7.117
10443TIP3    H231287   4.611   2.962   7.086
10444TIP3   OH231288   5.028   3.439   5.978
10444TIP3    H131289   5.110   3.490   5.985
10444TIP3    H231290   4.969   3.499   5.931
10445TIP3   OH231291   4.743   3.594   7.058
10445TIP3    H131292   4.709   3.597   6.967
10445TIP3    H231293   4.663   3.572   7.110
10446TIP3   OH231294   5.795   1.998   5.748
10446TIP3    H131295   5.714   2.021   5.799
10446TIP3    H231296   5.812   2.082   5.701
10447TIP3   OH231297   4.541   2.745   6.097
10447TIP3    H131298   4.472   2.787   6.042
10447TIP3    H231299   4.507   2.655   6.105
10448TIP3   OH231300   5.599   3.367   5.299
10448TIP3    H131301   5.608   3.464   5.283
10448TIP3    H231302   5.692   3.337   5.286
10449TIP3   OH231303   4.322   3.128   7.003
10449TIP3    H131304   4.255   3.108   6.936
10449TIP3    H231305   4.360   3.040   7.024
10450TIP3   OH231306   4.177   3.321   6.633
10450TIP3    H131307   4.273   3.313   6.625
10450TIP3    H231308   4.169   3.398   6.691
10451TIP3   OH231309   6.038   3.774   6.693
10451TIP3    H131310   6.038   3.678   6.706
10451TIP3    H231311   5.955   3.799   6.740
10452TIP3   OH231312   5.146   3.556   6.828
10452TIP3    H131313   5.143   3.649   6.860
10452TIP3    H231314   5.074   3.516   6.881
10453TIP3   OH231315   4.911   3.684   5.779
10453TIP3    H131316   4.864   3.666   5.696
10453TIP3    H231317   4.876   3.771   5.805
10454TIP3   OH231318   4.347   3.534   6.165
10454TIP3    H131319   4.393   3.525   6.251
10454TIP3    H231320   4.297   3.450   6.162
10455TIP3   OH231321   5.109   3.588   5.417
10455TIP3    H131322   5.168   3.518   5.381
10455TIP3    H231323   5.144   3.598   5.508
10456TIP3   OH231324   5.162   3.636   5.686
10456TIP3    H131325   5.073   3.646   5.727
10456TIP3    H231326   5.211   3.595   5.759
10457TIP3   OH231327   5.928   2.900   6.967
10457TIP3    H131328   5.845   2.912   6.918
10457TIP3    H231329   5.944   2.805   6.954
10458TIP3   OH231330   4.526   3.311   6.989
10458TIP3    H131331   4.576   3.293   7.071
10458TIP3    H231332   4.452   3.248   6.996
10459TIP3   OH231333   4.926   2.129   6.782
10459TIP3    H131334   4.838   2.101   6.750
10459TIP3    H231335   4.902   2.213   6.825
10460TIP3   OH231336   5.462   2.250   6.972
10460TIP3    H131337   5.530   2.219   7.035
10460TIP3    H231338   5.379   2.229   7.018
10461TIP3   OH231339   5.703   2.680   6.895
10461TIP3    H131340   5.646   2.676   6.975
10461TIP3    H231341   5.675   2.763   6.853
10462TIP3   OH231342   5.361   2.805   5.446
10462TIP3    H131343   5.324   2.782   5.359
10462TIP3    H231344   5.445   2.848   5.420
10463TIP3   OH231345   5.072   2.181   5.750
10463TIP3    H131346   5.040   2.177   5.842
10463TIP3    H231347   5.032   2.099   5.715
10464TIP3   OH231348   4.858   2.651   6.796
10464TIP3    H131349   4.807   2.672   6.877
10464TIP3    H231350   4.842   2.731   6.742
10465TIP3   OH231351   4.742   2.536   6.310
10465TIP3    H131352   4.649   2.509   6.329
10465TIP3    H231353   4.755   2.495   6.222
10466TIP3   OH231354   5.231   2.622   6.041
10466TIP3    H131355   5.182   2.692   5.992
10466TIP3    H231356   5.289   2.586   5.971
10467TIP3   OH231357   5.408   2.897   7.124
10467TIP3    H131358   5.385   2.824   7.185
10467TIP3    H231359   5.502   2.908   7.144
10468TIP3   OH231360   5.389   2.651   6.273
10468TIP3    H131361   5.324   2.673   6.203
10468TIP3    H231362   5.428   2.571   6.230
10469TIP3   OH231363   4.677   2.678   7.003
10469TIP3    H131364   4.707   2.741   7.070
10469TIP3    H231365   4.667   2.596   7.055
10470TIP3   OH231366   4.727   2.155   5.713
10470TIP3    H131367   4.718   2.155   5.810
10470TIP3    H231368   4.650   2.209   5.687
10471TIP3   OH231369   4.271   2.195   6.588
10471TIP3    H131370   4.346   2.231   6.640
10471TIP3    H231371   4.311   2.170   6.504
10472TIP3   OH231372   4.236   2.179   6.104
10472TIP3    H131373   4.282   2.215   6.025
10472TIP3    H231374   4.175   2.253   6.122
10473TIP3   OH231375   5.404   2.893   6.697
10473TIP3    H131376   5.435   2.821   6.637
10473TIP3    H231377   5.370   2.838   6.772
10474TIP3   OH231378   5.068   2.373   6.371
10474TIP3    H131379   4.996   2.361   6.434
10474TIP3    H231380   5.146   2.340   6.421
10475TIP3   OH231381   4.503   2.413   6.378
10475TIP3    H131382   4.409   2.420   6.348
10475TIP3    H231383   4.528   2.322   6.353
10476TIP3   OH231384   4.767   2.407   6.070
10476TIP3    H131385   4.862   2.423   6.052
10476TIP3    H231386   4.724   2.430   5.985
10477TIP3   OH231387   5.575   2.443   6.582
10477TIP3    H131388   5.514   2.438   6.658
10477TIP3    H231389   5.543   2.372   6.522
10478TIP3   OH231390   4.619   2.445   5.843
10478TIP3    H131391   4.549   2.399   5.794
10478TIP3    H231392   4.671   2.483   5.769
10479TIP3   OH231393   5.735   4.122   6.793
10479TIP3    H131394   5.733   4.146   6.698
10479TIP3    H231395   5.815   4.169   6.823
10480TIP3   OH231396   4.689   3.233   7.211
10480TIP3    H131397   4.769   3.262   7.260
10480TIP3    H231398   4.624   3.230   7.284
10481TIP3   OH231399   5.153   2.689   6.468
10481TIP3    H131400   5.219   2.647   6.413
10481TIP3    H231401   5.158   2.637   6.550
10482TIP3   OH231402   4.672   2.174   6.348
10482TIP3    H131403   4.637   2.096   6.396
10482TIP3    H231404   4.723   2.134   6.277
10483TIP3   OH231405   5.127   2.582   6.762
10483TIP3    H131406   5.037   2.620   6.771
10483TIP3    H231407   5.184   2.647   6.807
10484TIP3   OH231408   4.863   2.974   5.851
10484TIP3    H131409   4.792   2.907   5.840
10484TIP3    H231410   4.843   3.007   5.942
10485TIP3   OH231411   5.763   3.209   6.479
10485TIP3    H131412   5.786   3.260   6.398
10485TIP3    H231413   5.680   3.165   6.452
10486TIP3   OH231414   5.319   2.290   5.703
10486TIP3    H131415   5.225   2.266   5.723
10486TIP3    H231416   5.328   2.380   5.740
10487TIP3   OH231417   5.266   3.293   6.848
10487TIP3    H131418   5.292   3.272   6.938
10487TIP3    H231419   5.226   3.381   6.856
10488TIP3   OH231420   5.390   2.532   5.820
10488TIP3    H131421   5.485   2.536   5.842
10488TIP3    H231422   5.375   2.615   5.770
10489TIP3   OH231423   4.560   2.998   6.525
10489TIP3    H131424   4.596   2.969   6.439
10489TIP3    H231425   4.604   2.938   6.587
10490TIP3   OH231426   5.011   3.122   5.676
10490TIP3    H131427   4.962   3.208   5.679
10490TIP3    H231428   4.956   3.068   5.736
10491TIP3   OH231429   4.441   2.915   7.141
10491TIP3    H131430   4.456   2.900   7.236
10491TIP3    H231431   4.370   2.850   7.122
10492TIP3   OH231432   5.167   3.032   7.160
10492TIP3    H131433   5.105   2.973   7.114
10492TIP3    H231434   5.253   2.994   7.131
10493TIP3   OH231435   5.424   3.555   6.745
10493TIP3    H131436   5.328   3.550   6.759
10493TIP3    H231437   5.451   3.606   6.824
10494TIP3   OH231438   5.834   2.625   5.653
10494TIP3    H131439   5.771   2.582   5.590
10494TIP3    H231440   5.830   2.716   5.615
10495TIP3   OH231441   6.055   3.485   6.733
10495TIP3    H131442   5.957   3.477   6.725
10495TIP3    H231443   6.081   3.453   6.644
10496TIP3   OH231444   5.538   3.443   5.565
10496TIP3    H131445   5.508   3.373   5.625
10496TIP3    H231446   5.548   3.395   5.480
10497TIP3   OH231447   5.531   3.071   6.397
10497TIP3    H131448   5.438   3.047   6.410
10497TIP3    H231449   5.565   2.990   6.353
10498TIP3   OH231450   4.661   3.302   6.156
10498TIP3    H131451   4.657   3.382   6.099
10498TIP3    H231452   4.568   3.279   6.163
10499TIP3   OH231453   4.226   2.602   5.860
10499TIP3    H131454   4.269   2.687   5.881
10499TIP3    H231455   4.148   2.606   5.920
10500TIP3   OH231456   4.791   3.064   6.094
10500TIP3    H131457   4.759   3.153   6.116
10500TIP3    H231458   4.758   3.012   6.170
10501TIP3   OH231459   4.930   3.643   6.621
10501TIP3    H131460   4.973   3.715   6.570
10501TIP3    H231461   5.006   3.604   6.666
10502TIP3   OH231462   4.576   3.540   6.004
10502TIP3    H131463   4.492   3.549   6.051
10502TIP3    H231464   4.609   3.632   6.006
10503TIP3   OH231465   5.315   3.278   6.580
10503TIP3    H131466   5.305   3.275   6.678
10503TIP3    H231467   5.391   3.219   6.567
10504TIP3   OH231468   5.294   3.174   5.464
10504TIP3    H131469   5.347   3.148   5.543
10504TIP3    H231470   5.206   3.142   5.490
10505TIP3   OH231471   5.564   3.809   6.631
10505TIP3    H131472   5.484   3.753   6.626
10505TIP3    H231473   5.547   3.873   6.558
10506TIP3   OH231474   5.630   3.643   5.282
10506TIP3    H131475   5.665   3.717   5.229
10506TIP3    H231476   5.550   3.686   5.318
10507TIP3   OH231477   4.647   2.421   7.147
10507TIP3    H131478   4.550   2.424   7.159
10507TIP3    H231479   4.675   2.366   7.221
10508TIP3   OH231480   5.454   3.106   5.680
10508TIP3    H131481   5.443   3.039   5.750
10508TIP3    H231482   5.551   3.100   5.667
10509TIP3   OH231483   4.367   3.503   6.779
10509TIP3    H131484   4.421   3.430   6.812
10509TIP3    H231485   4.395   3.575   6.838
10510TIP3   OH231486   4.655   3.151   5.465
10510TIP3    H131487   4.668   3.058   5.437
10510TIP3    H231488   4.634   3.140   5.559
10511TIP3   OH231489   4.599   3.156   5.737
10511TIP3    H131490   4.676   3.128   5.789
10511TIP3    H231491   4.605   3.254   5.745
10512TIP3   OH231492   4.335   2.848   5.940
10512TIP3    H131493   4.268   2.893   5.996
10512TIP3    H231494   4.348   2.916   5.871
10513TIP3   OH231495   5.478   2.495   6.846
10513TIP3    H131496   5.570   2.521   6.865
10513TIP3    H231497   5.470   2.409   6.893
10514TIP3   OH231498   5.371   2.231   5.996
10514TIP3    H131499   5.361   2.261   5.905
10514TIP3    H231500   5.407   2.312   6.040
10515TIP3   OH231501   4.869   3.352   5.685
10515TIP3    H131502   4.782   3.377   5.721
10515TIP3    H231503   4.882   3.423   5.621
10516TIP3   OH231504   5.048   2.421   6.100
10516TIP3    H131505   5.114   2.491   6.084
10516TIP3    H231506   5.058   2.408   6.197
10517TIP3   OH231507   5.325   2.732   6.902
10517TIP3    H131508   5.354   2.778   6.983
10517TIP3    H231509   5.377   2.649   6.904
10518TIP3   OH231510   5.201   2.131   6.198
10518TIP3    H131511   5.219   2.194   6.271
10518TIP3    H231512   5.269   2.161   6.134
10519TIP3   OH231513   4.615   3.429   5.754
10519TIP3    H131514   4.584   3.498   5.692
10519TIP3    H231515   4.598   3.471   5.841
10520TIP3   OH231516   4.713   2.143   5.990
10520TIP3    H131517   4.710   2.233   6.028
10520TIP3    H231518   4.809   2.126   5.998
10521TIP3   OH231519   5.967   2.632   6.883
10521TIP3    H131520   5.870   2.635   6.896
10521TIP3    H231521   5.969   2.582   6.801
10522TIP3   OH231522   5.617   2.828   6.277
10522TIP3    H131523   5.541   2.768   6.284
10522TIP3    H231524   5.687   2.778   6.323
10523TIP3   OH231525   4.331   3.053   5.743
10523TIP3    H131526   4.403   3.119   5.752
10523TIP3    H231527   4.373   2.994   5.677
10524TIP3   OH231528   4.270   2.331   5.880
10524TIP3    H131529   4.273   2.429   5.878
10524TIP3    H231530   4.192   2.313   5.826
10525TIP3   OH231531   5.585   3.788   6.223
10525TIP3    H131532   5.542   3.836   6.148
10525TIP3    H231533   5.680   3.807   6.202
10526TIP3   OH231534   4.659   2.054   6.750
10526TIP3    H131535   4.631   2.021   6.662
10526TIP3    H231536   4.649   1.974   6.806
10527TIP3   OH231537   4.199   3.274   6.128
10527TIP3    H131538   4.132   3.301   6.192
10527TIP3    H231539   4.165   3.315   6.045
10528TIP3   OH231540   4.359   3.819   7.203
10528TIP3    H131541   4.446   3.818   7.249
10528TIP3    H231542   4.338   3.724   7.201
10529TIP3   OH231543   4.837   3.773   7.249
10529TIP3    H131544   4.931   3.755   7.252
10529TIP3    H231545   4.809   3.713   7.177
10530TIP3   OH231546   4.820   3.352   5.375
10530TIP3    H131547   4.764   3.280   5.412
10530TIP3    H231548   4.895   3.301   5.340
10531TIP3   OH231549   5.474   3.687   6.984
10531TIP3    H131550   5.468   3.616   7.052
10531TIP3    H231551   5.553   3.737   7.013
10532TIP3   OH231552   5.255   3.392   5.289
10532TIP3    H131553   5.294   3.325   5.349
10532TIP3    H231554   5.313   3.386   5.210
10533TIP3   OH231555   4.487   3.222   7.403
10533TIP3    H131556   4.503   3.126   7.411
10533TIP3    H231557   4.401   3.224   7.357
10534TIP3   OH231558   4.466   2.867   5.599
10534TIP3    H131559   4.523   2.837   5.672
10534TIP3    H231560   4.532   2.873   5.527
10535TIP3   OH231561   5.094   3.308   7.177
10535TIP3    H131562   5.052   3.328   7.091
10535TIP3    H231563   5.124   3.215   7.166
10536TIP3   OH231564   4.982   3.070   5.406
10536TIP3    H131565   4.983   3.081   5.504
10536TIP3    H231566   4.982   2.972   5.399
10537TIP3   OH231567   5.588   3.319   6.788
10537TIP3    H131568   5.664   3.361   6.742
10537TIP3    H231569   5.518   3.383   6.769
10538TIP3   OH231570   4.608   2.959   7.388
10538TIP3    H131571   4.684   2.906   7.360
10538TIP3    H231572   4.636   2.990   7.476
10539TIP3   OH231573   4.671   2.776   5.817
10539TIP3    H131574   4.645   2.733   5.900
10539TIP3    H231575   4.710   2.701   5.767
10540TIP3   OH231576   4.943   2.839   7.049
10540TIP3    H131577   4.864   2.898   7.049
10540TIP3    H231578   4.994   2.874   6.973
10541TIP3   OH231579   4.775   2.572   5.658
10541TIP3    H131580   4.751   2.579   5.563
10541TIP3    H231581   4.873   2.572   5.652
10542TIP3   OH231582   5.462   3.242   7.182
10542TIP3    H131583   5.535   3.208   7.128
10542TIP3    H231584   5.454   3.175   7.251
10543TIP3   OH231585   5.594   2.898   5.326
10543TIP3    H131586   5.574   2.854   5.241
10543TIP3    H231587   5.559   2.988   5.305
10544TIP3   OH231588   5.067   2.628   7.170
10544TIP3    H131589   5.067   2.550   7.112
10544TIP3    H231590   5.023   2.696   7.114
10545TIP3   OH231591   5.068   2.414   6.983
10545TIP3    H131592   5.098   2.457   6.900
10545TIP3    H231593   4.975   2.393   6.962
10546TIP3   OH231594   5.092   2.951   6.857
10546TIP3    H131595   5.176   2.959   6.812
10546TIP3    H231596   5.036   3.015   6.808
10547TIP3   OH231597   5.675   2.916   7.233
10547TIP3    H131598   5.721   2.831   7.238
10547TIP3    H231599   5.743   2.972   7.193
10548TIP3   OH231600   5.717   3.172   6.974
10548TIP3    H131601   5.659   3.226   6.915
10548TIP3    H231602   5.804   3.192   6.934
10549TIP3   OH231603   4.946   2.734   7.406
10549TIP3    H131604   4.877   2.667   7.421
10549TIP3    H231605   4.977   2.710   7.317
10550TIP3   OH231606   5.201   2.178   7.052
10550TIP3    H131607   5.151   2.258   7.027
10550TIP3    H231608   5.133   2.108   7.038
10551TIP3   OH231609   5.325   2.678   7.265
10551TIP3    H131610   5.307   2.663   7.360
10551TIP3    H231611   5.237   2.655   7.229
10552TIP3   OH231612   5.568   2.638   7.125
10552TIP3    H131613   5.491   2.634   7.185
10552TIP3    H231614   5.640   2.602   7.180
10553TIP3   OH231615   5.803   2.574   7.270
10553TIP3    H131616   5.811   2.478   7.285
10553TIP3    H231617   5.794   2.610   7.361
10554TIP3   OH231618   4.782   2.516   7.460
10554TIP3    H131619   4.788   2.424   7.426
10554TIP3    H231620   4.819   2.505   7.549
10555TIP3   OH231621   5.292   2.185   7.311
10555TIP3    H131622   5.358   2.114   7.302
10555TIP3    H231623   5.253   2.183   7.221
10556TIP3   OH231624   5.361   2.401   7.467
10556TIP3    H131625   5.340   2.330   7.403
10556TIP3    H231626   5.283   2.460   7.459
10557TIP3   OH231627   4.584   3.634   5.568
10557TIP3    H131628   4.679   3.623   5.547
10557TIP3    H231629   4.555   3.683   5.488
10558TIP3   OH231630   4.062   3.013   5.780
10558TIP3    H131631   4.156   3.033   5.764
10558TIP3    H231632   4.054   2.924   5.739
10559TIP3   OH231633   3.978   3.625   6.197
10559TIP3    H131634   3.912   3.564   6.157
10559TIP3    H231635   4.022   3.566   6.261
10560TIP3   OH231636   4.111   3.472   6.384
10560TIP3    H131637   4.099   3.400   6.448
10560TIP3    H231638   4.164   3.534   6.436
10561TIP3   OH231639   5.840   3.878   6.183
10561TIP3    H131640   5.868   3.907   6.272
10561TIP3    H231641   5.909   3.915   6.126
10562TIP3   OH231642   5.868   3.895   6.466
10562TIP3    H131643   5.822   3.809   6.461
10562TIP3    H231644   5.945   3.870   6.520
10563TIP3   OH231645   5.916   3.572   7.040
10563TIP3    H131646   5.843   3.582   7.104
10563TIP3    H231647   5.958   3.660   7.042
10564TIP3   OH231648   5.732   3.084   5.657
10564TIP3    H131649   5.799   3.149   5.627
10564TIP3    H231650   5.776   3.047   5.736
10565TIP3   OH231651   5.859   2.952   5.862
10565TIP3    H131652   5.791   2.908   5.920
10565TIP3    H231653   5.922   2.988   5.927
10566TIP3   OH231654   5.917   3.347   6.293
10566TIP3    H131655   5.967   3.278   6.246
10566TIP3    H231656   5.911   3.418   6.226
10567TIP3   OH231657   5.743   3.646   6.487
10567TIP3    H131658   5.670   3.687   6.537
10567TIP3    H231659   5.695   3.600   6.415
10568TIP3   OH231660   5.797   2.862   5.505
10568TIP3    H131661   5.725   2.862   5.438
10568TIP3    H231662   5.767   2.936   5.561
10569TIP3   OH231663   5.669   2.533   5.457
10569TIP3    H131664   5.621   2.567   5.381
10569TIP3    H231665   5.646   2.437   5.452
10570TIP3   OH231666   5.671   2.809   6.007
10570TIP3    H131667   5.678   2.712   5.998
10570TIP3    H231668   5.658   2.820   6.104
10571TIP3   OH231669   4.296   2.881   6.756
10571TIP3    H131670   4.294   2.848   6.663
10571TIP3    H231671   4.394   2.884   6.771
10572TIP3   OH231672   5.963   3.236   6.866
10572TIP3    H131673   6.033   3.169   6.854
10572TIP3    H231674   5.985   3.302   6.798
10573TIP3   OH231675   6.144   3.035   6.875
10573TIP3    H131676   6.068   2.987   6.914
10573TIP3    H231677   6.216   2.972   6.894
10574TIP3   OH231678   5.612   2.266   5.442
10574TIP3    H131679   5.682   2.235   5.502
10574TIP3    H231680   5.536   2.210   5.464
10575TIP3   OH231681   5.672   2.526   5.895
10575TIP3    H131682   5.710   2.438   5.914
10575TIP3    H231683   5.731   2.556   5.824
10576TIP3   OH231684   5.831   2.703   6.405
10576TIP3    H131685   5.915   2.724   6.360
10576TIP3    H231686   5.849   2.741   6.493
10577TIP3   OH231687   5.906   2.847   6.630
10577TIP3    H131688   5.825   2.878   6.675
10577TIP3    H231689   5.935   2.928   6.584
10578TIP3   OH231690   4.515   2.566   7.425
10578TIP3    H131691   4.613   2.563   7.431
10578TIP3    H231692   4.492   2.481   7.467
10579TIP3   OH231693   6.358   2.441   7.182
10579TIP3    H131694   6.415   2.375   7.139
10579TIP3    H231695   6.322   2.490   7.104
10580TIP3   OH231696   5.779   2.276   5.940
10580TIP3    H131697   5.819   2.264   6.028
10580TIP3    H231698   5.715   2.201   5.940
10581TIP3   OH231699   4.477   2.263   6.762
10581TIP3    H131700   4.538   2.187   6.767
10581TIP3    H231701   4.540   2.337   6.751
10582TIP3   OH231702   4.278   2.534   6.831
10582TIP3    H131703   4.328   2.529   6.747
10582TIP3    H231704   4.306   2.619   6.865
10583TIP3   OH231705   6.219   2.571   6.986
10583TIP3    H131706   6.134   2.615   7.003
10583TIP3    H231707   6.187   2.498   6.928
10584TIP3   OH231708   5.856   2.208   5.574
10584TIP3    H131709   5.895   2.138   5.517
10584TIP3    H231710   5.924   2.278   5.569
10585TIP3   OH231711   4.264   2.038   6.333
10585TIP3    H131712   4.171   2.033   6.360
10585TIP3    H231713   4.259   2.097   6.255
10586TIP3   OH231714   5.424   3.745   5.838
10586TIP3    H131715   5.474   3.732   5.755
10586TIP3    H231716   5.479   3.809   5.886
10587TIP3   OH231717   4.483   2.113   7.145
10587TIP3    H131718   4.432   2.117   7.228
10587TIP3    H231719   4.420   2.155   7.083
10588TIP3   OH231720   4.523   3.551   7.223
10588TIP3    H131721   4.431   3.524   7.205
10588TIP3    H231722   4.533   3.526   7.315
10589TIP3   OH231723   4.704   3.583   6.772
10589TIP3    H131724   4.656   3.659   6.731
10589TIP3    H231725   4.790   3.596   6.727
10590TIP3   OH231726   5.144   3.824   6.909
10590TIP3    H131727   5.187   3.824   6.997
10590TIP3    H231728   5.209   3.875   6.857
10591TIP3   OH231729   5.323   3.978   6.770
10591TIP3    H131730   5.392   3.927   6.725
10591TIP3    H231731   5.377   4.034   6.830
10592TIP3   OH231732   6.119   2.335   6.868
10592TIP3    H131733   6.030   2.327   6.830
10592TIP3    H231734   6.152   2.243   6.858
10593TIP3   OH231735   4.377   3.838   6.794
10593TIP3    H131736   4.287   3.871   6.772
10593TIP3    H231737   4.389   3.877   6.881
10594TIP3   OH231738   4.615   3.817   6.655
10594TIP3    H131739   4.527   3.829   6.697
10594TIP3    H231740   4.596   3.846   6.563
10595TIP3   OH231741   5.039   3.841   6.452
10595TIP3    H131742   4.970   3.859   6.386
10595TIP3    H231743   5.051   3.930   6.493
10596TIP3   OH231744   5.309   3.782   6.506
10596TIP3    H131745   5.215   3.799   6.484
10596TIP3    H231746   5.354   3.853   6.459
10597TIP3   OH231747   5.515   3.973   6.416
10597TIP3    H131748   5.501   4.056   6.367
10597TIP3    H231749   5.542   3.912   6.344
10598TIP3   OH231750   4.289   3.629   6.540
10598TIP3    H131751   4.317   3.601   6.630
10598TIP3    H231752   4.361   3.586   6.488
10599TIP3   OH231753   4.484   3.502   6.399
10599TIP3    H131754   4.499   3.418   6.448
10599TIP3    H231755   4.576   3.537   6.394
10600TIP3   OH231756   4.753   3.594   6.403
10600TIP3    H131757   4.782   3.502   6.390
10600TIP3    H231758   4.800   3.615   6.485
10601TIP3   OH231759   5.285   2.246   6.470
10601TIP3    H131760   5.279   2.171   6.531
10601TIP3    H231761   5.375   2.233   6.431
10602TIP3   OH231762   5.844   2.128   6.390
10602TIP3    H131763   5.882   2.180   6.316
10602TIP3    H231764   5.749   2.151   6.381
10603TIP3   OH231765   5.946   2.231   6.158
10603TIP3    H131766   6.020   2.183   6.116
10603TIP3    H231767   5.974   2.324   6.143
10604TIP3   OH231768   4.573   1.960   6.502
10604TIP3    H131769   4.480   1.929   6.505
10604TIP3    H231770   4.620   1.875   6.497
10605TIP3   OH231771   4.366   1.831   6.153
10605TIP3    H131772   4.394   1.887   6.079
10605TIP3    H231773   4.337   1.897   6.219
10606TIP3   OH231774   5.020   1.991   6.386
10606TIP3    H131775   5.070   2.034   6.315
10606TIP3    H231776   5.058   2.032   6.464
10607TIP3   OH231777   5.593   2.067   5.932
10607TIP3    H131778   5.513   2.116   5.959
10607TIP3    H231779   5.579   1.983   5.981
10608TIP3   OH231780   4.077   3.406   5.927
10608TIP3    H131781   3.991   3.371   5.896
10608TIP3    H231782   4.067   3.499   5.901
10609TIP3   OH231783   4.481   1.986   5.915
10609TIP3    H131784   4.528   1.925   5.855
10609TIP3    H231785   4.554   2.041   5.949
10610TIP3   OH231786   4.991   2.169   6.015
10610TIP3    H131787   5.057   2.127   6.073
10610TIP3    H231788   5.009   2.263   6.038
10611TIP3   OH231789   4.850   3.587   5.512
10611TIP3    H131790   4.938   3.610   5.476
10611TIP3    H231791   4.828   3.513   5.452
10612TIP3   OH231792   5.571   3.710   5.607
10612TIP3    H131793   5.564   3.612   5.597
10612TIP3    H231794   5.523   3.739   5.526
10613TIP3   OH231795   4.781   2.239   7.392
10613TIP3    H131796   4.745   2.170   7.450
10613TIP3    H231797   4.875   2.239   7.421
10614TIP3   OH231798   5.032   2.237   7.512
10614TIP3    H131799   5.117   2.215   7.470
10614TIP3    H231800   5.022   2.165   7.578
10615TIP3   OH231801   4.155   3.426   5.566
10615TIP3    H131802   4.157   3.443   5.661
10615TIP3    H231803   4.241   3.382   5.550
10616TIP3   OH231804   5.858   2.301   7.300
10616TIP3    H131805   5.875   2.270   7.391
10616TIP3    H231806   5.947   2.295   7.259
10617TIP3   OH231807   5.791   3.852   6.794
10617TIP3    H131808   5.714   3.822   6.742
10617TIP3    H231809   5.772   3.947   6.799
10618TIP3   OH231810   7.063   3.227   5.555
10618TIP3    H131811   7.031   3.317   5.534
10618TIP3    H231812   6.987   3.175   5.523
10619TIP3   OH231813   7.068   3.224   5.938
10619TIP3    H131814   7.094   3.197   6.027
10619TIP3    H231815   7.020   3.146   5.907
10620TIP3   OH231816   6.358   3.121   6.305
10620TIP3    H131817   6.391   3.051   6.364
10620TIP3    H231818   6.437   3.177   6.298
10621TIP3   OH231819   7.308   3.531   5.622
10621TIP3    H131820   7.284   3.462   5.686
10621TIP3    H231821   7.334   3.604   5.680
10622TIP3   OH231822   6.324   3.530   6.024
10622TIP3    H131823   6.321   3.432   6.023
10622TIP3    H231824   6.417   3.543   6.046
10623TIP3   OH231825   6.040   2.733   5.809
10623TIP3    H131826   5.989   2.814   5.828
10623TIP3    H231827   5.970   2.678   5.771
10624TIP3   OH231828   6.095   3.020   5.992
10624TIP3    H131829   6.144   2.941   6.024
10624TIP3    H231830   6.153   3.053   5.922
10625TIP3   OH231831   6.958   3.994   5.640
10625TIP3    H131832   7.001   3.920   5.592
10625TIP3    H231833   6.942   3.954   5.726
10626TIP3   OH231834   6.857   3.452   5.982
10626TIP3    H131835   6.903   3.378   5.939
10626TIP3    H231836   6.935   3.502   6.013
10627TIP3   OH231837   7.874   2.769   5.984
10627TIP3    H131838   7.904   2.854   6.023
10627TIP3    H231839   7.900   2.781   5.891
10628TIP3   OH231840   7.273   2.950   6.019
10628TIP3    H131841   7.315   2.864   6.036
10628TIP3    H231842   7.239   2.936   5.928
10629TIP3   OH231843   6.615   2.611   5.982
10629TIP3    H131844   6.592   2.684   5.921
10629TIP3    H231845   6.566   2.537   5.940
10630TIP3   OH231846   7.306   2.705   5.605
10630TIP3    H131847   7.377   2.690   5.671
10630TIP3    H231848   7.359   2.739   5.530
10631TIP3   OH231849   6.243   2.813   6.092
10631TIP3    H131850   6.326   2.793   6.140
10631TIP3    H231851   6.256   2.756   6.013
10632TIP3   OH231852   6.682   3.010   5.887
10632TIP3    H131853   6.776   2.986   5.899
10632TIP3    H231854   6.644   2.926   5.854
10633TIP3   OH231855   7.949   2.980   6.157
10633TIP3    H131856   7.864   3.024   6.136
10633TIP3    H231857   7.967   3.016   6.245
10634TIP3   OH231858   6.607   2.597   6.421
10634TIP3    H131859   6.548   2.633   6.352
10634TIP3    H231860   6.552   2.614   6.501
10635TIP3   OH231861   6.955   3.448   5.423
10635TIP3    H131862   6.908   3.429   5.340
10635TIP3    H231863   6.908   3.529   5.452
10636TIP3   OH231864   6.713   3.371   6.217
10636TIP3    H131865   6.648   3.436   6.253
10636TIP3    H231866   6.761   3.428   6.154
10637TIP3   OH231867   7.511   2.709   5.781
10637TIP3    H131868   7.499   2.660   5.864
10637TIP3    H231869   7.563   2.786   5.810
10638TIP3   OH231870   6.480   2.709   6.202
10638TIP3    H131871   6.542   2.782   6.226
10638TIP3    H231872   6.529   2.670   6.126
10639TIP3   OH231873   6.518   3.551   6.291
10639TIP3    H131874   6.523   3.647   6.277
10639TIP3    H231875   6.448   3.547   6.359
10640TIP3   OH231876   5.933   3.256   5.547
10640TIP3    H131877   5.891   3.284   5.463
10640TIP3    H231878   5.965   3.341   5.583
10641TIP3   OH231879   7.377   3.774   5.788
10641TIP3    H131880   7.288   3.763   5.830
10641TIP3    H231881   7.364   3.860   5.743
10642TIP3   OH231882   7.667   2.671   6.153
10642TIP3    H131883   7.579   2.694   6.118
10642TIP3    H231884   7.727   2.703   6.083
10643TIP3   OH231885   6.961   2.311   6.138
10643TIP3    H131886   6.942   2.216   6.152
10643TIP3    H231887   6.883   2.351   6.183
10644TIP3   OH231888   7.076   3.817   5.461
10644TIP3    H131889   7.124   3.734   5.443
10644TIP3    H231890   7.138   3.881   5.420
10645TIP3   OH231891   7.220   3.602   5.371
10645TIP3    H131892   7.172   3.524   5.340
10645TIP3    H231893   7.259   3.568   5.454
10646TIP3   OH231894   7.601   3.680   6.133
10646TIP3    H131895   7.585   3.604   6.072
10646TIP3    H231896   7.579   3.756   6.075
10647TIP3   OH231897   6.893   3.077   5.392
10647TIP3    H131898   6.812   3.129   5.372
10647TIP3    H231899   6.936   3.073   5.305
10648TIP3   OH231900   6.850   2.864   5.103
10648TIP3    H131901   6.917   2.916   5.149
10648TIP3    H231902   6.907   2.800   5.055
10649TIP3   OH231903   7.794   3.324   5.981
10649TIP3    H131904   7.709   3.373   5.982
10649TIP3    H231905   7.825   3.346   5.890
10650TIP3   OH231906   7.241   3.162   5.358
10650TIP3    H131907   7.186   3.185   5.436
10650TIP3    H231908   7.325   3.137   5.403
10651TIP3   OH231909   7.473   3.199   6.274
10651TIP3    H131910   7.465   3.288   6.313
10651TIP3    H231911   7.385   3.192   6.230
10652TIP3   OH231912   6.472   3.156   5.778
10652TIP3    H131913   6.430   3.098   5.711
10652TIP3    H231914   6.548   3.102   5.808
10653TIP3   OH231915   6.608   3.580   5.920
10653TIP3    H131916   6.583   3.530   5.841
10653TIP3    H231917   6.693   3.538   5.945
10654TIP3   OH231918   6.609   3.129   6.134
10654TIP3    H131919   6.640   3.107   6.044
10654TIP3    H231920   6.651   3.216   6.150
10655TIP3   OH231921   7.137   3.766   5.909
10655TIP3    H131922   7.120   3.844   5.965
10655TIP3    H231923   7.114   3.692   5.969
10656TIP3   OH231924   7.078   3.018   5.187
10656TIP3    H131925   7.136   3.080   5.236
10656TIP3    H231926   7.105   3.039   5.094
10657TIP3   OH231927   6.502   3.231   6.568
10657TIP3    H131928   6.508   3.323   6.601
10657TIP3    H231929   6.406   3.216   6.576
10658TIP3   OH231930   6.827   3.692   5.460
10658TIP3    H131931   6.905   3.748   5.474
10658TIP3    H231932   6.763   3.753   5.421
10659TIP3   OH231933   6.522   3.886   6.549
10659TIP3    H131934   6.516   3.851   6.458
10659TIP3    H231935   6.449   3.840   6.595
10660TIP3   OH231936   7.595   2.256   5.238
10660TIP3    H131937   7.513   2.278   5.286
10660TIP3    H231938   7.610   2.338   5.187
10661TIP3   OH231939   6.339   3.000   5.581
10661TIP3    H131940   6.269   3.043   5.527
10661TIP3    H231941   6.301   2.912   5.595
10662TIP3   OH231942   7.395   3.624   4.784
10662TIP3    H131943   7.404   3.721   4.770
10662TIP3    H231944   7.488   3.594   4.772
10663TIP3   OH231945   6.119   3.384   6.491
10663TIP3    H131946   6.051   3.365   6.423
10663TIP3    H231947   6.156   3.296   6.510
10664TIP3   OH231948   5.975   3.578   6.120
10664TIP3    H131949   6.070   3.567   6.110
10664TIP3    H231950   5.969   3.654   6.180
10665TIP3   OH231951   7.836   4.032   6.181
10665TIP3    H131952   7.835   3.935   6.192
10665TIP3    H231953   7.753   4.056   6.226
10666TIP3   OH231954   6.709   3.944   5.263
10666TIP3    H131955   6.657   3.924   5.183
10666TIP3    H231956   6.671   4.028   5.292
10667TIP3   OH231957   6.144   3.790   5.652
10667TIP3    H131958   6.190   3.782   5.738
10667TIP3    H231959   6.093   3.707   5.650
10668TIP3   OH231960   6.906   3.846   4.903
10668TIP3    H131961   6.964   3.775   4.868
10668TIP3    H231962   6.939   3.855   4.995
10669TIP3   OH231963   6.958   3.892   5.173
10669TIP3    H131964   6.869   3.903   5.212
10669TIP3    H231965   7.005   3.849   5.246
10670TIP3   OH231966   7.710   3.161   6.453
10670TIP3    H131967   7.635   3.165   6.391
10670TIP3    H231968   7.734   3.066   6.447
10671TIP3   OH231969   6.320   3.571   6.479
10671TIP3    H131970   6.373   3.551   6.559
10671TIP3    H231971   6.248   3.505   6.486
10672TIP3   OH231972   6.724   2.390   6.265
10672TIP3    H131973   6.636   2.358   6.235
10672TIP3    H231974   6.695   2.470   6.313
10673TIP3   OH231975   7.256   2.506   6.459
10673TIP3    H131976   7.324   2.473   6.521
10673TIP3    H231977   7.172   2.485   6.504
10674TIP3   OH231978   7.498   2.936   6.379
10674TIP3    H131979   7.443   2.932   6.460
10674TIP3    H231980   7.469   3.019   6.338
10675TIP3   OH231981   7.158   3.063   4.934
10675TIP3    H131982   7.120   3.039   4.848
10675TIP3    H231983   7.242   3.106   4.907
10676TIP3   OH231984   6.868   2.436   5.236
10676TIP3    H131985   6.831   2.432   5.326
10676TIP3    H231986   6.827   2.356   5.198
10677TIP3   OH231987   6.657   2.907   6.282
10677TIP3    H131988   6.604   2.926   6.362
10677TIP3    H231989   6.641   2.988   6.229
10678TIP3   OH231990   6.538   2.792   5.796
10678TIP3    H131991   6.446   2.766   5.815
10678TIP3    H231992   6.549   2.751   5.707
10679TIP3   OH231993   7.030   2.878   5.527
10679TIP3    H131994   6.979   2.949   5.482
10679TIP3    H231995   7.084   2.843   5.453
10680TIP3   OH231996   7.209   3.154   6.608
10680TIP3    H131997   7.180   3.083   6.670
10680TIP3    H231998   7.303   3.158   6.629
10681TIP3   OH231999   7.185   2.904   5.762
10681TIP3    H132000   7.122   2.932   5.692
10681TIP3    H232001   7.221   2.825   5.717
10682TIP3   OH232002   6.477   2.934   6.488
10682TIP3    H132003   6.494   3.002   6.554
10682TIP3    H232004   6.462   2.855   6.542
10683TIP3   OH232005   6.525   2.414   5.200
10683TIP3    H132006   6.513   2.412   5.297
10683TIP3    H232007   6.447   2.465   5.173
10684TIP3   OH232008   6.068   2.455   6.069
10684TIP3    H132009   6.144   2.486   6.122
10684TIP3    H232010   6.108   2.421   5.988
10685TIP3   OH232011   6.034   2.436   5.591
10685TIP3    H132012   6.079   2.472   5.512
10685TIP3    H232013   5.972   2.509   5.609
10686TIP3   OH232014   7.208   3.149   6.187
10686TIP3    H132015   7.234   3.077   6.124
10686TIP3    H232016   7.167   3.095   6.258
10687TIP3   OH232017   6.872   2.611   5.856
10687TIP3    H132018   6.787   2.611   5.906
10687TIP3    H232019   6.937   2.609   5.928
10688TIP3   OH232020   6.300   2.671   5.863
10688TIP3    H132021   6.206   2.681   5.835
10688TIP3    H232022   6.319   2.578   5.842
10689TIP3   OH232023   6.566   2.665   5.555
10689TIP3    H132024   6.659   2.680   5.530
10689TIP3    H232025   6.517   2.686   5.472
10690TIP3   OH232026   7.358   2.688   6.062
10690TIP3    H132027   7.322   2.703   6.153
10690TIP3    H232028   7.291   2.628   6.026
10691TIP3   OH232029   6.416   2.700   5.332
10691TIP3    H132030   6.344   2.655   5.285
10691TIP3    H232031   6.466   2.737   5.256
10692TIP3   OH232032   7.533   4.376   6.280
10692TIP3    H132033   7.527   4.400   6.186
10692TIP3    H232034   7.612   4.425   6.308
10693TIP3   OH232035   6.483   3.484   6.697
10693TIP3    H132036   6.563   3.519   6.740
10693TIP3    H232037   6.420   3.487   6.772
10694TIP3   OH232038   6.947   2.943   5.955
10694TIP3    H132039   7.020   2.903   5.906
10694TIP3    H232040   6.952   2.897   6.041
10695TIP3   OH232041   6.471   2.428   5.838
10695TIP3    H132042   6.432   2.352   5.887
10695TIP3    H232043   6.509   2.384   5.760
10696TIP3   OH232044   6.924   2.841   6.243
10696TIP3    H132045   6.833   2.875   6.255
10696TIP3    H232046   6.979   2.906   6.292
10697TIP3   OH232047   6.662   3.228   5.339
10697TIP3    H132048   6.590   3.162   5.327
10697TIP3    H232049   6.641   3.262   5.429
10698TIP3   OH232050   7.559   3.465   5.966
10698TIP3    H132051   7.581   3.516   5.886
10698TIP3    H232052   7.475   3.421   5.940
10699TIP3   OH232053   7.119   2.537   5.210
10699TIP3    H132054   7.023   2.517   5.215
10699TIP3    H232055   7.124   2.632   5.230
10700TIP3   OH232056   7.187   2.791   5.309
10700TIP3    H132057   7.283   2.797   5.322
10700TIP3    H232058   7.167   2.871   5.256
10701TIP3   OH232059   6.354   3.253   6.012
10701TIP3    H132060   6.393   3.223   5.927
10701TIP3    H232061   6.397   3.194   6.075
10702TIP3   OH232062   6.807   3.379   5.163
10702TIP3    H132063   6.758   3.464   5.166
10702TIP3    H232064   6.752   3.324   5.223
10703TIP3   OH232065   6.236   3.168   6.628
10703TIP3    H132066   6.247   3.153   6.724
10703TIP3    H232067   6.164   3.106   6.607
10704TIP3   OH232068   6.963   3.283   6.656
10704TIP3    H132069   6.896   3.235   6.605
10704TIP3    H232070   7.045   3.249   6.616
10705TIP3   OH232071   7.230   3.807   6.233
10705TIP3    H132072   7.143   3.766   6.256
10705TIP3    H232073   7.243   3.864   6.312
10706TIP3   OH232074   7.628   2.882   5.140
10706TIP3    H132075   7.566   2.839   5.077
10706TIP3    H232076   7.625   2.972   5.101
10707TIP3   OH232077   7.851   3.744   6.218
10707TIP3    H132078   7.754   3.734   6.208
10707TIP3    H232079   7.879   3.711   6.130
10708TIP3   OH232080   7.337   3.699   5.052
10708TIP3    H132081   7.303   3.633   5.114
10708TIP3    H232082   7.343   3.650   4.969
10709TIP3   OH232083   7.332   3.326   5.884
10709TIP3    H132084   7.237   3.307   5.900
10709TIP3    H232085   7.359   3.245   5.838
10710TIP3   OH232086   6.455   3.555   5.632
10710TIP3    H132087   6.448   3.637   5.581
10710TIP3    H232088   6.363   3.538   5.655
10711TIP3   OH232089   6.022   2.859   5.347
10711TIP3    H132090   6.065   2.944   5.369
10711TIP3    H232091   5.944   2.862   5.407
10712TIP3   OH232092   6.590   3.319   5.581
10712TIP3    H132093   6.555   3.408   5.599
10712TIP3    H232094   6.555   3.269   5.657
10713TIP3   OH232095   6.725   3.892   6.111
10713TIP3    H132096   6.780   3.962   6.073
10713TIP3    H232097   6.789   3.843   6.165
10714TIP3   OH232098   6.371   3.797   5.489
10714TIP3    H132099   6.287   3.804   5.538
10714TIP3    H232100   6.403   3.890   5.493
10715TIP3   OH232101   7.105   3.537   6.067
10715TIP3    H132102   7.075   3.565   6.157
10715TIP3    H232103   7.182   3.482   6.087
10716TIP3   OH232104   7.089   3.432   4.950
10716TIP3    H132105   7.142   3.405   5.028
10716TIP3    H232106   7.002   3.399   4.975
10717TIP3   OH232107   7.361   4.063   6.119
10717TIP3    H132108   7.283   4.003   6.117
10717TIP3    H232109   7.340   4.124   6.045
10718TIP3   OH232110   7.427   3.901   4.768
10718TIP3    H132111   7.461   3.976   4.718
10718TIP3    H232112   7.346   3.942   4.805
10719TIP3   OH232113   6.440   2.678   6.634
10719TIP3    H132114   6.343   2.684   6.642
10719TIP3    H232115   6.461   2.614   6.703
10720TIP3   OH232116   7.250   3.360   5.162
10720TIP3    H132117   7.238   3.296   5.235
10720TIP3    H232118   7.348   3.356   5.153
10721TIP3   OH232119   6.165   3.761   6.266
10721TIP3    H132120   6.221   3.687   6.295
10721TIP3    H232121   6.199   3.832   6.322
10722TIP3   OH232122   6.452   3.407   4.951
10722TIP3    H132123   6.464   3.314   4.924
10722TIP3    H232124   6.432   3.397   5.046
10723TIP3   OH232125   6.396   3.413   5.222
10723TIP3    H132126   6.468   3.384   5.280
10723TIP3    H232127   6.401   3.511   5.231
10724TIP3   OH232128   6.131   3.105   5.428
10724TIP3    H132129   6.064   3.149   5.484
10724TIP3    H232130   6.143   3.173   5.359
10725TIP3   OH232131   7.285   2.745   6.324
10725TIP3    H132132   7.370   2.776   6.357
10725TIP3    H232133   7.270   2.662   6.375
10726TIP3   OH232134   7.166   2.488   5.488
10726TIP3    H132135   7.150   2.508   5.394
10726TIP3    H232136   7.203   2.573   5.521
10727TIP3   OH232137   6.665   3.609   5.170
10727TIP3    H132138   6.578   3.632   5.208
10727TIP3    H232139   6.677   3.683   5.109
10728TIP3   OH232140   6.852   2.674   5.587
10728TIP3    H132141   6.915   2.747   5.570
10728TIP3    H232142   6.857   2.666   5.684
10729TIP3   OH232143   7.121   2.988   6.389
10729TIP3    H132144   7.146   3.040   6.468
10729TIP3    H232145   7.173   2.907   6.397
10730TIP3   OH232146   6.993   2.396   5.688
10730TIP3    H132147   6.980   2.477   5.740
10730TIP3    H232148   7.056   2.428   5.619
10731TIP3   OH232149   6.412   3.686   5.241
10731TIP3    H132150   6.380   3.755   5.180
10731TIP3    H232151   6.394   3.727   5.328
10732TIP3   OH232152   6.508   2.400   5.477
10732TIP3    H132153   6.505   2.490   5.515
10732TIP3    H232154   6.604   2.382   5.484
10733TIP3   OH232155   7.765   2.893   6.380
10733TIP3    H132156   7.667   2.892   6.385
10733TIP3    H232157   7.776   2.849   6.294
10734TIP3   OH232158   7.413   3.083   5.760
10734TIP3    H132159   7.335   3.025   5.772
10734TIP3    H232160   7.483   3.035   5.809
10735TIP3   OH232161   6.127   3.309   5.230
10735TIP3    H132162   6.198   3.376   5.240
10735TIP3    H232163   6.170   3.251   5.163
10736TIP3   OH232164   6.068   2.589   5.366
10736TIP3    H132165   6.068   2.687   5.364
10736TIP3    H232166   5.987   2.568   5.318
10737TIP3   OH232167   7.382   4.046   5.710
10737TIP3    H132168   7.339   4.092   5.635
10737TIP3    H232169   7.477   4.063   5.687
10738TIP3   OH232170   6.460   2.309   6.235
10738TIP3    H132171   6.428   2.276   6.148
10738TIP3    H232172   6.448   2.231   6.293
10739TIP3   OH232173   5.994   3.530   5.614
10739TIP3    H132174   5.929   3.558   5.680
10739TIP3    H232175   5.959   3.572   5.533
10740TIP3   OH232176   6.155   4.075   6.690
10740TIP3    H132177   6.243   4.074   6.734
10740TIP3    H232178   6.136   3.979   6.687
10741TIP3   OH232179   6.636   4.033   6.743
10741TIP3    H132180   6.730   4.010   6.732
10741TIP3    H232181   6.597   3.982   6.668
10742TIP3   OH232182   6.616   3.608   4.861
10742TIP3    H132183   6.559   3.537   4.899
10742TIP3    H232184   6.691   3.555   4.829
10743TIP3   OH232185   7.274   3.948   6.468
10743TIP3    H132186   7.267   3.876   6.534
10743TIP3    H232187   7.350   3.998   6.502
10744TIP3   OH232188   7.053   3.649   4.777
10744TIP3    H132189   7.087   3.580   4.837
10744TIP3    H232190   7.111   3.641   4.699
10745TIP3   OH232191   6.283   3.477   6.892
10745TIP3    H132192   6.299   3.381   6.894
10745TIP3    H232193   6.197   3.481   6.845
10746TIP3   OH232194   6.263   3.125   5.085
10746TIP3    H132195   6.318   3.093   5.158
10746TIP3    H232196   6.330   3.130   5.014
10747TIP3   OH232197   6.887   3.570   6.643
10747TIP3    H132198   6.907   3.594   6.550
10747TIP3    H232199   6.915   3.476   6.642
10748TIP3   OH232200   6.780   3.328   4.893
10748TIP3    H132201   6.779   3.338   4.990
10748TIP3    H232202   6.780   3.230   4.885
10749TIP3   OH232203   7.385   3.575   6.279
10749TIP3    H132204   7.457   3.615   6.229
10749TIP3    H232205   7.315   3.642   6.266
10750TIP3   OH232206   6.400   3.217   6.878
10750TIP3    H132207   6.477   3.170   6.842
10750TIP3    H232208   6.433   3.247   6.965
10751TIP3   OH232209   6.468   3.033   5.305
10751TIP3    H132210   6.439   2.992   5.388
10751TIP3    H232211   6.506   2.957   5.256
10752TIP3   OH232212   6.742   3.097   6.540
10752TIP3    H132213   6.661   3.151   6.538
10752TIP3    H232214   6.790   3.131   6.461
10753TIP3   OH232215   6.571   2.828   5.145
10753TIP3    H132216   6.546   2.834   5.050
10753TIP3    H232217   6.668   2.828   5.138
10754TIP3   OH232218   7.285   3.498   6.687
10754TIP3    H132219   7.296   3.458   6.601
10754TIP3    H232220   7.252   3.425   6.741
10755TIP3   OH232221   7.391   3.155   4.812
10755TIP3    H132222   7.371   3.110   4.727
10755TIP3    H232223   7.356   3.245   4.790
10756TIP3   OH232224   6.868   2.886   6.654
10756TIP3    H132225   6.863   2.807   6.596
10756TIP3    H232226   6.822   2.954   6.600
10757TIP3   OH232227   6.865   2.672   6.469
10757TIP3    H132228   6.892   2.714   6.384
10757TIP3    H232229   6.771   2.649   6.450
10758TIP3   OH232230   6.888   3.207   6.344
10758TIP3    H132231   6.969   3.224   6.295
10758TIP3    H232232   6.827   3.273   6.303
10759TIP3   OH232233   7.482   3.167   6.718
10759TIP3    H132234   7.520   3.078   6.729
10759TIP3    H232235   7.540   3.205   6.651
10760TIP3   OH232236   7.514   3.434   6.469
10760TIP3    H132237   7.452   3.486   6.413
10760TIP3    H232238   7.598   3.453   6.422
10761TIP3   OH232239   6.745   2.987   6.891
10761TIP3    H132240   6.675   2.919   6.904
10761TIP3    H232241   6.768   2.973   6.798
10762TIP3   OH232242   6.996   2.434   6.539
10762TIP3    H132243   6.945   2.514   6.514
10762TIP3    H232244   6.929   2.364   6.526
10763TIP3   OH232245   7.121   2.936   6.750
10763TIP3    H132246   7.096   2.922   6.843
10763TIP3    H232247   7.035   2.914   6.707
10764TIP3   OH232248   7.362   2.895   6.609
10764TIP3    H132249   7.286   2.891   6.670
10764TIP3    H232250   7.436   2.862   6.664
10765TIP3   OH232251   7.592   2.837   6.752
10765TIP3    H132252   7.605   2.740   6.761
10765TIP3    H232253   7.594   2.867   6.845
10766TIP3   OH232254   6.578   2.771   6.939
10766TIP3    H132255   6.577   2.680   6.903
10766TIP3    H232256   6.603   2.752   7.032
10767TIP3   OH232257   7.092   2.444   6.795
10767TIP3    H132258   7.154   2.369   6.786
10767TIP3    H232259   7.050   2.441   6.706
10768TIP3   OH232260   7.156   2.659   6.950
10768TIP3    H132261   7.138   2.586   6.887
10768TIP3    H232262   7.076   2.715   6.940
10769TIP3   OH232263   6.380   3.892   5.054
10769TIP3    H132264   6.475   3.880   5.032
10769TIP3    H232265   6.351   3.940   4.975
10770TIP3   OH232266   5.857   3.270   5.265
10770TIP3    H132267   5.952   3.290   5.251
10770TIP3    H232268   5.850   3.181   5.225
10771TIP3   OH232269   5.775   3.882   5.684
10771TIP3    H132270   5.709   3.820   5.644
10771TIP3    H232271   5.819   3.822   5.748
10772TIP3   OH232272   5.908   3.728   5.870
10772TIP3    H132273   5.896   3.657   5.936
10772TIP3    H232274   5.962   3.790   5.923
10773TIP3   OH232275   7.639   4.131   5.670
10773TIP3    H132276   7.663   4.161   5.760
10773TIP3    H232277   7.704   4.176   5.615
10774TIP3   OH232278   7.665   4.151   5.952
10774TIP3    H132279   7.617   4.065   5.948
10774TIP3    H232280   7.739   4.125   6.009
10775TIP3   OH232281   7.728   3.816   6.543
10775TIP3    H132282   7.647   3.832   6.596
10775TIP3    H232283   7.763   3.907   6.534
10776TIP3   OH232284   7.529   3.341   5.144
10776TIP3    H132285   7.596   3.406   5.114
10776TIP3    H232286   7.573   3.303   5.224
10777TIP3   OH232287   7.656   3.210   5.350
10777TIP3    H132288   7.588   3.167   5.406
10777TIP3    H232289   7.718   3.246   5.416
10778TIP3   OH232290   7.714   3.605   5.782
10778TIP3    H132291   7.763   3.535   5.735
10778TIP3    H232292   7.704   3.673   5.714
10779TIP3   OH232293   7.539   3.902   5.975
10779TIP3    H132294   7.466   3.944   6.025
10779TIP3    H232295   7.490   3.856   5.903
10780TIP3   OH232296   7.593   3.118   4.992
10780TIP3    H132297   7.522   3.118   4.925
10780TIP3    H232298   7.563   3.193   5.048
10781TIP3   OH232299   7.464   2.791   4.945
10781TIP3    H132300   7.417   2.823   4.867
10781TIP3    H232301   7.442   2.695   4.941
10782TIP3   OH232302   7.469   3.068   5.492
10782TIP3    H132303   7.474   2.971   5.482
10782TIP3    H232304   7.453   3.079   5.588
10783TIP3   OH232305   6.093   3.137   6.243
10783TIP3    H132306   6.090   3.105   6.150
10783TIP3    H232307   6.190   3.140   6.258
10784TIP3   OH232308   7.756   3.494   6.351
10784TIP3    H132309   7.825   3.424   6.339
10784TIP3    H232310   7.769   3.550   6.273
10785TIP3   OH232311   7.937   3.297   6.385
10785TIP3    H132312   7.863   3.241   6.416
10785TIP3    H232313   8.011   3.232   6.391
10786TIP3   OH232314   7.405   2.526   4.933
10786TIP3    H132315   7.476   2.489   4.990
10786TIP3    H232316   7.329   2.467   4.950
10787TIP3   OH232317   7.467   2.785   5.386
10787TIP3    H132318   7.506   2.695   5.401
10787TIP3    H232319   7.524   2.815   5.313
10788TIP3   OH232320   7.625   2.953   5.885
10788TIP3    H132321   7.710   2.978   5.842
10788TIP3    H232322   7.641   2.990   5.973
10789TIP3   OH232323   7.699   3.102   6.115
10789TIP3    H132324   7.619   3.136   6.158
10789TIP3    H232325   7.731   3.182   6.067
10790TIP3   OH232326   6.313   2.828   6.925
10790TIP3    H132327   6.410   2.819   6.919
10790TIP3    H232328   6.288   2.739   6.957
10791TIP3   OH232329   8.179   2.695   6.656
10791TIP3    H132330   8.195   2.610   6.609
10791TIP3    H232331   8.126   2.744   6.589
10792TIP3   OH232332   7.574   2.534   5.425
10792TIP3    H132333   7.621   2.517   5.509
10792TIP3    H232334   7.512   2.458   5.423
10793TIP3   OH232335   6.275   2.518   6.244
10793TIP3    H132336   6.337   2.442   6.252
10793TIP3    H232337   6.338   2.592   6.236
10794TIP3   OH232338   6.079   2.791   6.321
10794TIP3    H132339   6.124   2.784   6.235
10794TIP3    H232340   6.104   2.879   6.349
10795TIP3   OH232341   8.008   2.821   6.484
10795TIP3    H132342   7.923   2.869   6.479
10795TIP3    H232343   7.989   2.750   6.420
10796TIP3   OH232344   7.653   2.463   5.061
10796TIP3    H132345   7.690   2.394   5.002
10796TIP3    H232346   7.719   2.534   5.055
10797TIP3   OH232347   6.061   2.295   5.821
10797TIP3    H132348   5.969   2.287   5.852
10797TIP3    H232349   6.052   2.354   5.743
10798TIP3   OH232350   7.220   4.002   5.324
10798TIP3    H132351   7.272   3.990   5.242
10798TIP3    H232352   7.274   4.065   5.374
10799TIP3   OH232353   6.283   2.376   6.635
10799TIP3    H132354   6.228   2.370   6.715
10799TIP3    H232355   6.218   2.415   6.572
10800TIP3   OH232356   6.315   3.800   6.717
10800TIP3    H132357   6.224   3.775   6.695
10800TIP3    H232358   6.320   3.781   6.811
10801TIP3   OH232359   6.500   3.832   6.260
10801TIP3    H132360   6.456   3.911   6.224
10801TIP3    H232361   6.587   3.842   6.216
10802TIP3   OH232362   6.930   4.116   6.402
10802TIP3    H132363   6.975   4.074   6.476
10802TIP3    H232364   7.005   4.138   6.343
10803TIP3   OH232365   7.127   4.235   6.246
10803TIP3    H132366   7.198   4.178   6.214
10803TIP3    H232367   7.175   4.291   6.311
10804TIP3   OH232368   7.914   2.591   6.355
10804TIP3    H132369   7.826   2.578   6.317
10804TIP3    H232370   7.951   2.500   6.345
10805TIP3   OH232371   6.173   4.095   6.277
10805TIP3    H132372   6.082   4.129   6.259
10805TIP3    H232373   6.187   4.129   6.366
10806TIP3   OH232374   6.413   4.074   6.142
10806TIP3    H132375   6.325   4.084   6.185
10806TIP3    H232376   6.393   4.102   6.051
10807TIP3   OH232377   6.842   4.103   5.933
10807TIP3    H132378   6.765   4.117   5.876
10807TIP3    H232379   6.848   4.189   5.980
10808TIP3   OH232380   7.107   4.040   5.987
10808TIP3    H132381   7.012   4.054   5.969
10808TIP3    H232382   7.146   4.120   5.949
10809TIP3   OH232383   7.319   4.233   5.904
10809TIP3    H132384   7.301   4.314   5.853
10809TIP3    H232385   7.340   4.169   5.833
10810TIP3   OH232386   6.086   3.885   6.027
10810TIP3    H132387   6.113   3.858   6.117
10810TIP3    H232388   6.158   3.842   5.976
10811TIP3   OH232389   6.282   3.760   5.885
10811TIP3    H132390   6.295   3.674   5.932
10811TIP3    H232391   6.374   3.793   5.882
10812TIP3   OH232392   6.552   3.852   5.891
10812TIP3    H132393   6.578   3.757   5.884
10812TIP3    H232394   6.600   3.873   5.974
10813TIP3   OH232395   7.127   2.510   5.983
10813TIP3    H132396   7.080   2.438   6.029
10813TIP3    H232397   7.194   2.462   5.932
10814TIP3   OH232398   7.642   2.393   5.881
10814TIP3    H132399   7.678   2.442   5.804
10814TIP3    H232400   7.546   2.407   5.870
10815TIP3   OH232401   7.738   2.487   5.643
10815TIP3    H132402   7.812   2.436   5.604
10815TIP3    H232403   7.771   2.579   5.627
10816TIP3   OH232404   6.370   2.217   5.988
10816TIP3    H132405   6.277   2.185   5.992
10816TIP3    H232406   6.417   2.131   5.983
10817TIP3   OH232407   6.161   2.089   5.640
10817TIP3    H132408   6.187   2.146   5.566
10817TIP3    H232409   6.131   2.154   5.707
10818TIP3   OH232410   6.819   2.245   5.870
10818TIP3    H132411   6.873   2.295   5.807
10818TIP3    H232412   6.837   2.290   5.953
10819TIP3   OH232413   7.360   2.396   5.851
10819TIP3    H132414   7.357   2.356   5.764
10819TIP3    H232415   7.348   2.318   5.910
10820TIP3   OH232416   7.391   2.321   5.418
10820TIP3    H132417   7.304   2.364   5.432
10820TIP3    H232418   7.376   2.235   5.462
10821TIP3   OH232419   5.873   3.662   5.413
10821TIP3    H132420   5.788   3.628   5.382
10821TIP3    H232421   5.863   3.756   5.388
10822TIP3   OH232422   6.276   2.244   5.400
10822TIP3    H132423   6.323   2.181   5.342
10822TIP3    H232424   6.350   2.298   5.435
10823TIP3   OH232425   6.784   2.424   5.499
10823TIP3    H132426   6.843   2.375   5.559
10823TIP3    H232427   6.808   2.516   5.524
10824TIP3   OH232428   6.646   3.843   4.997
10824TIP3    H132429   6.734   3.865   4.962
10824TIP3    H232430   6.623   3.768   4.937
10825TIP3   OH232431   7.369   3.966   5.093
10825TIP3    H132432   7.362   3.868   5.085
10825TIP3    H232433   7.320   3.995   5.014
10826TIP3   OH232434   6.578   2.499   6.886
10826TIP3    H132435   6.541   2.426   6.939
10826TIP3    H232436   6.672   2.496   6.913
10827TIP3   OH232437   6.832   2.499   7.005
10827TIP3    H132438   6.911   2.466   6.960
10827TIP3    H232439   6.817   2.428   7.072
10828TIP3   OH232440   5.951   3.684   5.053
10828TIP3    H132441   5.950   3.700   5.149
10828TIP3    H232442   6.038   3.640   5.040
10829TIP3   OH232443   7.648   2.566   6.770
10829TIP3    H132444   7.659   2.533   6.861
10829TIP3    H232445   7.740   2.560   6.735
10830TIP3   OH232446   7.587   4.106   6.282
10830TIP3    H132447   7.510   4.075   6.230
10830TIP3    H232448   7.568   4.202   6.286
10831TIP3   OH232449   8.153   3.374   5.793
10831TIP3    H132450   8.179   3.304   5.857
10831TIP3    H232451   8.233   3.428   5.793
10832TIP3   OH232452   8.125   3.789   5.514
10832TIP3    H132453   8.118   3.691   5.515
10832TIP3    H232454   8.221   3.799   5.514
10833TIP3   OH232455   7.833   2.989   5.296
10833TIP3    H132456   7.783   3.070   5.316
10833TIP3    H232457   7.764   2.934   5.256
10834TIP3   OH232458   7.894   3.276   5.479
10834TIP3    H132459   7.941   3.197   5.512
10834TIP3    H232460   7.947   3.301   5.403
10835TIP3   OH232461   8.760   4.208   5.107
10835TIP3    H132462   8.856   4.186   5.111
10835TIP3    H232463   8.741   4.220   5.200
10836TIP3   OH232464   8.658   3.700   5.476
10836TIP3    H132465   8.669   3.666   5.387
10836TIP3    H232466   8.738   3.754   5.490
10837TIP3   OH232467   8.380   2.869   5.484
10837TIP3    H132468   8.396   2.934   5.414
10837TIP3    H232469   8.347   2.794   5.432
10838TIP3   OH232470   8.040   3.069   5.577
10838TIP3    H132471   8.121   3.049   5.629
10838TIP3    H232472   8.057   3.014   5.498
10839TIP3   OH232473   8.464   3.271   5.371
10839TIP3    H132474   8.556   3.237   5.384
10839TIP3    H232475   8.421   3.187   5.340
10840TIP3   OH232476   8.405   2.862   5.917
10840TIP3    H132477   8.348   2.891   5.844
10840TIP3    H232478   8.347   2.882   5.993
10841TIP3   OH232479   8.514   3.625   5.709
10841TIP3    H132480   8.450   3.690   5.745
10841TIP3    H232481   8.555   3.677   5.637
10842TIP3   OH232482   8.266   2.970   5.703
10842TIP3    H132483   8.332   3.040   5.723
10842TIP3    H232484   8.310   2.928   5.624
10843TIP3   OH232485   8.339   3.822   5.797
10843TIP3    H132486   8.313   3.910   5.763
10843TIP3    H232487   8.260   3.803   5.852
10844TIP3   OH232488   7.730   3.513   5.033
10844TIP3    H132489   7.686   3.541   4.951
10844TIP3    H232490   7.761   3.598   5.070
10845TIP3   OH232491   8.259   3.416   5.261
10845TIP3    H132492   8.219   3.357   5.194
10845TIP3    H232493   8.334   3.362   5.294
10846TIP3   OH232494   8.394   3.832   5.408
10846TIP3    H132495   8.368   3.792   5.324
10846TIP3    H232496   8.476   3.786   5.431
10847TIP3   OH232497   8.402   3.386   5.618
10847TIP3    H132498   8.430   3.359   5.528
10847TIP3    H232499   8.445   3.473   5.631
10848TIP3   OH232500   8.540   3.937   5.951
10848TIP3    H132501   8.479   4.001   5.993
10848TIP3    H232502   8.476   3.885   5.898
10849TIP3   OH232503   8.296   3.506   6.044
10849TIP3    H132504   8.299   3.591   6.092
10849TIP3    H232505   8.204   3.478   6.061
10850TIP3   OH232506   8.641   3.996   4.968
10850TIP3    H132507   8.662   4.080   5.011
10850TIP3    H232508   8.568   4.018   4.910
10851TIP3   OH232509   8.335   4.106   6.030
10851TIP3    H132510   8.299   4.109   5.940
10851TIP3    H232511   8.255   4.085   6.084
10852TIP3   OH232512   8.135   3.256   5.066
10852TIP3    H132513   8.064   3.297   5.012
10852TIP3    H232514   8.098   3.170   5.085
10853TIP3   OH232515   7.915   3.643   5.977
10853TIP3    H132516   7.846   3.623   5.910
10853TIP3    H232517   7.951   3.555   5.999
10854TIP3   OH232518   7.769   3.836   5.604
10854TIP3    H132519   7.865   3.830   5.602
10854TIP3    H232520   7.756   3.912   5.663
10855TIP3   OH232521   8.723   4.056   5.787
10855TIP3    H132522   8.730   4.147   5.824
10855TIP3    H232523   8.656   4.017   5.847
10856TIP3   OH232524   8.507   4.201   4.749
10856TIP3    H132525   8.443   4.186   4.679
10856TIP3    H232526   8.476   4.286   4.786
10857TIP3   OH232527   7.940   4.046   5.137
10857TIP3    H132528   7.985   4.038   5.224
10857TIP3    H232529   7.888   3.964   5.136
10858TIP3   OH232530   8.758   4.141   4.649
10858TIP3    H132531   8.675   4.167   4.696
10858TIP3    H232532   8.784   4.063   4.701
10859TIP3   OH232533   8.121   3.823   5.961
10859TIP3    H132534   8.169   3.807   6.045
10859TIP3    H232535   8.046   3.760   5.968
10860TIP3   OH232536   8.504   2.630   5.778
10860TIP3    H132537   8.418   2.610   5.737
10860TIP3    H232538   8.491   2.722   5.805
10861TIP3   OH232539   8.443   3.168   5.771
10861TIP3    H132540   8.392   3.188   5.852
10861TIP3    H232541   8.426   3.248   5.717
10862TIP3   OH232542   8.335   3.050   5.277
10862TIP3    H132543   8.246   3.016   5.302
10862TIP3    H232544   8.347   3.006   5.190
10863TIP3   OH232545   8.260   3.191   5.981
10863TIP3    H132546   8.317   3.241   6.042
10863TIP3    H232547   8.250   3.107   6.029
10864TIP3   OH232548   8.305   2.625   4.673
10864TIP3    H132549   8.291   2.643   4.767
10864TIP3    H232550   8.249   2.693   4.633
10865TIP3   OH232551   7.863   2.710   5.558
10865TIP3    H132552   7.937   2.744   5.612
10865TIP3    H232553   7.905   2.678   5.478
10866TIP3   OH232554   7.830   2.693   5.077
10866TIP3    H132555   7.875   2.730   4.998
10866TIP3    H232556   7.767   2.766   5.096
10867TIP3   OH232557   8.096   2.930   5.346
10867TIP3    H132558   8.001   2.935   5.320
10867TIP3    H232559   8.119   2.836   5.332
10868TIP3   OH232560   8.373   2.927   5.031
10868TIP3    H132561   8.455   2.934   4.980
10868TIP3    H232562   8.306   2.943   4.960
10869TIP3   OH232563   8.212   2.954   4.820
10869TIP3    H132564   8.141   2.907   4.771
10869TIP3    H232565   8.265   2.987   4.745
10870TIP3   OH232566   8.282   3.749   6.187
10870TIP3    H132567   8.363   3.775   6.236
10870TIP3    H232568   8.219   3.745   6.261
10871TIP3   OH232569   8.257   2.685   5.319
10871TIP3    H132570   8.223   2.613   5.377
10871TIP3    H232571   8.302   2.633   5.252
10872TIP3   OH232572   8.713   3.094   5.786
10872TIP3    H132573   8.621   3.117   5.760
10872TIP3    H232574   8.760   3.178   5.776
10873TIP3   OH232575   8.422   3.516   4.824
10873TIP3    H132576   8.378   3.428   4.819
10873TIP3    H232577   8.431   3.529   4.921
10874TIP3   OH232578   8.819   3.774   5.853
10874TIP3    H132579   8.856   3.761   5.941
10874TIP3    H232580   8.799   3.869   5.853
10875TIP3   OH232581   8.156   3.517   5.501
10875TIP3    H132582   8.186   3.481   5.415
10875TIP3    H232583   8.188   3.450   5.563
10876TIP3   OH232584   8.567   3.637   4.626
10876TIP3    H132585   8.537   3.727   4.652
10876TIP3    H232586   8.533   3.584   4.702
10877TIP3   OH232587   8.032   3.433   6.119
10877TIP3    H132588   8.061   3.411   6.210
10877TIP3    H232589   7.969   3.362   6.099
10878TIP3   OH232590   8.765   3.547   6.134
10878TIP3    H132591   8.721   3.499   6.061
10878TIP3    H232592   8.855   3.510   6.132
10879TIP3   OH232593   8.251   3.813   5.125
10879TIP3    H132594   8.244   3.894   5.071
10879TIP3    H232595   8.159   3.792   5.140
10880TIP3   OH232596   7.817   3.115   4.834
10880TIP3    H132597   7.860   3.201   4.856
10880TIP3    H232598   7.739   3.118   4.893
10881TIP3   OH232599   8.403   3.581   5.090
10881TIP3    H132600   8.357   3.667   5.096
10881TIP3    H232601   8.352   3.526   5.152
10882TIP3   OH232602   8.520   4.152   5.596
10882TIP3    H132603   8.558   4.230   5.549
10882TIP3    H232604   8.596   4.120   5.646
10883TIP3   OH232605   8.169   4.053   4.978
10883TIP3    H132606   8.084   4.061   5.026
10883TIP3    H232607   8.201   4.146   4.982
10884TIP3   OH232608   8.232   2.939   6.120
10884TIP3    H132609   8.135   2.940   6.128
10884TIP3    H232610   8.257   2.876   6.190
10885TIP3   OH232611   7.961   4.016   5.752
10885TIP3    H132612   8.014   3.944   5.789
10885TIP3    H232613   7.984   4.089   5.811
10886TIP3   OH232614   8.240   3.671   4.438
10886TIP3    H132615   8.244   3.578   4.410
10886TIP3    H232616   8.226   3.660   4.535
10887TIP3   OH232617   8.198   3.666   4.707
10887TIP3    H132618   8.275   3.629   4.754
10887TIP3    H232619   8.203   3.762   4.728
10888TIP3   OH232620   7.927   3.361   4.914
10888TIP3    H132621   7.859   3.405   4.970
10888TIP3    H232622   7.939   3.430   4.846
10889TIP3   OH232623   8.460   3.886   4.665
10889TIP3    H132624   8.370   3.894   4.701
10889TIP3    H232625   8.469   3.972   4.622
10890TIP3   OH232626   8.203   3.942   4.730
10890TIP3    H132627   8.169   4.011   4.669
10890TIP3    H232628   8.185   3.983   4.817
10891TIP3   OH232629   8.312   2.663   4.955
10891TIP3    H132630   8.297   2.744   5.007
10891TIP3    H232631   8.396   2.685   4.911
10892TIP3   OH232632   7.926   3.564   4.716
10892TIP3    H132633   7.997   3.630   4.729
10892TIP3    H232634   7.969   3.508   4.648
10893TIP3   OH232635   7.866   2.846   4.853
10893TIP3    H132636   7.862   2.943   4.850
10893TIP3    H232637   7.788   2.820   4.802
10894TIP3   OH232638   8.236   2.569   5.723
10894TIP3    H132639   8.222   2.531   5.634
10894TIP3    H232640   8.235   2.489   5.780
10895TIP3   OH232641   7.791   3.787   5.101
10895TIP3    H132642   7.726   3.814   5.168
10895TIP3    H232643   7.754   3.828   5.020
10896TIP3   OH232644   7.951   4.333   6.179
10896TIP3    H132645   8.038   4.333   6.224
10896TIP3    H232646   7.932   4.238   6.176
10897TIP3   OH232647   8.425   4.290   6.219
10897TIP3    H132648   8.519   4.271   6.232
10897TIP3    H232649   8.403   4.227   6.148
10898TIP3   OH232650   8.435   3.844   4.345
10898TIP3    H132651   8.355   3.814   4.393
10898TIP3    H232652   8.482   3.757   4.345
10899TIP3   OH232653   8.081   3.731   6.376
10899TIP3    H132654   8.097   3.635   6.382
10899TIP3    H232655   7.996   3.735   6.327
10900TIP3   OH232656   8.067   3.382   4.569
10900TIP3    H132657   8.117   3.350   4.646
10900TIP3    H232658   8.138   3.386   4.502
10901TIP3   OH232659   8.702   3.823   6.148
10901TIP3    H132660   8.650   3.840   6.067
10901TIP3    H232661   8.717   3.726   6.145
10902TIP3   OH232662   8.547   3.587   4.366
10902TIP3    H132663   8.570   3.603   4.461
10902TIP3    H232664   8.478   3.521   4.376
10903TIP3   OH232665   8.213   3.461   6.356
10903TIP3    H132666   8.297   3.415   6.333
10903TIP3    H232667   8.233   3.493   6.446
10904TIP3   OH232668   8.264   3.285   4.788
10904TIP3    H132669   8.234   3.245   4.871
10904TIP3    H232670   8.307   3.210   4.743
10905TIP3   OH232671   8.504   3.327   6.042
10905TIP3    H132672   8.436   3.398   6.048
10905TIP3    H232673   8.565   3.367   5.976
10906TIP3   OH232674   8.372   3.077   4.631
10906TIP3    H132675   8.335   3.086   4.541
10906TIP3    H232676   8.464   3.054   4.608
10907TIP3   OH232677   8.664   3.137   6.160
10907TIP3    H132678   8.664   3.055   6.106
10907TIP3    H232679   8.604   3.194   6.107
10908TIP3   OH232680   8.667   2.917   5.986
10908TIP3    H132681   8.678   2.970   5.904
10908TIP3    H232682   8.580   2.876   5.968
10909TIP3   OH232683   8.661   3.459   5.871
10909TIP3    H132684   8.729   3.446   5.803
10909TIP3    H232685   8.602   3.523   5.825
10910TIP3   OH232686   8.431   3.286   6.325
10910TIP3    H132687   8.419   3.196   6.360
10910TIP3    H232688   8.503   3.274   6.261
10911TIP3   OH232689   8.369   3.036   6.422
10911TIP3    H132690   8.372   2.941   6.398
10911TIP3    H232691   8.414   3.032   6.510
10912TIP3   OH232692   8.172   4.146   4.540
10912TIP3    H132693   8.266   4.137   4.518
10912TIP3    H232694   8.142   4.197   4.463
10913TIP3   OH232695   7.654   3.528   4.750
10913TIP3    H132696   7.749   3.546   4.737
10913TIP3    H232697   7.646   3.438   4.712
10914TIP3   OH232698   7.572   4.139   5.170
10914TIP3    H132699   7.505   4.078   5.131
10914TIP3    H232700   7.615   4.079   5.235
10915TIP3   OH232701   7.705   3.985   5.357
10915TIP3    H132702   7.691   3.914   5.422
10915TIP3    H232703   7.756   4.048   5.410
10916TIP3   OH232704   7.889   3.394   5.730
10916TIP3    H132705   7.886   3.360   5.638
10916TIP3    H232706   7.986   3.395   5.745
10917TIP3   OH232707   8.099   3.077   6.400
10917TIP3    H132708   8.197   3.078   6.397
10917TIP3    H232709   8.084   2.993   6.448
10918TIP3   OH232710   8.062   2.780   5.738
10918TIP3    H132711   8.121   2.701   5.740
10918TIP3    H232712   8.129   2.851   5.731
10919TIP3   OH232713   7.870   3.049   5.804
10919TIP3    H132714   7.919   3.038   5.720
10919TIP3    H232715   7.905   3.133   5.836
10920TIP3   OH232716   7.856   2.551   5.306
10920TIP3    H132717   7.763   2.545   5.333
10920TIP3    H232718   7.850   2.610   5.228
10921TIP3   OH232719   8.075   2.642   6.125
10921TIP3    H132720   8.018   2.630   6.203
10921TIP3    H232721   8.011   2.674   6.059
10922TIP3   OH232722   8.115   4.064   6.194
10922TIP3    H132723   8.022   4.037   6.182
10922TIP3    H232724   8.131   4.045   6.287
10923TIP3   OH232725   8.295   4.092   5.744
10923TIP3    H132726   8.247   4.168   5.705
10923TIP3    H232727   8.381   4.106   5.699
10924TIP3   OH232728   8.725   4.320   5.885
10924TIP3    H132729   8.773   4.326   5.970
10924TIP3    H232730   8.774   4.383   5.829
10925TIP3   OH232731   8.864   4.491   5.707
10925TIP3    H132732   8.916   4.486   5.625
10925TIP3    H232733   8.913   4.557   5.758
10926TIP3   OH232734   7.970   4.351   5.769
10926TIP3    H132735   7.879   4.382   5.747
10926TIP3    H232736   7.983   4.395   5.854
10927TIP3   OH232737   8.204   4.325   5.627
10927TIP3    H132738   8.117   4.338   5.671
10927TIP3    H232739   8.185   4.358   5.537
10928TIP3   OH232740   8.603   4.363   5.428
10928TIP3    H132741   8.528   4.377   5.367
10928TIP3    H232742   8.615   4.453   5.464
10929TIP3   OH232743   8.854   4.262   5.403
10929TIP3    H132744   8.764   4.297   5.413
10929TIP3    H232745   8.908   4.335   5.434
10930TIP3   OH232746   7.883   4.144   5.513
10930TIP3    H132747   7.908   4.114   5.603
10930TIP3    H232748   7.954   4.099   5.461
10931TIP3   OH232749   8.077   4.016   5.371
10931TIP3    H132750   8.090   3.932   5.422
10931TIP3    H232751   8.168   4.051   5.368
10932TIP3   OH232752   8.344   4.108   5.376
10932TIP3    H132753   8.371   4.014   5.368
10932TIP3    H232754   8.392   4.131   5.458
10933TIP3   OH232755   8.165   2.475   5.469
10933TIP3    H132756   8.074   2.440   5.477
10933TIP3    H232757   8.215   2.390   5.464
10934TIP3   OH232758   7.960   2.345   5.117
10934TIP3    H132759   7.984   2.407   5.046
10934TIP3    H232760   7.931   2.407   5.187
10935TIP3   OH232761   7.671   3.918   4.898
10935TIP3    H132762   7.585   3.884   4.868
10935TIP3    H232763   7.659   4.012   4.877
10936TIP3   OH232764   8.069   2.503   4.892
10936TIP3    H132765   8.110   2.444   4.826
10936TIP3    H232766   8.144   2.556   4.923
10937TIP3   OH232767   8.439   4.098   4.483
10937TIP3    H132768   8.516   4.148   4.454
10937TIP3    H232769   8.436   4.022   4.422
10938TIP3   OH232770   8.379   2.765   6.370
10938TIP3    H132771   8.357   2.702   6.441
10938TIP3    H232772   8.469   2.739   6.346
10939TIP3   OH232773   7.746   3.942   4.542
10939TIP3    H132774   7.741   3.957   4.637
10939TIP3    H232775   7.834   3.899   4.531
10940TIP3   OH232776   1.312   4.272   6.732
10940TIP3    H132777   1.279   4.362   6.711
10940TIP3    H232778   1.236   4.219   6.702
10941TIP3   OH232779   1.307   4.272   7.122
10941TIP3    H132780   1.345   4.246   7.208
10941TIP3    H232781   1.268   4.188   7.092
10942TIP3   OH232782   0.636   4.148   7.440
10942TIP3    H132783   0.624   4.092   7.518
10942TIP3    H232784   0.697   4.215   7.471
10943TIP3   OH232785   1.554   4.576   6.800
10943TIP3    H132786   1.538   4.504   6.863
10943TIP3    H232787   1.586   4.647   6.858
10944TIP3   OH232788   0.587   4.558   7.142
10944TIP3    H132789   0.570   4.463   7.160
10944TIP3    H232790   0.676   4.567   7.180
10945TIP3   OH232791   0.356   4.058   7.121
10945TIP3    H132792   0.394   4.014   7.199
10945TIP3    H232793   0.416   4.133   7.109
10946TIP3   OH232794   1.207   5.035   6.821
10946TIP3    H132795   1.246   4.967   6.763
10946TIP3    H232796   1.205   4.987   6.905
10947TIP3   OH232797   1.109   4.497   7.165
10947TIP3    H132798   1.148   4.417   7.126
10947TIP3    H232799   1.192   4.543   7.189
10948TIP3   OH232800   2.122   3.817   7.162
10948TIP3    H132801   2.153   3.899   7.205
10948TIP3    H232802   2.146   3.833   7.069
10949TIP3   OH232803   1.520   3.998   7.193
10949TIP3    H132804   1.563   3.913   7.217
10949TIP3    H232805   1.488   3.978   7.103
10950TIP3   OH232806   0.863   3.656   7.161
10950TIP3    H132807   0.843   3.728   7.097
10950TIP3    H232808   0.816   3.582   7.117
10951TIP3   OH232809   1.555   3.749   6.780
10951TIP3    H132810   1.625   3.733   6.848
10951TIP3    H232811   1.610   3.783   6.707
10952TIP3   OH232812   0.496   3.859   7.271
10952TIP3    H132813   0.577   3.850   7.323
10952TIP3    H232814   0.522   3.815   7.188
10953TIP3   OH232815   0.936   4.055   7.051
10953TIP3    H132816   1.029   4.030   7.071
10953TIP3    H232817   0.898   3.968   7.025
10954TIP3   OH232818   2.198   4.026   7.330
10954TIP3    H132819   2.111   4.069   7.312
10954TIP3    H232820   2.207   4.044   7.424
10955TIP3   OH232821   0.855   3.628   7.591
10955TIP3    H132822   0.799   3.677   7.527
10955TIP3    H232823   0.809   3.645   7.674
10956TIP3   OH232824   1.198   4.491   6.603
10956TIP3    H132825   1.156   4.474   6.517
10956TIP3    H232826   1.152   4.573   6.630
10957TIP3   OH232827   0.962   4.423   7.391
10957TIP3    H132828   0.903   4.489   7.432
10957TIP3    H232829   1.002   4.472   7.317
10958TIP3   OH232830   1.758   3.754   6.959
10958TIP3    H132831   1.745   3.708   7.043
10958TIP3    H232832   1.811   3.831   6.986
10959TIP3   OH232833   0.734   3.754   7.380
10959TIP3    H132834   0.793   3.829   7.405
10959TIP3    H232835   0.784   3.717   7.304
10960TIP3   OH232836   0.775   4.600   7.512
10960TIP3    H132837   0.716   4.653   7.456
10960TIP3    H232838   0.709   4.555   7.567
10961TIP3   OH232839   1.621   4.819   6.965
10961TIP3    H132840   1.531   4.808   7.004
10961TIP3    H232841   1.611   4.905   6.920
10962TIP3   OH232842   1.915   3.718   7.329
10962TIP3    H132843   1.828   3.744   7.295
10962TIP3    H232844   1.976   3.749   7.258
10963TIP3   OH232845   1.208   3.352   7.306
10963TIP3    H132846   1.196   3.258   7.329
10963TIP3    H232847   1.133   3.392   7.355
10964TIP3   OH232848   1.319   4.864   6.634
10964TIP3    H132849   1.368   4.780   6.619
10964TIP3    H232850   1.383   4.926   6.594
10965TIP3   OH232851   1.465   4.648   6.550
10965TIP3    H132852   1.429   4.567   6.511
10965TIP3    H232853   1.504   4.615   6.634
10966TIP3   OH232854   1.848   4.727   7.308
10966TIP3    H132855   1.835   4.649   7.250
10966TIP3    H232856   1.831   4.801   7.246
10967TIP3   OH232857   1.141   4.122   6.568
10967TIP3    H132858   1.062   4.175   6.545
10967TIP3    H232859   1.187   4.117   6.482
10968TIP3   OH232860   1.098   3.909   6.279
10968TIP3    H132861   1.165   3.961   6.327
10968TIP3    H232862   1.156   3.845   6.232
10969TIP3   OH232863   2.043   4.369   7.156
10969TIP3    H132864   1.958   4.418   7.159
10969TIP3    H232865   2.073   4.391   7.065
10970TIP3   OH232866   1.490   4.206   6.535
10970TIP3    H132867   1.435   4.228   6.614
10970TIP3    H232868   1.574   4.180   6.578
10971TIP3   OH232869   1.722   4.243   7.453
10971TIP3    H132870   1.718   4.325   7.506
10971TIP3    H232871   1.635   4.246   7.408
10972TIP3   OH232872   0.725   4.197   6.953
10972TIP3    H132873   0.683   4.138   6.887
10972TIP3    H232874   0.803   4.144   6.981
10973TIP3   OH232875   0.869   4.630   7.095
10973TIP3    H132876   0.836   4.580   7.020
10973TIP3    H232877   0.955   4.586   7.113
10974TIP3   OH232878   0.903   4.165   7.307
10974TIP3    H132879   0.911   4.152   7.210
10974TIP3    H232880   0.919   4.261   7.318
10975TIP3   OH232881   1.378   4.811   7.085
10975TIP3    H132882   1.372   4.889   7.143
10975TIP3    H232883   1.365   4.737   7.147
10976TIP3   OH232884   0.994   4.730   7.630
10976TIP3    H132885   0.936   4.788   7.683
10976TIP3    H232886   0.927   4.673   7.587
10977TIP3   OH232887   1.325   4.065   6.364
10977TIP3    H132888   1.385   4.124   6.414
10977TIP3    H232889   1.352   4.085   6.271
10978TIP3   OH232890   0.729   4.260   7.712
10978TIP3    H132891   0.744   4.342   7.764
10978TIP3    H232892   0.635   4.269   7.693
10979TIP3   OH232893   1.072   4.740   6.638
10979TIP3    H132894   1.155   4.790   6.648
10979TIP3    H232895   1.014   4.803   6.595
10980TIP3   OH232896   0.777   4.888   7.710
10980TIP3    H132897   0.753   4.899   7.617
10980TIP3    H232898   0.696   4.851   7.749
10981TIP3   OH232899   1.844   3.301   6.413
10981TIP3    H132900   1.762   3.323   6.463
10981TIP3    H232901   1.858   3.384   6.363
10982TIP3   OH232902   0.598   4.037   6.758
10982TIP3    H132903   0.531   4.075   6.697
10982TIP3    H232904   0.559   3.951   6.778
10983TIP3   OH232905   1.645   4.669   5.962
10983TIP3    H132906   1.655   4.765   5.946
10983TIP3    H232907   1.737   4.637   5.949
10984TIP3   OH232908   2.085   5.075   7.356
10984TIP3    H132909   2.085   4.978   7.371
10984TIP3    H232910   2.002   5.099   7.402
10985TIP3   OH232911   1.189   4.859   7.486
10985TIP3    H132912   1.187   4.951   7.520
10985TIP3    H232913   1.119   4.817   7.542
10986TIP3   OH232914   0.955   4.986   6.442
10986TIP3    H132915   0.907   4.971   6.359
10986TIP3    H232916   0.923   5.073   6.470
10987TIP3   OH232917   1.155   4.890   6.078
10987TIP3    H132918   1.214   4.819   6.044
10987TIP3    H232919   1.189   4.900   6.170
10988TIP3   OH232920   1.205   4.937   6.348
10988TIP3    H132921   1.117   4.947   6.390
10988TIP3    H232922   1.256   4.896   6.421
10989TIP3   OH232923   1.974   4.203   7.631
10989TIP3    H132924   1.891   4.210   7.581
10989TIP3    H232925   1.993   4.107   7.623
10990TIP3   OH232926   0.972   3.433   7.432
10990TIP3    H132927   0.884   3.401   7.405
10990TIP3    H232928   0.946   3.514   7.480
10991TIP3   OH232929   1.513   3.556   7.616
10991TIP3    H132930   1.584   3.519   7.674
10991TIP3    H232931   1.431   3.535   7.665
10992TIP3   OH232932   1.743   3.979   7.551
10992TIP3    H132933   1.696   3.974   7.638
10992TIP3    H232934   1.717   4.067   7.518
10993TIP3   OH232935   1.405   4.109   6.110
10993TIP3    H132936   1.369   4.084   6.023
10993TIP3    H232937   1.490   4.148   6.084
10994TIP3   OH232938   1.116   3.482   6.413
10994TIP3    H132939   1.081   3.477   6.504
10994TIP3    H232940   1.077   3.401   6.376
10995TIP3   OH232941   0.906   3.947   7.461
10995TIP3    H132942   0.855   3.972   7.541
10995TIP3    H232943   0.900   4.029   7.407
10996TIP3   OH232944   0.785   3.834   6.973
10996TIP3    H132945   0.691   3.812   6.987
10996TIP3    H232946   0.798   3.795   6.884
10997TIP3   OH232947   1.278   3.921   6.702
10997TIP3    H132948   1.228   3.992   6.658
10997TIP3    H232949   1.333   3.887   6.629
10998TIP3   OH232950   1.464   4.212   7.781
10998TIP3    H132951   1.439   4.129   7.827
10998TIP3    H232952   1.559   4.215   7.802
10999TIP3   OH232953   1.434   3.947   6.937
10999TIP3    H132954   1.370   3.973   6.867
10999TIP3    H232955   1.470   3.868   6.893
11000TIP3   OH232956   0.732   3.976   7.675
11000TIP3    H132957   0.758   4.062   7.713
11000TIP3    H232958   0.661   3.949   7.733
11001TIP3   OH232959   0.773   3.455   6.375
11001TIP3    H132960   0.763   3.457   6.472
11001TIP3    H232961   0.692   3.502   6.346
11002TIP3   OH232962   0.333   3.538   7.241
11002TIP3    H132963   0.414   3.531   7.295
11002TIP3    H232964   0.341   3.464   7.178
11003TIP3   OH232965   0.309   3.533   6.800
11003TIP3    H132966   0.336   3.541   6.707
11003TIP3    H232967   0.303   3.626   6.824
11004TIP3   OH232968   1.446   4.196   7.358
11004TIP3    H132969   1.479   4.125   7.298
11004TIP3    H232970   1.416   4.142   7.434
11005TIP3   OH232971   1.119   3.662   7.033
11005TIP3    H132972   1.041   3.658   7.091
11005TIP3    H232973   1.192   3.648   7.096
11006TIP3   OH232974   0.546   3.702   7.039
11006TIP3    H132975   0.456   3.668   7.046
11006TIP3    H232976   0.597   3.619   7.024
11007TIP3   OH232977   0.813   3.709   6.731
11007TIP3    H132978   0.908   3.723   6.712
11007TIP3    H232979   0.769   3.732   6.645
11008TIP3   OH232980   1.606   3.737   7.237
11008TIP3    H132981   1.574   3.750   7.329
11008TIP3    H232982   1.541   3.674   7.203
11009TIP3   OH232983   0.662   3.749   6.504
11009TIP3    H132984   0.598   3.702   6.448
11009TIP3    H232985   0.718   3.789   6.435
11010TIP3   OH232986   1.780   5.423   7.457
11010TIP3    H132987   1.779   5.447   7.363
11010TIP3    H232988   1.860   5.469   7.488
11011TIP3   OH232989   0.731   4.495   7.849
11011TIP3    H132990   0.807   4.549   7.880
11011TIP3    H232991   0.657   4.545   7.886
11012TIP3   OH232992   1.196   3.990   7.131
11012TIP3    H132993   1.269   3.948   7.084
11012TIP3    H232994   1.199   3.945   7.218
11013TIP3   OH232995   0.713   3.477   7.014
11013TIP3    H132996   0.678   3.399   7.061
11013TIP3    H232997   0.763   3.436   6.942
11014TIP3   OH232998   1.174   3.890   7.412
11014TIP3    H132999   1.085   3.925   7.430
11014TIP3    H233000   1.232   3.949   7.464
11015TIP3   OH233001   0.908   4.275   6.512
11015TIP3    H133002   0.838   4.207   6.502
11015TIP3    H233003   0.890   4.307   6.604
11016TIP3   OH233004   1.808   4.512   7.142
11016TIP3    H133005   1.832   4.562   7.061
11016TIP3    H233006   1.725   4.467   7.115
11017TIP3   OH233007   1.367   3.584   6.382
11017TIP3    H133008   1.271   3.564   6.391
11017TIP3    H233009   1.374   3.678   6.407
11018TIP3   OH233010   1.309   4.595   7.512
11018TIP3    H133011   1.340   4.571   7.600
11018TIP3    H233012   1.272   4.684   7.523
11019TIP3   OH233013   1.436   3.835   6.485
11019TIP3    H133014   1.532   3.839   6.500
11019TIP3    H233015   1.419   3.916   6.432
11020TIP3   OH233016   0.609   4.290   7.194
11020TIP3    H133017   0.655   4.243   7.122
11020TIP3    H233018   0.614   4.228   7.270
11021TIP3   OH233019   1.054   4.424   6.337
11021TIP3    H133020   1.005   4.509   6.341
11021TIP3    H233021   1.001   4.368   6.398
11022TIP3   OH233022   1.215   4.334   7.806
11022TIP3    H133023   1.154   4.271   7.765
11022TIP3    H233024   1.302   4.296   7.780
11023TIP3   OH233025   1.467   4.857   7.403
11023TIP3    H133026   1.371   4.852   7.420
11023TIP3    H233027   1.497   4.908   7.481
11024TIP3   OH233028   1.875   3.928   6.319
11024TIP3    H133029   1.814   3.884   6.255
11024TIP3    H233030   1.874   4.017   6.278
11025TIP3   OH233031   2.098   4.787   7.396
11025TIP3    H133032   2.001   4.778   7.389
11025TIP3    H233033   2.125   4.754   7.307
11026TIP3   OH233034   1.579   4.744   6.227
11026TIP3    H133035   1.554   4.674   6.289
11026TIP3    H233036   1.593   4.696   6.144
11027TIP3   OH233037   1.575   4.374   7.058
11027TIP3    H133038   1.482   4.349   7.072
11027TIP3    H233039   1.609   4.293   7.015
11028TIP3   OH233040   0.709   4.601   6.813
11028TIP3    H133041   0.697   4.680   6.757
11028TIP3    H233042   0.624   4.594   6.858
11029TIP3   OH233043   0.274   3.910   6.532
11029TIP3    H133044   0.330   3.988   6.549
11029TIP3    H233045   0.186   3.947   6.545
11030TIP3   OH233046   0.838   4.362   6.756
11030TIP3    H133047   0.804   4.451   6.776
11030TIP3    H233048   0.806   4.311   6.832
11031TIP3   OH233049   0.983   4.947   7.286
11031TIP3    H133050   1.029   5.015   7.233
11031TIP3    H233051   1.057   4.905   7.332
11032TIP3   OH233052   0.618   4.845   6.671
11032TIP3    H133053   0.541   4.865   6.724
11032TIP3    H233054   0.661   4.934   6.668
11033TIP3   OH233055   1.360   4.579   7.244
11033TIP3    H133056   1.348   4.577   7.342
11033TIP3    H233057   1.437   4.522   7.233
11034TIP3   OH233058   1.338   4.477   6.129
11034TIP3    H133059   1.393   4.451   6.206
11034TIP3    H233060   1.252   4.442   6.156
11035TIP3   OH233061   1.609   5.109   7.295
11035TIP3    H133062   1.531   5.051   7.292
11035TIP3    H233063   1.590   5.172   7.222
11036TIP3   OH233064   1.676   4.946   5.946
11036TIP3    H133065   1.716   5.022   5.901
11036TIP3    H233066   1.594   4.988   5.979
11037TIP3   OH233067   1.499   4.407   6.342
11037TIP3    H133068   1.487   4.340   6.413
11037TIP3    H233069   1.596   4.401   6.330
11038TIP3   OH233070   0.699   4.450   6.124
11038TIP3    H133071   0.714   4.356   6.100
11038TIP3    H233072   0.680   4.442   6.219
11039TIP3   OH233073   0.651   4.459   6.399
11039TIP3    H133074   0.727   4.429   6.451
11039TIP3    H233075   0.658   4.556   6.407
11040TIP3   OH233076   0.397   4.142   6.606
11040TIP3    H133077   0.353   4.192   6.675
11040TIP3    H233078   0.411   4.212   6.539
11041TIP3   OH233079   1.532   3.797   7.496
11041TIP3    H133080   1.618   3.829   7.529
11041TIP3    H233081   1.523   3.711   7.544
11042TIP3   OH233082   1.414   3.534   6.664
11042TIP3    H133083   1.402   3.556   6.570
11042TIP3    H233084   1.454   3.617   6.700
11043TIP3   OH233085   0.913   4.655   6.346
11043TIP3    H133086   0.827   4.679   6.386
11043TIP3    H233087   0.928   4.732   6.289
11044TIP3   OH233088   1.095   3.721   6.764
11044TIP3    H133089   1.160   3.792   6.747
11044TIP3    H233090   1.104   3.710   6.861
11045TIP3   OH233091   1.370   4.031   7.560
11045TIP3    H133092   1.388   4.072   7.646
11045TIP3    H233093   1.422   3.949   7.565
11046TIP3   OH233094   1.242   3.438   6.861
11046TIP3    H133095   1.245   3.511   6.925
11046TIP3    H233096   1.304   3.471   6.792
11047TIP3   OH233097   0.660   4.732   6.419
11047TIP3    H133098   0.630   4.800   6.355
11047TIP3    H233099   0.641   4.775   6.505
11048TIP3   OH233100   0.757   3.445   6.653
11048TIP3    H133101   0.756   3.535   6.691
11048TIP3    H233102   0.852   3.425   6.660
11049TIP3   OH233103   2.009   3.938   7.546
11049TIP3    H133104   1.911   3.938   7.555
11049TIP3    H233105   2.017   3.879   7.469
11050TIP3   OH233106   1.660   4.131   6.938
11050TIP3    H133107   1.585   4.071   6.951
11050TIP3    H233108   1.732   4.084   6.986
11051TIP3   OH233109   0.387   4.365   6.448
11051TIP3    H133110   0.470   4.413   6.435
11051TIP3    H233111   0.386   4.313   6.365
11052TIP3   OH233112   0.296   3.633   6.547
11052TIP3    H133113   0.301   3.730   6.543
11052TIP3    H233114   0.274   3.610   6.456
11053TIP3   OH233115   1.630   5.090   6.885
11053TIP3    H133116   1.588   5.137   6.810
11053TIP3    H233117   1.724   5.108   6.865
11054TIP3   OH233118   0.707   3.351   7.411
11054TIP3    H133119   0.679   3.318   7.323
11054TIP3    H233120   0.696   3.270   7.466
11055TIP3   OH233121   0.856   5.093   7.884
11055TIP3    H133122   0.941   5.094   7.930
11055TIP3    H233123   0.864   5.015   7.826
11056TIP3   OH233124   0.863   4.652   6.036
11056TIP3    H133125   0.806   4.581   6.074
11056TIP3    H233126   0.940   4.598   6.011
11057TIP3   OH233127   1.525   4.992   7.635
11057TIP3    H133128   1.511   4.916   7.698
11057TIP3    H233129   1.601   5.038   7.674
11058TIP3   OH233130   1.300   4.692   5.954
11058TIP3    H133131   1.336   4.625   6.016
11058TIP3    H233132   1.362   4.685   5.878
11059TIP3   OH233133   0.509   4.174   6.269
11059TIP3    H133134   0.569   4.144   6.339
11059TIP3    H233135   0.572   4.177   6.193
11060TIP3   OH233136   1.149   4.606   7.829
11060TIP3    H133137   1.113   4.628   7.742
11060TIP3    H233138   1.179   4.514   7.818
11061TIP3   OH233139   1.024   4.373   6.068
11061TIP3    H133140   1.027   4.383   6.165
11061TIP3    H233141   1.026   4.275   6.060
11062TIP3   OH233142   1.631   4.621   7.449
11062TIP3    H133143   1.708   4.662   7.404
11062TIP3    H233144   1.562   4.687   7.429
11063TIP3   OH233145   0.716   4.077   6.481
11063TIP3    H133146   0.696   4.033   6.565
11063TIP3    H233147   0.755   4.005   6.428
11064TIP3   OH233148   0.989   4.144   7.711
11064TIP3    H133149   0.908   4.197   7.705
11064TIP3    H233150   1.040   4.174   7.633
11065TIP3   OH233151   0.821   3.875   6.323
11065TIP3    H133152   0.796   3.879   6.228
11065TIP3    H233153   0.919   3.874   6.316
11066TIP3   OH233154   1.508   4.537   7.845
11066TIP3    H133155   1.582   4.508   7.789
11066TIP3    H233156   1.503   4.465   7.910
11067TIP3   OH233157   1.636   4.200   5.989
11067TIP3    H133158   1.619   4.155   5.904
11067TIP3    H233159   1.601   4.290   5.966
11068TIP3   OH233160   1.100   3.921   7.836
11068TIP3    H133161   1.095   3.846   7.774
11068TIP3    H233162   1.047   3.991   7.793
11069TIP3   OH233163   1.105   3.727   7.637
11069TIP3    H133164   1.135   3.771   7.556
11069TIP3    H233165   1.013   3.701   7.615
11070TIP3   OH233166   1.139   4.253   7.518
11070TIP3    H133167   1.222   4.259   7.470
11070TIP3    H233168   1.081   4.314   7.468
11071TIP3   OH233169   1.730   4.207   7.891
11071TIP3    H133170   1.761   4.116   7.906
11071TIP3    H233171   1.809   4.248   7.854
11072TIP3   OH233172   1.760   4.472   7.632
11072TIP3    H133173   1.704   4.527   7.573
11072TIP3    H233174   1.849   4.492   7.595
11073TIP3   OH233175   1.249   3.489   7.664
11073TIP3    H133176   1.196   3.570   7.657
11073TIP3    H233177   1.182   3.419   7.666
11074TIP3   OH233178   1.359   3.980   7.880
11074TIP3    H133179   1.341   4.020   7.968
11074TIP3    H233180   1.268   3.947   7.858
11075TIP3   OH233181   1.621   3.937   7.787
11075TIP3    H133182   1.536   3.926   7.832
11075TIP3    H233183   1.685   3.903   7.854
11076TIP3   OH233184   1.832   3.895   7.971
11076TIP3    H133185   1.865   3.802   7.966
11076TIP3    H233186   1.824   3.905   8.068
11077TIP3   OH233187   1.237   3.336   7.900
11077TIP3    H133188   1.316   3.324   7.954
11077TIP3    H233189   1.262   3.412   7.846
11078TIP3   OH233190   0.631   4.932   6.228
11078TIP3    H133191   0.726   4.927   6.204
11078TIP3    H233192   0.597   4.987   6.156
11079TIP3   OH233193   1.884   5.181   6.847
11079TIP3    H133194   1.912   5.207   6.936
11079TIP3    H233195   1.954   5.217   6.791
11080TIP3   OH233196   1.913   5.196   7.129
11080TIP3    H133197   1.868   5.109   7.125
11080TIP3    H233198   1.988   5.172   7.186
11081TIP3   OH233199   1.958   4.874   7.703
11081TIP3    H133200   1.885   4.883   7.767
11081TIP3    H233201   2.001   4.962   7.707
11082TIP3   OH233202   1.776   4.387   6.321
11082TIP3    H133203   1.844   4.450   6.290
11082TIP3    H233204   1.820   4.349   6.400
11083TIP3   OH233205   1.903   4.255   6.525
11083TIP3    H133206   1.837   4.212   6.584
11083TIP3    H233207   1.969   4.289   6.589
11084TIP3   OH233208   1.960   4.648   6.955
11084TIP3    H133209   2.013   4.579   6.911
11084TIP3    H233210   1.955   4.717   6.886
11085TIP3   OH233211   1.788   4.948   7.149
11085TIP3    H133212   1.716   4.987   7.201
11085TIP3    H233213   1.738   4.901   7.078
11086TIP3   OH233214   1.841   4.163   6.169
11086TIP3    H133215   1.769   4.164   6.102
11086TIP3    H233216   1.811   4.238   6.225
11087TIP3   OH233217   1.709   3.837   6.124
11087TIP3    H133218   1.670   3.867   6.041
11087TIP3    H233219   1.688   3.741   6.120
11088TIP3   OH233220   1.716   4.113   6.669
11088TIP3    H133221   1.724   4.016   6.660
11088TIP3    H233222   1.701   4.124   6.766
11089TIP3   OH233223   2.008   4.537   7.529
11089TIP3    H133224   2.078   4.469   7.519
11089TIP3    H233225   2.034   4.603   7.462
11090TIP3   OH233226   2.191   4.338   7.537
11090TIP3    H133227   2.116   4.287   7.575
11090TIP3    H233228   2.264   4.275   7.555
11091TIP3   OH233229   1.654   3.571   6.110
11091TIP3    H133230   1.729   3.537   6.163
11091TIP3    H233231   1.582   3.509   6.129
11092TIP3   OH233232   1.715   3.828   6.561
11092TIP3    H133233   1.754   3.739   6.577
11092TIP3    H233234   1.773   3.860   6.490
11093TIP3   OH233235   1.872   3.999   7.059
11093TIP3    H133236   1.958   4.023   7.017
11093TIP3    H233237   1.888   4.035   7.148
11094TIP3   OH233238   1.945   4.145   7.288
11094TIP3    H133239   1.869   4.178   7.338
11094TIP3    H233240   1.978   4.227   7.245
11095TIP3   OH233241   2.396   3.739   7.843
11095TIP3    H133242   2.461   3.680   7.801
11095TIP3    H233243   2.369   3.798   7.769
11096TIP3   OH233244   1.821   3.579   6.602
11096TIP3    H133245   1.870   3.562   6.685
11096TIP3    H233246   1.761   3.501   6.601
11097TIP3   OH233247   0.536   3.564   7.431
11097TIP3    H133248   0.597   3.487   7.431
11097TIP3    H233249   0.598   3.636   7.408
11098TIP3   OH233250   2.266   3.876   7.642
11098TIP3    H133251   2.181   3.916   7.669
11098TIP3    H233252   2.232   3.803   7.587
11099TIP3   OH233253   1.900   3.509   6.236
11099TIP3    H133254   1.940   3.438   6.181
11099TIP3    H233255   1.969   3.579   6.233
11100TIP3   OH233256   0.333   3.367   7.017
11100TIP3    H133257   0.241   3.340   7.026
11100TIP3    H233258   0.330   3.423   6.937
11101TIP3   OH233259   1.465   5.048   6.500
11101TIP3    H133260   1.518   5.035   6.418
11101TIP3    H233261   1.522   5.107   6.551
11102TIP3   OH233262   0.745   4.918   7.429
11102TIP3    H133263   0.731   4.994   7.371
11102TIP3    H233264   0.836   4.894   7.403
11103TIP3   OH233265   1.187   5.124   7.566
11103TIP3    H133266   1.228   5.121   7.655
11103TIP3    H233267   1.254   5.177   7.517
11104TIP3   OH233268   1.370   5.280   7.432
11104TIP3    H133269   1.440   5.226   7.394
11104TIP3    H233270   1.421   5.336   7.494
11105TIP3   OH233271   2.167   3.635   7.521
11105TIP3    H133272   2.075   3.621   7.493
11105TIP3    H233273   2.202   3.542   7.514
11106TIP3   OH233274   0.660   5.145   7.290
11106TIP3    H133275   0.632   5.234   7.315
11106TIP3    H233276   0.605   5.126   7.212
11107TIP3   OH233277   1.087   5.143   7.119
11107TIP3    H133278   1.036   5.166   7.039
11107TIP3    H233279   1.101   5.231   7.160
11108TIP3   OH233280   1.356   5.082   7.168
11108TIP3    H133281   1.262   5.100   7.148
11108TIP3    H233282   1.401   5.156   7.125
11109TIP3   OH233283   1.557   5.273   7.079
11109TIP3    H133284   1.546   5.357   7.030
11109TIP3    H233285   1.586   5.212   7.008
11110TIP3   OH233286   0.534   4.808   7.052
11110TIP3    H133287   0.539   4.717   7.090
11110TIP3    H233288   0.627   4.833   7.054
11111TIP3   OH233289   0.812   4.903   7.067
11111TIP3    H133290   0.835   4.809   7.051
11111TIP3    H233291   0.864   4.915   7.149
11112TIP3   OH233292   1.362   3.548   7.142
11112TIP3    H133293   1.326   3.478   7.200
11112TIP3    H233294   1.442   3.506   7.106
11113TIP3   OH233295   1.890   3.433   7.052
11113TIP3    H133296   1.926   3.485   6.977
11113TIP3    H233297   1.794   3.453   7.048
11114TIP3   OH233298   1.986   3.533   6.817
11114TIP3    H133299   2.060   3.481   6.781
11114TIP3    H233300   2.021   3.625   6.803
11115TIP3   OH233301   0.616   3.262   7.166
11115TIP3    H133302   0.522   3.237   7.162
11115TIP3    H233303   0.660   3.175   7.161
11116TIP3   OH233304   0.435   3.123   6.823
11116TIP3    H133305   0.452   3.181   6.746
11116TIP3    H233306   0.380   3.180   6.878
11117TIP3   OH233307   1.064   3.295   7.051
11117TIP3    H133308   1.118   3.341   6.985
11117TIP3    H233309   1.101   3.328   7.134
11118TIP3   OH233310   1.604   3.441   7.031
11118TIP3    H133311   1.611   3.398   6.945
11118TIP3    H233312   1.593   3.363   7.090
11119TIP3   OH233313   1.639   3.365   6.594
11119TIP3    H133314   1.552   3.407   6.611
11119TIP3    H233315   1.626   3.279   6.639
11120TIP3   OH233316   0.526   3.285   6.589
11120TIP3    H133317   0.570   3.223   6.527
11120TIP3    H233318   0.602   3.338   6.620
11121TIP3   OH233319   1.033   3.469   6.677
11121TIP3    H133320   1.094   3.421   6.736
11121TIP3    H233321   1.056   3.561   6.702
11122TIP3   OH233322   0.897   4.887   6.175
11122TIP3    H133323   0.986   4.908   6.139
11122TIP3    H233324   0.874   4.811   6.115
11123TIP3   OH233325   1.614   5.011   6.270
11123TIP3    H133326   1.607   4.913   6.261
11123TIP3    H233327   1.569   5.039   6.188
11124TIP3   OH233328   1.955   3.647   7.969
11124TIP3    H133329   1.981   3.579   8.035
11124TIP3    H233330   2.023   3.630   7.901
11125TIP3   OH233331   1.838   5.153   7.456
11125TIP3    H133332   1.759   5.123   7.406
11125TIP3    H233333   1.818   5.249   7.463
11126TIP3   OH233334   3.107   4.529   6.220
11126TIP3    H133335   3.074   4.618   6.197
11126TIP3    H233336   3.034   4.475   6.186
11127TIP3   OH233337   3.108   4.529   6.608
11127TIP3    H133338   3.141   4.498   6.694
11127TIP3    H233339   3.067   4.449   6.573
11128TIP3   OH233340   2.401   4.418   6.970
11128TIP3    H133341   2.430   4.348   7.031
11128TIP3    H233342   2.482   4.471   6.964
11129TIP3   OH233343   3.353   4.830   6.286
11129TIP3    H133344   3.331   4.759   6.347
11129TIP3    H233345   3.379   4.902   6.345
11130TIP3   OH233346   2.376   4.832   6.690
11130TIP3    H133347   2.368   4.734   6.691
11130TIP3    H233348   2.473   4.842   6.686
11131TIP3   OH233349   2.083   4.033   6.473
11131TIP3    H133350   2.034   4.115   6.491
11131TIP3    H233351   2.013   3.979   6.433
11132TIP3   OH233352   2.140   4.320   6.654
11132TIP3    H133353   2.189   4.241   6.688
11132TIP3    H233354   2.200   4.352   6.585
11133TIP3   OH233355   3.003   5.293   6.305
11133TIP3    H133356   3.044   5.221   6.251
11133TIP3    H233357   2.990   5.248   6.389
11134TIP3   OH233358   2.902   4.755   6.651
11134TIP3    H133359   2.941   4.676   6.609
11134TIP3    H233360   2.986   4.801   6.675
11135TIP3   OH233361   3.920   4.072   6.649
11135TIP3    H133362   3.951   4.156   6.689
11135TIP3    H233363   3.943   4.085   6.556
11136TIP3   OH233364   3.318   4.254   6.681
11136TIP3    H133365   3.359   4.168   6.702
11136TIP3    H233366   3.284   4.236   6.591
11137TIP3   OH233367   2.658   3.913   6.646
11137TIP3    H133368   2.637   3.985   6.583
11137TIP3    H233369   2.610   3.839   6.604
11138TIP3   OH233370   3.351   4.007   6.268
11138TIP3    H133371   3.422   3.990   6.334
11138TIP3    H233372   3.405   4.040   6.193
11139TIP3   OH233373   2.289   4.114   6.755
11139TIP3    H133374   2.371   4.095   6.803
11139TIP3    H233375   2.303   4.058   6.675
11140TIP3   OH233376   2.727   4.312   6.553
11140TIP3    H133377   2.822   4.288   6.564
11140TIP3    H233378   2.689   4.228   6.519
11141TIP3   OH233379   3.995   4.284   6.817
11141TIP3    H133380   3.908   4.326   6.797
11141TIP3    H233381   4.001   4.301   6.912
11142TIP3   OH233382   2.652   3.897   7.083
11142TIP3    H133383   2.591   3.933   7.016
11142TIP3    H233384   2.599   3.911   7.164
11143TIP3   OH233385   2.993   4.747   6.091
11143TIP3    H133386   2.954   4.730   6.004
11143TIP3    H233387   2.947   4.829   6.117
11144TIP3   OH233388   2.759   4.673   6.874
11144TIP3    H133389   2.698   4.740   6.912
11144TIP3    H233390   2.799   4.722   6.799
11145TIP3   OH233391   3.556   4.010   6.445
11145TIP3    H133392   3.543   3.961   6.527
11145TIP3    H233393   3.608   4.087   6.474
11146TIP3   OH233394   2.523   4.011   6.865
11146TIP3    H133395   2.586   4.082   6.891
11146TIP3    H233396   2.573   3.971   6.791
11147TIP3   OH233397   2.587   4.869   6.975
11147TIP3    H133398   2.560   4.956   6.940
11147TIP3    H233399   2.508   4.849   7.030
11148TIP3   OH233400   1.977   4.558   6.210
11148TIP3    H133401   1.938   4.586   6.126
11148TIP3    H233402   2.011   4.642   6.246
11149TIP3   OH233403   3.424   5.078   6.459
11149TIP3    H133404   3.334   5.066   6.495
11149TIP3    H233405   3.413   5.161   6.409
11150TIP3   OH233406   3.711   3.975   6.817
11150TIP3    H133407   3.624   3.997   6.782
11150TIP3    H233408   3.771   4.006   6.746
11151TIP3   OH233409   3.003   3.612   6.799
11151TIP3    H133410   2.988   3.517   6.818
11151TIP3    H233411   2.927   3.651   6.846
11152TIP3   OH233412   3.118   5.119   6.123
11152TIP3    H133413   3.166   5.035   6.105
11152TIP3    H233414   3.181   5.182   6.083
11153TIP3   OH233415   3.261   4.904   6.036
11153TIP3    H133416   3.230   4.823   5.993
11153TIP3    H233417   3.300   4.867   6.119
11154TIP3   OH233418   3.685   4.988   6.783
11154TIP3    H133419   3.654   4.902   6.741
11154TIP3    H233420   3.627   5.052   6.747
11155TIP3   OH233421   2.938   4.381   6.055
11155TIP3    H133422   2.858   4.432   6.033
11155TIP3    H233423   2.982   4.372   5.969
11156TIP3   OH233424   2.895   4.164   5.772
11156TIP3    H133425   2.964   4.218   5.813
11156TIP3    H233426   2.950   4.100   5.723
11157TIP3   OH233427   3.835   4.630   6.645
11157TIP3    H133428   3.749   4.676   6.642
11157TIP3    H233429   3.868   4.647   6.554
11158TIP3   OH233430   3.286   4.463   6.022
11158TIP3    H133431   3.231   4.486   6.101
11158TIP3    H233432   3.370   4.437   6.066
11159TIP3   OH233433   3.518   4.500   6.939
11159TIP3    H133434   3.509   4.580   6.995
11159TIP3    H233435   3.431   4.500   6.894
11160TIP3   OH233436   2.517   4.458   6.443
11160TIP3    H133437   2.475   4.400   6.376
11160TIP3    H233438   2.592   4.403   6.473
11161TIP3   OH233439   2.647   4.873   6.588
11161TIP3    H133440   2.625   4.835   6.501
11161TIP3    H233441   2.736   4.834   6.605
11162TIP3   OH233442   2.651   4.429   6.797
11162TIP3    H133443   2.683   4.402   6.709
11162TIP3    H233444   2.696   4.515   6.813
11163TIP3   OH233445   3.181   5.068   6.573
11163TIP3    H133446   3.166   5.147   6.627
11163TIP3    H233447   3.162   4.994   6.635
11164TIP3   OH233448   2.792   4.986   7.119
11164TIP3    H133449   2.731   5.046   7.166
11164TIP3    H233450   2.727   4.932   7.069
11165TIP3   OH233451   3.121   4.320   5.852
11165TIP3    H133452   3.181   4.381   5.901
11165TIP3    H233453   3.148   4.340   5.759
11166TIP3   OH233454   2.547   4.543   7.223
11166TIP3    H133455   2.550   4.630   7.267
11166TIP3    H233456   2.453   4.520   7.237
11167TIP3   OH233457   2.869   4.997   6.127
11167TIP3    H133458   2.951   5.048   6.135
11167TIP3    H233459   2.810   5.058   6.082
11168TIP3   OH233460   2.585   5.151   7.208
11168TIP3    H133461   2.549   5.154   7.117
11168TIP3    H233462   2.505   5.130   7.261
11169TIP3   OH233463   3.640   3.558   5.901
11169TIP3    H133464   3.558   3.579   5.949
11169TIP3    H233465   3.655   3.640   5.850
11170TIP3   OH233466   2.382   4.302   6.249
11170TIP3    H133467   2.313   4.343   6.192
11170TIP3    H233468   2.350   4.212   6.258
11171TIP3   OH233469   3.441   4.926   5.450
11171TIP3    H133470   3.450   5.022   5.433
11171TIP3    H233471   3.533   4.895   5.437
11172TIP3   OH233472   2.164   4.685   7.154
11172TIP3    H133473   2.097   4.662   7.086
11172TIP3    H233474   2.202   4.598   7.177
11173TIP3   OH233475   2.019   4.880   6.780
11173TIP3    H133476   2.115   4.868   6.774
11173TIP3    H233477   2.013   4.954   6.843
11174TIP3   OH233478   2.987   5.114   6.976
11174TIP3    H133479   2.985   5.206   7.009
11174TIP3    H233480   2.915   5.073   7.030
11175TIP3   OH233481   2.751   5.242   5.929
11175TIP3    H133482   2.705   5.224   5.846
11175TIP3    H233483   2.717   5.329   5.955
11176TIP3   OH233484   2.187   5.091   6.316
11176TIP3    H133485   2.235   5.083   6.402
11176TIP3    H233486   2.140   5.006   6.314
11177TIP3   OH233487   2.949   5.146   5.567
11177TIP3    H133488   3.008   5.076   5.531
11177TIP3    H233489   2.985   5.155   5.658
11178TIP3   OH233490   3.002   5.194   5.837
11178TIP3    H133491   2.914   5.203   5.878
11178TIP3    H233492   3.052   5.152   5.908
11179TIP3   OH233493   3.768   4.459   7.115
11179TIP3    H133494   3.682   4.463   7.070
11179TIP3    H233495   3.788   4.363   7.109
11180TIP3   OH233496   2.367   4.869   7.139
11180TIP3    H133497   2.417   4.852   7.221
11180TIP3    H233498   2.294   4.805   7.147
11181TIP3   OH233499   2.767   3.691   6.928
11181TIP3    H133500   2.679   3.660   6.898
11181TIP3    H233501   2.739   3.771   6.978
11182TIP3   OH233502   3.303   3.806   7.122
11182TIP3    H133503   3.371   3.777   7.185
11182TIP3    H233504   3.219   3.786   7.170
11183TIP3   OH233505   3.541   4.238   7.044
11183TIP3    H133506   3.488   4.232   7.127
11183TIP3    H233507   3.511   4.322   7.005
11184TIP3   OH233508   3.206   4.368   5.603
11184TIP3    H133509   3.165   4.343   5.518
11184TIP3    H233510   3.290   4.408   5.571
11185TIP3   OH233511   2.915   3.736   5.902
11185TIP3    H133512   2.877   3.731   5.992
11185TIP3    H233513   2.873   3.658   5.862
11186TIP3   OH233514   2.700   4.208   6.947
11186TIP3    H133515   2.649   4.227   7.028
11186TIP3    H233516   2.683   4.289   6.894
11187TIP3   OH233517   2.583   4.095   6.459
11187TIP3    H133518   2.490   4.067   6.478
11187TIP3    H233519   2.595   4.053   6.371
11188TIP3   OH233520   3.074   4.179   6.190
11188TIP3    H133521   3.024   4.250   6.145
11188TIP3    H233522   3.129   4.144   6.117
11189TIP3   OH233523   3.248   4.454   7.272
11189TIP3    H133524   3.225   4.382   7.335
11189TIP3    H233525   3.342   4.468   7.296
11190TIP3   OH233526   3.231   4.206   6.424
11190TIP3    H133527   3.167   4.230   6.354
11190TIP3    H233528   3.267   4.126   6.380
11191TIP3   OH233529   2.518   4.234   7.154
11191TIP3    H133530   2.549   4.294   7.222
11191TIP3    H233531   2.506   4.150   7.204
11192TIP3   OH233532   2.569   3.715   5.863
11192TIP3    H133533   2.559   3.713   5.960
11192TIP3    H233534   2.491   3.766   5.836
11193TIP3   OH233535   2.112   3.757   6.734
11193TIP3    H133536   2.187   3.788   6.789
11193TIP3    H233537   2.154   3.724   6.654
11194TIP3   OH233538   2.077   3.736   6.255
11194TIP3    H133539   2.124   3.772   6.176
11194TIP3    H233540   2.016   3.810   6.272
11195TIP3   OH233541   3.246   4.451   6.848
11195TIP3    H133542   3.277   4.379   6.787
11195TIP3    H233543   3.213   4.397   6.923
11196TIP3   OH233544   2.916   3.917   6.520
11196TIP3    H133545   2.834   3.914   6.574
11196TIP3    H233546   2.985   3.906   6.588
11197TIP3   OH233547   2.345   3.972   6.527
11197TIP3    H133548   2.251   3.979   6.498
11197TIP3    H233549   2.368   3.879   6.505
11198TIP3   OH233550   2.609   3.968   6.218
11198TIP3    H133551   2.704   3.980   6.196
11198TIP3    H233552   2.563   3.988   6.134
11199TIP3   OH233553   3.403   3.992   6.724
11199TIP3    H133554   3.370   4.004   6.816
11199TIP3    H233555   3.336   3.930   6.689
11200TIP3   OH233556   2.459   4.004   5.994
11200TIP3    H133557   2.390   3.956   5.945
11200TIP3    H233558   2.511   4.041   5.920
11201TIP3   OH233559   3.575   5.680   6.943
11201TIP3    H133560   3.571   5.706   6.850
11201TIP3    H233561   3.654   5.728   6.974
11202TIP3   OH233562   2.531   4.793   7.362
11202TIP3    H133563   2.611   4.819   7.411
11202TIP3    H233564   2.466   4.787   7.435
11203TIP3   OH233565   2.992   4.247   6.620
11203TIP3    H133566   3.063   4.203   6.571
11203TIP3    H233567   2.995   4.200   6.706
11204TIP3   OH233568   2.512   3.730   6.501
11204TIP3    H133569   2.476   3.654   6.550
11204TIP3    H233570   2.559   3.686   6.428
11205TIP3   OH233571   2.969   4.147   6.901
11205TIP3    H133572   2.879   4.178   6.920
11205TIP3    H233573   3.025   4.206   6.955
11206TIP3   OH233574   2.703   4.531   6.001
11206TIP3    H133575   2.633   4.464   5.990
11206TIP3    H233576   2.684   4.564   6.092
11207TIP3   OH233577   3.600   4.774   6.635
11207TIP3    H133578   3.621   4.823   6.554
11207TIP3    H233579   3.521   4.727   6.614
11208TIP3   OH233580   3.165   3.839   5.873
11208TIP3    H133581   3.068   3.818   5.879
11208TIP3    H233582   3.168   3.934   5.894
11209TIP3   OH233583   3.121   4.857   6.999
11209TIP3    H133584   3.131   4.825   7.089
11209TIP3    H233585   3.068   4.938   7.010
11210TIP3   OH233586   3.231   4.093   5.974
11210TIP3    H133587   3.328   4.098   5.986
11210TIP3    H233588   3.212   4.172   5.919
11211TIP3   OH233589   2.401   4.557   6.676
11211TIP3    H133590   2.438   4.525   6.591
11211TIP3    H233591   2.442   4.496   6.739
11212TIP3   OH233592   2.853   4.681   5.828
11212TIP3    H133593   2.803   4.765   5.831
11212TIP3    H233594   2.798   4.625   5.887
11213TIP3   OH233595   2.282   4.474   7.292
11213TIP3    H133596   2.300   4.459   7.387
11213TIP3    H233597   2.214   4.407   7.275
11214TIP3   OH233598   3.008   4.592   7.307
11214TIP3    H133599   2.946   4.528   7.269
11214TIP3    H233600   3.094   4.552   7.281
11215TIP3   OH233601   3.268   5.116   6.892
11215TIP3    H133602   3.172   5.106   6.906
11215TIP3    H233603   3.294   5.163   6.973
11216TIP3   OH233604   3.673   4.184   5.805
11216TIP3    H133605   3.612   4.140   5.741
11216TIP3    H233606   3.670   4.274   5.765
11217TIP3   OH233607   3.378   5.000   5.715
11217TIP3    H133608   3.349   4.929   5.773
11217TIP3    H233609   3.390   4.954   5.629
11218TIP3   OH233610   3.375   4.629   6.550
11218TIP3    H133611   3.282   4.606   6.562
11218TIP3    H233612   3.408   4.550   6.504
11219TIP3   OH233613   2.502   4.860   6.305
11219TIP3    H133614   2.498   4.939   6.249
11219TIP3    H233615   2.409   4.837   6.315
11220TIP3   OH233616   2.066   4.160   6.009
11220TIP3    H133617   2.111   4.244   6.032
11220TIP3    H233618   1.989   4.163   6.070
11221TIP3   OH233619   2.633   4.621   6.245
11221TIP3    H133620   2.600   4.711   6.266
11221TIP3    H233621   2.599   4.569   6.320
11222TIP3   OH233622   2.771   5.200   6.771
11222TIP3    H133623   2.814   5.273   6.722
11222TIP3    H233624   2.846   5.162   6.819
11223TIP3   OH233625   2.416   5.098   6.153
11223TIP3    H133626   2.332   5.107   6.202
11223TIP3    H233627   2.449   5.191   6.157
11224TIP3   OH233628   3.155   4.835   6.730
11224TIP3    H133629   3.146   4.835   6.828
11224TIP3    H233630   3.228   4.772   6.718
11225TIP3   OH233631   3.135   4.733   5.615
11225TIP3    H133632   3.188   4.707   5.694
11225TIP3    H233633   3.048   4.698   5.639
11226TIP3   OH233634   3.409   5.362   6.775
11226TIP3    H133635   3.328   5.308   6.776
11226TIP3    H233636   3.388   5.429   6.706
11227TIP3   OH233637   3.471   5.201   5.432
11227TIP3    H133638   3.508   5.274   5.380
11227TIP3    H233639   3.391   5.245   5.467
11228TIP3   OH233640   2.489   3.979   7.296
11228TIP3    H133641   2.393   3.980   7.309
11228TIP3    H233642   2.519   3.924   7.370
11229TIP3   OH233643   3.295   4.667   5.832
11229TIP3    H133644   3.283   4.598   5.900
11229TIP3    H233645   3.392   4.659   5.817
11230TIP3   OH233646   2.207   5.061   6.930
11230TIP3    H133647   2.261   4.988   6.964
11230TIP3    H233648   2.233   5.133   6.989
11231TIP3   OH233649   2.493   4.709   5.615
11231TIP3    H133650   2.510   4.617   5.587
11231TIP3    H233651   2.474   4.696   5.710
11232TIP3   OH233652   2.439   4.714   5.888
11232TIP3    H133653   2.516   4.684   5.938
11232TIP3    H233654   2.446   4.812   5.896
11233TIP3   OH233655   2.176   4.405   6.091
11233TIP3    H133656   2.109   4.450   6.147
11233TIP3    H233657   2.190   4.473   6.022
11234TIP3   OH233658   3.331   4.043   6.985
11234TIP3    H133659   3.411   4.078   7.025
11234TIP3    H233660   3.315   3.961   7.037
11235TIP3   OH233661   3.210   3.790   6.152
11235TIP3    H133662   3.195   3.810   6.057
11235TIP3    H233663   3.248   3.874   6.185
11236TIP3   OH233664   2.709   4.909   5.835
11236TIP3    H133665   2.622   4.935   5.871
11236TIP3    H233666   2.724   4.981   5.772
11237TIP3   OH233667   2.894   3.976   6.251
11237TIP3    H133668   2.959   4.048   6.234
11237TIP3    H233669   2.901   3.967   6.348
11238TIP3   OH233670   3.169   4.291   7.053
11238TIP3    H133671   3.191   4.341   7.134
11238TIP3    H233672   3.218   4.209   7.065
11239TIP3   OH233673   3.038   3.696   6.350
11239TIP3    H133674   3.032   3.774   6.407
11239TIP3    H233675   3.101   3.728   6.281
11240TIP3   OH233676   2.455   4.987   5.904
11240TIP3    H133677   2.424   5.057   5.842
11240TIP3    H233678   2.439   5.029   5.991
11241TIP3   OH233679   2.552   3.701   6.140
11241TIP3    H133680   2.550   3.790   6.179
11241TIP3    H233681   2.647   3.682   6.147
11242TIP3   OH233682   3.807   4.192   7.034
11242TIP3    H133683   3.709   4.194   7.046
11242TIP3    H233684   3.811   4.136   6.955
11243TIP3   OH233685   3.457   4.387   6.426
11243TIP3    H133686   3.380   4.328   6.436
11243TIP3    H233687   3.527   4.338   6.473
11244TIP3   OH233688   2.172   4.612   5.892
11244TIP3    H133689   2.246   4.674   5.903
11244TIP3    H233690   2.214   4.551   5.827
11245TIP3   OH233691   2.112   3.890   6.032
11245TIP3    H133692   2.113   3.988   6.028
11245TIP3    H233693   2.037   3.869   5.976
11246TIP3   OH233694   3.428   5.347   6.373
11246TIP3    H133695   3.383   5.393   6.299
11246TIP3    H233696   3.522   5.363   6.349
11247TIP3   OH233697   2.502   3.611   6.899
11247TIP3    H133698   2.472   3.575   6.813
11247TIP3    H233699   2.492   3.534   6.959
11248TIP3   OH233700   2.041   4.832   6.279
11248TIP3    H133701   1.975   4.859   6.343
11248TIP3    H233702   2.007   4.873   6.196
11249TIP3   OH233703   2.201   5.377   7.353
11249TIP3    H133704   2.287   5.378   7.400
11249TIP3    H233705   2.182   5.282   7.351
11250TIP3   OH233706   2.676   5.334   7.396
11250TIP3    H133707   2.770   5.314   7.406
11250TIP3    H233708   2.651   5.272   7.325
11251TIP3   OH233709   2.661   4.908   5.525
11251TIP3    H133710   2.604   4.837   5.562
11251TIP3    H233711   2.737   4.856   5.495
11252TIP3   OH233712   3.322   5.241   7.129
11252TIP3    H133713   3.311   5.173   7.200
11252TIP3    H233714   3.396   5.294   7.163
11253TIP3   OH233715   3.095   4.950   5.440
11253TIP3    H133716   3.134   4.883   5.500
11253TIP3    H233717   3.154   4.944   5.361
11254TIP3   OH233718   2.328   4.780   7.553
11254TIP3    H133719   2.346   4.684   7.562
11254TIP3    H233720   2.242   4.780   7.507
11255TIP3   OH233721   2.306   4.425   5.750
11255TIP3    H133722   2.363   4.392   5.822
11255TIP3    H233723   2.372   4.430   5.677
11256TIP3   OH233724   2.936   4.866   7.328
11256TIP3    H133725   2.893   4.884   7.242
11256TIP3    H233726   2.966   4.773   7.319
11257TIP3   OH233727   2.821   4.632   5.558
11257TIP3    H133728   2.824   4.639   5.655
11257TIP3    H233729   2.823   4.534   5.547
11258TIP3   OH233730   3.432   4.874   6.935
11258TIP3    H133731   3.487   4.937   6.886
11258TIP3    H233732   3.346   4.920   6.932
11259TIP3   OH233733   2.451   4.519   7.536
11259TIP3    H133734   2.522   4.457   7.516
11259TIP3    H233735   2.476   4.548   7.626
11260TIP3   OH233736   2.511   4.334   5.967
11260TIP3    H133737   2.486   4.290   6.050
11260TIP3    H233738   2.551   4.260   5.916
11261TIP3   OH233739   2.783   4.397   7.198
11261TIP3    H133740   2.704   4.456   7.198
11261TIP3    H233741   2.834   4.433   7.122
11262TIP3   OH233742   2.616   4.131   5.809
11262TIP3    H133743   2.593   4.135   5.714
11262TIP3    H233744   2.714   4.129   5.804
11263TIP3   OH233745   3.302   4.800   7.330
11263TIP3    H133746   3.380   4.764   7.286
11263TIP3    H233747   3.291   4.737   7.404
11264TIP3   OH233748   3.436   4.457   5.476
11264TIP3    H133749   3.415   4.412   5.392
11264TIP3    H233750   3.401   4.547   5.455
11265TIP3   OH233751   2.909   4.187   7.320
11265TIP3    H133752   2.907   4.107   7.264
11265TIP3    H233753   2.862   4.253   7.264
11266TIP3   OH233754   2.910   3.975   7.131
11266TIP3    H133755   2.937   4.012   7.045
11266TIP3    H233756   2.816   3.950   7.113
11267TIP3   OH233757   2.933   4.508   7.005
11267TIP3    H133758   3.017   4.516   6.960
11267TIP3    H233759   2.876   4.572   6.957
11268TIP3   OH233760   3.514   4.471   7.382
11268TIP3    H133761   3.559   4.387   7.401
11268TIP3    H233762   3.587   4.526   7.350
11269TIP3   OH233763   3.558   4.728   7.124
11269TIP3    H133764   3.501   4.782   7.064
11269TIP3    H233765   3.646   4.749   7.088
11270TIP3   OH233766   2.785   4.293   7.553
11270TIP3    H133767   2.717   4.226   7.572
11270TIP3    H233768   2.818   4.264   7.466
11271TIP3   OH233769   3.041   3.734   7.199
11271TIP3    H133770   2.990   3.815   7.177
11271TIP3    H233771   2.973   3.664   7.189
11272TIP3   OH233772   3.166   4.238   7.415
11272TIP3    H133773   3.152   4.221   7.510
11272TIP3    H233774   3.077   4.214   7.382
11273TIP3   OH233775   3.405   4.188   7.271
11273TIP3    H133776   3.330   4.189   7.334
11273TIP3    H233777   3.479   4.157   7.327
11274TIP3   OH233778   3.639   4.131   7.417
11274TIP3    H133779   3.650   4.035   7.433
11274TIP3    H233780   3.632   4.168   7.507
11275TIP3   OH233781   2.625   4.074   7.609
11275TIP3    H133782   2.627   3.981   7.579
11275TIP3    H233783   2.662   4.064   7.699
11276TIP3   OH233784   3.137   3.746   7.456
11276TIP3    H133785   3.201   3.673   7.451
11276TIP3    H233786   3.095   3.740   7.368
11277TIP3   OH233787   3.204   3.963   7.611
11277TIP3    H133788   3.182   3.890   7.549
11277TIP3    H233789   3.123   4.018   7.608
11278TIP3   OH233790   2.425   5.193   5.717
11278TIP3    H133791   2.520   5.180   5.698
11278TIP3    H233792   2.398   5.242   5.637
11279TIP3   OH233793   1.903   4.572   5.928
11279TIP3    H133794   1.998   4.592   5.914
11279TIP3    H233795   1.896   4.482   5.890
11280TIP3   OH233796   1.818   5.183   6.348
11280TIP3    H133797   1.753   5.120   6.309
11280TIP3    H233798   1.863   5.124   6.413
11281TIP3   OH233799   1.951   5.030   6.535
11281TIP3    H133800   1.942   4.958   6.600
11281TIP3    H233801   2.005   5.092   6.587
11282TIP3   OH233802   3.684   5.428   6.329
11282TIP3    H133803   3.703   5.468   6.415
11282TIP3    H233804   3.744   5.475   6.270
11283TIP3   OH233805   3.693   5.461   6.607
11283TIP3    H133806   3.653   5.372   6.608
11283TIP3    H233807   3.772   5.447   6.660
11284TIP3   OH233808   3.759   5.132   7.176
11284TIP3    H133809   3.686   5.138   7.242
11284TIP3    H233810   3.799   5.221   7.185
11285TIP3   OH233811   3.572   4.643   5.807
11285TIP3    H133812   3.639   4.707   5.776
11285TIP3    H233813   3.618   4.605   5.886
11286TIP3   OH233814   3.700   4.511   6.012
11286TIP3    H133815   3.633   4.468   6.069
11286TIP3    H233816   3.764   4.546   6.078
11287TIP3   OH233817   3.768   4.911   6.452
11287TIP3    H133818   3.812   4.837   6.406
11287TIP3    H233819   3.758   4.977   6.383
11288TIP3   OH233820   3.589   5.199   6.648
11288TIP3    H133821   3.517   5.247   6.693
11288TIP3    H233822   3.539   5.156   6.574
11289TIP3   OH233823   3.638   4.420   5.656
11289TIP3    H133824   3.567   4.420   5.588
11289TIP3    H233825   3.608   4.494   5.711
11290TIP3   OH233826   3.509   4.091   5.609
11290TIP3    H133827   3.461   4.126   5.534
11290TIP3    H233828   3.487   3.995   5.602
11291TIP3   OH233829   3.513   4.369   6.156
11291TIP3    H133830   3.519   4.273   6.146
11291TIP3    H233831   3.498   4.379   6.253
11292TIP3   OH233832   2.137   4.444   6.904
11292TIP3    H133833   2.135   4.408   6.813
11292TIP3    H233834   2.234   4.443   6.921
11293TIP3   OH233835   3.804   4.796   7.008
11293TIP3    H133836   3.876   4.727   7.010
11293TIP3    H233837   3.784   4.802   6.915
11294TIP3   OH233838   3.984   4.594   7.025
11294TIP3    H133839   3.910   4.542   7.063
11294TIP3    H233840   4.059   4.533   7.042
11295TIP3   OH233841   3.452   3.824   5.590
11295TIP3    H133842   3.522   3.791   5.650
11295TIP3    H233843   3.375   3.769   5.612
11296TIP3   OH233844   3.512   4.086   6.049
11296TIP3    H133845   3.551   3.997   6.064
11296TIP3    H233846   3.570   4.116   5.976
11297TIP3   OH233847   3.670   4.255   6.546
11297TIP3    H133848   3.755   4.280   6.504
11297TIP3    H233849   3.685   4.291   6.636
11298TIP3   OH233850   3.743   4.402   6.775
11298TIP3    H133851   3.665   4.434   6.825
11298TIP3    H233852   3.775   4.484   6.732
11299TIP3   OH233853   2.360   4.130   7.581
11299TIP3    H133854   2.458   4.123   7.585
11299TIP3    H233855   2.335   4.042   7.615
11300TIP3   OH233856   4.193   3.996   7.331
11300TIP3    H133857   4.254   3.931   7.291
11300TIP3    H233858   4.163   4.047   7.253
11301TIP3   OH233859   3.618   3.835   6.089
11301TIP3    H133860   3.666   3.818   6.172
11301TIP3    H233861   3.557   3.759   6.087
11302TIP3   OH233862   2.318   3.820   6.909
11302TIP3    H133863   2.378   3.744   6.918
11302TIP3    H233864   2.382   3.893   6.900
11303TIP3   OH233865   2.117   4.093   6.978
11303TIP3    H133866   2.168   4.089   6.895
11303TIP3    H233867   2.153   4.172   7.019
11304TIP3   OH233868   4.061   4.131   7.134
11304TIP3    H133869   3.976   4.173   7.155
11304TIP3    H233870   4.029   4.056   7.078
11305TIP3   OH233871   3.697   3.765   5.724
11305TIP3    H133872   3.735   3.695   5.667
11305TIP3    H233873   3.765   3.835   5.719
11306TIP3   OH233874   2.106   3.596   6.484
11306TIP3    H133875   2.013   3.590   6.511
11306TIP3    H233876   2.100   3.655   6.405
11307TIP3   OH233877   3.264   5.303   5.989
11307TIP3    H133878   3.313   5.289   5.905
11307TIP3    H233879   3.320   5.368   6.034
11308TIP3   OH233880   2.328   3.680   7.293
11308TIP3    H133881   2.276   3.670   7.375
11308TIP3    H233882   2.259   3.714   7.232
11309TIP3   OH233883   2.363   5.110   7.372
11309TIP3    H133884   2.272   5.081   7.357
11309TIP3    H233885   2.378   5.084   7.463
11310TIP3   OH233886   2.544   5.140   6.920
11310TIP3    H133887   2.497   5.217   6.881
11310TIP3    H233888   2.630   5.153   6.876
11311TIP3   OH233889   2.984   5.381   7.058
11311TIP3    H133890   3.026   5.379   7.146
11311TIP3    H233891   3.050   5.434   7.008
11312TIP3   OH233892   3.163   5.537   6.920
11312TIP3    H133893   3.233   5.485   6.878
11312TIP3    H233894   3.216   5.593   6.982
11313TIP3   OH233895   3.961   3.892   7.018
11313TIP3    H133896   3.871   3.879   6.984
11313TIP3    H233897   3.997   3.800   7.010
11314TIP3   OH233898   2.218   5.396   6.944
11314TIP3    H133899   2.128   5.428   6.924
11314TIP3    H233900   2.232   5.437   7.030
11315TIP3   OH233901   2.456   5.375   6.805
11315TIP3    H133902   2.368   5.386   6.848
11315TIP3    H233903   2.437   5.405   6.714
11316TIP3   OH233904   2.881   5.400   6.602
11316TIP3    H133905   2.811   5.417   6.537
11316TIP3    H233906   2.892   5.487   6.644
11317TIP3   OH233907   3.150   5.340   6.655
11317TIP3    H133908   3.056   5.357   6.635
11317TIP3    H233909   3.194   5.413   6.610
11318TIP3   OH233910   3.355   5.531   6.566
11318TIP3    H133911   3.342   5.615   6.518
11318TIP3    H233912   3.382   5.471   6.494
11319TIP3   OH233913   2.130   5.187   6.690
11319TIP3    H133914   2.157   5.158   6.780
11319TIP3    H233915   2.202   5.143   6.639
11320TIP3   OH233916   2.326   5.060   6.549
11320TIP3    H133917   2.340   4.976   6.598
11320TIP3    H233918   2.417   5.095   6.544
11321TIP3   OH233919   2.594   5.152   6.553
11321TIP3    H133920   2.622   5.059   6.542
11321TIP3    H233921   2.641   5.173   6.636
11322TIP3   OH233922   3.165   3.808   6.639
11322TIP3    H133923   3.123   3.737   6.690
11322TIP3    H233924   3.239   3.762   6.595
11323TIP3   OH233925   3.686   3.694   6.544
11323TIP3    H133926   3.722   3.743   6.466
11323TIP3    H233927   3.590   3.708   6.534
11324TIP3   OH233928   3.782   3.789   6.306
11324TIP3    H133929   3.856   3.737   6.267
11324TIP3    H233930   3.816   3.880   6.291
11325TIP3   OH233931   2.414   3.517   6.651
11325TIP3    H133932   2.321   3.484   6.656
11325TIP3    H233933   2.462   3.431   6.648
11326TIP3   OH233934   2.201   3.390   6.302
11326TIP3    H133935   2.232   3.445   6.229
11326TIP3    H233936   2.177   3.456   6.370
11327TIP3   OH233937   2.860   3.550   6.535
11327TIP3    H133938   2.917   3.596   6.471
11327TIP3    H233939   2.888   3.588   6.619
11328TIP3   OH233940   3.403   3.698   6.516
11328TIP3    H133941   3.404   3.656   6.429
11328TIP3    H233942   3.392   3.620   6.575
11329TIP3   OH233943   3.435   3.622   6.081
11329TIP3    H133944   3.348   3.664   6.096
11329TIP3    H233945   3.422   3.536   6.126
11330TIP3   OH233946   1.918   4.962   6.078
11330TIP3    H133947   1.833   4.928   6.045
11330TIP3    H233948   1.907   5.057   6.057
11331TIP3   OH233949   2.321   3.546   6.063
11331TIP3    H133950   2.368   3.482   6.006
11331TIP3    H233951   2.395   3.599   6.098
11332TIP3   OH233952   2.828   3.725   6.164
11332TIP3    H133953   2.888   3.676   6.223
11332TIP3    H233954   2.852   3.817   6.189
11333TIP3   OH233955   2.690   5.144   5.662
11333TIP3    H133956   2.779   5.167   5.627
11333TIP3    H233957   2.669   5.069   5.602
11334TIP3   OH233958   3.410   5.267   5.757
11334TIP3    H133959   3.403   5.169   5.747
11334TIP3    H233960   3.364   5.296   5.676
11335TIP3   OH233961   2.622   3.800   7.546
11335TIP3    H133962   2.585   3.728   7.599
11335TIP3    H233963   2.716   3.798   7.575
11336TIP3   OH233964   2.872   3.794   7.666
11336TIP3    H133965   2.957   3.764   7.629
11336TIP3    H233966   2.858   3.727   7.736
11337TIP3   OH233967   1.996   4.985   5.717
11337TIP3    H133968   2.000   4.997   5.813
11337TIP3    H233969   2.082   4.941   5.699
11338TIP3   OH233970   3.699   3.860   7.450
11338TIP3    H133971   3.715   3.829   7.541
11338TIP3    H233972   3.789   3.853   7.411
11339TIP3   OH233973   3.639   5.412   6.936
11339TIP3    H133974   3.560   5.381   6.889
11339TIP3    H233975   3.616   5.507   6.948
11340TIP3   OH233976   4.903   4.784   5.706
11340TIP3    H133977   4.871   4.874   5.685
11340TIP3    H233978   4.828   4.732   5.672
11341TIP3   OH233979   4.901   4.785   6.094
11341TIP3    H133980   4.937   4.758   6.181
11341TIP3    H233981   4.862   4.702   6.063
11342TIP3   OH233982   4.198   4.678   6.461
11342TIP3    H133983   4.228   4.608   6.522
11342TIP3    H233984   4.283   4.719   6.437
11343TIP3   OH233985   5.148   5.087   5.774
11343TIP3    H133986   5.130   5.019   5.840
11343TIP3    H233987   5.178   5.162   5.829
11344TIP3   OH233988   4.175   5.090   6.184
11344TIP3    H133989   4.167   4.992   6.182
11344TIP3    H233990   4.271   5.098   6.169
11345TIP3   OH233991   3.879   4.290   5.961
11345TIP3    H133992   3.829   4.371   5.978
11345TIP3    H233993   3.810   4.235   5.919
11346TIP3   OH233994   3.937   4.578   6.143
11346TIP3    H133995   3.986   4.498   6.175
11346TIP3    H233996   3.992   4.607   6.070
11347TIP3   OH233997   4.798   5.547   5.791
11347TIP3    H133998   4.838   5.476   5.737
11347TIP3    H233999   4.792   5.505   5.877
11348TIP3   OH234000   4.698   5.010   6.140
11348TIP3    H134001   4.739   4.933   6.097
11348TIP3    H234002   4.781   5.057   6.165
11349TIP3   OH234003   5.715   4.329   6.137
11349TIP3    H134004   5.746   4.412   6.178
11349TIP3    H234005   5.737   4.344   6.043
11350TIP3   OH234006   5.113   4.509   6.168
11350TIP3    H134007   5.155   4.424   6.189
11350TIP3    H234008   5.080   4.491   6.078
11351TIP3   OH234009   4.454   4.169   6.134
11351TIP3    H134010   4.433   4.241   6.070
11351TIP3    H234011   4.406   4.095   6.090
11352TIP3   OH234012   5.147   4.263   5.755
11352TIP3    H134013   5.218   4.247   5.821
11352TIP3    H234014   5.201   4.296   5.681
11353TIP3   OH234015   4.085   4.370   6.242
11353TIP3    H134016   4.168   4.350   6.289
11353TIP3    H234017   4.098   4.315   6.162
11354TIP3   OH234018   4.522   4.568   6.044
11354TIP3    H134019   4.617   4.545   6.052
11354TIP3    H234020   4.485   4.485   6.008
11355TIP3   OH234021   5.790   4.539   6.305
11355TIP3    H134022   5.705   4.583   6.285
11355TIP3    H234023   5.803   4.566   6.397
11356TIP3   OH234024   4.448   4.154   6.570
11356TIP3    H134025   4.387   4.189   6.502
11356TIP3    H234026   4.395   4.169   6.650
11357TIP3   OH234027   4.789   5.003   5.577
11357TIP3    H134028   4.750   4.990   5.490
11357TIP3    H234029   4.744   5.086   5.605
11358TIP3   OH234030   4.554   4.929   6.361
11358TIP3    H134031   4.495   4.999   6.398
11358TIP3    H234032   4.597   4.976   6.287
11359TIP3   OH234033   5.352   4.267   5.932
11359TIP3    H134034   5.339   4.219   6.015
11359TIP3    H234035   5.404   4.345   5.961
11360TIP3   OH234036   4.320   4.267   6.352
11360TIP3    H134037   4.383   4.338   6.377
11360TIP3    H234038   4.368   4.227   6.277
11361TIP3   OH234039   4.384   5.128   6.464
11361TIP3    H134040   4.357   5.212   6.422
11361TIP3    H234041   4.305   5.110   6.519
11362TIP3   OH234042   3.773   4.814   5.697
11362TIP3    H134043   3.733   4.841   5.612
11362TIP3    H234044   3.805   4.899   5.732
11363TIP3   OH234045   5.214   5.331   5.937
11363TIP3    H134046   5.124   5.322   5.976
11363TIP3    H234047   5.205   5.417   5.892
11364TIP3   OH234048   5.508   4.229   6.303
11364TIP3    H134049   5.420   4.254   6.269
11364TIP3    H234050   5.568   4.261   6.233
11365TIP3   OH234051   4.799   3.868   6.285
11365TIP3    H134052   4.785   3.773   6.304
11365TIP3    H234053   4.723   3.908   6.332
11366TIP3   OH234054   4.913   5.374   5.608
11366TIP3    H134055   4.962   5.291   5.590
11366TIP3    H234056   4.976   5.438   5.569
11367TIP3   OH234057   5.058   5.159   5.523
11367TIP3    H134058   5.023   5.078   5.483
11367TIP3    H234059   5.096   5.125   5.607
11368TIP3   OH234060   5.440   5.239   6.283
11368TIP3    H134061   5.428   5.162   6.223
11368TIP3    H234062   5.422   5.314   6.223
11369TIP3   OH234063   4.733   4.636   5.542
11369TIP3    H134064   4.654   4.688   5.520
11369TIP3    H234065   4.778   4.631   5.455
11370TIP3   OH234066   4.691   4.422   5.253
11370TIP3    H134067   4.758   4.474   5.300
11370TIP3    H234068   4.748   4.358   5.206
11371TIP3   OH234069   5.636   4.882   6.130
11371TIP3    H134070   5.551   4.931   6.133
11371TIP3    H234071   5.666   4.905   6.039
11372TIP3   OH234072   5.082   4.719   5.509
11372TIP3    H134073   5.027   4.741   5.588
11372TIP3    H234074   5.166   4.694   5.553
11373TIP3   OH234075   5.314   4.755   6.427
11373TIP3    H134076   5.311   4.838   6.478
11373TIP3    H234077   5.228   4.759   6.381
11374TIP3   OH234078   4.312   4.715   5.930
11374TIP3    H134079   4.270   4.657   5.863
11374TIP3    H234080   4.388   4.660   5.961
11375TIP3   OH234081   4.439   5.123   6.078
11375TIP3    H134082   4.421   5.091   5.988
11375TIP3    H234083   4.528   5.087   6.095
11376TIP3   OH234084   4.440   4.688   6.286
11376TIP3    H134085   4.475   4.659   6.199
11376TIP3    H234086   4.489   4.771   6.301
11377TIP3   OH234087   4.973   5.324   6.059
11377TIP3    H134088   4.961   5.405   6.113
11377TIP3    H234089   4.957   5.252   6.123
11378TIP3   OH234090   4.591   5.243   6.606
11378TIP3    H134091   4.530   5.304   6.653
11378TIP3    H234092   4.527   5.189   6.555
11379TIP3   OH234093   4.918   4.577   5.337
11379TIP3    H134094   4.977   4.638   5.387
11379TIP3    H234095   4.945   4.597   5.244
11380TIP3   OH234096   4.345   4.799   6.709
11380TIP3    H134097   4.346   4.883   6.758
11380TIP3    H234098   4.251   4.773   6.721
11381TIP3   OH234099   4.664   5.254   5.615
11381TIP3    H134100   4.748   5.304   5.622
11381TIP3    H234101   4.606   5.315   5.569
11382TIP3   OH234102   4.380   5.404   6.691
11382TIP3    H134103   4.350   5.413   6.598
11382TIP3    H234104   4.304   5.363   6.735
11383TIP3   OH234105   5.436   3.814   5.388
11383TIP3    H134106   5.354   3.836   5.436
11383TIP3    H234107   5.451   3.897   5.337
11384TIP3   OH234108   4.178   4.559   5.736
11384TIP3    H134109   4.109   4.601   5.679
11384TIP3    H234110   4.145   4.469   5.743
11385TIP3   OH234111   5.236   5.182   4.935
11385TIP3    H134112   5.245   5.279   4.920
11385TIP3    H234113   5.329   5.152   4.923
11386TIP3   OH234114   3.952   4.947   6.656
11386TIP3    H134115   3.903   4.915   6.578
11386TIP3    H234116   3.998   4.865   6.688
11387TIP3   OH234117   3.814   5.134   6.276
11387TIP3    H134118   3.908   5.128   6.259
11387TIP3    H234119   3.807   5.219   6.323
11388TIP3   OH234120   5.680   5.589   6.333
11388TIP3    H134121   5.678   5.492   6.348
11388TIP3    H234122   5.596   5.615   6.377
11389TIP3   OH234123   4.784   5.373   6.463
11389TIP3    H134124   4.781   5.465   6.496
11389TIP3    H234125   4.715   5.330   6.518
11390TIP3   OH234126   4.548   5.498   5.417
11390TIP3    H134127   4.502   5.481   5.333
11390TIP3    H234128   4.514   5.585   5.443
11391TIP3   OH234129   3.983   5.348   5.803
11391TIP3    H134130   4.031   5.339   5.888
11391TIP3    H234131   3.934   5.264   5.800
11392TIP3   OH234132   4.746   5.402   5.054
11392TIP3    H134133   4.805   5.332   5.018
11392TIP3    H234134   4.781   5.413   5.145
11393TIP3   OH234135   4.798   5.450   5.323
11393TIP3    H134136   4.710   5.459   5.366
11393TIP3    H234137   4.850   5.413   5.396
11394TIP3   OH234138   5.567   4.716   6.605
11394TIP3    H134139   5.484   4.726   6.556
11394TIP3    H234140   5.584   4.620   6.595
11395TIP3   OH234141   4.166   5.123   6.632
11395TIP3    H134142   4.213   5.116   6.717
11395TIP3    H234143   4.110   5.046   6.632
11396TIP3   OH234144   4.563   3.947   6.415
11396TIP3    H134145   4.475   3.916   6.385
11396TIP3    H234146   4.536   4.027   6.464
11397TIP3   OH234147   5.099   4.063   6.609
11397TIP3    H134148   5.169   4.033   6.672
11397TIP3    H234149   5.016   4.042   6.657
11398TIP3   OH234150   5.335   4.492   6.527
11398TIP3    H134151   5.283   4.489   6.611
11398TIP3    H234152   5.312   4.579   6.491
11399TIP3   OH234153   4.998   4.620   5.084
11399TIP3    H134154   4.960   4.597   4.997
11399TIP3    H234155   5.082   4.663   5.057
11400TIP3   OH234156   4.708   3.995   5.386
11400TIP3    H134157   4.672   3.990   5.477
11400TIP3    H234158   4.669   3.913   5.349
11401TIP3   OH234159   4.496   4.465   6.433
11401TIP3    H134160   4.446   4.486   6.515
11401TIP3    H234161   4.479   4.546   6.380
11402TIP3   OH234162   4.379   4.351   5.946
11402TIP3    H134163   4.286   4.324   5.965
11402TIP3    H234164   4.391   4.310   5.858
11403TIP3   OH234165   4.870   4.435   5.677
11403TIP3    H134166   4.820   4.506   5.631
11403TIP3    H234167   4.925   4.400   5.603
11404TIP3   OH234168   5.045   4.710   6.759
11404TIP3    H134169   5.023   4.638   6.821
11404TIP3    H234170   5.139   4.725   6.781
11405TIP3   OH234171   5.025   4.461   5.911
11405TIP3    H134172   4.963   4.488   5.841
11405TIP3    H234173   5.062   4.382   5.867
11406TIP3   OH234174   4.313   4.492   6.642
11406TIP3    H134175   4.356   4.548   6.708
11406TIP3    H234176   4.301   4.408   6.690
11407TIP3   OH234177   4.366   3.972   5.350
11407TIP3    H134178   4.355   3.969   5.447
11407TIP3    H234179   4.287   4.023   5.324
11408TIP3   OH234180   3.908   4.013   6.223
11408TIP3    H134181   3.985   4.044   6.275
11408TIP3    H234182   3.946   3.981   6.140
11409TIP3   OH234183   3.874   3.993   5.741
11409TIP3    H134184   3.921   4.029   5.663
11409TIP3    H234185   3.813   4.067   5.759
11410TIP3   OH234186   5.036   4.707   6.333
11410TIP3    H134187   5.070   4.636   6.274
11410TIP3    H234188   5.006   4.652   6.409
11411TIP3   OH234189   4.712   4.173   6.007
11411TIP3    H134190   4.631   4.170   6.061
11411TIP3    H234191   4.781   4.164   6.074
11412TIP3   OH234192   4.141   4.228   6.014
11412TIP3    H134193   4.047   4.235   5.985
11412TIP3    H234194   4.164   4.136   5.992
11413TIP3   OH234195   4.406   4.224   5.705
11413TIP3    H134196   4.500   4.236   5.683
11413TIP3    H234197   4.359   4.244   5.621
11414TIP3   OH234198   5.199   4.248   6.211
11414TIP3    H134199   5.166   4.261   6.303
11414TIP3    H234200   5.132   4.187   6.176
11415TIP3   OH234201   4.255   4.260   5.481
11415TIP3    H134202   4.185   4.213   5.433
11415TIP3    H234203   4.307   4.296   5.406
11416TIP3   OH234204   5.373   5.937   6.429
11416TIP3    H134205   5.370   5.964   6.335
11416TIP3    H234206   5.450   5.988   6.461
11417TIP3   OH234207   4.319   5.038   6.859
11417TIP3    H134208   4.400   5.079   6.895
11417TIP3    H234209   4.288   4.989   6.936
11418TIP3   OH234210   4.788   4.502   6.105
11418TIP3    H134211   4.861   4.462   6.055
11418TIP3    H234212   4.794   4.456   6.191
11419TIP3   OH234213   4.309   3.987   5.987
11419TIP3    H134214   4.273   3.910   6.036
11419TIP3    H234215   4.354   3.943   5.914
11420TIP3   OH234216   4.766   4.400   6.392
11420TIP3    H134217   4.676   4.435   6.408
11420TIP3    H234218   4.823   4.461   6.443
11421TIP3   OH234219   4.501   4.787   5.488
11421TIP3    H134220   4.430   4.721   5.477
11421TIP3    H234221   4.481   4.821   5.579
11422TIP3   OH234222   5.401   5.023   6.115
11422TIP3    H134223   5.424   5.075   6.035
11422TIP3    H234224   5.317   4.980   6.089
11423TIP3   OH234225   4.960   4.095   5.359
11423TIP3    H134226   4.864   4.076   5.365
11423TIP3    H234227   4.965   4.191   5.381
11424TIP3   OH234228   4.897   5.103   6.488
11424TIP3    H134229   4.937   5.089   6.574
11424TIP3    H234230   4.865   5.195   6.493
11425TIP3   OH234231   5.028   4.349   5.459
11425TIP3    H134232   5.124   4.354   5.473
11425TIP3    H234233   5.009   4.429   5.406
11426TIP3   OH234234   4.197   4.814   6.162
11426TIP3    H134235   4.231   4.785   6.075
11426TIP3    H234236   4.243   4.753   6.222
11427TIP3   OH234237   4.648   4.937   5.312
11427TIP3    H134238   4.599   5.022   5.315
11427TIP3    H234239   4.594   4.882   5.373
11428TIP3   OH234240   4.074   4.741   6.784
11428TIP3    H134241   4.105   4.726   6.874
11428TIP3    H234242   4.018   4.664   6.768
11429TIP3   OH234243   4.805   4.846   6.797
11429TIP3    H134244   4.745   4.786   6.749
11429TIP3    H234245   4.893   4.810   6.770
11430TIP3   OH234246   5.060   5.362   6.385
11430TIP3    H134247   4.964   5.365   6.397
11430TIP3    H234248   5.089   5.416   6.462
11431TIP3   OH234249   5.469   4.441   5.291
11431TIP3    H134250   5.408   4.397   5.227
11431TIP3    H234251   5.466   4.531   5.252
11432TIP3   OH234252   5.691   5.297   6.371
11432TIP3    H134253   5.593   5.291   6.363
11432TIP3    H234254   5.717   5.267   6.281
11433TIP3   OH234255   5.174   5.256   5.201
11433TIP3    H134256   5.145   5.187   5.261
11433TIP3    H234257   5.185   5.209   5.116
11434TIP3   OH234258   5.167   4.887   6.033
11434TIP3    H134259   5.074   4.863   6.047
11434TIP3    H234260   5.200   4.806   5.989
11435TIP3   OH234261   4.298   5.118   5.795
11435TIP3    H134262   4.297   5.197   5.738
11435TIP3    H234263   4.205   5.094   5.797
11436TIP3   OH234264   3.860   4.417   5.493
11436TIP3    H134265   3.905   4.501   5.516
11436TIP3    H234266   3.784   4.420   5.555
11437TIP3   OH234267   4.428   4.878   5.731
11437TIP3    H134268   4.397   4.968   5.754
11437TIP3    H234269   4.394   4.826   5.807
11438TIP3   OH234270   4.566   5.456   6.259
11438TIP3    H134271   4.608   5.529   6.209
11438TIP3    H234272   4.643   5.419   6.305
11439TIP3   OH234273   4.214   5.354   5.642
11439TIP3    H134274   4.129   5.364   5.688
11439TIP3    H234275   4.248   5.446   5.644
11440TIP3   OH234276   4.950   5.091   6.219
11440TIP3    H134277   4.939   5.088   6.317
11440TIP3    H234278   5.030   5.039   6.207
11441TIP3   OH234279   4.930   4.988   5.103
11441TIP3    H134280   4.984   4.962   5.181
11441TIP3    H234281   4.843   4.957   5.129
11442TIP3   OH234282   5.201   5.622   6.266
11442TIP3    H134283   5.120   5.568   6.259
11442TIP3    H234284   5.186   5.688   6.194
11443TIP3   OH234285   5.268   5.458   4.920
11443TIP3    H134286   5.305   5.533   4.870
11443TIP3    H234287   5.187   5.501   4.954
11444TIP3   OH234288   4.284   4.237   6.782
11444TIP3    H134289   4.187   4.238   6.794
11444TIP3    H234290   4.312   4.179   6.855
11445TIP3   OH234291   5.091   4.920   5.317
11445TIP3    H134292   5.080   4.853   5.387
11445TIP3    H234293   5.189   4.914   5.304
11446TIP3   OH234294   4.003   5.323   6.421
11446TIP3    H134295   4.066   5.253   6.444
11446TIP3    H234296   4.046   5.402   6.456
11447TIP3   OH234297   4.292   4.964   5.101
11447TIP3    H134298   4.306   4.872   5.075
11447TIP3    H234299   4.271   4.954   5.196
11448TIP3   OH234300   4.236   4.970   5.374
11448TIP3    H134301   4.313   4.943   5.425
11448TIP3    H234302   4.241   5.068   5.381
11449TIP3   OH234303   3.972   4.662   5.577
11449TIP3    H134304   3.905   4.706   5.633
11449TIP3    H234305   3.985   4.730   5.509
11450TIP3   OH234306   5.125   4.301   6.471
11450TIP3    H134307   5.207   4.337   6.508
11450TIP3    H234308   5.113   4.219   6.525
11451TIP3   OH234309   5.006   4.047   5.639
11451TIP3    H134310   4.992   4.067   5.544
11451TIP3    H234311   5.045   4.131   5.672
11452TIP3   OH234312   4.505   5.166   5.321
11452TIP3    H134313   4.418   5.191   5.358
11452TIP3    H234314   4.521   5.240   5.261
11453TIP3   OH234315   4.690   4.233   5.737
11453TIP3    H134316   4.755   4.305   5.720
11453TIP3    H234317   4.697   4.224   5.835
11454TIP3   OH234318   4.963   4.547   6.541
11454TIP3    H134319   4.989   4.597   6.621
11454TIP3    H234320   5.016   4.465   6.550
11455TIP3   OH234321   4.834   3.952   5.836
11455TIP3    H134322   4.828   4.031   5.894
11455TIP3    H234323   4.897   3.985   5.768
11456TIP3   OH234324   4.251   5.243   5.391
11456TIP3    H134325   4.221   5.312   5.329
11456TIP3    H234326   4.235   5.286   5.478
11457TIP3   OH234327   4.348   3.958   5.627
11457TIP3    H134328   4.347   4.047   5.666
11457TIP3    H234329   4.444   3.939   5.634
11458TIP3   OH234330   5.602   4.449   6.524
11458TIP3    H134331   5.504   4.449   6.532
11458TIP3    H234332   5.611   4.400   6.441
11459TIP3   OH234333   5.253   4.643   5.912
11459TIP3    H134334   5.177   4.583   5.924
11459TIP3    H234335   5.324   4.595   5.960
11460TIP3   OH234336   3.968   4.868   5.380
11460TIP3    H134337   4.040   4.933   5.389
11460TIP3    H234338   4.011   4.809   5.314
11461TIP3   OH234339   3.908   4.147   5.518
11461TIP3    H134340   3.909   4.245   5.513
11461TIP3    H234341   3.831   4.125   5.465
11462TIP3   OH234342   5.223   5.601   5.859
11462TIP3    H134343   5.180   5.647   5.783
11462TIP3    H234344   5.318   5.619   5.838
11463TIP3   OH234345   4.297   3.868   6.386
11463TIP3    H134346   4.268   3.833   6.300
11463TIP3    H234347   4.288   3.790   6.445
11464TIP3   OH234348   3.836   5.088   5.766
11464TIP3    H134349   3.767   5.116   5.827
11464TIP3    H234350   3.804   5.129   5.682
11465TIP3   OH234351   4.001   5.638   6.844
11465TIP3    H134352   4.087   5.650   6.890
11465TIP3    H234353   3.956   5.576   6.902
11466TIP3   OH234354   4.466   5.591   6.886
11466TIP3    H134355   4.562   5.584   6.899
11466TIP3    H234356   4.451   5.528   6.813
11467TIP3   OH234357   4.456   5.167   5.011
11467TIP3    H134358   4.401   5.094   5.049
11467TIP3    H234359   4.532   5.115   4.978
11468TIP3   OH234360   5.113   5.499   6.619
11468TIP3    H134361   5.106   5.430   6.689
11468TIP3    H234362   5.191   5.551   6.649
11469TIP3   OH234363   4.892   5.206   4.926
11469TIP3    H134364   4.932   5.141   4.986
11469TIP3    H234365   4.950   5.202   4.847
11470TIP3   OH234366   4.103   4.682   5.236
11470TIP3    H134367   4.160   4.651   5.309
11470TIP3    H234368   4.169   4.687   5.164
11471TIP3   OH234369   4.729   5.120   6.816
11471TIP3    H134370   4.695   5.142   6.727
11471TIP3    H234371   4.763   5.029   6.805
11472TIP3   OH234372   4.618   4.885   5.043
11472TIP3    H134373   4.619   4.895   5.140
11472TIP3    H234374   4.619   4.787   5.036
11473TIP3   OH234375   5.223   5.134   6.422
11473TIP3    H134376   5.301   5.174   6.379
11473TIP3    H234377   5.156   5.203   6.405
11474TIP3   OH234378   4.259   4.764   7.008
11474TIP3    H134379   4.336   4.706   7.009
11474TIP3    H234380   4.263   4.803   7.098
11475TIP3   OH234381   4.308   4.590   5.454
11475TIP3    H134382   4.282   4.547   5.537
11475TIP3    H234383   4.347   4.516   5.403
11476TIP3   OH234384   4.576   4.650   6.682
11476TIP3    H134385   4.501   4.713   6.682
11476TIP3    H234386   4.630   4.685   6.608
11477TIP3   OH234387   4.412   4.387   5.295
11477TIP3    H134388   4.388   4.392   5.200
11477TIP3    H234389   4.510   4.386   5.289
11478TIP3   OH234390   5.096   5.055   6.817
11478TIP3    H134391   5.175   5.026   6.770
11478TIP3    H234392   5.091   4.991   6.890
11479TIP3   OH234393   5.231   4.713   4.963
11479TIP3    H134394   5.210   4.668   4.878
11479TIP3    H234395   5.196   4.803   4.942
11480TIP3   OH234396   4.703   4.444   6.809
11480TIP3    H134397   4.704   4.364   6.752
11480TIP3    H234398   4.659   4.509   6.751
11481TIP3   OH234399   4.706   4.231   6.620
11481TIP3    H134400   4.735   4.270   6.535
11481TIP3    H234401   4.613   4.207   6.600
11482TIP3   OH234402   4.728   4.763   6.492
11482TIP3    H134403   4.815   4.775   6.452
11482TIP3    H234404   4.674   4.829   6.445
11483TIP3   OH234405   5.311   4.729   6.869
11483TIP3    H134406   5.360   4.646   6.881
11483TIP3    H234407   5.380   4.788   6.835
11484TIP3   OH234408   5.353   4.985   6.606
11484TIP3    H134409   5.295   5.040   6.548
11484TIP3    H234410   5.441   5.006   6.568
11485TIP3   OH234411   4.579   4.551   7.042
11485TIP3    H134412   4.514   4.479   7.058
11485TIP3    H234413   4.614   4.525   6.954
11486TIP3   OH234414   4.837   3.991   6.688
11486TIP3    H134415   4.787   4.072   6.665
11486TIP3    H234416   4.769   3.922   6.676
11487TIP3   OH234417   4.963   4.493   6.902
11487TIP3    H134418   4.949   4.478   6.998
11487TIP3    H234419   4.874   4.470   6.869
11488TIP3   OH234420   5.202   4.446   6.757
11488TIP3    H134421   5.128   4.446   6.821
11488TIP3    H234422   5.277   4.416   6.813
11489TIP3   OH234423   5.431   4.387   6.905
11489TIP3    H134424   5.445   4.292   6.921
11489TIP3    H234425   5.428   4.423   6.996
11490TIP3   OH234426   4.421   4.330   7.097
11490TIP3    H134427   4.423   4.238   7.064
11490TIP3    H234428   4.459   4.317   7.187
11491TIP3   OH234429   4.930   4.001   6.946
11491TIP3    H134430   4.996   3.929   6.939
11491TIP3    H234431   4.891   3.997   6.856
11492TIP3   OH234432   4.998   4.216   7.104
11492TIP3    H134433   4.977   4.144   7.040
11492TIP3    H234434   4.919   4.273   7.097
11493TIP3   OH234435   4.221   5.446   5.204
11493TIP3    H134436   4.316   5.437   5.184
11493TIP3    H234437   4.193   5.497   5.125
11494TIP3   OH234438   3.699   4.828   5.418
11494TIP3    H134439   3.794   4.848   5.402
11494TIP3    H234440   3.691   4.739   5.377
11495TIP3   OH234441   3.614   5.440   5.834
11495TIP3    H134442   3.549   5.378   5.793
11495TIP3    H234443   3.659   5.380   5.897
11496TIP3   OH234444   3.748   5.287   6.019
11496TIP3    H134445   3.734   5.215   6.083
11496TIP3    H234446   3.802   5.348   6.071
11497TIP3   OH234447   5.479   5.686   5.821
11497TIP3    H134448   5.502   5.721   5.908
11497TIP3    H234449   5.540   5.734   5.763
11498TIP3   OH234450   5.503   5.709   6.102
11498TIP3    H134451   5.461   5.620   6.099
11498TIP3    H234452   5.579   5.689   6.158
11499TIP3   OH234453   5.552   5.386   6.676
11499TIP3    H134454   5.480   5.396   6.741
11499TIP3    H234455   5.594   5.474   6.679
11500TIP3   OH234456   5.369   4.899   5.294
11500TIP3    H134457   5.435   4.964   5.263
11500TIP3    H234458   5.414   4.862   5.373
11501TIP3   OH234459   5.497   4.766   5.499
11501TIP3    H134460   5.429   4.725   5.556
11501TIP3    H234461   5.560   4.804   5.564
11502TIP3   OH234462   5.554   5.162   5.930
11502TIP3    H134463   5.604   5.094   5.883
11502TIP3    H234464   5.550   5.234   5.865
11503TIP3   OH234465   5.380   5.459   6.124
11503TIP3    H134466   5.308   5.502   6.174
11503TIP3    H234467   5.330   5.414   6.053
11504TIP3   OH234468   5.434   4.676   5.142
11504TIP3    H134469   5.362   4.676   5.075
11504TIP3    H234470   5.405   4.751   5.198
11505TIP3   OH234471   5.305   4.348   5.095
11505TIP3    H134472   5.256   4.381   5.019
11505TIP3    H234473   5.283   4.252   5.091
11506TIP3   OH234474   5.309   4.626   5.643
11506TIP3    H134475   5.315   4.529   5.634
11506TIP3    H234476   5.294   4.637   5.739
11507TIP3   OH234477   3.934   4.699   6.393
11507TIP3    H134478   3.930   4.664   6.302
11507TIP3    H234479   4.031   4.699   6.409
11508TIP3   OH234480   5.600   5.050   6.502
11508TIP3    H134481   5.671   4.983   6.490
11508TIP3    H234482   5.624   5.118   6.437
11509TIP3   OH234483   5.783   4.850   6.509
11509TIP3    H134484   5.708   4.802   6.550
11509TIP3    H234485   5.856   4.787   6.527
11510TIP3   OH234486   5.247   4.082   5.082
11510TIP3    H134487   5.318   4.047   5.139
11510TIP3    H234488   5.172   4.024   5.100
11511TIP3   OH234489   5.308   4.342   5.536
11511TIP3    H134490   5.347   4.253   5.551
11511TIP3    H234491   5.365   4.373   5.464
11512TIP3   OH234492   5.466   4.511   6.034
11512TIP3    H134493   5.551   4.535   5.992
11512TIP3    H234494   5.481   4.549   6.123
11513TIP3   OH234495   5.538   4.658   6.263
11513TIP3    H134496   5.461   4.692   6.312
11513TIP3    H234497   5.571   4.740   6.219
11514TIP3   OH234498   4.155   4.387   7.071
11514TIP3    H134499   4.253   4.378   7.072
11514TIP3    H234500   4.130   4.298   7.105
11515TIP3   OH234501   5.988   4.251   6.819
11515TIP3    H134502   6.050   4.187   6.778
11515TIP3    H234503   5.958   4.303   6.741
11516TIP3   OH234504   5.414   4.092   5.575
11516TIP3    H134505   5.462   4.075   5.659
11516TIP3    H234506   5.353   4.015   5.573
11517TIP3   OH234507   4.114   4.078   6.398
11517TIP3    H134508   4.174   4.000   6.405
11517TIP3    H234509   4.179   4.149   6.387
11518TIP3   OH234510   3.914   4.351   6.466
11518TIP3    H134511   3.963   4.341   6.381
11518TIP3    H234512   3.953   4.432   6.500
11519TIP3   OH234513   5.857   4.387   6.622
11519TIP3    H134514   5.771   4.430   6.642
11519TIP3    H234515   5.825   4.313   6.566
11520TIP3   OH234516   5.494   4.022   5.211
11520TIP3    H134517   5.531   3.952   5.154
11520TIP3    H234518   5.561   4.092   5.205
11521TIP3   OH234519   3.902   3.857   5.973
11521TIP3    H134520   3.808   3.847   5.997
11521TIP3    H234521   3.896   3.913   5.893
11522TIP3   OH234522   5.059   5.558   5.475
11522TIP3    H134523   5.111   5.548   5.393
11522TIP3    H234524   5.111   5.623   5.524
11523TIP3   OH234525   4.122   3.936   6.785
11523TIP3    H134526   4.069   3.928   6.866
11523TIP3    H234527   4.056   3.971   6.723
11524TIP3   OH234528   4.151   5.326   6.874
11524TIP3    H134529   4.086   5.396   6.862
11524TIP3    H234530   4.176   5.336   6.967
11525TIP3   OH234531   4.338   5.399   6.407
11525TIP3    H134532   4.296   5.478   6.366
11525TIP3    H234533   4.425   5.407   6.364
11526TIP3   OH234534   4.779   5.639   6.544
11526TIP3    H134535   4.822   5.638   6.633
11526TIP3    H234536   4.845   5.691   6.493
11527TIP3   OH234537   4.961   5.792   6.407
11527TIP3    H134538   5.032   5.743   6.364
11527TIP3    H234539   5.013   5.849   6.468
11528TIP3   OH234540   5.757   4.149   6.505
11528TIP3    H134541   5.667   4.137   6.470
11528TIP3    H234542   5.792   4.057   6.496
11529TIP3   OH234543   4.013   5.647   6.439
11529TIP3    H134544   3.923   5.677   6.415
11529TIP3    H234545   4.032   5.707   6.512
11530TIP3   OH234546   4.249   5.629   6.291
11530TIP3    H134547   4.161   5.642   6.333
11530TIP3    H234548   4.233   5.661   6.200
11531TIP3   OH234549   4.675   5.655   6.091
11531TIP3    H134550   4.608   5.675   6.023
11531TIP3    H234551   4.689   5.743   6.132
11532TIP3   OH234552   4.946   5.594   6.142
11532TIP3    H134553   4.853   5.614   6.121
11532TIP3    H234554   4.993   5.667   6.098
11533TIP3   OH234555   5.147   5.784   6.052
11533TIP3    H134556   5.136   5.869   6.005
11533TIP3    H234557   5.177   5.725   5.980
11534TIP3   OH234558   3.926   5.444   6.175
11534TIP3    H134559   3.951   5.418   6.266
11534TIP3    H234560   3.998   5.400   6.125
11535TIP3   OH234561   4.122   5.316   6.038
11535TIP3    H134562   4.139   5.232   6.085
11535TIP3    H234563   4.212   5.353   6.030
11536TIP3   OH234564   4.388   5.409   6.041
11536TIP3    H134565   4.420   5.318   6.026
11536TIP3    H234566   4.438   5.430   6.122
11537TIP3   OH234567   4.961   4.065   6.126
11537TIP3    H134568   4.920   3.993   6.176
11537TIP3    H234569   5.035   4.019   6.081
11538TIP3   OH234570   5.482   3.949   6.030
11538TIP3    H134571   5.518   3.999   5.953
11538TIP3    H234572   5.386   3.965   6.021
11539TIP3   OH234573   5.579   4.045   5.792
11539TIP3    H134574   5.653   3.994   5.754
11539TIP3    H234575   5.612   4.137   5.778
11540TIP3   OH234576   4.210   3.774   6.139
11540TIP3    H134577   4.117   3.742   6.143
11540TIP3    H234578   4.257   3.688   6.135
11541TIP3   OH234579   4.001   3.646   5.791
11541TIP3    H134580   4.029   3.701   5.716
11541TIP3    H234581   3.974   3.713   5.856
11542TIP3   OH234582   4.657   3.806   6.022
11542TIP3    H134583   4.712   3.853   5.957
11542TIP3    H234584   4.686   3.845   6.105
11543TIP3   OH234585   5.198   3.954   6.003
11543TIP3    H134586   5.201   3.912   5.916
11543TIP3    H234587   5.187   3.876   6.062
11544TIP3   OH234588   5.232   3.879   5.568
11544TIP3    H134589   5.145   3.921   5.583
11544TIP3    H234590   5.218   3.793   5.612
11545TIP3   OH234591   3.714   5.221   5.566
11545TIP3    H134592   3.628   5.186   5.533
11545TIP3    H234593   3.704   5.314   5.539
11546TIP3   OH234594   4.117   3.802   5.550
11546TIP3    H134595   4.164   3.739   5.493
11546TIP3    H234596   4.192   3.855   5.585
11547TIP3   OH234597   4.625   3.982   5.650
11547TIP3    H134598   4.684   3.933   5.708
11547TIP3    H234599   4.649   4.074   5.675
11548TIP3   OH234600   4.487   5.401   5.150
11548TIP3    H134601   4.575   5.424   5.114
11548TIP3    H234602   4.465   5.327   5.089
11549TIP3   OH234603   5.206   5.524   5.244
11549TIP3    H134604   5.198   5.426   5.233
11549TIP3    H234605   5.160   5.554   5.163
11550TIP3   OH234606   4.418   4.057   7.033
11550TIP3    H134607   4.381   3.986   7.087
11550TIP3    H234608   4.512   4.055   7.061
11551TIP3   OH234609   4.669   4.054   7.150
11551TIP3    H134610   4.753   4.027   7.110
11551TIP3    H234611   4.656   3.983   7.217
11552TIP3   OH234612   3.791   5.239   5.203
11552TIP3    H134613   3.795   5.259   5.297
11552TIP3    H234614   3.878   5.196   5.187
11553TIP3   OH234615   5.496   4.117   6.936
11553TIP3    H134616   5.513   4.085   7.028
11553TIP3    H234617   5.585   4.111   6.896
11554TIP3   OH234618   5.431   5.667   6.428
11554TIP3    H134619   5.352   5.637   6.378
11554TIP3    H234620   5.413   5.763   6.434
11555TIP3   OH234621   6.705   5.054   5.178
11555TIP3    H134622   6.654   5.136   5.175
11555TIP3    H234623   6.635   4.989   5.159
11556TIP3   OH234624   6.702   5.034   5.578
11556TIP3    H134625   6.736   5.017   5.668
11556TIP3    H234626   6.656   4.950   5.560
11557TIP3   OH234627   5.996   4.932   5.941
11557TIP3    H134628   6.024   4.861   6.002
11557TIP3    H234629   6.073   4.990   5.943
11558TIP3   OH234630   6.956   5.310   5.264
11558TIP3    H134631   6.937   5.267   5.350
11558TIP3    H234632   6.988   5.397   5.298
11559TIP3   OH234633   5.970   5.346   5.663
11559TIP3    H134634   5.962   5.248   5.665
11559TIP3    H234635   6.066   5.356   5.662
11560TIP3   OH234636   5.677   4.547   5.446
11560TIP3    H134637   5.626   4.628   5.466
11560TIP3    H234638   5.607   4.493   5.406
11561TIP3   OH234639   5.733   4.834   5.629
11561TIP3    H134640   5.782   4.756   5.662
11561TIP3    H234641   5.789   4.864   5.557
11562TIP3   OH234642   6.592   5.808   5.273
11562TIP3    H134643   6.641   5.732   5.237
11562TIP3    H234644   6.568   5.778   5.361
11563TIP3   OH234645   6.497   5.266   5.623
11563TIP3    H134646   6.536   5.186   5.584
11563TIP3    H234647   6.579   5.312   5.650
11564TIP3   OH234648   7.512   4.586   5.623
11564TIP3    H134649   7.542   4.669   5.665
11564TIP3    H234650   7.535   4.603   5.530
11565TIP3   OH234651   6.914   4.768   5.652
11565TIP3    H134652   6.953   4.682   5.675
11565TIP3    H234653   6.877   4.749   5.564
11566TIP3   OH234654   6.252   4.426   5.619
11566TIP3    H134655   6.228   4.498   5.556
11566TIP3    H234656   6.203   4.352   5.578
11567TIP3   OH234657   6.944   4.519   5.240
11567TIP3    H134658   7.013   4.501   5.308
11567TIP3    H234659   7.000   4.553   5.168
11568TIP3   OH234660   5.881   4.627   5.728
11568TIP3    H134661   5.963   4.608   5.777
11568TIP3    H234662   5.894   4.571   5.649
11569TIP3   OH234663   6.321   4.825   5.522
11569TIP3    H134664   6.414   4.799   5.537
11569TIP3    H234665   6.281   4.741   5.492
11570TIP3   OH234666   7.586   4.796   5.791
11570TIP3    H134667   7.500   4.839   5.772
11570TIP3    H234668   7.597   4.820   5.884
11571TIP3   OH234669   6.244   4.410   6.057
11571TIP3    H134670   6.183   4.446   5.990
11571TIP3    H234671   6.191   4.425   6.138
11572TIP3   OH234672   6.608   5.287   5.044
11572TIP3    H134673   6.550   5.249   4.976
11572TIP3    H234674   6.551   5.362   5.074
11573TIP3   OH234675   6.351   5.187   5.848
11573TIP3    H134676   6.289   5.253   5.887
11573TIP3    H234677   6.390   5.238   5.774
11574TIP3   OH234678   7.147   4.524   5.419
11574TIP3    H134679   7.132   4.475   5.501
11574TIP3    H234680   7.199   4.600   5.450
11575TIP3   OH234681   6.116   4.524   5.839
11575TIP3    H134682   6.179   4.595   5.864
11575TIP3    H234683   6.166   4.484   5.764
11576TIP3   OH234684   6.180   5.381   5.948
11576TIP3    H134685   6.155   5.470   5.914
11576TIP3    H234686   6.100   5.363   6.003
11577TIP3   OH234687   5.570   5.070   5.184
11577TIP3    H134688   5.528   5.098   5.101
11577TIP3    H234689   5.601   5.155   5.220
11578TIP3   OH234690   7.005   5.580   5.405
11578TIP3    H134691   6.921   5.575   5.457
11578TIP3    H234692   7.001   5.673   5.375
11579TIP3   OH234693   7.303   4.489   5.790
11579TIP3    H134694   7.215   4.512   5.756
11579TIP3    H234695   7.363   4.520   5.718
11580TIP3   OH234696   6.595   4.125   5.773
11580TIP3    H134697   6.582   4.030   5.794
11580TIP3    H234698   6.518   4.164   5.820
11581TIP3   OH234699   6.722   5.631   5.103
11581TIP3    H134700   6.777   5.555   5.087
11581TIP3    H234701   6.777   5.702   5.062
11582TIP3   OH234702   6.869   5.325   5.004
11582TIP3    H134703   6.773   5.320   5.000
11582TIP3    H234704   6.886   5.382   5.080
11583TIP3   OH234705   7.236   5.497   5.769
11583TIP3    H134706   7.223   5.420   5.711
11583TIP3    H234707   7.218   5.572   5.708
11584TIP3   OH234708   6.532   4.893   5.027
11584TIP3    H134709   6.447   4.939   5.012
11584TIP3    H234710   6.566   4.885   4.936
11585TIP3   OH234711   6.489   4.678   4.743
11585TIP3    H134712   6.558   4.725   4.790
11585TIP3    H234713   6.543   4.614   4.692
11586TIP3   OH234714   7.431   5.136   5.614
11586TIP3    H134715   7.347   5.188   5.619
11586TIP3    H234716   7.462   5.161   5.524
11587TIP3   OH234717   6.912   5.024   5.013
11587TIP3    H134718   6.832   4.996   5.062
11587TIP3    H234719   6.977   4.953   5.037
11588TIP3   OH234720   7.110   5.013   5.913
11588TIP3    H134721   7.107   5.096   5.964
11588TIP3    H234722   7.022   5.015   5.870
11589TIP3   OH234723   6.111   4.972   5.412
11589TIP3    H134724   6.068   4.913   5.347
11589TIP3    H234725   6.185   4.916   5.444
11590TIP3   OH234726   6.242   5.384   5.562
11590TIP3    H134727   6.217   5.345   5.477
11590TIP3    H234728   6.330   5.346   5.578
11591TIP3   OH234729   6.249   4.940   5.771
11591TIP3    H134730   6.278   4.919   5.680
11591TIP3    H234731   6.289   5.028   5.786
11592TIP3   OH234732   6.776   5.578   5.547
11592TIP3    H134733   6.759   5.661   5.596
11592TIP3    H234734   6.755   5.509   5.612
11593TIP3   OH234735   6.384   5.498   6.094
11593TIP3    H134736   6.323   5.559   6.140
11593TIP3    H234737   6.320   5.445   6.042
11594TIP3   OH234738   6.731   4.842   4.825
11594TIP3    H134739   6.785   4.915   4.858
11594TIP3    H234740   6.747   4.852   4.728
11595TIP3   OH234741   6.138   5.054   6.197
11595TIP3    H134742   6.143   5.142   6.239
11595TIP3    H234743   6.044   5.032   6.212
11596TIP3   OH234744   6.464   5.508   5.097
11596TIP3    H134745   6.526   5.577   5.122
11596TIP3    H234746   6.391   5.558   5.057
11597TIP3   OH234747   6.178   5.664   6.182
11597TIP3    H134748   6.141   5.669   6.092
11597TIP3    H234749   6.098   5.641   6.235
11598TIP3   OH234750   7.232   4.070   4.874
11598TIP3    H134751   7.150   4.091   4.923
11598TIP3    H234752   7.246   4.154   4.825
11599TIP3   OH234753   5.976   4.815   5.217
11599TIP3    H134754   5.905   4.858   5.165
11599TIP3    H234755   5.939   4.728   5.232
11600TIP3   OH234756   7.033   5.440   4.428
11600TIP3    H134757   7.041   5.535   4.406
11600TIP3    H234758   7.124   5.409   4.411
11601TIP3   OH234759   5.756   5.198   6.128
11601TIP3    H134760   5.688   5.179   6.060
11601TIP3    H234761   5.793   5.110   6.148
11602TIP3   OH234762   5.610   5.392   5.760
11602TIP3    H134763   5.706   5.390   5.753
11602TIP3    H234764   5.596   5.471   5.813
11603TIP3   OH234765   7.476   5.847   5.817
11603TIP3    H134766   7.477   5.751   5.834
11603TIP3    H234767   7.392   5.872   5.863
11604TIP3   OH234768   6.580   5.626   5.952
11604TIP3    H134769   6.577   5.719   5.984
11604TIP3    H234770   6.507   5.586   6.005
11605TIP3   OH234771   6.348   5.759   4.900
11605TIP3    H134772   6.293   5.742   4.822
11605TIP3    H234773   6.309   5.841   4.935
11606TIP3   OH234774   5.782   5.603   5.286
11606TIP3    H134775   5.828   5.597   5.373
11606TIP3    H234776   5.724   5.526   5.291
11607TIP3   OH234777   6.543   5.662   4.540
11607TIP3    H134778   6.601   5.591   4.504
11607TIP3    H234779   6.577   5.671   4.631
11608TIP3   OH234780   6.596   5.707   4.810
11608TIP3    H134781   6.504   5.721   4.843
11608TIP3    H234782   6.638   5.672   4.890
11609TIP3   OH234783   7.362   4.972   6.092
11609TIP3    H134784   7.279   4.982   6.044
11609TIP3    H234785   7.380   4.876   6.081
11610TIP3   OH234786   5.961   5.380   6.111
11610TIP3    H134787   6.008   5.365   6.195
11610TIP3    H234788   5.885   5.317   6.119
11611TIP3   OH234789   6.359   4.205   5.901
11611TIP3    H134790   6.271   4.174   5.871
11611TIP3    H234791   6.331   4.283   5.952
11612TIP3   OH234792   6.895   4.320   6.098
11612TIP3    H134793   6.965   4.288   6.158
11612TIP3    H234794   6.813   4.297   6.145
11613TIP3   OH234795   7.134   4.751   6.017
11613TIP3    H134796   7.080   4.747   6.099
11613TIP3    H234797   7.106   4.836   5.978
11614TIP3   OH234798   6.796   4.884   4.570
11614TIP3    H134799   6.752   4.859   4.486
11614TIP3    H234800   6.882   4.916   4.537
11615TIP3   OH234801   6.507   4.251   4.873
11615TIP3    H134802   6.470   4.247   4.964
11615TIP3    H234803   6.465   4.171   4.836
11616TIP3   OH234804   6.294   4.720   5.921
11616TIP3    H134805   6.241   4.739   6.002
11616TIP3    H234806   6.278   4.801   5.868
11617TIP3   OH234807   6.174   4.608   5.433
11617TIP3    H134808   6.082   4.581   5.453
11617TIP3    H234809   6.186   4.566   5.344
11618TIP3   OH234810   6.670   4.697   5.165
11618TIP3    H134811   6.615   4.762   5.116
11618TIP3    H234812   6.721   4.656   5.092
11619TIP3   OH234813   6.840   4.967   6.246
11619TIP3    H134814   6.817   4.895   6.309
11619TIP3    H234815   6.934   4.980   6.269
11620TIP3   OH234816   6.825   4.718   5.396
11620TIP3    H134817   6.758   4.737   5.327
11620TIP3    H234818   6.864   4.638   5.355
11621TIP3   OH234819   6.112   4.747   6.127
11621TIP3    H134820   6.135   4.811   6.196
11621TIP3    H234821   6.100   4.665   6.178
11622TIP3   OH234822   6.165   4.230   4.836
11622TIP3    H134823   6.152   4.226   4.933
11622TIP3    H234824   6.085   4.279   4.809
11623TIP3   OH234825   5.703   4.269   5.709
11623TIP3    H134826   5.780   4.300   5.762
11623TIP3    H234827   5.743   4.237   5.627
11624TIP3   OH234828   5.671   4.250   5.228
11624TIP3    H134829   5.717   4.287   5.149
11624TIP3    H234830   5.609   4.324   5.246
11625TIP3   OH234831   6.836   4.966   5.818
11625TIP3    H134832   6.869   4.893   5.759
11625TIP3    H234833   6.804   4.912   5.894
11626TIP3   OH234834   6.508   4.433   5.494
11626TIP3    H134835   6.425   4.428   5.546
11626TIP3    H234836   6.575   4.418   5.563
11627TIP3   OH234837   5.938   4.485   5.500
11627TIP3    H134838   5.843   4.494   5.472
11627TIP3    H234839   5.958   4.392   5.479
11628TIP3   OH234840   6.202   4.481   5.193
11628TIP3    H134841   6.295   4.493   5.167
11628TIP3    H234842   6.153   4.500   5.110
11629TIP3   OH234843   6.993   4.505   5.696
11629TIP3    H134844   6.963   4.517   5.789
11629TIP3    H234845   6.926   4.442   5.664
11630TIP3   OH234846   6.052   4.517   4.970
11630TIP3    H134847   5.980   4.469   4.925
11630TIP3    H234848   6.102   4.551   4.893
11631TIP3   OH234849   7.168   6.189   5.916
11631TIP3    H134850   7.169   6.216   5.822
11631TIP3    H234851   7.246   6.237   5.952
11632TIP3   OH234852   6.124   5.303   6.335
11632TIP3    H134853   6.202   5.333   6.385
11632TIP3    H234854   6.058   5.301   6.407
11633TIP3   OH234855   6.585   4.762   5.596
11633TIP3    H134856   6.653   4.710   5.550
11633TIP3    H234857   6.582   4.719   5.684
11634TIP3   OH234858   6.106   4.242   5.475
11634TIP3    H134859   6.068   4.167   5.525
11634TIP3    H234860   6.150   4.196   5.403
11635TIP3   OH234861   6.562   4.664   5.868
11635TIP3    H134862   6.471   4.691   5.891
11635TIP3    H234863   6.617   4.720   5.926
11636TIP3   OH234864   6.301   5.042   4.979
11636TIP3    H134865   6.229   4.976   4.965
11636TIP3    H234866   6.277   5.076   5.068
11637TIP3   OH234867   7.197   5.282   5.601
11637TIP3    H134868   7.223   5.332   5.521
11637TIP3    H234869   7.113   5.240   5.573
11638TIP3   OH234870   6.755   4.354   4.843
11638TIP3    H134871   6.660   4.329   4.852
11638TIP3    H234872   6.757   4.448   4.869
11639TIP3   OH234873   6.701   5.367   5.971
11639TIP3    H134874   6.723   5.342   6.062
11639TIP3    H234875   6.658   5.453   5.982
11640TIP3   OH234876   6.823   4.606   4.947
11640TIP3    H134877   6.920   4.605   4.960
11640TIP3    H234878   6.809   4.685   4.892
11641TIP3   OH234879   5.996   5.070   5.650
11641TIP3    H134880   6.032   5.037   5.565
11641TIP3    H234881   6.031   5.006   5.714
11642TIP3   OH234882   6.449   5.196   4.810
11642TIP3    H134883   6.398   5.281   4.807
11642TIP3    H234884   6.389   5.140   4.864
11643TIP3   OH234885   5.876   4.983   6.264
11643TIP3    H134886   5.890   4.970   6.360
11643TIP3    H234887   5.804   4.920   6.246
11644TIP3   OH234888   6.599   5.103   6.283
11644TIP3    H134889   6.535   5.041   6.244
11644TIP3    H234890   6.684   5.065   6.254
11645TIP3   OH234891   6.857   5.625   5.868
11645TIP3    H134892   6.761   5.621   5.885
11645TIP3    H234893   6.886   5.675   5.947
11646TIP3   OH234894   7.262   4.698   4.780
11646TIP3    H134895   7.201   4.653   4.717
11646TIP3    H234896   7.262   4.786   4.738
11647TIP3   OH234897   7.486   5.554   5.857
11647TIP3    H134898   7.389   5.549   5.850
11647TIP3    H234899   7.512   5.524   5.767
11648TIP3   OH234900   6.970   5.515   4.689
11648TIP3    H134901   6.939   5.438   4.737
11648TIP3    H234902   6.987   5.479   4.600
11649TIP3   OH234903   6.958   5.148   5.500
11649TIP3    H134904   6.870   5.119   5.531
11649TIP3    H234905   6.996   5.061   5.474
11650TIP3   OH234906   6.092   5.370   5.270
11650TIP3    H134907   6.084   5.454   5.220
11650TIP3    H234908   6.001   5.354   5.294
11651TIP3   OH234909   5.657   4.674   4.981
11651TIP3    H134910   5.701   4.759   5.003
11651TIP3    H234911   5.580   4.676   5.042
11652TIP3   OH234912   6.233   5.137   5.221
11652TIP3    H134913   6.192   5.225   5.238
11652TIP3    H234914   6.194   5.084   5.293
11653TIP3   OH234915   6.364   5.714   5.745
11653TIP3    H134916   6.404   5.787   5.695
11653TIP3    H234917   6.440   5.679   5.793
11654TIP3   OH234918   6.015   5.609   5.130
11654TIP3    H134919   5.928   5.619   5.174
11654TIP3    H234920   6.048   5.701   5.136
11655TIP3   OH234921   6.748   5.344   5.705
11655TIP3    H134922   6.733   5.349   5.803
11655TIP3    H234923   6.831   5.295   5.702
11656TIP3   OH234924   6.716   5.239   4.585
11656TIP3    H134925   6.737   5.200   4.671
11656TIP3    H234926   6.622   5.216   4.578
11657TIP3   OH234927   6.998   5.877   5.752
11657TIP3    H134928   6.917   5.822   5.749
11657TIP3    H234929   6.979   5.942   5.681
11658TIP3   OH234930   7.062   5.714   4.406
11658TIP3    H134931   7.098   5.784   4.349
11658TIP3    H234932   6.983   5.760   4.441
11659TIP3   OH234933   6.081   4.492   6.270
11659TIP3    H134934   5.984   4.493   6.282
11659TIP3    H234935   6.109   4.435   6.343
11660TIP3   OH234936   5.801   5.574   5.903
11660TIP3    H134937   5.855   5.506   5.945
11660TIP3    H234938   5.822   5.652   5.956
11661TIP3   OH234939   6.098   5.217   4.587
11661TIP3    H134940   6.098   5.123   4.560
11661TIP3    H234941   6.072   5.210   4.681
11662TIP3   OH234942   6.035   5.229   4.856
11662TIP3    H134943   6.099   5.201   4.923
11662TIP3    H234944   6.037   5.326   4.866
11663TIP3   OH234945   5.769   4.920   5.065
11663TIP3    H134946   5.701   4.964   5.121
11663TIP3    H234947   5.778   4.988   4.995
11664TIP3   OH234948   6.924   4.554   5.957
11664TIP3    H134949   7.005   4.589   5.999
11664TIP3    H234950   6.907   4.473   6.010
11665TIP3   OH234951   6.803   4.303   5.125
11665TIP3    H134952   6.789   4.324   5.031
11665TIP3    H234953   6.842   4.386   5.159
11666TIP3   OH234954   6.306   5.426   4.808
11666TIP3    H134955   6.217   5.444   4.845
11666TIP3    H234956   6.314   5.501   4.747
11667TIP3   OH234957   6.490   4.490   5.225
11667TIP3    H134958   6.554   4.563   5.213
11667TIP3    H234959   6.493   4.479   5.322
11668TIP3   OH234960   6.762   4.806   6.025
11668TIP3    H134961   6.783   4.856   6.107
11668TIP3    H234962   6.811   4.723   6.039
11669TIP3   OH234963   6.630   4.210   5.324
11669TIP3    H134964   6.627   4.287   5.383
11669TIP3    H234965   6.693   4.242   5.255
11670TIP3   OH234966   6.052   5.499   4.879
11670TIP3    H134967   6.019   5.568   4.817
11670TIP3    H234968   6.032   5.541   4.965
11671TIP3   OH234969   6.145   4.214   5.112
11671TIP3    H134970   6.142   4.302   5.153
11671TIP3    H234971   6.241   4.195   5.120
11672TIP3   OH234972   7.399   4.705   6.010
11672TIP3    H134973   7.301   4.707   6.020
11672TIP3    H234974   7.406   4.652   5.930
11673TIP3   OH234975   7.050   4.902   5.399
11673TIP3    H134976   6.975   4.840   5.410
11673TIP3    H234977   7.122   4.854   5.446
11674TIP3   OH234978   5.763   5.124   4.868
11674TIP3    H134979   5.828   5.196   4.875
11674TIP3    H234980   5.809   5.068   4.802
11675TIP3   OH234981   5.706   4.404   5.004
11675TIP3    H134982   5.705   4.502   5.000
11675TIP3    H234983   5.628   4.381   4.952
11676TIP3   OH234984   7.020   5.854   5.346
11676TIP3    H134985   6.978   5.903   5.271
11676TIP3    H234986   7.114   5.875   5.327
11677TIP3   OH234987   6.095   4.124   5.873
11677TIP3    H134988   6.064   4.088   5.787
11677TIP3    H234989   6.085   4.046   5.932
11678TIP3   OH234990   5.628   5.336   5.251
11678TIP3    H134991   5.567   5.369   5.318
11678TIP3    H234992   5.595   5.382   5.171
11679TIP3   OH234993   5.792   5.888   6.328
11679TIP3    H134994   5.879   5.889   6.373
11679TIP3    H234995   5.773   5.793   6.326
11680TIP3   OH234996   6.272   5.845   6.372
11680TIP3    H134997   6.367   5.823   6.375
11680TIP3    H234998   6.242   5.785   6.301
11681TIP3   OH234999   6.253   5.422   4.496
11681TIP3    H135000   6.196   5.351   4.534
11681TIP3    H235001   6.327   5.369   4.463
11682TIP3   OH235002   6.914   5.754   6.104
11682TIP3    H135003   6.904   5.686   6.175
11682TIP3    H235004   6.991   5.805   6.135
11683TIP3   OH235005   6.688   5.465   4.411
11683TIP3    H135006   6.736   5.403   4.468
11683TIP3    H235007   6.739   5.463   4.327
11684TIP3   OH235008   5.921   5.292   6.526
11684TIP3    H135009   5.936   5.196   6.534
11684TIP3    H235010   5.834   5.295   6.481
11685TIP3   OH235011   5.904   4.944   4.724
11685TIP3    H135012   5.958   4.909   4.795
11685TIP3    H235013   5.969   4.947   4.650
11686TIP3   OH235014   6.529   5.380   6.300
11686TIP3    H135015   6.484   5.399   6.215
11686TIP3    H235016   6.557   5.286   6.290
11687TIP3   OH235017   6.434   5.146   4.534
11687TIP3    H135018   6.415   5.154   4.629
11687TIP3    H235019   6.427   5.049   4.523
11688TIP3   OH235020   7.020   5.386   5.906
11688TIP3    H135021   7.095   5.433   5.866
11688TIP3    H235022   6.949   5.453   5.895
11689TIP3   OH235023   6.042   5.029   6.511
11689TIP3    H135024   6.117   4.974   6.487
11689TIP3    H235025   6.070   5.062   6.599
11690TIP3   OH235026   6.111   4.847   4.945
11690TIP3    H135027   6.076   4.806   5.026
11690TIP3    H235028   6.143   4.769   4.895
11691TIP3   OH235029   6.378   4.913   6.175
11691TIP3    H135030   6.297   4.969   6.173
11691TIP3    H235031   6.427   4.947   6.097
11692TIP3   OH235032   6.207   4.643   4.781
11692TIP3    H135033   6.181   4.648   4.687
11692TIP3    H235034   6.305   4.642   4.773
11693TIP3   OH235035   6.895   5.314   6.305
11693TIP3    H135036   6.971   5.280   6.256
11693TIP3    H235037   6.884   5.247   6.375
11694TIP3   OH235038   7.030   4.969   4.453
11694TIP3    H135039   7.015   4.923   4.368
11694TIP3    H235040   6.995   5.058   4.429
11695TIP3   OH235041   6.501   4.701   6.294
11695TIP3    H135042   6.500   4.621   6.237
11695TIP3    H235043   6.455   4.767   6.239
11696TIP3   OH235044   6.501   4.491   6.104
11696TIP3    H135045   6.528   4.524   6.017
11696TIP3    H235046   6.408   4.465   6.087
11697TIP3   OH235047   6.525   5.021   5.978
11697TIP3    H135048   6.609   5.033   5.934
11697TIP3    H235049   6.467   5.085   5.932
11698TIP3   OH235050   7.110   4.985   6.358
11698TIP3    H135051   7.155   4.899   6.361
11698TIP3    H235052   7.179   5.042   6.321
11699TIP3   OH235053   7.150   5.241   6.094
11699TIP3    H135054   7.092   5.295   6.036
11699TIP3    H235055   7.238   5.263   6.055
11700TIP3   OH235056   6.379   4.806   6.530
11700TIP3    H135057   6.311   4.737   6.546
11700TIP3    H235058   6.411   4.781   6.441
11701TIP3   OH235059   6.634   4.248   6.171
11701TIP3    H135060   6.580   4.327   6.150
11701TIP3    H235061   6.567   4.177   6.163
11702TIP3   OH235062   6.758   4.750   6.389
11702TIP3    H135063   6.741   4.733   6.483
11702TIP3    H235064   6.670   4.727   6.353
11703TIP3   OH235065   6.999   4.705   6.246
11703TIP3    H135066   6.923   4.703   6.307
11703TIP3    H235067   7.071   4.670   6.302
11704TIP3   OH235068   7.234   4.646   6.394
11704TIP3    H135069   7.244   4.549   6.406
11704TIP3    H235070   7.227   4.679   6.486
11705TIP3   OH235071   6.217   4.587   6.584
11705TIP3    H135072   6.219   4.495   6.551
11705TIP3    H235073   6.255   4.575   6.673
11706TIP3   OH235074   6.709   4.268   6.436
11706TIP3    H135075   6.785   4.206   6.433
11706TIP3    H235076   6.675   4.257   6.345
11707TIP3   OH235077   6.797   4.476   6.588
11707TIP3    H135078   6.772   4.403   6.527
11707TIP3    H235079   6.717   4.533   6.584
11708TIP3   OH235080   6.017   5.700   4.689
11708TIP3    H135081   6.111   5.694   4.667
11708TIP3    H235082   5.985   5.753   4.614
11709TIP3   OH235083   5.494   5.084   4.905
11709TIP3    H135084   5.589   5.105   4.890
11709TIP3    H235085   5.487   4.996   4.862
11710TIP3   OH235086   5.411   5.694   5.321
11710TIP3    H135087   5.345   5.633   5.282
11710TIP3    H235088   5.456   5.634   5.384
11711TIP3   OH235089   5.548   5.539   5.504
11711TIP3    H135090   5.534   5.472   5.573
11711TIP3    H235091   5.599   5.605   5.555
11712TIP3   OH235092   7.274   5.944   5.309
11712TIP3    H135093   7.301   5.975   5.397
11712TIP3    H235094   7.339   5.988   5.251
11713TIP3   OH235095   7.302   5.964   5.588
11713TIP3    H135096   7.257   5.877   5.586
11713TIP3    H235097   7.376   5.943   5.647
11714TIP3   OH235098   7.350   5.645   6.164
11714TIP3    H135099   7.276   5.655   6.227
11714TIP3    H235100   7.392   5.733   6.169
11715TIP3   OH235101   7.343   5.415   5.409
11715TIP3    H135102   7.402   5.348   5.368
11715TIP3    H235103   7.349   5.490   5.346
11716TIP3   OH235104   7.174   5.715   5.608
11716TIP3    H135105   7.103   5.758   5.661
11716TIP3    H235106   7.123   5.672   5.536
11717TIP3   OH235107   7.236   4.938   4.633
11717TIP3    H135108   7.161   4.932   4.569
11717TIP3    H235109   7.223   5.026   4.668
11718TIP3   OH235110   7.097   4.607   4.583
11718TIP3    H135111   7.057   4.634   4.500
11718TIP3    H235112   7.077   4.510   4.581
11719TIP3   OH235113   7.095   4.870   5.129
11719TIP3    H135114   7.121   4.778   5.115
11719TIP3    H235115   7.097   4.879   5.226
11720TIP3   OH235116   5.730   4.952   5.880
11720TIP3    H135117   5.727   4.919   5.787
11720TIP3    H235118   5.828   4.953   5.895
11721TIP3   OH235119   7.396   5.307   5.988
11721TIP3    H135120   7.467   5.240   5.978
11721TIP3    H235121   7.422   5.375   5.924
11722TIP3   OH235122   7.578   5.107   5.998
11722TIP3    H135123   7.504   5.057   6.038
11722TIP3    H235124   7.651   5.044   6.015
11723TIP3   OH235125   7.043   4.341   4.570
11723TIP3    H135126   7.114   4.305   4.625
11723TIP3    H235127   6.968   4.281   4.587
11724TIP3   OH235128   7.106   4.597   5.018
11724TIP3    H135129   7.144   4.508   5.036
11724TIP3    H235130   7.164   4.625   4.945
11725TIP3   OH235131   7.261   4.770   5.519
11725TIP3    H135132   7.348   4.794   5.479
11725TIP3    H235133   7.276   4.805   5.609
11726TIP3   OH235134   7.334   4.914   5.749
11726TIP3    H135135   7.257   4.948   5.800
11726TIP3    H235136   7.367   4.996   5.706
11727TIP3   OH235137   5.951   4.640   6.554
11727TIP3    H135138   6.049   4.633   6.557
11727TIP3    H235139   5.926   4.553   6.591
11728TIP3   OH235140   7.784   4.510   6.306
11728TIP3    H135141   7.846   4.445   6.266
11728TIP3    H235142   7.754   4.560   6.228
11729TIP3   OH235143   7.209   4.348   5.063
11729TIP3    H135144   7.257   4.332   5.146
11729TIP3    H235145   7.148   4.272   5.061
11730TIP3   OH235146   5.911   4.333   5.882
11730TIP3    H135147   5.971   4.256   5.891
11730TIP3    H235148   5.975   4.406   5.874
11731TIP3   OH235149   5.711   4.605   5.954
11731TIP3    H135150   5.761   4.602   5.870
11731TIP3    H235151   5.739   4.690   5.990
11732TIP3   OH235152   7.652   4.642   6.108
11732TIP3    H135153   7.566   4.686   6.124
11732TIP3    H235154   7.622   4.568   6.052
11733TIP3   OH235155   7.289   4.279   4.697
11733TIP3    H135156   7.327   4.208   4.641
11733TIP3    H235157   7.358   4.348   4.693
11734TIP3   OH235158   5.698   4.112   5.458
11734TIP3    H135159   5.605   4.103   5.484
11734TIP3    H235160   5.691   4.169   5.379
11735TIP3   OH235161   6.868   5.806   4.966
11735TIP3    H135162   6.914   5.807   4.879
11735TIP3    H235163   6.908   5.883   5.010
11736TIP3   OH235164   5.918   4.193   6.272
11736TIP3    H135165   5.865   4.185   6.353
11736TIP3    H235166   5.851   4.227   6.210
11737TIP3   OH235167   5.958   5.616   6.347
11737TIP3    H135168   5.865   5.594   6.329
11737TIP3    H235169   5.965   5.600   6.441
11738TIP3   OH235170   6.138   5.652   5.895
11738TIP3    H135171   6.088   5.727   5.857
11738TIP3    H235172   6.223   5.667   5.848
11739TIP3   OH235173   6.578   5.893   6.030
11739TIP3    H135174   6.619   5.893   6.120
11739TIP3    H235175   6.644   5.947   5.981
11740TIP3   OH235176   6.759   6.049   5.894
11740TIP3    H135177   6.831   5.996   5.857
11740TIP3    H235178   6.809   6.108   5.955
11741TIP3   OH235179   7.554   4.405   5.991
11741TIP3    H135180   7.463   4.392   5.959
11741TIP3    H235181   7.589   4.313   5.983
11742TIP3   OH235182   5.811   5.904   5.925
11742TIP3    H135183   5.721   5.934   5.899
11742TIP3    H235184   5.825   5.960   6.003
11743TIP3   OH235185   6.049   5.886   5.781
11743TIP3    H135186   5.961   5.898   5.823
11743TIP3    H235187   6.031   5.921   5.691
11744TIP3   OH235188   6.478   5.913   5.573
11744TIP3    H135189   6.400   5.925   5.513
11744TIP3    H235190   6.483   6.002   5.613
11745TIP3   OH235191   6.743   5.850   5.623
11745TIP3    H135192   6.648   5.868   5.607
11745TIP3    H235193   6.784   5.928   5.585
11746TIP3   OH235194   6.952   6.046   5.539
11746TIP3    H135195   6.935   6.129   5.491
11746TIP3    H235196   6.976   5.984   5.467
11747TIP3   OH235197   5.722   5.699   5.661
11747TIP3    H135198   5.748   5.671   5.751
11747TIP3    H235199   5.794   5.657   5.610
11748TIP3   OH235200   5.917   5.573   5.521
11748TIP3    H135201   5.933   5.490   5.572
11748TIP3    H235202   6.008   5.610   5.516
11749TIP3   OH235203   6.183   5.658   5.527
11749TIP3    H135204   6.214   5.566   5.525
11749TIP3    H235205   6.227   5.690   5.607
11750TIP3   OH235206   6.756   4.320   5.611
11750TIP3    H135207   6.714   4.251   5.666
11750TIP3    H235208   6.830   4.272   5.570
11751TIP3   OH235209   7.280   4.204   5.514
11751TIP3    H135210   7.314   4.256   5.438
11751TIP3    H235211   7.184   4.219   5.507
11752TIP3   OH235212   7.376   4.304   5.277
11752TIP3    H135213   7.450   4.252   5.240
11752TIP3    H235214   7.409   4.395   5.263
11753TIP3   OH235215   6.006   4.030   5.625
11753TIP3    H135216   5.914   3.998   5.629
11753TIP3    H235217   6.054   3.944   5.621
11754TIP3   OH235218   5.797   3.903   5.278
11754TIP3    H135219   5.824   3.959   5.203
11754TIP3    H235220   5.769   3.969   5.344
11755TIP3   OH235221   6.453   4.063   5.508
11755TIP3    H135222   6.511   4.111   5.447
11755TIP3    H235223   6.479   4.099   5.594
11756TIP3   OH235224   6.998   4.211   5.489
11756TIP3    H135225   6.996   4.167   5.403
11756TIP3    H235226   6.986   4.134   5.550
11757TIP3   OH235227   7.028   4.135   5.055
11757TIP3    H135228   6.941   4.176   5.071
11757TIP3    H235229   7.015   4.048   5.100
11758TIP3   OH235230   5.512   5.477   5.052
11758TIP3    H135231   5.425   5.444   5.020
11758TIP3    H235232   5.503   5.571   5.030
11759TIP3   OH235233   5.913   4.059   5.036
11759TIP3    H135234   5.960   3.995   4.979
11759TIP3    H235235   5.987   4.112   5.072
11760TIP3   OH235236   6.422   4.240   5.136
11760TIP3    H135237   6.478   4.189   5.196
11760TIP3    H235238   6.447   4.331   5.163
11761TIP3   OH235239   6.284   5.656   4.635
11761TIP3    H135240   6.370   5.681   4.597
11761TIP3    H235241   6.260   5.583   4.574
11762TIP3   OH235242   7.004   5.784   4.729
11762TIP3    H135243   6.997   5.686   4.717
11762TIP3    H235244   6.957   5.815   4.649
11763TIP3   OH235245   6.215   4.315   6.520
11763TIP3    H135246   6.179   4.242   6.573
11763TIP3    H235247   6.309   4.312   6.547
11764TIP3   OH235248   6.467   4.311   6.636
11764TIP3    H135249   6.548   4.283   6.589
11764TIP3    H235250   6.456   4.238   6.701
11765TIP3   OH235251   5.586   5.498   4.690
11765TIP3    H135252   5.585   5.520   4.784
11765TIP3    H235253   5.674   5.456   4.679
11766TIP3   OH235254   7.292   4.375   6.423
11766TIP3    H135255   7.306   4.342   6.514
11766TIP3    H235256   7.381   4.366   6.384
11767TIP3   OH235257   7.229   5.922   5.911
11767TIP3    H135258   7.148   5.891   5.865
11767TIP3    H235259   7.207   6.017   5.923
11768TIP3   OH235260   8.493   5.301   4.678
11768TIP3    H135261   8.462   5.392   4.661
11768TIP3    H235262   8.414   5.250   4.655
11769TIP3   OH235263   8.488   5.295   5.067
11769TIP3    H135264   8.521   5.283   5.158
11769TIP3    H235265   8.450   5.208   5.049
11770TIP3   OH235266   7.789   5.188   5.430
11770TIP3    H135267   7.818   5.118   5.492
11770TIP3    H235268   7.869   5.242   5.425
11771TIP3   OH235269   8.736   5.596   4.748
11771TIP3    H135270   8.724   5.530   4.817
11771TIP3    H235271   8.771   5.671   4.798
11772TIP3   OH235272   7.766   5.602   5.150
11772TIP3    H135273   7.758   5.504   5.151
11772TIP3    H235274   7.862   5.611   5.147
11773TIP3   OH235275   7.475   4.804   4.938
11773TIP3    H135276   7.437   4.877   4.990
11773TIP3    H235277   7.396   4.762   4.900
11774TIP3   OH235278   7.534   5.089   5.113
11774TIP3    H135279   7.583   5.012   5.147
11774TIP3    H235280   7.593   5.123   5.045
11775TIP3   OH235281   8.389   6.059   4.762
11775TIP3    H135282   8.431   5.988   4.709
11775TIP3    H235283   8.386   6.019   4.849
11776TIP3   OH235284   8.292   5.522   5.111
11776TIP3    H135285   8.331   5.442   5.072
11776TIP3    H235286   8.376   5.567   5.137
11777TIP3   OH235287   8.697   5.043   5.141
11777TIP3    H135288   8.710   4.951   5.172
11777TIP3    H235289   8.652   5.024   5.056
11778TIP3   OH235290   8.042   4.682   5.110
11778TIP3    H135291   8.026   4.754   5.045
11778TIP3    H235292   7.994   4.609   5.065
11779TIP3   OH235293   8.729   4.772   4.742
11779TIP3    H135294   8.785   4.714   4.794
11779TIP3    H235295   8.794   4.826   4.696
11780TIP3   OH235296   7.678   4.882   5.215
11780TIP3    H135297   7.760   4.864   5.265
11780TIP3    H235298   7.694   4.826   5.136
11781TIP3   OH235299   8.118   5.081   5.012
11781TIP3    H135300   8.212   5.057   5.025
11781TIP3    H235301   8.080   4.996   4.980
11782TIP3   OH235302   8.040   4.666   5.543
11782TIP3    H135303   7.980   4.704   5.476
11782TIP3    H235304   7.987   4.683   5.625
11783TIP3   OH235305   8.394   5.528   4.539
11783TIP3    H135306   8.342   5.503   4.461
11783TIP3    H235307   8.341   5.603   4.573
11784TIP3   OH235308   8.148   5.443   5.334
11784TIP3    H135309   8.086   5.510   5.370
11784TIP3    H235310   8.188   5.491   5.259
11785TIP3   OH235311   7.911   4.781   5.328
11785TIP3    H135312   7.973   4.853   5.352
11785TIP3    H235313   7.960   4.741   5.252
11786TIP3   OH235314   7.975   5.638   5.434
11786TIP3    H135315   7.948   5.725   5.399
11786TIP3    H235316   7.897   5.618   5.489
11787TIP3   OH235317   7.376   5.325   4.667
11787TIP3    H135318   7.326   5.354   4.589
11787TIP3    H235319   7.400   5.410   4.708
11788TIP3   OH235320   8.801   5.845   4.908
11788TIP3    H135321   8.716   5.834   4.956
11788TIP3    H235322   8.786   5.933   4.868
11789TIP3   OH235323   8.381   4.376   5.260
11789TIP3    H135324   8.364   4.282   5.281
11789TIP3    H235325   8.305   4.418   5.306
11790TIP3   OH235326   8.510   5.884   4.583
11790TIP3    H135327   8.561   5.802   4.563
11790TIP3    H235328   8.571   5.951   4.545
11791TIP3   OH235329   8.645   5.649   4.491
11791TIP3    H135330   8.562   5.599   4.502
11791TIP3    H235331   8.691   5.629   4.576
11792TIP3   OH235332   9.022   5.754   5.273
11792TIP3    H135333   9.034   5.675   5.216
11792TIP3    H235334   9.039   5.824   5.208
11793TIP3   OH235335   8.322   5.147   4.514
11793TIP3    H135336   8.240   5.199   4.499
11793TIP3    H235337   8.361   5.148   4.425
11794TIP3   OH235338   8.282   4.933   4.227
11794TIP3    H135339   8.346   4.988   4.274
11794TIP3    H235340   8.342   4.872   4.179
11795TIP3   OH235341   8.666   5.227   4.483
11795TIP3    H135342   8.609   5.258   4.558
11795TIP3    H235343   8.739   5.187   4.533
11796TIP3   OH235344   8.888   5.248   5.389
11796TIP3    H135345   8.904   5.328   5.441
11796TIP3    H235346   8.800   5.265   5.355
11797TIP3   OH235347   7.907   5.227   4.902
11797TIP3    H135348   7.866   5.169   4.835
11797TIP3    H235349   7.982   5.172   4.933
11798TIP3   OH235350   8.037   5.641   5.049
11798TIP3    H135351   8.014   5.605   4.962
11798TIP3    H235352   8.125   5.603   5.065
11799TIP3   OH235353   8.039   5.200   5.256
11799TIP3    H135354   8.073   5.174   5.168
11799TIP3    H235355   8.084   5.285   5.273
11800TIP3   OH235356   8.567   5.838   5.050
11800TIP3    H135357   8.556   5.888   5.132
11800TIP3    H235358   8.551   5.747   5.083
11801TIP3   OH235359   8.178   5.761   5.570
11801TIP3    H135360   8.115   5.817   5.620
11801TIP3    H235361   8.115   5.706   5.520
11802TIP3   OH235362   8.514   5.079   4.309
11802TIP3    H135363   8.565   5.145   4.361
11802TIP3    H235364   8.543   5.101   4.217
11803TIP3   OH235365   7.935   5.313   5.682
11803TIP3    H135366   7.939   5.400   5.726
11803TIP3    H235367   7.841   5.290   5.697
11804TIP3   OH235368   8.259   5.764   4.587
11804TIP3    H135369   8.338   5.820   4.596
11804TIP3    H235370   8.196   5.823   4.543
11805TIP3   OH235371   7.972   5.921   5.668
11805TIP3    H135372   7.936   5.923   5.577
11805TIP3    H235373   7.893   5.891   5.719
11806TIP3   OH235374   7.774   5.071   4.704
11806TIP3    H135375   7.703   5.113   4.650
11806TIP3    H235376   7.737   4.983   4.718
11807TIP3   OH235377   8.847   5.702   3.899
11807TIP3    H135378   8.791   5.781   3.896
11807TIP3    H235379   8.927   5.734   3.855
11808TIP3   OH235380   7.551   5.454   5.614
11808TIP3    H135381   7.486   5.429   5.546
11808TIP3    H235382   7.591   5.369   5.640
11809TIP3   OH235383   7.406   5.646   5.246
11809TIP3    H135384   7.502   5.643   5.238
11809TIP3    H235385   7.395   5.725   5.301
11810TIP3   OH235386   8.366   5.906   5.441
11810TIP3    H135387   8.409   5.943   5.519
11810TIP3    H235388   8.294   5.854   5.481
11811TIP3   OH235389   8.141   6.011   4.392
11811TIP3    H135390   8.095   5.994   4.307
11811TIP3    H235391   8.107   6.098   4.417
11812TIP3   OH235392   7.575   5.861   4.776
11812TIP3    H135393   7.624   5.853   4.861
11812TIP3    H235394   7.522   5.780   4.777
11813TIP3   OH235395   8.338   5.916   4.028
11813TIP3    H135396   8.397   5.847   3.992
11813TIP3    H235397   8.375   5.927   4.118
11814TIP3   OH235398   8.390   5.963   4.298
11814TIP3    H135399   8.302   5.973   4.339
11814TIP3    H235400   8.441   5.926   4.371
11815TIP3   OH235401   7.756   5.636   5.596
11815TIP3    H135402   7.802   5.626   5.682
11815TIP3    H235403   7.681   5.573   5.606
11816TIP3   OH235404   8.154   4.460   5.390
11816TIP3    H135405   8.065   4.431   5.360
11816TIP3    H235406   8.128   4.542   5.438
11817TIP3   OH235407   8.656   4.595   5.565
11817TIP3    H135408   8.721   4.556   5.626
11817TIP3    H235409   8.571   4.574   5.611
11818TIP3   OH235410   8.965   5.004   5.510
11818TIP3    H135411   8.903   5.007   5.586
11818TIP3    H235412   8.941   5.085   5.462
11819TIP3   OH235413   8.597   5.137   4.058
11819TIP3    H135414   8.568   5.106   3.969
11819TIP3    H235415   8.623   5.228   4.038
11820TIP3   OH235416   8.314   4.504   4.363
11820TIP3    H135417   8.276   4.503   4.453
11820TIP3    H235418   8.265   4.429   4.323
11821TIP3   OH235419   8.087   4.978   5.407
11821TIP3    H135420   8.037   5.000   5.488
11821TIP3    H235421   8.071   5.059   5.353
11822TIP3   OH235422   7.971   4.864   4.920
11822TIP3    H135423   7.879   4.836   4.940
11822TIP3    H235424   7.983   4.821   4.832
11823TIP3   OH235425   8.462   4.952   4.647
11823TIP3    H135426   8.407   5.022   4.607
11823TIP3    H235427   8.515   4.922   4.572
11824TIP3   OH235428   8.627   5.225   5.724
11824TIP3    H135429   8.620   5.149   5.786
11824TIP3    H235430   8.724   5.243   5.725
11825TIP3   OH235431   8.603   4.979   4.887
11825TIP3    H135432   8.544   4.996   4.811
11825TIP3    H235433   8.638   4.892   4.860
11826TIP3   OH235434   7.905   5.005   5.615
11826TIP3    H135435   7.942   5.065   5.681
11826TIP3    H235436   7.895   4.922   5.666
11827TIP3   OH235437   7.962   4.486   4.324
11827TIP3    H135438   7.949   4.483   4.421
11827TIP3    H235439   7.882   4.535   4.297
11828TIP3   OH235440   7.500   4.528   5.193
11828TIP3    H135441   7.575   4.559   5.248
11828TIP3    H235442   7.542   4.493   5.113
11829TIP3   OH235443   7.466   4.506   4.715
11829TIP3    H135444   7.512   4.542   4.636
11829TIP3    H235445   7.407   4.581   4.735
11830TIP3   OH235446   8.605   5.232   5.310
11830TIP3    H135447   8.647   5.165   5.251
11830TIP3    H235448   8.585   5.174   5.388
11831TIP3   OH235449   8.292   4.707   4.978
11831TIP3    H135450   8.220   4.693   5.042
11831TIP3    H235451   8.368   4.663   5.022
11832TIP3   OH235452   7.735   4.740   4.987
11832TIP3    H135453   7.641   4.747   4.957
11832TIP3    H235454   7.758   4.648   4.966
11833TIP3   OH235455   7.997   4.734   4.680
11833TIP3    H135456   8.091   4.751   4.660
11833TIP3    H235457   7.951   4.757   4.596
11834TIP3   OH235458   8.713   4.775   5.174
11834TIP3    H135459   8.702   4.783   5.271
11834TIP3    H235460   8.796   4.724   5.168
11835TIP3   OH235461   7.848   4.772   4.455
11835TIP3    H135462   7.777   4.726   4.408
11835TIP3    H235463   7.899   4.809   4.380
11836TIP3   OH235464   7.923   5.561   5.823
11836TIP3    H135465   7.999   5.594   5.874
11836TIP3    H235466   7.855   5.557   5.893
11837TIP3   OH235467   8.382   5.018   5.085
11837TIP3    H135468   8.446   4.966   5.032
11837TIP3    H235469   8.383   4.969   5.169
11838TIP3   OH235470   7.899   4.499   4.961
11838TIP3    H135471   7.862   4.423   5.011
11838TIP3    H235472   7.949   4.455   4.891
11839TIP3   OH235473   8.357   4.914   5.367
11839TIP3    H135474   8.268   4.950   5.384
11839TIP3    H235475   8.416   4.974   5.418
11840TIP3   OH235476   8.095   5.298   4.464
11840TIP3    H135477   8.022   5.234   4.451
11840TIP3    H235478   8.072   5.333   4.554
11841TIP3   OH235479   8.987   5.556   5.082
11841TIP3    H135480   9.020   5.539   4.994
11841TIP3    H235481   8.904   5.505   5.082
11842TIP3   OH235482   8.559   4.608   4.314
11842TIP3    H135483   8.465   4.583   4.332
11842TIP3    H235484   8.561   4.703   4.333
11843TIP3   OH235485   8.511   5.626   5.466
11843TIP3    H135486   8.557   5.582   5.540
11843TIP3    H235487   8.450   5.684   5.512
11844TIP3   OH235488   8.654   4.865   4.406
11844TIP3    H135489   8.729   4.918   4.434
11844TIP3    H235490   8.598   4.934   4.363
11845TIP3   OH235491   7.790   5.326   5.136
11845TIP3    H135492   7.827   5.295   5.051
11845TIP3    H235493   7.832   5.266   5.200
11846TIP3   OH235494   8.242   5.450   4.291
11846TIP3    H135495   8.193   5.535   4.290
11846TIP3    H235496   8.184   5.395   4.349
11847TIP3   OH235497   7.670   5.244   5.751
11847TIP3    H135498   7.693   5.231   5.845
11847TIP3    H235499   7.602   5.176   5.737
11848TIP3   OH235500   8.390   5.348   5.765
11848TIP3    H135501   8.332   5.287   5.717
11848TIP3    H235502   8.478   5.318   5.734
11849TIP3   OH235503   8.644   5.911   5.357
11849TIP3    H135504   8.553   5.886   5.379
11849TIP3    H235505   8.682   5.922   5.445
11850TIP3   OH235506   8.750   5.775   4.167
11850TIP3    H135507   8.748   5.725   4.249
11850TIP3    H235508   8.786   5.713   4.102
11851TIP3   OH235509   8.753   5.404   5.004
11851TIP3    H135510   8.659   5.383   5.022
11851TIP3    H235511   8.787   5.316   4.978
11852TIP3   OH235512   7.891   5.629   4.763
11852TIP3    H135513   7.886   5.710   4.709
11852TIP3    H235514   7.798   5.609   4.777
11853TIP3   OH235515   7.457   4.929   4.468
11853TIP3    H135516   7.502   5.014   4.489
11853TIP3    H235517   7.381   4.932   4.530
11854TIP3   OH235518   8.023   5.392   4.706
11854TIP3    H135519   7.988   5.481   4.726
11854TIP3    H235520   7.988   5.340   4.780
11855TIP3   OH235521   8.159   5.970   5.233
11855TIP3    H135522   8.200   6.047   5.188
11855TIP3    H235523   8.234   5.938   5.286
11856TIP3   OH235524   7.807   5.866   4.615
11856TIP3    H135525   7.722   5.877   4.662
11856TIP3    H235526   7.841   5.958   4.617
11857TIP3   OH235527   8.543   5.600   5.191
11857TIP3    H135528   8.530   5.604   5.289
11857TIP3    H235529   8.634   5.565   5.190
11858TIP3   OH235530   8.521   5.483   4.066
11858TIP3    H135531   8.571   5.463   4.148
11858TIP3    H235532   8.429   5.472   4.096
11859TIP3   OH235533   7.877   4.749   5.757
11859TIP3    H135534   7.781   4.751   5.769
11859TIP3    H235535   7.906   4.692   5.831
11860TIP3   OH235536   8.688   5.420   4.284
11860TIP3    H135537   8.672   5.352   4.352
11860TIP3    H235538   8.724   5.491   4.337
11861TIP3   OH235539   7.596   5.830   5.390
11861TIP3    H135540   7.652   5.761   5.429
11861TIP3    H235541   7.618   5.905   5.446
11862TIP3   OH235542   7.888   5.476   4.075
11862TIP3    H135543   7.898   5.383   4.048
11862TIP3    H235544   7.865   5.467   4.170
11863TIP3   OH235545   7.829   5.483   4.347
11863TIP3    H135546   7.903   5.459   4.404
11863TIP3    H235547   7.832   5.581   4.353
11864TIP3   OH235548   7.566   5.173   4.549
11864TIP3    H135549   7.501   5.219   4.605
11864TIP3    H235550   7.579   5.241   4.480
11865TIP3   OH235551   8.720   4.833   5.445
11865TIP3    H135552   8.804   4.858   5.488
11865TIP3    H235553   8.696   4.750   5.492
11866TIP3   OH235554   8.584   4.570   4.614
11866TIP3    H135555   8.577   4.593   4.521
11866TIP3    H235556   8.629   4.648   4.653
11867TIP3   OH235557   8.099   5.679   4.295
11867TIP3    H135558   8.012   5.703   4.331
11867TIP3    H235559   8.113   5.752   4.233
11868TIP3   OH235560   8.280   4.748   4.708
11868TIP3    H135561   8.346   4.819   4.697
11868TIP3    H235562   8.284   4.734   4.806
11869TIP3   OH235563   8.551   5.058   5.512
11869TIP3    H135564   8.574   5.109   5.592
11869TIP3    H235565   8.611   4.982   5.517
11870TIP3   OH235566   8.423   4.456   4.807
11870TIP3    H135567   8.455   4.502   4.888
11870TIP3    H235568   8.480   4.499   4.739
11871TIP3   OH235569   7.844   5.755   4.364
11871TIP3    H135570   7.814   5.824   4.302
11871TIP3    H235571   7.828   5.798   4.451
11872TIP3   OH235572   7.942   4.470   4.599
11872TIP3    H135573   7.938   4.559   4.640
11872TIP3    H235574   8.038   4.453   4.609
11873TIP3   OH235575   8.838   5.142   4.921
11873TIP3    H135576   8.753   5.102   4.896
11873TIP3    H235577   8.849   5.104   5.010
11874TIP3   OH235578   7.558   5.380   4.354
11874TIP3    H135579   7.626   5.449   4.363
11874TIP3    H235580   7.602   5.324   4.287
11875TIP3   OH235581   7.501   4.659   4.490
11875TIP3    H135582   7.502   4.756   4.486
11875TIP3    H235583   7.425   4.637   4.435
11876TIP3   OH235584   8.812   6.126   4.844
11876TIP3    H135585   8.773   6.174   4.768
11876TIP3    H235586   8.903   6.115   4.814
11877TIP3   OH235587   7.890   4.381   5.359
11877TIP3    H135588   7.860   4.345   5.273
11877TIP3    H235589   7.881   4.303   5.418
11878TIP3   OH235590   7.425   5.596   4.740
11878TIP3    H135591   7.360   5.631   4.802
11878TIP3    H235592   7.396   5.638   4.656
11879TIP3   OH235593   7.565   6.133   5.796
11879TIP3    H135594   7.648   6.134   5.849
11879TIP3    H235595   7.545   6.038   5.799
11880TIP3   OH235596   8.038   6.126   5.841
11880TIP3    H135597   8.111   6.171   5.796
11880TIP3    H235598   8.022   6.049   5.782
11881TIP3   OH235599   8.049   5.681   3.985
11881TIP3    H135600   7.995   5.607   4.021
11881TIP3    H235601   8.124   5.631   3.947
11882TIP3   OH235602   8.482   5.719   3.902
11882TIP3    H135603   8.530   5.652   3.953
11882TIP3    H235604   8.527   5.717   3.814
11883TIP3   OH235605   7.718   5.543   6.008
11883TIP3    H135606   7.731   5.447   6.018
11883TIP3    H235607   7.630   5.546   5.965
11884TIP3   OH235608   7.695   5.195   4.210
11884TIP3    H135609   7.752   5.166   4.283
11884TIP3    H235610   7.761   5.201   4.137
11885TIP3   OH235611   8.308   5.606   5.773
11885TIP3    H135612   8.273   5.603   5.683
11885TIP3    H235613   8.355   5.520   5.779
11886TIP3   OH235614   8.214   5.399   4.019
11886TIP3    H135615   8.211   5.409   4.116
11886TIP3    H235616   8.213   5.301   4.011
11887TIP3   OH235617   8.791   5.628   5.340
11887TIP3    H135618   8.871   5.675   5.311
11887TIP3    H235619   8.736   5.700   5.373
11888TIP3   OH235620   7.838   5.277   5.986
11888TIP3    H135621   7.918   5.228   5.964
11888TIP3    H235622   7.857   5.304   6.078
11889TIP3   OH235623   7.902   5.104   4.429
11889TIP3    H135624   7.872   5.064   4.512
11889TIP3    H235625   7.938   5.027   4.380
11890TIP3   OH235626   8.169   5.164   5.655
11890TIP3    H135627   8.092   5.226   5.656
11890TIP3    H235628   8.222   5.199   5.580
11891TIP3   OH235629   8.003   4.898   4.268
11891TIP3    H135630   7.978   4.907   4.174
11891TIP3    H235631   8.101   4.900   4.261
11892TIP3   OH235632   8.645   5.541   5.705
11892TIP3    H135633   8.739   5.548   5.680
11892TIP3    H235634   8.651   5.486   5.784
11893TIP3   OH235635   8.288   4.955   5.785
11893TIP3    H135636   8.296   4.877   5.726
11893TIP3    H235637   8.249   5.022   5.726
11894TIP3   OH235638   8.297   4.743   5.591
11894TIP3    H135639   8.327   4.785   5.508
11894TIP3    H235640   8.204   4.722   5.571
11895TIP3   OH235641   8.321   5.275   5.465
11895TIP3    H135642   8.408   5.282   5.424
11895TIP3    H235643   8.268   5.339   5.414
11896TIP3   OH235644   8.904   5.258   5.759
11896TIP3    H135645   8.926   5.168   5.789
11896TIP3    H235646   8.952   5.311   5.825
11897TIP3   OH235647   8.890   5.509   5.560
11897TIP3    H135648   8.853   5.551   5.480
11897TIP3    H235649   8.983   5.497   5.540
11898TIP3   OH235650   8.171   5.066   6.016
11898TIP3    H135651   8.106   4.995   6.033
11898TIP3    H235652   8.207   5.038   5.929
11899TIP3   OH235653   8.417   4.503   5.662
11899TIP3    H135654   8.366   4.584   5.641
11899TIP3    H235655   8.350   4.433   5.652
11900TIP3   OH235656   8.558   5.002   5.863
11900TIP3    H135657   8.573   4.985   5.958
11900TIP3    H235658   8.463   4.978   5.855
11901TIP3   OH235659   8.797   4.961   5.727
11901TIP3    H135660   8.717   4.962   5.784
11901TIP3    H235661   8.862   4.921   5.789
11902TIP3   OH235662   8.989   4.874   5.896
11902TIP3    H135663   9.056   4.818   5.937
11902TIP3    H235664   8.985   4.950   5.957
11903TIP3   OH235665   8.012   4.843   6.071
11903TIP3    H135666   8.018   4.752   6.037
11903TIP3    H235667   8.050   4.832   6.160
11904TIP3   OH235668   8.520   4.511   5.915
11904TIP3    H135669   8.578   4.433   5.913
11904TIP3    H235670   8.481   4.508   5.826
11905TIP3   OH235671   8.579   4.719   6.083
11905TIP3    H135672   8.560   4.652   6.013
11905TIP3    H235673   8.505   4.783   6.072
11906TIP3   OH235674   7.812   5.956   4.177
11906TIP3    H135675   7.908   5.950   4.158
11906TIP3    H235676   7.784   6.008   4.100
11907TIP3   OH235677   7.288   5.339   4.389
11907TIP3    H135678   7.383   5.361   4.377
11907TIP3    H235679   7.284   5.250   4.348
11908TIP3   OH235680   7.209   5.953   4.809
11908TIP3    H135681   7.144   5.892   4.767
11908TIP3    H235682   7.252   5.893   4.873
11909TIP3   OH235683   7.342   5.797   4.994
11909TIP3    H135684   7.334   5.728   5.062
11909TIP3    H235685   7.395   5.863   5.044
11910TIP3   OH235686   8.998   5.960   5.081
11910TIP3    H135687   8.938   5.993   5.150
11910TIP3    H235688   8.937   5.912   5.022
11911TIP3   OH235689   8.879   5.104   4.611
11911TIP3    H135690   8.969   5.066   4.618
11911TIP3    H235691   8.875   5.149   4.697
11912TIP3   OH235692   7.525   5.214   5.363
11912TIP3    H135693   7.523   5.178   5.272
11912TIP3    H235694   7.623   5.213   5.380
11913TIP3   OH235695   7.747   4.897   6.042
11913TIP3    H135696   7.844   4.889   6.043
11913TIP3    H235697   7.722   4.809   6.078
11914TIP3   OH235698   7.706   4.589   5.368
11914TIP3    H135699   7.767   4.513   5.377
11914TIP3    H235700   7.770   4.663   5.360
11915TIP3   OH235701   7.507   4.862   5.440
11915TIP3    H135702   7.558   4.859   5.356
11915TIP3    H235703   7.540   4.943   5.480
11916TIP3   OH235704   7.494   4.366   4.944
11916TIP3    H135705   7.401   4.359   4.972
11916TIP3    H235706   7.488   4.425   4.866
11917TIP3   OH235707   8.655   6.069   4.454
11917TIP3    H135708   8.699   6.059   4.367
11917TIP3    H235709   8.707   6.140   4.494
11918TIP3   OH235710   7.714   4.447   5.757
11918TIP3    H135711   7.662   4.440   5.838
11918TIP3    H235712   7.647   4.484   5.695
11919TIP3   OH235713   7.757   5.861   5.828
11919TIP3    H135714   7.661   5.845   5.816
11919TIP3    H235715   7.762   5.871   5.924
11920TIP3   OH235716   7.933   5.910   5.383
11920TIP3    H135717   7.884   5.985   5.344
11920TIP3    H235718   8.018   5.923   5.335
11921TIP3   OH235719   7.607   6.163   5.408
11921TIP3    H135720   7.517   6.195   5.385
11921TIP3    H235721   7.624   6.215   5.488
11922TIP3   OH235722   7.846   6.143   5.266
11922TIP3    H135723   7.758   6.156   5.309
11922TIP3    H235724   7.828   6.177   5.176
11923TIP3   OH235725   8.260   6.180   5.082
11923TIP3    H135726   8.213   6.178   4.998
11923TIP3    H235727   8.240   6.268   5.115
11924TIP3   OH235728   8.662   6.288   5.050
11924TIP3    H135729   8.666   6.379   5.016
11924TIP3    H235730   8.690   6.234   4.979
11925TIP3   OH235731   7.518   5.956   5.149
11925TIP3    H135732   7.546   5.929   5.239
11925TIP3    H235733   7.591   5.913   5.098
11926TIP3   OH235734   7.714   5.829   5.009
11926TIP3    H135735   7.729   5.745   5.059
11926TIP3    H235736   7.805   5.865   5.004
11927TIP3   OH235737   7.981   5.920   5.013
11927TIP3    H135738   8.012   5.828   5.003
11927TIP3    H235739   8.028   5.944   5.096
11928TIP3   OH235740   8.504   4.545   5.053
11928TIP3    H135741   8.490   4.496   5.135
11928TIP3    H235742   8.601   4.544   5.045
11929TIP3   OH235743   7.803   4.286   5.111
11929TIP3    H135744   7.710   4.254   5.117
11929TIP3    H235745   7.850   4.201   5.108
11930TIP3   OH235746   7.593   4.160   4.763
11930TIP3    H135747   7.620   4.217   4.690
11930TIP3    H235748   7.565   4.225   4.831
11931TIP3   OH235749   8.250   4.318   4.995
11931TIP3    H135750   8.301   4.370   4.931
11931TIP3    H235751   8.277   4.358   5.079
11932TIP3   OH235752   8.753   4.448   4.972
11932TIP3    H135753   8.787   4.423   4.887
11932TIP3    H235754   8.756   4.363   5.021
11933TIP3   OH235755   7.305   5.735   4.541
11933TIP3    H135756   7.219   5.702   4.507
11933TIP3    H235757   7.299   5.828   4.512
11934TIP3   OH235758   7.709   4.318   4.523
11934TIP3    H135759   7.756   4.253   4.467
11934TIP3    H235760   7.783   4.370   4.559
11935TIP3   OH235761   8.220   4.496   4.622
11935TIP3    H135762   8.279   4.453   4.687
11935TIP3    H235763   8.238   4.590   4.647
11936TIP3   OH235764   8.080   5.914   4.126
11936TIP3    H135765   8.167   5.938   4.088
11936TIP3    H235766   8.057   5.841   4.064
11937TIP3   OH235767   8.785   6.040   4.219
11937TIP3    H135768   8.781   5.944   4.203
11937TIP3    H235769   8.757   6.073   4.132
11938TIP3   OH235770   8.010   4.568   6.004
11938TIP3    H135771   7.974   4.498   6.061
11938TIP3    H235772   8.104   4.567   6.033
11939TIP3   OH235773   8.259   4.565   6.124
11939TIP3    H135774   8.347   4.544   6.088
11939TIP3    H235775   8.249   4.494   6.191
11940TIP3   OH235776   7.382   5.749   4.177
11940TIP3    H135777   7.388   5.777   4.269
11940TIP3    H235778   7.469   5.707   4.161
11941TIP3   OH235779   0.951   6.087   6.366
11941TIP3    H135780   0.917   6.175   6.388
11941TIP3    H235781   0.874   6.046   6.322
11942TIP3   OH235782   0.961   6.067   6.745
11942TIP3    H135783   0.994   6.051   6.836
11942TIP3    H235784   0.914   5.984   6.728
11943TIP3   OH235785   1.189   6.389   6.438
11943TIP3    H135786   1.183   6.322   6.508
11943TIP3    H235787   1.220   6.467   6.488
11944TIP3   OH235788   0.894   6.873   6.433
11944TIP3    H135789   0.943   6.791   6.422
11944TIP3    H235790   0.838   6.852   6.509
11945TIP3   OH235791   0.775   6.281   6.806
11945TIP3    H135792   0.816   6.204   6.762
11945TIP3    H235793   0.856   6.333   6.827
11946TIP3   OH235794   1.759   5.631   6.800
11946TIP3    H135795   1.790   5.713   6.843
11946TIP3    H235796   1.785   5.647   6.707
11947TIP3   OH235797   1.156   5.811   6.834
11947TIP3    H135798   1.200   5.726   6.856
11947TIP3    H235799   1.126   5.792   6.743
11948TIP3   OH235800   1.193   5.567   6.418
11948TIP3    H135801   1.261   5.550   6.487
11948TIP3    H235802   1.251   5.598   6.346
11949TIP3   OH235803   1.833   5.839   6.969
11949TIP3    H135804   1.748   5.884   6.952
11949TIP3    H235805   1.852   5.869   7.060
11950TIP3   OH235806   0.812   6.322   6.247
11950TIP3    H135807   0.817   6.270   6.167
11950TIP3    H235808   0.889   6.378   6.240
11951TIP3   OH235809   1.394   5.570   6.596
11951TIP3    H135810   1.386   5.520   6.678
11951TIP3    H235811   1.449   5.646   6.624
11952TIP3   OH235812   1.254   6.628   6.592
11952TIP3    H135813   1.165   6.621   6.634
11952TIP3    H235814   1.251   6.719   6.556
11953TIP3   OH235815   1.553   5.529   6.965
11953TIP3    H135816   1.467   5.558   6.931
11953TIP3    H235817   1.615   5.562   6.896
11954TIP3   OH235818   0.853   5.160   6.936
11954TIP3    H135819   0.847   5.064   6.954
11954TIP3    H235820   0.810   5.196   7.014
11955TIP3   OH235821   0.953   6.651   6.248
11955TIP3    H135822   1.006   6.570   6.232
11955TIP3    H235823   1.016   6.721   6.220
11956TIP3   OH235824   1.081   6.420   6.187
11956TIP3    H135825   1.118   6.355   6.126
11956TIP3    H235826   1.133   6.404   6.270
11957TIP3   OH235827   1.483   6.540   6.948
11957TIP3    H135828   1.473   6.463   6.888
11957TIP3    H235829   1.468   6.615   6.887
11958TIP3   OH235830   0.772   5.957   6.207
11958TIP3    H135831   0.697   5.896   6.222
11958TIP3    H235832   0.807   5.933   6.119
11959TIP3   OH235833   0.746   5.670   5.928
11959TIP3    H135834   0.795   5.733   5.982
11959TIP3    H235835   0.817   5.642   5.866
11960TIP3   OH235836   1.679   6.179   6.791
11960TIP3    H135837   1.596   6.232   6.795
11960TIP3    H235838   1.711   6.205   6.702
11961TIP3   OH235839   1.124   6.010   6.169
11961TIP3    H135840   1.074   6.037   6.250
11961TIP3    H235841   1.210   5.987   6.210
11962TIP3   OH235842   1.361   6.055   7.092
11962TIP3    H135843   1.361   6.136   7.148
11962TIP3    H235844   1.276   6.067   7.045
11963TIP3   OH235845   1.014   6.623   6.712
11963TIP3    H135846   0.989   6.709   6.751
11963TIP3    H235847   1.000   6.559   6.784
11964TIP3   OH235848   0.946   5.878   6.000
11964TIP3    H135849   1.009   5.932   6.052
11964TIP3    H235850   0.980   5.896   5.909
11965TIP3   OH235851   1.480   5.117   6.049
11965TIP3    H135852   1.399   5.136   6.100
11965TIP3    H235853   1.494   5.200   6.001
11966TIP3   OH235854   1.285   6.485   5.603
11966TIP3    H135855   1.295   6.580   5.583
11966TIP3    H235856   1.377   6.453   5.588
11967TIP3   OH235857   1.730   6.885   6.996
11967TIP3    H135858   1.726   6.789   7.015
11967TIP3    H235859   1.647   6.915   7.040
11968TIP3   OH235860   0.834   6.726   5.715
11968TIP3    H135861   0.839   6.639   5.663
11968TIP3    H235862   0.792   6.705   5.789
11969TIP3   OH235863   0.832   6.757   5.993
11969TIP3    H135864   0.772   6.755   6.071
11969TIP3    H235865   0.916   6.730   6.035
11970TIP3   OH235866   1.613   6.016   7.271
11970TIP3    H135867   1.529   6.026   7.223
11970TIP3    H235868   1.630   5.920   7.260
11971TIP3   OH235869   1.153   5.364   7.270
11971TIP3    H135870   1.224   5.337   7.332
11971TIP3    H235871   1.072   5.345   7.321
11972TIP3   OH235872   1.375   5.791   7.187
11972TIP3    H135873   1.328   5.788   7.274
11972TIP3    H235874   1.357   5.882   7.156
11973TIP3   OH235875   1.033   5.925   5.747
11973TIP3    H135876   1.003   5.898   5.658
11973TIP3    H235877   1.121   5.962   5.724
11974TIP3   OH235878   0.922   5.746   6.338
11974TIP3    H135879   0.879   5.823   6.299
11974TIP3    H235880   0.976   5.711   6.264
11975TIP3   OH235881   1.113   6.000   7.408
11975TIP3    H135882   1.088   5.932   7.474
11975TIP3    H235883   1.207   6.014   7.432
11976TIP3   OH235884   1.070   5.760   6.577
11976TIP3    H135885   1.010   5.789   6.506
11976TIP3    H235886   1.108   5.682   6.533
11977TIP3   OH235887   1.074   6.008   6.997
11977TIP3    H135888   1.112   5.940   6.938
11977TIP3    H235889   1.050   5.952   7.074
11978TIP3   OH235890   0.767   5.472   6.654
11978TIP3    H135891   0.677   5.488   6.685
11978TIP3    H235892   0.819   5.471   6.736
11979TIP3   OH235893   1.241   5.549   6.875
11979TIP3    H135894   1.210   5.562   6.967
11979TIP3    H235895   1.175   5.486   6.842
11980TIP3   OH235896   1.422   7.232   7.053
11980TIP3    H135897   1.410   7.254   6.959
11980TIP3    H235898   1.445   7.320   7.088
11981TIP3   OH235899   0.848   5.795   6.767
11981TIP3    H135900   0.919   5.757   6.714
11981TIP3    H235901   0.861   5.752   6.854
11982TIP3   OH235902   0.839   5.684   7.054
11982TIP3    H135903   0.775   5.758   7.048
11982TIP3    H235904   0.912   5.728   7.102
11983TIP3   OH235905   1.446   6.326   6.778
11983TIP3    H135906   1.472   6.378   6.699
11983TIP3    H235907   1.363   6.283   6.749
11984TIP3   OH235908   0.987   5.404   6.015
11984TIP3    H135909   0.908   5.394   6.069
11984TIP3    H235910   1.021   5.492   6.041
11985TIP3   OH235911   0.935   6.411   7.147
11985TIP3    H135912   0.974   6.406   7.235
11985TIP3    H235913   0.882   6.493   7.152
11986TIP3   OH235914   1.077   5.647   6.117
11986TIP3    H135915   1.172   5.648   6.140
11986TIP3    H235916   1.069   5.726   6.061
11987TIP3   OH235917   0.679   6.235   5.978
11987TIP3    H135918   0.625   6.316   5.985
11987TIP3    H235919   0.637   6.179   6.044
11988TIP3   OH235920   0.897   6.127   7.525
11988TIP3    H135921   0.846   6.057   7.482
11988TIP3    H235922   0.986   6.109   7.491
11989TIP3   OH235923   1.104   6.667   7.041
11989TIP3    H135924   1.009   6.665   7.057
11989TIP3    H235925   1.135   6.718   7.119
11990TIP3   OH235926   1.510   5.743   5.957
11990TIP3    H135927   1.448   5.699   5.894
11990TIP3    H235928   1.511   5.832   5.916
11991TIP3   OH235929   1.735   6.595   7.036
11991TIP3    H135930   1.637   6.592   7.028
11991TIP3    H235931   1.761   6.567   6.946
11992TIP3   OH235932   1.209   6.559   5.861
11992TIP3    H135933   1.198   6.481   5.918
11992TIP3    H235934   1.229   6.519   5.774
11993TIP3   OH235935   1.215   6.189   6.689
11993TIP3    H135936   1.123   6.162   6.705
11993TIP3    H235937   1.250   6.107   6.649
11994TIP3   OH235938   1.012   6.389   6.885
11994TIP3    H135939   0.996   6.398   6.981
11994TIP3    H235940   1.101   6.351   6.884
11995TIP3   OH235941   0.982   6.291   5.766
11995TIP3    H135942   1.027   6.267   5.849
11995TIP3    H235943   0.894   6.252   5.778
11996TIP3   OH235944   1.259   6.905   6.919
11996TIP3    H135945   1.176   6.853   6.922
11996TIP3    H235946   1.233   6.981   6.863
11997TIP3   OH235947   1.308   6.764   5.586
11997TIP3    H135948   1.353   6.831   5.531
11997TIP3    H235949   1.219   6.804   5.589
11998TIP3   OH235950   1.139   6.224   5.994
11998TIP3    H135951   1.129   6.147   6.054
11998TIP3    H235952   1.234   6.215   5.971
11999TIP3   OH235953   1.167   5.603   7.135
11999TIP3    H135954   1.250   5.642   7.167
11999TIP3    H235955   1.161   5.521   7.189
12000TIP3   OH235956   1.061   5.349   6.308
12000TIP3    H135957   1.051   5.376   6.215
12000TIP3    H235958   1.099   5.430   6.348
12001TIP3   OH235959   0.728   5.555   6.395
12001TIP3    H135960   0.805   5.614   6.391
12001TIP3    H235961   0.729   5.528   6.489
12002TIP3   OH235962   1.019   5.842   7.202
12002TIP3    H135963   1.046   5.898   7.278
12002TIP3    H235964   1.074   5.763   7.214
12003TIP3   OH235965   0.887   5.253   6.513
12003TIP3    H135966   0.869   5.336   6.560
12003TIP3    H235967   0.939   5.285   6.436
12004TIP3   OH235968   1.643   5.751   7.188
12004TIP3    H135969   1.546   5.748   7.194
12004TIP3    H235970   1.657   5.703   7.106
12005TIP3   OH235971   1.298   5.944   6.574
12005TIP3    H135972   1.223   5.884   6.591
12005TIP3    H235973   1.371   5.899   6.622
12006TIP3   OH235974   1.271   6.895   6.523
12006TIP3    H135975   1.230   6.942   6.447
12006TIP3    H235976   1.365   6.916   6.505
12007TIP3   OH235977   1.155   6.801   7.274
12007TIP3    H135978   1.146   6.739   7.349
12007TIP3    H235979   1.237   6.849   7.298
12008TIP3   OH235980   0.934   6.505   5.587
12008TIP3    H135981   0.981   6.445   5.647
12008TIP3    H235982   0.989   6.505   5.506
12009TIP3   OH235983   0.681   6.183   5.708
12009TIP3    H135984   0.674   6.198   5.804
12009TIP3    H235985   0.660   6.088   5.701
12010TIP3   OH235986   1.263   6.435   7.079
12010TIP3    H135987   1.343   6.475   7.040
12010TIP3    H235988   1.199   6.508   7.066
12011TIP3   OH235989   1.135   6.361   7.484
12011TIP3    H135990   1.216   6.337   7.437
12011TIP3    H235991   1.132   6.289   7.551
12012TIP3   OH235992   1.269   6.012   5.630
12012TIP3    H135993   1.255   5.969   5.543
12012TIP3    H235994   1.238   6.103   5.607
12013TIP3   OH235995   0.708   5.482   7.200
12013TIP3    H135996   0.763   5.543   7.149
12013TIP3    H235997   0.673   5.539   7.269
12014TIP3   OH235998   0.833   6.129   7.101
12014TIP3    H135999   0.923   6.107   7.078
12014TIP3    H236000   0.823   6.214   7.060
12015TIP3   OH236001   1.373   6.019   7.520
12015TIP3    H136002   1.423   5.942   7.550
12015TIP3    H236003   1.442   6.080   7.492
12016TIP3   OH236004   1.398   6.280   7.255
12016TIP3    H136005   1.340   6.339   7.201
12016TIP3    H236006   1.486   6.306   7.220
12017TIP3   OH236007   0.892   5.293   7.335
12017TIP3    H136008   0.830   5.362   7.306
12017TIP3    H236009   0.837   5.214   7.326
12018TIP3   OH236010   1.015   5.802   7.575
12018TIP3    H136011   1.053   5.797   7.665
12018TIP3    H236012   0.934   5.750   7.587
12019TIP3   OH236013   1.248   5.735   7.419
12019TIP3    H136014   1.178   5.738   7.486
12019TIP3    H236015   1.327   5.711   7.472
12020TIP3   OH236016   1.476   5.687   7.567
12020TIP3    H136017   1.489   5.591   7.585
12020TIP3    H236018   1.470   5.725   7.657
12021TIP3   OH236019   0.984   5.309   7.596
12021TIP3    H136020   1.045   5.233   7.599
12021TIP3    H236021   0.944   5.298   7.508
12022TIP3   OH236022   1.059   5.525   7.742
12022TIP3    H136023   1.041   5.444   7.690
12022TIP3    H236024   0.969   5.562   7.750
12023TIP3   OH236025   1.523   6.989   6.483
12023TIP3    H136026   1.544   7.018   6.574
12023TIP3    H236027   1.587   7.039   6.431
12024TIP3   OH236028   1.551   7.004   6.760
12024TIP3    H136029   1.514   6.913   6.763
12024TIP3    H236030   1.626   6.994   6.820
12025TIP3   OH236031   1.602   6.687   7.330
12025TIP3    H136032   1.526   6.707   7.387
12025TIP3    H236033   1.648   6.773   7.327
12026TIP3   OH236034   1.411   6.203   5.958
12026TIP3    H136035   1.478   6.266   5.924
12026TIP3    H236036   1.457   6.165   6.036
12027TIP3   OH236037   1.538   6.071   6.161
12027TIP3    H136038   1.475   6.028   6.223
12027TIP3    H236039   1.608   6.104   6.221
12028TIP3   OH236040   1.594   6.461   6.589
12028TIP3    H136041   1.650   6.394   6.544
12028TIP3    H236042   1.595   6.535   6.526
12029TIP3   OH236043   1.432   6.751   6.780
12029TIP3    H136044   1.365   6.802   6.831
12029TIP3    H236045   1.378   6.710   6.710
12030TIP3   OH236046   1.477   5.978   5.807
12030TIP3    H136047   1.405   5.979   5.740
12030TIP3    H236048   1.450   6.053   5.862
12031TIP3   OH236049   1.341   5.652   5.764
12031TIP3    H136050   1.310   5.682   5.678
12031TIP3    H236051   1.321   5.556   5.759
12032TIP3   OH236052   1.350   5.927   6.306
12032TIP3    H136053   1.364   5.831   6.300
12032TIP3    H236054   1.337   5.940   6.402
12033TIP3   OH236055   1.645   6.351   7.163
12033TIP3    H136056   1.717   6.284   7.153
12033TIP3    H236057   1.674   6.422   7.104
12034TIP3   OH236058   1.826   6.151   7.172
12034TIP3    H136059   1.753   6.102   7.215
12034TIP3    H236060   1.901   6.089   7.189
12035TIP3   OH236061   1.292   5.386   5.748
12035TIP3    H136062   1.372   5.355   5.795
12035TIP3    H236063   1.227   5.317   5.768
12036TIP3   OH236064   1.349   5.640   6.195
12036TIP3    H136065   1.390   5.551   6.212
12036TIP3    H236066   1.410   5.673   6.127
12037TIP3   OH236067   1.509   5.814   6.696
12037TIP3    H136068   1.596   5.838   6.654
12037TIP3    H236069   1.525   5.850   6.785
12038TIP3   OH236070   1.582   5.959   6.926
12038TIP3    H136071   1.506   5.993   6.977
12038TIP3    H236072   1.616   6.040   6.882
12039TIP3   OH236073   2.031   5.552   7.482
12039TIP3    H136074   2.094   5.488   7.442
12039TIP3    H236075   2.003   5.604   7.404
12040TIP3   OH236076   1.456   5.393   6.239
12040TIP3    H136077   1.507   5.377   6.322
12040TIP3    H236078   1.398   5.314   6.239
12041TIP3   OH236079   1.901   5.689   7.285
12041TIP3    H136080   1.817   5.731   7.309
12041TIP3    H236081   1.868   5.615   7.229
12042TIP3   OH236082   1.536   5.326   5.869
12042TIP3    H136083   1.579   5.253   5.820
12042TIP3    H236084   1.606   5.394   5.870
12043TIP3   OH236085   1.097   6.848   6.133
12043TIP3    H136086   1.158   6.852   6.058
12043TIP3    H236087   1.135   6.914   6.194
12044TIP3   OH236088   1.036   7.071   6.995
12044TIP3    H136089   1.100   7.021   7.045
12044TIP3    H236090   1.032   7.154   7.045
12045TIP3   OH236091   1.802   5.450   7.168
12045TIP3    H136092   1.712   5.437   7.135
12045TIP3    H236093   1.838   5.358   7.160
12046TIP3   OH236094   0.964   6.895   6.780
12046TIP3    H136095   0.906   6.927   6.850
12046TIP3    H236096   1.023   6.972   6.772
12047TIP3   OH236097   1.203   7.085   6.716
12047TIP3    H136098   1.181   7.166   6.665
12047TIP3    H236099   1.224   7.021   6.645
12048TIP3   OH236100   1.016   5.367   6.796
12048TIP3    H136101   0.968   5.290   6.831
12048TIP3    H236102   1.084   5.325   6.740
12049TIP3   OH236103   1.526   5.249   6.690
12049TIP3    H136104   1.563   5.299   6.615
12049TIP3    H236105   1.431   5.266   6.683
12050TIP3   OH236106   1.623   5.348   6.454
12050TIP3    H136107   1.697   5.295   6.418
12050TIP3    H236108   1.659   5.439   6.440
12051TIP3   OH236109   0.718   5.102   6.690
12051TIP3    H136110   0.763   5.152   6.620
12051TIP3    H236111   0.764   5.133   6.769
12052TIP3   OH236112   1.241   5.254   6.665
12052TIP3    H136113   1.246   5.208   6.580
12052TIP3    H236114   1.231   5.177   6.727
12053TIP3   OH236115   1.275   5.179   6.231
12053TIP3    H136116   1.190   5.221   6.255
12053TIP3    H236117   1.265   5.092   6.275
12054TIP3   OH236118   0.731   5.302   6.269
12054TIP3    H136119   0.716   5.236   6.338
12054TIP3    H236120   0.710   5.385   6.316
12055TIP3   OH236121   1.242   6.826   5.899
12055TIP3    H136122   1.236   6.727   5.899
12055TIP3    H236123   1.225   6.843   5.806
12056TIP3   OH236124   1.540   5.417   7.600
12056TIP3    H136125   1.558   5.386   7.692
12056TIP3    H236126   1.629   5.412   7.560
12057TIP3   OH236127   1.480   6.965   7.082
12057TIP3    H136128   1.403   6.930   7.033
12057TIP3    H236129   1.465   7.061   7.071
12058TIP3   OH236130   2.744   6.342   5.857
12058TIP3    H136131   2.712   6.432   5.836
12058TIP3    H236132   2.669   6.289   5.824
12059TIP3   OH236133   2.744   6.343   6.245
12059TIP3    H136134   2.778   6.315   6.331
12059TIP3    H236135   2.703   6.261   6.212
12060TIP3   OH236136   2.038   6.233   6.608
12060TIP3    H136137   2.068   6.163   6.669
12060TIP3    H236138   2.116   6.289   6.605
12061TIP3   OH236139   2.987   6.644   5.924
12061TIP3    H136140   2.972   6.574   5.988
12061TIP3    H236141   3.019   6.717   5.979
12062TIP3   OH236142   2.012   6.644   6.323
12062TIP3    H136143   2.005   6.546   6.327
12062TIP3    H236144   2.109   6.655   6.325
12063TIP3   OH236145   1.720   5.845   6.109
12063TIP3    H136146   1.676   5.929   6.129
12063TIP3    H236147   1.647   5.794   6.070
12064TIP3   OH236148   1.775   6.132   6.288
12064TIP3    H136149   1.825   6.055   6.323
12064TIP3    H236150   1.842   6.174   6.231
12065TIP3   OH236151   2.642   7.107   5.942
12065TIP3    H136152   2.682   7.036   5.889
12065TIP3    H236153   2.617   7.060   6.023
12066TIP3   OH236154   2.541   6.568   6.289
12066TIP3    H136155   2.581   6.490   6.247
12066TIP3    H236156   2.623   6.615   6.313
12067TIP3   OH236157   3.558   5.885   6.286
12067TIP3    H136158   3.587   5.969   6.326
12067TIP3    H236159   3.582   5.899   6.193
12068TIP3   OH236160   2.954   6.067   6.318
12068TIP3    H136161   2.996   5.982   6.340
12068TIP3    H236162   2.922   6.049   6.228
12069TIP3   OH236163   2.294   5.727   6.284
12069TIP3    H136164   2.275   5.800   6.221
12069TIP3    H236165   2.245   5.654   6.241
12070TIP3   OH236166   2.988   5.821   5.904
12070TIP3    H136167   3.059   5.805   5.971
12070TIP3    H236168   3.042   5.854   5.830
12071TIP3   OH236169   1.926   5.929   6.392
12071TIP3    H136170   2.008   5.912   6.441
12071TIP3    H236171   1.941   5.874   6.312
12072TIP3   OH236172   2.365   6.126   6.189
12072TIP3    H136173   2.460   6.102   6.201
12072TIP3    H236174   2.327   6.042   6.156
12073TIP3   OH236175   3.631   6.095   6.457
12073TIP3    H136176   3.546   6.140   6.437
12073TIP3    H236177   3.647   6.126   6.547
12074TIP3   OH236178   2.289   5.711   6.720
12074TIP3    H136179   2.228   5.748   6.653
12074TIP3    H236180   2.236   5.727   6.801
12075TIP3   OH236181   2.628   6.560   5.729
12075TIP3    H136182   2.591   6.547   5.640
12075TIP3    H236183   2.585   6.643   5.756
12076TIP3   OH236184   2.395   6.487   6.511
12076TIP3    H136185   2.335   6.555   6.549
12076TIP3    H236186   2.437   6.536   6.437
12077TIP3   OH236187   3.192   5.825   6.083
12077TIP3    H136188   3.181   5.777   6.166
12077TIP3    H236189   3.245   5.902   6.110
12078TIP3   OH236190   2.160   5.826   6.503
12078TIP3    H136191   2.222   5.898   6.528
12078TIP3    H236192   2.210   5.786   6.428
12079TIP3   OH236193   2.224   6.683   6.610
12079TIP3    H136194   2.199   6.772   6.577
12079TIP3    H236195   2.145   6.664   6.665
12080TIP3   OH236196   1.611   6.371   5.848
12080TIP3    H136197   1.577   6.401   5.762
12080TIP3    H236198   1.646   6.454   5.885
12081TIP3   OH236199   3.052   6.888   6.083
12081TIP3    H136200   2.964   6.880   6.128
12081TIP3    H236201   3.042   6.973   6.038
12082TIP3   OH236202   3.350   5.788   6.454
12082TIP3    H136203   3.262   5.812   6.419
12082TIP3    H236204   3.409   5.819   6.383
12083TIP3   OH236205   2.640   5.425   6.435
12083TIP3    H136206   2.625   5.331   6.455
12083TIP3    H236207   2.564   5.465   6.482
12084TIP3   OH236208   2.755   6.932   5.760
12084TIP3    H136209   2.803   6.849   5.741
12084TIP3    H236210   2.818   6.996   5.721
12085TIP3   OH236211   2.897   6.717   5.674
12085TIP3    H136212   2.869   6.636   5.629
12085TIP3    H236213   2.935   6.682   5.757
12086TIP3   OH236214   3.283   6.797   6.434
12086TIP3    H136215   3.269   6.719   6.374
12086TIP3    H236216   3.262   6.871   6.374
12087TIP3   OH236217   2.574   6.193   5.692
12087TIP3    H136218   2.495   6.247   5.670
12087TIP3    H236219   2.620   6.189   5.606
12088TIP3   OH236220   2.532   5.979   5.402
12088TIP3    H136221   2.598   6.032   5.451
12088TIP3    H236222   2.590   5.917   5.356
12089TIP3   OH236223   3.475   6.438   6.280
12089TIP3    H136224   3.391   6.489   6.281
12089TIP3    H236225   3.507   6.460   6.190
12090TIP3   OH236226   2.922   6.276   5.659
12090TIP3    H136227   2.868   6.299   5.739
12090TIP3    H236228   3.007   6.251   5.702
12091TIP3   OH236229   3.155   6.313   6.576
12091TIP3    H136230   3.151   6.394   6.631
12091TIP3    H236231   3.068   6.317   6.532
12092TIP3   OH236232   2.154   6.272   6.080
12092TIP3    H136233   2.114   6.214   6.013
12092TIP3    H236234   2.231   6.218   6.111
12093TIP3   OH236235   2.285   6.686   6.225
12093TIP3    H136236   2.264   6.649   6.138
12093TIP3    H236237   2.373   6.648   6.243
12094TIP3   OH236238   2.287   6.244   6.433
12094TIP3    H136239   2.322   6.218   6.345
12094TIP3    H236240   2.332   6.329   6.450
12095TIP3   OH236241   2.818   6.892   6.222
12095TIP3    H136242   2.807   6.956   6.293
12095TIP3    H236243   2.801   6.807   6.269
12096TIP3   OH236244   2.429   6.798   6.757
12096TIP3    H136245   2.369   6.860   6.803
12096TIP3    H236246   2.364   6.746   6.706
12097TIP3   OH236247   2.758   6.136   5.487
12097TIP3    H136248   2.818   6.195   5.537
12097TIP3    H236249   2.785   6.155   5.394
12098TIP3   OH236250   2.184   6.355   6.861
12098TIP3    H136251   2.189   6.444   6.903
12098TIP3    H236252   2.089   6.335   6.875
12099TIP3   OH236253   2.506   6.811   5.764
12099TIP3    H136254   2.589   6.862   5.771
12099TIP3    H236255   2.447   6.873   5.720
12100TIP3   OH236256   2.224   6.962   6.844
12100TIP3    H136257   2.185   6.972   6.756
12100TIP3    H236258   2.145   6.941   6.899
12101TIP3   OH236259   3.278   5.372   5.537
12101TIP3    H136260   3.196   5.395   5.586
12101TIP3    H236261   3.292   5.455   5.486
12102TIP3   OH236262   2.021   6.116   5.883
12102TIP3    H136263   1.951   6.157   5.828
12102TIP3    H236264   1.987   6.027   5.895
12103TIP3   OH236265   3.078   6.739   5.087
12103TIP3    H136266   3.087   6.835   5.070
12103TIP3    H236267   3.171   6.709   5.074
12104TIP3   OH236268   1.799   6.498   6.793
12104TIP3    H136269   1.734   6.475   6.723
12104TIP3    H236270   1.839   6.412   6.815
12105TIP3   OH236271   1.656   6.693   6.421
12105TIP3    H136272   1.753   6.688   6.416
12105TIP3    H236273   1.645   6.770   6.479
12106TIP3   OH236274   3.529   7.140   6.476
12106TIP3    H136275   3.526   7.044   6.487
12106TIP3    H236276   3.449   7.167   6.525
12107TIP3   OH236277   2.622   6.928   6.614
12107TIP3    H136278   2.619   7.020   6.646
12107TIP3    H236279   2.552   6.887   6.668
12108TIP3   OH236280   2.389   7.056   5.567
12108TIP3    H136281   2.343   7.040   5.483
12108TIP3    H236282   2.355   7.143   5.594
12109TIP3   OH236283   1.824   6.906   5.954
12109TIP3    H136284   1.875   6.900   6.038
12109TIP3    H236285   1.771   6.825   5.959
12110TIP3   OH236286   2.587   6.960   5.204
12110TIP3    H136287   2.645   6.890   5.168
12110TIP3    H236288   2.622   6.970   5.295
12111TIP3   OH236289   2.640   7.009   5.473
12111TIP3    H136290   2.551   7.018   5.515
12111TIP3    H236291   2.690   6.969   5.546
12112TIP3   OH236292   3.404   6.272   6.753
12112TIP3    H136293   3.319   6.280   6.706
12112TIP3    H236294   3.421   6.176   6.745
12113TIP3   OH236295   2.005   6.680   6.772
12113TIP3    H136296   2.052   6.671   6.857
12113TIP3    H236297   1.930   6.618   6.784
12114TIP3   OH236298   2.404   5.505   6.566
12114TIP3    H136299   2.316   5.475   6.536
12114TIP3    H236300   2.377   5.585   6.615
12115TIP3   OH236301   2.940   5.620   6.759
12115TIP3    H136302   3.009   5.592   6.823
12115TIP3    H236303   2.857   5.600   6.807
12116TIP3   OH236304   3.176   6.051   6.679
12116TIP3    H136305   3.124   6.047   6.762
12116TIP3    H236306   3.150   6.137   6.641
12117TIP3   OH236307   2.837   6.177   5.233
12117TIP3    H136308   2.802   6.154   5.145
12117TIP3    H236309   2.922   6.219   5.208
12118TIP3   OH236310   2.547   5.554   5.536
12118TIP3    H136311   2.514   5.549   5.627
12118TIP3    H236312   2.510   5.471   5.500
12119TIP3   OH236313   2.336   6.023   6.583
12119TIP3    H136314   2.286   6.043   6.664
12119TIP3    H236315   2.319   6.104   6.530
12120TIP3   OH236316   2.220   5.908   6.096
12120TIP3    H136317   2.128   5.881   6.116
12120TIP3    H236318   2.232   5.867   6.008
12121TIP3   OH236319   2.711   5.992   5.826
12121TIP3    H136320   2.661   6.063   5.781
12121TIP3    H236321   2.767   5.958   5.753
12122TIP3   OH236322   2.886   6.269   6.910
12122TIP3    H136323   2.862   6.197   6.972
12122TIP3    H236324   2.980   6.280   6.932
12123TIP3   OH236325   2.867   6.019   6.061
12123TIP3    H136326   2.804   6.046   5.991
12123TIP3    H236327   2.904   5.940   6.017
12124TIP3   OH236328   2.155   6.049   6.791
12124TIP3    H136329   2.185   6.112   6.858
12124TIP3    H236330   2.146   5.967   6.843
12125TIP3   OH236331   2.204   5.528   5.500
12125TIP3    H136332   2.196   5.526   5.598
12125TIP3    H236333   2.126   5.582   5.476
12126TIP3   OH236334   1.750   5.571   6.371
12126TIP3    H136335   1.823   5.604   6.427
12126TIP3    H236336   1.795   5.539   6.291
12127TIP3   OH236337   1.713   5.550   5.891
12127TIP3    H136338   1.762   5.585   5.813
12127TIP3    H236339   1.655   5.626   5.909
12128TIP3   OH236340   2.880   6.265   6.484
12128TIP3    H136341   2.912   6.194   6.424
12128TIP3    H236342   2.848   6.211   6.559
12129TIP3   OH236343   2.552   5.731   6.157
12129TIP3    H136344   2.472   5.728   6.212
12129TIP3    H236345   2.623   5.721   6.224
12130TIP3   OH236346   1.983   5.786   6.164
12130TIP3    H136347   1.889   5.792   6.135
12130TIP3    H236348   2.007   5.694   6.143
12131TIP3   OH236349   2.246   5.781   5.855
12131TIP3    H136350   2.341   5.794   5.835
12131TIP3    H236351   2.202   5.802   5.770
12132TIP3   OH236352   3.041   5.806   6.361
12132TIP3    H136353   3.007   5.819   6.453
12132TIP3    H236354   2.974   5.745   6.326
12133TIP3   OH236355   2.096   5.817   5.630
12133TIP3    H136356   2.026   5.771   5.579
12133TIP3    H236357   2.149   5.855   5.557
12134TIP3   OH236358   2.169   6.603   6.999
12134TIP3    H136359   2.248   6.634   7.047
12134TIP3    H236360   2.103   6.605   7.071
12135TIP3   OH236361   2.629   6.060   6.256
12135TIP3    H136362   2.702   6.019   6.207
12135TIP3    H236363   2.634   6.014   6.342
12136TIP3   OH236364   2.148   5.545   6.137
12136TIP3    H136365   2.113   5.468   6.187
12136TIP3    H236366   2.200   5.502   6.068
12137TIP3   OH236367   2.606   5.959   6.541
12137TIP3    H136368   2.516   5.993   6.557
12137TIP3    H236369   2.663   6.020   6.593
12138TIP3   OH236370   2.342   6.345   5.638
12138TIP3    H136371   2.269   6.279   5.627
12138TIP3    H236372   2.322   6.378   5.729
12139TIP3   OH236373   3.241   6.584   6.266
12139TIP3    H136374   3.266   6.632   6.185
12139TIP3    H236375   3.158   6.538   6.240
12140TIP3   OH236376   2.801   5.654   5.508
12140TIP3    H136377   2.704   5.636   5.515
12140TIP3    H236378   2.807   5.749   5.531
12141TIP3   OH236379   2.745   6.667   6.634
12141TIP3    H136380   2.765   6.642   6.725
12141TIP3    H236381   2.701   6.753   6.644
12142TIP3   OH236382   2.869   5.907   5.609
12142TIP3    H136383   2.966   5.911   5.623
12142TIP3    H236384   2.852   5.987   5.556
12143TIP3   OH236385   2.034   6.364   6.313
12143TIP3    H136386   2.074   6.337   6.228
12143TIP3    H236387   2.083   6.310   6.377
12144TIP3   OH236388   2.489   6.494   5.462
12144TIP3    H136389   2.440   6.580   5.465
12144TIP3    H236390   2.435   6.440   5.523
12145TIP3   OH236391   1.920   6.287   6.929
12145TIP3    H136392   1.940   6.276   7.024
12145TIP3    H236393   1.851   6.220   6.915
12146TIP3   OH236394   2.645   6.404   6.945
12146TIP3    H136395   2.582   6.343   6.905
12146TIP3    H236396   2.730   6.365   6.918
12147TIP3   OH236397   2.905   6.917   6.531
12147TIP3    H136398   2.808   6.915   6.546
12147TIP3    H236399   2.934   6.969   6.609
12148TIP3   OH236400   3.308   5.999   5.443
12148TIP3    H136401   3.247   5.955   5.379
12148TIP3    H236402   3.307   6.089   5.402
12149TIP3   OH236403   3.530   6.861   6.517
12149TIP3    H136404   3.434   6.851   6.502
12149TIP3    H236405   3.563   6.828   6.430
12150TIP3   OH236406   3.014   6.815   5.351
12150TIP3    H136407   2.987   6.743   5.410
12150TIP3    H236408   3.027   6.769   5.266
12151TIP3   OH236409   3.009   6.445   6.183
12151TIP3    H136410   2.916   6.420   6.197
12151TIP3    H236411   3.043   6.364   6.139
12152TIP3   OH236412   2.140   6.673   5.940
12152TIP3    H136413   2.136   6.754   5.885
12152TIP3    H236414   2.046   6.657   5.955
12153TIP3   OH236415   1.702   5.975   5.644
12153TIP3    H136416   1.748   6.059   5.666
12153TIP3    H236417   1.626   5.979   5.707
12154TIP3   OH236418   2.269   6.434   5.881
12154TIP3    H136419   2.237   6.524   5.901
12154TIP3    H236420   2.236   6.384   5.958
12155TIP3   OH236421   2.407   7.014   6.407
12155TIP3    H136422   2.449   7.088   6.359
12155TIP3    H236423   2.482   6.977   6.457
12156TIP3   OH236424   2.055   6.912   5.791
12156TIP3    H136425   1.970   6.922   5.839
12156TIP3    H236426   2.089   7.004   5.794
12157TIP3   OH236427   2.794   6.651   6.365
12157TIP3    H136428   2.782   6.651   6.463
12157TIP3    H236429   2.869   6.591   6.355
12158TIP3   OH236430   2.772   6.545   5.253
12158TIP3    H136431   2.826   6.520   5.332
12158TIP3    H236432   2.684   6.515   5.281
12159TIP3   OH236433   3.108   7.015   5.069
12159TIP3    H136434   3.145   7.088   5.017
12159TIP3    H236435   3.028   7.059   5.104
12160TIP3   OH236436   2.127   5.793   6.934
12160TIP3    H136437   2.031   5.794   6.948
12160TIP3    H236438   2.157   5.737   7.008
12161TIP3   OH236439   2.932   6.479   5.470
12161TIP3    H136440   2.921   6.411   5.538
12161TIP3    H236441   3.029   6.473   5.455
12162TIP3   OH236442   1.844   6.876   6.566
12162TIP3    H136443   1.902   6.811   6.610
12162TIP3    H236444   1.863   6.955   6.618
12163TIP3   OH236445   2.133   6.523   5.252
12163TIP3    H136446   2.148   6.430   5.226
12163TIP3    H236447   2.112   6.513   5.347
12164TIP3   OH236448   2.077   6.528   5.525
12164TIP3    H136449   2.154   6.501   5.577
12164TIP3    H236450   2.081   6.626   5.532
12165TIP3   OH236451   1.811   6.219   5.728
12165TIP3    H136452   1.746   6.265   5.784
12165TIP3    H236453   1.827   6.287   5.660
12166TIP3   OH236454   2.967   5.857   6.621
12166TIP3    H136455   3.048   5.894   6.660
12166TIP3    H236456   2.953   5.776   6.675
12167TIP3   OH236457   2.846   5.606   5.789
12167TIP3    H136458   2.834   5.626   5.694
12167TIP3    H236459   2.886   5.689   5.823
12168TIP3   OH236460   2.346   6.723   5.471
12168TIP3    H136461   2.259   6.748   5.508
12168TIP3    H236462   2.362   6.798   5.412
12169TIP3   OH236463   2.529   5.791   5.888
12169TIP3    H136464   2.594   5.863   5.870
12169TIP3    H236465   2.538   5.781   5.985
12170TIP3   OH236466   2.805   6.105   6.691
12170TIP3    H136467   2.828   6.155   6.772
12170TIP3    H236468   2.856   6.023   6.702
12171TIP3   OH236469   2.675   5.510   5.986
12171TIP3    H136470   2.671   5.587   6.045
12171TIP3    H236471   2.738   5.543   5.918
12172TIP3   OH236472   2.091   6.800   5.541
12172TIP3    H136473   2.062   6.870   5.479
12172TIP3    H236474   2.076   6.843   5.628
12173TIP3   OH236475   2.190   5.516   5.776
12173TIP3    H136476   2.189   5.605   5.816
12173TIP3    H236477   2.285   5.496   5.784
12174TIP3   OH236478   3.442   6.007   6.676
12174TIP3    H136479   3.344   6.005   6.684
12174TIP3    H236480   3.453   5.962   6.592
12175TIP3   OH236481   3.094   6.201   6.063
12175TIP3    H136482   3.018   6.141   6.074
12175TIP3    H236483   3.166   6.153   6.111
12176TIP3   OH236484   1.808   6.426   5.531
12176TIP3    H136485   1.879   6.492   5.541
12176TIP3    H236486   1.852   6.368   5.464
12177TIP3   OH236487   1.749   5.706   5.670
12177TIP3    H136488   1.754   5.803   5.665
12177TIP3    H236489   1.673   5.687   5.613
12178TIP3   OH236490   3.059   7.177   6.030
12178TIP3    H136491   3.017   7.217   5.951
12178TIP3    H236492   3.154   7.188   6.004
12179TIP3   OH236493   2.138   5.426   6.537
12179TIP3    H136494   2.109   5.389   6.451
12179TIP3    H236495   2.129   5.348   6.596
12180TIP3   OH236496   1.673   6.635   5.915
12180TIP3    H136497   1.615   6.673   5.982
12180TIP3    H236498   1.644   6.683   5.834
12181TIP3   OH236499   1.838   7.171   6.987
12181TIP3    H136500   1.925   7.180   7.031
12181TIP3    H236501   1.824   7.075   6.990
12182TIP3   OH236502   2.316   7.139   7.047
12182TIP3    H136503   2.412   7.130   7.044
12182TIP3    H236504   2.291   7.086   6.968
12183TIP3   OH236505   2.297   6.725   5.161
12183TIP3    H136506   2.243   6.652   5.199
12183TIP3    H236507   2.373   6.674   5.127
12184TIP3   OH236508   2.971   7.054   6.757
12184TIP3    H136509   2.949   6.992   6.830
12184TIP3    H236510   3.039   7.110   6.800
12185TIP3   OH236511   2.732   6.764   5.076
12185TIP3    H136512   2.774   6.699   5.136
12185TIP3    H236513   2.789   6.759   4.996
12186TIP3   OH236514   1.966   6.594   7.191
12186TIP3    H136515   1.981   6.498   7.199
12186TIP3    H236516   1.879   6.597   7.146
12187TIP3   OH236517   1.943   6.239   5.388
12187TIP3    H136518   2.002   6.210   5.460
12187TIP3    H236519   2.009   6.245   5.315
12188TIP3   OH236520   2.574   6.680   6.964
12188TIP3    H136521   2.529   6.701   6.880
12188TIP3    H236522   2.601   6.586   6.953
12189TIP3   OH236523   2.457   6.441   5.193
12189TIP3    H136524   2.460   6.453   5.290
12189TIP3    H236525   2.458   6.343   5.186
12190TIP3   OH236526   3.068   6.689   6.576
12190TIP3    H136527   3.139   6.733   6.526
12190TIP3    H236528   2.994   6.751   6.561
12191TIP3   OH236529   2.086   6.327   7.174
12191TIP3    H136530   2.164   6.277   7.148
12191TIP3    H236531   2.114   6.362   7.261
12192TIP3   OH236532   2.146   6.149   5.603
12192TIP3    H136533   2.124   6.107   5.688
12192TIP3    H236534   2.187   6.074   5.554
12193TIP3   OH236535   2.420   6.211   6.835
12193TIP3    H136536   2.342   6.270   6.835
12193TIP3    H236537   2.471   6.247   6.759
12194TIP3   OH236538   2.254   5.944   5.446
12194TIP3    H136539   2.230   5.951   5.351
12194TIP3    H236540   2.351   5.944   5.440
12195TIP3   OH236541   2.953   6.616   6.966
12195TIP3    H136542   3.012   6.567   6.908
12195TIP3    H236543   2.936   6.551   7.037
12196TIP3   OH236544   3.070   6.270   5.114
12196TIP3    H136545   3.053   6.226   5.028
12196TIP3    H236546   3.036   6.360   5.092
12197TIP3   OH236547   2.545   6.002   6.958
12197TIP3    H136548   2.545   5.922   6.901
12197TIP3    H236549   2.499   6.068   6.902
12198TIP3   OH236550   2.547   5.789   6.768
12198TIP3    H136551   2.575   5.828   6.684
12198TIP3    H236552   2.453   5.765   6.749
12199TIP3   OH236553   2.570   6.321   6.641
12199TIP3    H136554   2.655   6.333   6.598
12199TIP3    H236555   2.513   6.386   6.595
12200TIP3   OH236556   3.153   6.284   7.016
12200TIP3    H136557   3.198   6.203   7.043
12200TIP3    H236558   3.222   6.330   6.966
12201TIP3   OH236559   3.191   6.529   6.754
12201TIP3    H136560   3.136   6.591   6.700
12201TIP3    H236561   3.279   6.567   6.743
12202TIP3   OH236562   2.422   6.107   7.192
12202TIP3    H136563   2.354   6.038   7.208
12202TIP3    H236564   2.455   6.081   7.104
12203TIP3   OH236565   2.678   5.549   6.836
12203TIP3    H136566   2.627   5.629   6.815
12203TIP3    H236567   2.610   5.479   6.826
12204TIP3   OH236568   2.803   6.052   7.052
12204TIP3    H136569   2.790   6.036   7.147
12204TIP3    H236570   2.714   6.028   7.019
12205TIP3   OH236571   3.042   6.004   6.908
12205TIP3    H136572   2.968   6.004   6.972
12205TIP3    H236573   3.117   5.973   6.963
12206TIP3   OH236574   3.275   5.944   7.053
12206TIP3    H136575   3.287   5.848   7.070
12206TIP3    H236576   3.270   5.982   7.143
12207TIP3   OH236577   2.260   5.888   7.247
12207TIP3    H136578   2.264   5.796   7.216
12207TIP3    H236579   2.299   5.878   7.337
12208TIP3   OH236580   2.772   5.560   7.095
12208TIP3    H136581   2.837   5.487   7.090
12208TIP3    H236582   2.732   5.554   7.006
12209TIP3   OH236583   2.840   5.776   7.252
12209TIP3    H136584   2.819   5.703   7.189
12209TIP3    H236585   2.760   5.832   7.246
12210TIP3   OH236586   2.061   7.002   5.353
12210TIP3    H136587   2.156   6.994   5.334
12210TIP3    H236588   2.034   7.055   5.275
12211TIP3   OH236589   1.540   6.385   5.567
12211TIP3    H136590   1.635   6.407   5.552
12211TIP3    H236591   1.534   6.296   5.526
12212TIP3   OH236592   1.454   6.994   5.987
12212TIP3    H136593   1.390   6.932   5.947
12212TIP3    H236594   1.500   6.936   6.051
12213TIP3   OH236595   1.592   6.840   6.170
12213TIP3    H136596   1.583   6.773   6.240
12213TIP3    H236597   1.643   6.907   6.219
12214TIP3   OH236598   3.317   7.249   5.973
12214TIP3    H136599   3.350   7.291   6.054
12214TIP3    H236600   3.381   7.280   5.907
12215TIP3   OH236601   3.338   7.269   6.262
12215TIP3    H136602   3.298   7.179   6.255
12215TIP3    H236603   3.425   7.246   6.298
12216TIP3   OH236604   3.407   6.933   6.853
12216TIP3    H136605   3.326   6.950   6.906
12216TIP3    H236606   3.442   7.025   6.845
12217TIP3   OH236607   3.209   6.458   5.444
12217TIP3    H136608   3.275   6.522   5.412
12217TIP3    H236609   3.255   6.420   5.523
12218TIP3   OH236610   3.337   6.325   5.648
12218TIP3    H136611   3.271   6.284   5.707
12218TIP3    H236612   3.404   6.360   5.712
12219TIP3   OH236613   3.392   6.719   6.078
12219TIP3    H136614   3.445   6.649   6.034
12219TIP3    H236615   3.393   6.791   6.012
12220TIP3   OH236616   3.206   7.015   6.275
12220TIP3    H136617   3.116   7.028   6.308
12220TIP3    H236618   3.186   6.967   6.192
12221TIP3   OH236619   3.274   6.234   5.294
12221TIP3    H136620   3.203   6.234   5.226
12221TIP3    H236621   3.245   6.309   5.348
12222TIP3   OH236622   3.143   5.907   5.249
12222TIP3    H136623   3.103   5.940   5.167
12222TIP3    H236624   3.120   5.812   5.243
12223TIP3   OH236625   3.149   6.184   5.794
12223TIP3    H136626   3.157   6.088   5.784
12223TIP3    H236627   3.135   6.194   5.890
12224TIP3   OH236628   1.775   6.257   6.541
12224TIP3    H136629   1.773   6.223   6.449
12224TIP3    H236630   1.872   6.257   6.558
12225TIP3   OH236631   3.467   6.643   6.703
12225TIP3    H136632   3.518   6.560   6.690
12225TIP3    H236633   3.460   6.675   6.612
12226TIP3   OH236634   3.617   6.416   6.679
12226TIP3    H136635   3.543   6.356   6.703
12226TIP3    H236636   3.692   6.354   6.687
12227TIP3   OH236637   3.088   5.641   5.234
12227TIP3    H136638   3.162   5.608   5.287
12227TIP3    H236639   3.016   5.579   5.252
12228TIP3   OH236640   3.148   5.900   5.685
12228TIP3    H136641   3.188   5.811   5.700
12228TIP3    H236642   3.206   5.932   5.614
12229TIP3   OH236643   3.307   6.070   6.184
12229TIP3    H136644   3.392   6.094   6.142
12229TIP3    H236645   3.323   6.106   6.273
12230TIP3   OH236646   3.381   6.216   6.414
12230TIP3    H136647   3.302   6.250   6.461
12230TIP3    H236648   3.412   6.296   6.368
12231TIP3   OH236649   1.995   5.940   7.213
12231TIP3    H136650   2.092   5.936   7.219
12231TIP3    H236651   1.971   5.854   7.252
12232TIP3   OH236652   3.823   5.811   6.964
12232TIP3    H136653   3.894   5.760   6.920
12232TIP3    H236654   3.791   5.868   6.892
12233TIP3   OH236655   3.255   5.650   5.727
12233TIP3    H136656   3.303   5.633   5.810
12233TIP3    H236657   3.194   5.573   5.725
12234TIP3   OH236658   1.954   5.635   6.546
12234TIP3    H136659   2.014   5.558   6.555
12234TIP3    H236660   2.018   5.708   6.537
12235TIP3   OH236661   1.754   5.907   6.615
12235TIP3    H136662   1.807   5.905   6.532
12235TIP3    H236663   1.786   5.987   6.657
12236TIP3   OH236664   3.695   5.948   6.770
12236TIP3    H136665   3.608   5.989   6.786
12236TIP3    H236666   3.666   5.872   6.715
12237TIP3   OH236667   3.334   5.580   5.360
12237TIP3    H136668   3.373   5.510   5.304
12237TIP3    H236669   3.401   5.650   5.357
12238TIP3   OH236670   1.743   5.409   6.119
12238TIP3    H136671   1.651   5.404   6.149
12238TIP3    H236672   1.737   5.468   6.041
12239TIP3   OH236673   2.902   7.116   5.627
12239TIP3    H136674   2.951   7.104   5.543
12239TIP3    H236675   2.957   7.182   5.672
12240TIP3   OH236676   1.963   5.493   6.934
12240TIP3    H136677   1.911   5.486   7.016
12240TIP3    H236678   1.895   5.528   6.872
12241TIP3   OH236679   2.006   6.909   7.006
12241TIP3    H136680   1.911   6.889   6.993
12241TIP3    H236681   2.013   6.912   7.102
12242TIP3   OH236682   2.180   6.951   6.554
12242TIP3    H136683   2.132   7.029   6.519
12242TIP3    H236684   2.266   6.967   6.510
12243TIP3   OH236685   2.638   7.206   6.682
12243TIP3    H136686   2.648   7.199   6.780
12243TIP3    H236687   2.731   7.210   6.659
12244TIP3   OH236688   3.594   5.713   6.654
12244TIP3    H136689   3.503   5.707   6.620
12244TIP3    H236690   3.624   5.620   6.642
12245TIP3   OH236691   1.858   7.208   6.587
12245TIP3    H136692   1.767   7.238   6.566
12245TIP3    H236693   1.880   7.269   6.660
12246TIP3   OH236694   2.091   7.186   6.441
12246TIP3    H136695   2.006   7.198   6.488
12246TIP3    H236696   2.071   7.221   6.352
12247TIP3   OH236697   2.519   7.214   6.237
12247TIP3    H136698   2.446   7.229   6.173
12247TIP3    H236699   2.526   7.301   6.280
12248TIP3   OH236700   2.785   7.188   6.313
12248TIP3    H136701   2.691   7.186   6.289
12248TIP3    H236702   2.827   7.206   6.229
12249TIP3   OH236703   2.991   7.367   6.215
12249TIP3    H136704   2.980   7.434   6.145
12249TIP3    H236705   3.021   7.292   6.170
12250TIP3   OH236706   1.767   7.001   6.323
12250TIP3    H136707   1.792   6.975   6.415
12250TIP3    H236708   1.841   6.957   6.275
12251TIP3   OH236709   1.964   6.874   6.184
12251TIP3    H136710   1.978   6.790   6.235
12251TIP3    H236711   2.055   6.910   6.182
12252TIP3   OH236712   2.230   6.965   6.190
12252TIP3    H136713   2.260   6.873   6.182
12252TIP3    H236714   2.274   6.989   6.273
12253TIP3   OH236715   2.801   5.622   6.274
12253TIP3    H136716   2.760   5.551   6.326
12253TIP3    H236717   2.876   5.577   6.232
12254TIP3   OH236718   3.323   5.508   6.182
12254TIP3    H136719   3.359   5.557   6.104
12254TIP3    H236720   3.228   5.523   6.172
12255TIP3   OH236721   3.419   5.602   5.944
12255TIP3    H136722   3.493   5.550   5.904
12255TIP3    H236723   3.453   5.693   5.929
12256TIP3   OH236724   2.051   5.331   6.289
12256TIP3    H136725   1.958   5.298   6.294
12256TIP3    H236726   2.099   5.245   6.285
12257TIP3   OH236727   1.832   5.205   5.938
12257TIP3    H136728   1.868   5.260   5.866
12257TIP3    H236729   1.812   5.271   6.007
12258TIP3   OH236730   2.496   5.366   6.173
12258TIP3    H136731   2.553   5.411   6.108
12258TIP3    H236732   2.527   5.402   6.256
12259TIP3   OH236733   3.039   5.512   6.154
12259TIP3    H136734   3.043   5.471   6.066
12259TIP3    H236735   3.028   5.433   6.212
12260TIP3   OH236736   3.072   5.437   5.718
12260TIP3    H136737   2.985   5.478   5.733
12260TIP3    H236738   3.059   5.350   5.763
12261TIP3   OH236739   1.553   6.780   5.720
12261TIP3    H136740   1.468   6.750   5.684
12261TIP3    H236741   1.549   6.874   5.693
12262TIP3   OH236742   1.959   5.362   5.699
12262TIP3    H136743   2.006   5.297   5.643
12262TIP3    H236744   2.033   5.415   5.734
12263TIP3   OH236745   2.466   5.540   5.800
12263TIP3    H136746   2.526   5.491   5.859
12263TIP3    H236747   2.490   5.632   5.826
12264TIP3   OH236748   2.328   6.958   5.301
12264TIP3    H136749   2.416   6.982   5.264
12264TIP3    H236750   2.306   6.884   5.240
12265TIP3   OH236751   3.047   7.082   5.394
12265TIP3    H136752   3.039   6.984   5.384
12265TIP3    H236753   3.001   7.112   5.313
12266TIP3   OH236754   2.259   5.614   7.181
12266TIP3    H136755   2.223   5.543   7.237
12266TIP3    H236756   2.353   5.612   7.210
12267TIP3   OH236757   2.509   5.610   7.300
12267TIP3    H136758   2.595   5.583   7.263
12267TIP3    H236759   2.496   5.541   7.369
12268TIP3   OH236760   1.630   6.794   5.354
12268TIP3    H136761   1.641   6.822   5.446
12268TIP3    H236762   1.717   6.751   5.336
12269TIP3   OH236763   3.336   5.673   7.088
12269TIP3    H136764   3.352   5.643   7.180
12269TIP3    H236765   3.426   5.667   7.049
12270TIP3   OH236766   3.294   7.221   6.583
12270TIP3    H136767   3.206   7.185   6.568
12270TIP3    H236768   3.285   7.315   6.564
12271TIP3   OH236769   4.540   6.598   5.343
12271TIP3    H136770   4.509   6.689   5.323
12271TIP3    H236771   4.465   6.546   5.310
12272TIP3   OH236772   4.537   6.599   5.732
12272TIP3    H136773   4.574   6.576   5.819
12272TIP3    H236774   4.499   6.515   5.703
12273TIP3   OH236775   3.834   6.493   6.099
12273TIP3    H136776   3.866   6.423   6.159
12273TIP3    H236777   3.917   6.539   6.079
12274TIP3   OH236778   4.785   6.901   5.411
12274TIP3    H136779   4.768   6.832   5.477
12274TIP3    H236780   4.814   6.976   5.466
12275TIP3   OH236781   3.807   6.901   5.814
12275TIP3    H136782   3.802   6.803   5.815
12275TIP3    H236783   3.904   6.913   5.812
12276TIP3   OH236784   3.516   6.102   5.598
12276TIP3    H136785   3.469   6.185   5.615
12276TIP3    H236786   3.445   6.050   5.554
12277TIP3   OH236787   3.573   6.391   5.779
12277TIP3    H136788   3.622   6.313   5.811
12277TIP3    H236789   3.634   6.428   5.714
12278TIP3   OH236790   4.435   7.363   5.428
12278TIP3    H136791   4.476   7.291   5.375
12278TIP3    H236792   4.426   7.321   5.515
12279TIP3   OH236793   4.336   6.824   5.776
12279TIP3    H136794   4.378   6.747   5.735
12279TIP3    H236795   4.418   6.872   5.801
12280TIP3   OH236796   5.353   6.143   5.775
12280TIP3    H136797   5.383   6.226   5.817
12280TIP3    H236798   5.377   6.159   5.682
12281TIP3   OH236799   4.747   6.324   5.805
12281TIP3    H136800   4.792   6.240   5.827
12281TIP3    H236801   4.717   6.305   5.714
12282TIP3   OH236802   4.090   5.983   5.772
12282TIP3    H136803   4.071   6.056   5.709
12282TIP3    H236804   4.042   5.910   5.727
12283TIP3   OH236805   4.785   6.077   5.392
12283TIP3    H136806   4.856   6.061   5.459
12283TIP3    H236807   4.839   6.111   5.318
12284TIP3   OH236808   3.721   6.184   5.879
12284TIP3    H136809   3.804   6.167   5.927
12284TIP3    H236810   3.736   6.130   5.799
12285TIP3   OH236811   4.160   6.382   5.679
12285TIP3    H136812   4.255   6.359   5.688
12285TIP3    H236813   4.123   6.299   5.644
12286TIP3   OH236814   5.427   6.354   5.945
12286TIP3    H136815   5.346   6.402   5.918
12286TIP3    H236816   5.425   6.370   6.040
12287TIP3   OH236817   4.083   5.968   6.207
12287TIP3    H136818   4.025   6.004   6.138
12287TIP3    H236819   4.031   5.987   6.287
12288TIP3   OH236820   4.426   6.817   5.214
12288TIP3    H136821   4.387   6.804   5.126
12288TIP3    H236822   4.382   6.900   5.242
12289TIP3   OH236823   4.191   6.743   5.998
12289TIP3    H136824   4.132   6.812   6.036
12289TIP3    H236825   4.235   6.791   5.925
12290TIP3   OH236826   4.989   6.081   5.571
12290TIP3    H136827   4.973   6.039   5.657
12290TIP3    H236828   5.041   6.159   5.596
12291TIP3   OH236829   3.956   6.082   5.990
12291TIP3    H136830   4.018   6.154   6.014
12291TIP3    H236831   4.005   6.042   5.915
12292TIP3   OH236832   4.019   6.940   6.096
12292TIP3    H136833   3.995   7.028   6.061
12292TIP3    H236834   3.941   6.924   6.153
12293TIP3   OH236835   3.409   6.629   5.334
12293TIP3    H136836   3.371   6.656   5.249
12293TIP3    H236837   3.443   6.713   5.370
12294TIP3   OH236838   4.850   7.145   5.573
12294TIP3    H136839   4.761   7.135   5.614
12294TIP3    H236840   4.841   7.232   5.529
12295TIP3   OH236841   5.146   6.039   5.938
12295TIP3    H136842   5.060   6.070   5.907
12295TIP3    H236843   5.207   6.073   5.870
12296TIP3   OH236844   4.436   5.683   5.921
12296TIP3    H136845   4.422   5.589   5.939
12296TIP3    H236846   4.360   5.723   5.969
12297TIP3   OH236847   4.550   7.189   5.245
12297TIP3    H136848   4.600   7.106   5.228
12297TIP3    H236849   4.614   7.253   5.207
12298TIP3   OH236850   4.695   6.974   5.161
12298TIP3    H136851   4.661   6.893   5.120
12298TIP3    H236852   4.734   6.940   5.245
12299TIP3   OH236853   5.078   7.054   5.920
12299TIP3    H136854   5.065   6.977   5.861
12299TIP3    H236855   5.061   7.129   5.859
12300TIP3   OH236856   4.370   6.450   5.179
12300TIP3    H136857   4.291   6.503   5.157
12300TIP3    H236858   4.416   6.445   5.093
12301TIP3   OH236859   4.328   6.235   4.891
12301TIP3    H136860   4.395   6.289   4.938
12301TIP3    H236861   4.386   6.173   4.843
12302TIP3   OH236862   5.263   6.689   5.752
12302TIP3    H136863   5.184   6.746   5.763
12302TIP3    H236864   5.297   6.721   5.666
12303TIP3   OH236865   4.719   6.533   5.146
12303TIP3    H136866   4.664   6.556   5.225
12303TIP3    H236867   4.803   6.508   5.190
12304TIP3   OH236868   4.952   6.569   6.063
12304TIP3    H136869   4.951   6.647   6.121
12304TIP3    H236870   4.866   6.578   6.018
12305TIP3   OH236871   3.950   6.529   5.567
12305TIP3    H136872   3.909   6.471   5.500
12305TIP3    H236873   4.026   6.475   5.598
12306TIP3   OH236874   4.079   6.941   5.713
12306TIP3    H136875   4.061   6.905   5.625
12306TIP3    H236876   4.168   6.905   5.732
12307TIP3   OH236877   4.078   6.503   5.921
12307TIP3    H136878   4.114   6.475   5.834
12307TIP3    H236879   4.126   6.586   5.938
12308TIP3   OH236880   4.611   7.138   5.698
12308TIP3    H136881   4.600   7.218   5.753
12308TIP3    H236882   4.595   7.065   5.761
12309TIP3   OH236883   4.231   7.054   6.241
12309TIP3    H136884   4.172   7.116   6.290
12309TIP3    H236885   4.164   7.002   6.194
12310TIP3   OH236886   4.555   6.392   4.975
12310TIP3    H136887   4.615   6.452   5.024
12310TIP3    H236888   4.582   6.411   4.882
12311TIP3   OH236889   3.982   6.612   6.355
12311TIP3    H136890   3.984   6.701   6.395
12311TIP3    H236891   3.886   6.594   6.358
12312TIP3   OH236892   4.302   7.067   5.251
12312TIP3    H136893   4.385   7.118   5.259
12312TIP3    H236894   4.243   7.130   5.207
12313TIP3   OH236895   4.013   7.196   6.316
12313TIP3    H136896   3.967   7.215   6.234
12313TIP3    H236897   3.942   7.197   6.383
12314TIP3   OH236898   5.073   5.628   5.024
12314TIP3    H136899   4.992   5.651   5.073
12314TIP3    H236900   5.089   5.711   4.974
12315TIP3   OH236901   3.815   6.373   5.372
12315TIP3    H136902   3.747   6.415   5.315
12315TIP3    H236903   3.781   6.283   5.379
12316TIP3   OH236904   4.874   6.996   4.573
12316TIP3    H136905   4.883   7.093   4.557
12316TIP3    H236906   4.966   6.966   4.560
12317TIP3   OH236907   3.594   6.757   6.279
12317TIP3    H136908   3.531   6.735   6.207
12317TIP3    H236909   3.633   6.669   6.301
12318TIP3   OH236910   3.454   6.948   5.913
12318TIP3    H136911   3.548   6.936   5.896
12318TIP3    H236912   3.454   7.028   5.967
12319TIP3   OH236913   5.296   7.409   5.947
12319TIP3    H136914   5.328   7.320   5.971
12319TIP3    H236915   5.224   7.420   6.011
12320TIP3   OH236916   4.420   7.187   6.098
12320TIP3    H136917   4.416   7.278   6.133
12320TIP3    H236918   4.351   7.144   6.154
12321TIP3   OH236919   4.184   7.312   5.054
12321TIP3    H136920   4.138   7.295   4.969
12321TIP3    H236921   4.151   7.400   5.079
12322TIP3   OH236922   3.620   7.162   5.440
12322TIP3    H136923   3.669   7.154   5.525
12322TIP3    H236924   3.572   7.078   5.438
12323TIP3   OH236925   4.383   7.217   4.691
12323TIP3    H136926   4.442   7.147   4.655
12323TIP3    H236927   4.418   7.227   4.782
12324TIP3   OH236928   4.435   7.265   4.961
12324TIP3    H136929   4.347   7.274   5.003
12324TIP3    H236930   4.486   7.226   5.034
12325TIP3   OH236931   5.203   6.535   6.263
12325TIP3    H136932   5.146   6.555   6.188
12325TIP3    H236933   5.230   6.443   6.244
12326TIP3   OH236934   3.800   6.937   6.261
12326TIP3    H136935   3.849   6.928   6.344
12326TIP3    H236936   3.727   6.872   6.271
12327TIP3   OH236937   4.200   5.760   6.054
12327TIP3    H136938   4.112   5.731   6.023
12327TIP3    H236939   4.175   5.842   6.100
12328TIP3   OH236940   4.738   5.875   6.246
12328TIP3    H136941   4.808   5.849   6.309
12328TIP3    H236942   4.656   5.857   6.295
12329TIP3   OH236943   4.970   6.303   6.160
12329TIP3    H136944   4.922   6.302   6.246
12329TIP3    H236945   4.956   6.394   6.128
12330TIP3   OH236946   4.636   6.434   4.722
12330TIP3    H136947   4.598   6.412   4.635
12330TIP3    H236948   4.719   6.477   4.695
12331TIP3   OH236949   4.345   5.809   5.024
12331TIP3    H136950   4.310   5.805   5.115
12331TIP3    H236951   4.305   5.728   4.987
12332TIP3   OH236952   4.131   6.279   6.068
12332TIP3    H136953   4.085   6.303   6.151
12332TIP3    H236954   4.115   6.360   6.015
12333TIP3   OH236955   4.017   6.164   5.584
12333TIP3    H136956   3.924   6.138   5.602
12333TIP3    H236957   4.029   6.124   5.495
12334TIP3   OH236958   4.507   6.248   5.313
12334TIP3    H136959   4.457   6.320   5.268
12334TIP3    H236960   4.562   6.215   5.239
12335TIP3   OH236961   4.685   6.523   6.392
12335TIP3    H136962   4.664   6.452   6.457
12335TIP3    H236963   4.777   6.542   6.416
12336TIP3   OH236964   4.661   6.275   5.549
12336TIP3    H136965   4.600   6.302   5.478
12336TIP3    H236966   4.699   6.196   5.504
12337TIP3   OH236967   3.949   6.308   6.279
12337TIP3    H136968   3.996   6.367   6.339
12337TIP3    H236969   3.942   6.226   6.332
12338TIP3   OH236970   4.002   5.785   4.987
12338TIP3    H136971   3.991   5.785   5.084
12338TIP3    H236972   3.925   5.838   4.960
12339TIP3   OH236973   3.545   5.825   5.862
12339TIP3    H136974   3.621   5.859   5.913
12339TIP3    H236975   3.584   5.798   5.778
12340TIP3   OH236976   3.510   5.807   5.379
12340TIP3    H136977   3.557   5.843   5.300
12340TIP3    H236978   3.450   5.882   5.396
12341TIP3   OH236979   4.667   6.521   5.970
12341TIP3    H136980   4.704   6.451   5.911
12341TIP3    H236981   4.641   6.467   6.047
12342TIP3   OH236982   4.348   5.985   5.643
12342TIP3    H136983   4.268   5.984   5.699
12342TIP3    H236984   4.419   5.979   5.709
12343TIP3   OH236985   3.777   6.042   5.652
12343TIP3    H136986   3.684   6.049   5.622
12343TIP3    H236987   3.802   5.951   5.628
12344TIP3   OH236988   4.043   6.037   5.342
12344TIP3    H136989   4.137   6.051   5.321
12344TIP3    H236990   3.997   6.059   5.258
12345TIP3   OH236991   4.835   6.063   5.845
12345TIP3    H136992   4.805   6.076   5.938
12345TIP3    H236993   4.767   6.002   5.812
12346TIP3   OH236994   3.893   6.074   5.117
12346TIP3    H136995   3.824   6.027   5.067
12346TIP3    H236996   3.945   6.111   5.044
12347TIP3   OH236997   3.957   6.859   6.495
12347TIP3    H136998   4.046   6.887   6.524
12347TIP3    H236999   3.908   6.878   6.575
12348TIP3   OH237000   4.426   6.315   5.740
12348TIP3    H137001   4.501   6.279   5.690
12348TIP3    H237002   4.435   6.271   5.826
12349TIP3   OH237003   3.946   5.802   5.623
12349TIP3    H137004   3.910   5.724   5.671
12349TIP3    H237005   3.992   5.761   5.549
12350TIP3   OH237006   4.403   6.213   6.035
12350TIP3    H137007   4.314   6.252   6.046
12350TIP3    H237008   4.462   6.275   6.082
12351TIP3   OH237009   4.138   6.602   5.125
12351TIP3    H137010   4.066   6.535   5.113
12351TIP3    H237011   4.118   6.635   5.216
12352TIP3   OH237012   5.034   6.842   5.753
12352TIP3    H137013   5.058   6.892   5.673
12352TIP3    H237014   4.952   6.796   5.725
12353TIP3   OH237015   4.597   5.910   4.996
12353TIP3    H137016   4.501   5.891   5.002
12353TIP3    H237017   4.604   6.005   5.017
12354TIP3   OH237018   4.539   6.921   6.125
12354TIP3    H137019   4.573   6.904   6.213
12354TIP3    H237020   4.497   7.008   6.134
12355TIP3   OH237021   4.665   6.163   5.096
12355TIP3    H137022   4.762   6.169   5.110
12355TIP3    H237023   4.647   6.243   5.043
12356TIP3   OH237024   3.831   6.623   5.800
12356TIP3    H137025   3.868   6.597   5.713
12356TIP3    H237026   3.883   6.568   5.860
12357TIP3   OH237027   4.286   6.751   4.950
12357TIP3    H137028   4.236   6.836   4.953
12357TIP3    H237029   4.231   6.696   5.010
12358TIP3   OH237030   3.710   6.548   6.421
12358TIP3    H137031   3.734   6.529   6.513
12358TIP3    H237032   3.648   6.477   6.400
12359TIP3   OH237033   4.444   6.650   6.433
12359TIP3    H137034   4.388   6.593   6.379
12359TIP3    H237035   4.533   6.618   6.408
12360TIP3   OH237036   4.696   7.187   6.012
12360TIP3    H137037   4.601   7.182   6.031
12360TIP3    H237038   4.729   7.232   6.094
12361TIP3   OH237039   5.105   6.256   4.929
12361TIP3    H137040   5.044   6.212   4.865
12361TIP3    H237041   5.102   6.345   4.890
12362TIP3   OH237042   5.332   7.112   6.007
12362TIP3    H137043   5.235   7.106   6.001
12362TIP3    H237044   5.356   7.072   5.920
12363TIP3   OH237045   4.811   7.071   4.838
12363TIP3    H137046   4.782   7.001   4.898
12363TIP3    H237047   4.823   7.025   4.754
12364TIP3   OH237048   4.804   6.702   5.668
12364TIP3    H137049   4.711   6.678   5.682
12364TIP3    H237050   4.838   6.620   5.625
12365TIP3   OH237051   3.935   6.930   5.428
12365TIP3    H137052   3.933   7.010   5.372
12365TIP3    H237053   3.842   6.910   5.437
12366TIP3   OH237054   3.500   6.231   5.133
12366TIP3    H137055   3.544   6.316   5.154
12366TIP3    H237056   3.423   6.235   5.194
12367TIP3   OH237057   4.065   6.691   5.368
12367TIP3    H137058   4.033   6.781   5.389
12367TIP3    H237059   4.032   6.641   5.445
12368TIP3   OH237060   4.204   7.270   5.895
12368TIP3    H137061   4.249   7.343   5.847
12368TIP3    H237062   4.278   7.234   5.947
12369TIP3   OH237063   3.850   7.170   5.278
12369TIP3    H137064   3.766   7.179   5.326
12369TIP3    H237065   3.884   7.262   5.281
12370TIP3   OH237066   4.588   6.906   5.857
12370TIP3    H137067   4.576   6.905   5.954
12370TIP3    H237068   4.668   6.853   5.847
12371TIP3   OH237069   4.568   6.803   4.739
12371TIP3    H137070   4.621   6.776   4.818
12371TIP3    H237071   4.480   6.771   4.765
12372TIP3   OH237072   4.836   7.443   5.911
12372TIP3    H137073   4.760   7.381   5.907
12372TIP3    H237074   4.817   7.501   5.834
12373TIP3   OH237075   4.905   7.272   4.556
12373TIP3    H137076   4.941   7.345   4.504
12373TIP3    H237077   4.824   7.316   4.591
12374TIP3   OH237078   3.922   6.051   6.421
12374TIP3    H137079   3.826   6.052   6.432
12374TIP3    H237080   3.951   5.995   6.496
12375TIP3   OH237081   4.728   6.734   4.954
12375TIP3    H137082   4.717   6.667   5.024
12375TIP3    H237083   4.825   6.729   4.941
12376TIP3   OH237084   3.637   7.134   6.058
12376TIP3    H137085   3.695   7.062   6.088
12376TIP3    H237086   3.675   7.209   6.105
12377TIP3   OH237087   3.928   6.780   4.739
12377TIP3    H137088   3.943   6.688   4.711
12377TIP3    H237089   3.908   6.768   4.834
12378TIP3   OH237090   3.873   6.785   5.012
12378TIP3    H137091   3.950   6.757   5.063
12378TIP3    H237092   3.878   6.883   5.019
12379TIP3   OH237093   3.609   6.476   5.215
12379TIP3    H137094   3.542   6.522   5.270
12379TIP3    H237095   3.623   6.544   5.146
12380TIP3   OH237096   4.763   6.113   6.105
12380TIP3    H137097   4.843   6.156   6.140
12380TIP3    H237098   4.754   6.034   6.162
12381TIP3   OH237099   4.644   5.861   5.276
12381TIP3    H137100   4.630   5.882   5.181
12381TIP3    H237101   4.683   5.945   5.310
12382TIP3   OH237102   4.142   6.980   4.958
12382TIP3    H137103   4.055   7.006   4.995
12382TIP3    H237104   4.158   7.053   4.897
12383TIP3   OH237105   4.326   6.047   5.374
12383TIP3    H137106   4.391   6.119   5.356
12383TIP3    H237107   4.334   6.037   5.471
12384TIP3   OH237108   4.601   6.361   6.179
12384TIP3    H137109   4.627   6.414   6.257
12384TIP3    H237110   4.655   6.281   6.190
12385TIP3   OH237111   4.472   5.765   5.472
12385TIP3    H137112   4.467   5.842   5.532
12385TIP3    H237113   4.534   5.799   5.404
12386TIP3   OH237114   3.888   7.057   5.028
12386TIP3    H137115   3.858   7.128   4.966
12386TIP3    H237116   3.872   7.100   5.115
12387TIP3   OH237117   3.985   5.772   5.264
12387TIP3    H137118   3.984   5.862   5.302
12387TIP3    H237119   4.081   5.753   5.271
12388TIP3   OH237120   5.242   6.272   6.159
12388TIP3    H137121   5.144   6.269   6.172
12388TIP3    H237122   5.248   6.225   6.075
12389TIP3   OH237123   4.890   6.457   5.549
12389TIP3    H137124   4.814   6.398   5.562
12389TIP3    H237125   4.962   6.411   5.597
12390TIP3   OH237126   3.605   6.682   5.017
12390TIP3    H137127   3.678   6.747   5.027
12390TIP3    H237128   3.647   6.623   4.951
12391TIP3   OH237129   3.544   5.961   5.156
12391TIP3    H137130   3.548   6.059   5.152
12391TIP3    H237131   3.470   5.942   5.098
12392TIP3   OH237132   4.860   7.417   5.497
12392TIP3    H137133   4.817   7.464   5.422
12392TIP3    H237134   4.954   7.434   5.476
12393TIP3   OH237135   3.934   5.683   6.023
12393TIP3    H137136   3.905   5.649   5.935
12393TIP3    H237137   3.924   5.603   6.079
12394TIP3   OH237138   3.473   6.901   5.402
12394TIP3    H137139   3.405   6.931   5.464
12394TIP3    H237140   3.441   6.943   5.319
12395TIP3   OH237141   3.640   7.444   6.479
12395TIP3    H137142   3.728   7.447   6.522
12395TIP3    H237143   3.627   7.348   6.472
12396TIP3   OH237144   4.094   6.981   4.648
12396TIP3    H137145   4.039   6.908   4.686
12396TIP3    H237146   4.169   6.931   4.614
12397TIP3   OH237147   4.767   7.305   6.247
12397TIP3    H137148   4.743   7.245   6.321
12397TIP3    H237149   4.833   7.362   6.289
12398TIP3   OH237150   4.529   7.021   4.563
12398TIP3    H137151   4.569   6.955   4.623
12398TIP3    H237152   4.586   7.016   4.484
12399TIP3   OH237153   3.722   6.819   6.708
12399TIP3    H137154   3.776   6.743   6.679
12399TIP3    H237155   3.672   6.840   6.627
12400TIP3   OH237156   3.740   6.496   4.874
12400TIP3    H137157   3.798   6.465   4.946
12400TIP3    H237158   3.805   6.501   4.801
12401TIP3   OH237159   4.358   6.917   6.454
12401TIP3    H137160   4.334   6.954   6.367
12401TIP3    H237161   4.393   6.829   6.434
12402TIP3   OH237162   4.254   6.699   4.681
12402TIP3    H137163   4.257   6.709   4.778
12402TIP3    H237164   4.256   6.601   4.673
12403TIP3   OH237165   4.863   6.946   6.059
12403TIP3    H137166   4.937   6.991   6.014
12403TIP3    H237167   4.791   7.011   6.043
12404TIP3   OH237168   3.882   6.587   6.664
12404TIP3    H137169   3.963   6.548   6.629
12404TIP3    H237170   3.911   6.617   6.753
12405TIP3   OH237171   3.944   6.405   5.090
12405TIP3    H137172   3.920   6.362   5.174
12405TIP3    H237173   3.984   6.331   5.040
12406TIP3   OH237174   4.209   6.459   6.315
12406TIP3    H137175   4.138   6.527   6.321
12406TIP3    H237176   4.265   6.497   6.243
12407TIP3   OH237177   4.050   6.201   4.933
12407TIP3    H137178   4.025   6.207   4.838
12407TIP3    H237179   4.147   6.201   4.926
12408TIP3   OH237180   4.734   6.874   6.451
12408TIP3    H137181   4.816   6.847   6.410
12408TIP3    H237182   4.726   6.811   6.525
12409TIP3   OH237183   4.868   6.527   4.600
12409TIP3    H137184   4.848   6.483   4.515
12409TIP3    H237185   4.834   6.617   4.579
12410TIP3   OH237186   4.337   6.257   6.447
12410TIP3    H137187   4.342   6.179   6.389
12410TIP3    H237188   4.294   6.323   6.389
12411TIP3   OH237189   4.343   6.044   6.257
12411TIP3    H137190   4.372   6.086   6.174
12411TIP3    H237191   4.249   6.022   6.235
12412TIP3   OH237192   4.365   6.576   6.131
12412TIP3    H137193   4.452   6.589   6.091
12412TIP3    H237194   4.310   6.642   6.083
12413TIP3   OH237195   4.952   6.544   6.504
12413TIP3    H137196   5.001   6.462   6.517
12413TIP3    H237197   5.019   6.600   6.462
12414TIP3   OH237198   5.001   6.797   6.240
12414TIP3    H137199   4.946   6.854   6.181
12414TIP3    H237200   5.090   6.811   6.202
12415TIP3   OH237201   4.212   6.366   6.679
12415TIP3    H137202   4.149   6.294   6.693
12415TIP3    H237203   4.250   6.341   6.592
12416TIP3   OH237204   4.474   5.805   6.326
12416TIP3    H137205   4.425   5.887   6.301
12416TIP3    H237206   4.406   5.737   6.312
12417TIP3   OH237207   4.602   6.307   6.539
12417TIP3    H137208   4.593   6.296   6.635
12417TIP3    H237209   4.511   6.284   6.511
12418TIP3   OH237210   4.838   6.257   6.391
12418TIP3    H137211   4.765   6.261   6.456
12418TIP3    H237212   4.914   6.230   6.447
12419TIP3   OH237213   5.063   6.199   6.543
12419TIP3    H137214   5.078   6.104   6.560
12419TIP3    H237215   5.061   6.238   6.633
12420TIP3   OH237216   4.054   6.144   6.735
12420TIP3    H137217   4.063   6.054   6.700
12420TIP3    H237218   4.094   6.134   6.824
12421TIP3   OH237219   4.563   5.813   6.585
12421TIP3    H137220   4.632   5.744   6.578
12421TIP3    H237221   4.526   5.810   6.494
12422TIP3   OH237222   4.633   6.030   6.741
12422TIP3    H137223   4.612   5.959   6.677
12422TIP3    H237224   4.555   6.089   6.734
12423TIP3   OH237225   3.858   7.262   4.841
12423TIP3    H137226   3.953   7.251   4.822
12423TIP3    H237227   3.831   7.312   4.762
12424TIP3   OH237228   3.336   6.642   5.055
12424TIP3    H137229   3.431   6.663   5.039
12424TIP3    H237230   3.329   6.553   5.014
12425TIP3   OH237231   3.251   7.254   5.471
12425TIP3    H137232   3.186   7.192   5.431
12425TIP3    H237233   3.296   7.195   5.535
12426TIP3   OH237234   3.385   7.101   5.658
12426TIP3    H137235   3.375   7.029   5.722
12426TIP3    H237236   3.441   7.162   5.708
12427TIP3   OH237237   5.116   7.501   5.460
12427TIP3    H137238   5.142   7.533   5.548
12427TIP3    H237239   5.177   7.548   5.402
12428TIP3   OH237240   5.143   7.519   5.744
12428TIP3    H137241   5.097   7.433   5.735
12428TIP3    H237242   5.216   7.490   5.802
12429TIP3   OH237243   5.189   7.204   6.310
12429TIP3    H137244   5.117   7.213   6.377
12429TIP3    H237245   5.233   7.290   6.317
12430TIP3   OH237246   5.006   6.713   4.931
12430TIP3    H137247   5.072   6.778   4.900
12430TIP3    H237248   5.051   6.677   5.011
12431TIP3   OH237249   5.134   6.584   5.138
12431TIP3    H137250   5.066   6.541   5.194
12431TIP3    H237251   5.197   6.619   5.204
12432TIP3   OH237252   5.195   6.980   5.570
12432TIP3    H137253   5.246   6.910   5.525
12432TIP3    H237254   5.188   7.049   5.502
12433TIP3   OH237255   5.014   7.274   5.759
12433TIP3    H137256   4.940   7.312   5.810
12433TIP3    H237257   4.967   7.227   5.687
12434TIP3   OH237258   5.070   6.490   4.780
12434TIP3    H137259   4.999   6.491   4.713
12434TIP3    H237260   5.041   6.566   4.835
12435TIP3   OH237261   4.942   6.162   4.732
12435TIP3    H137262   4.896   6.197   4.655
12435TIP3    H237263   4.919   6.067   4.726
12436TIP3   OH237264   4.946   6.441   5.280
12436TIP3    H137265   4.954   6.344   5.271
12436TIP3    H237266   4.931   6.452   5.376
12437TIP3   OH237267   3.570   6.512   6.030
12437TIP3    H137268   3.569   6.478   5.938
12437TIP3    H237269   3.668   6.515   6.046
12438TIP3   OH237270   5.270   6.842   6.139
12438TIP3    H137271   5.346   6.786   6.117
12438TIP3    H237272   5.281   6.914   6.074
12439TIP3   OH237273   4.885   5.897   4.717
12439TIP3    H137274   4.958   5.864   4.773
12439TIP3    H237275   4.811   5.838   4.738
12440TIP3   OH237276   4.944   6.157   5.172
12440TIP3    H137277   4.984   6.067   5.187
12440TIP3    H237278   5.002   6.188   5.101
12441TIP3   OH237279   5.102   6.326   5.671
12441TIP3    H137280   5.187   6.349   5.628
12441TIP3    H237281   5.118   6.366   5.759
12442TIP3   OH237282   5.177   6.475   5.900
12442TIP3    H137283   5.098   6.509   5.946
12442TIP3    H237284   5.209   6.555   5.853
12443TIP3   OH237285   3.788   6.201   6.703
12443TIP3    H137286   3.886   6.194   6.705
12443TIP3    H237287   3.765   6.114   6.741
12444TIP3   OH237288   5.632   6.067   6.460
12444TIP3    H137289   5.690   6.002   6.415
12444TIP3    H237290   5.595   6.116   6.383
12445TIP3   OH237291   5.051   5.907   5.213
12445TIP3    H137292   5.101   5.890   5.296
12445TIP3    H237293   4.991   5.830   5.212
12446TIP3   OH237294   3.751   5.892   6.037
12446TIP3    H137295   3.812   5.816   6.042
12446TIP3    H237296   3.814   5.965   6.025
12447TIP3   OH237297   3.552   6.164   6.104
12447TIP3    H137298   3.601   6.157   6.020
12447TIP3    H237299   3.586   6.247   6.139
12448TIP3   OH237300   5.493   6.190   6.266
12448TIP3    H137301   5.421   6.252   6.282
12448TIP3    H237302   5.451   6.127   6.205
12449TIP3   OH237303   5.129   5.837   4.847
12449TIP3    H137304   5.170   5.767   4.792
12449TIP3    H237305   5.196   5.907   4.847
12450TIP3   OH237306   3.539   5.669   5.608
12450TIP3    H137307   3.446   5.661   5.634
12450TIP3    H237308   3.534   5.727   5.529
12451TIP3   OH237309   4.697   7.374   5.112
12451TIP3    H137310   4.748   7.362   5.029
12451TIP3    H237311   4.751   7.438   5.160
12452TIP3   OH237312   3.758   5.744   6.420
12452TIP3    H137313   3.705   5.744   6.501
12452TIP3    H237314   3.695   5.784   6.357
12453TIP3   OH237315   3.800   7.175   6.495
12453TIP3    H137316   3.705   7.151   6.489
12453TIP3    H237317   3.817   7.176   6.590
12454TIP3   OH237318   3.969   7.206   6.030
12454TIP3    H137319   3.930   7.289   5.995
12454TIP3    H237320   4.060   7.218   5.997
12455TIP3   OH237321   4.416   7.451   6.183
12455TIP3    H137322   4.456   7.445   6.273
12455TIP3    H237323   4.482   7.505   6.135
12456TIP3   OH237324   4.593   7.608   6.043
12456TIP3    H137325   4.662   7.556   6.000
12456TIP3    H237326   4.646   7.666   6.102
12457TIP3   OH237327   5.390   5.963   6.137
12457TIP3    H137328   5.300   5.954   6.101
12457TIP3    H237329   5.424   5.871   6.129
12458TIP3   OH237330   3.652   7.464   6.072
12458TIP3    H137331   3.560   7.493   6.052
12458TIP3    H237332   3.672   7.517   6.149
12459TIP3   OH237333   3.888   7.446   5.928
12459TIP3    H137334   3.800   7.457   5.971
12459TIP3    H237335   3.870   7.477   5.837
12460TIP3   OH237336   4.314   7.471   5.726
12460TIP3    H137337   4.244   7.490   5.661
12460TIP3    H237338   4.326   7.558   5.769
12461TIP3   OH237339   4.584   7.411   5.777
12461TIP3    H137340   4.490   7.428   5.757
12461TIP3    H237341   4.628   7.485   5.732
12462TIP3   OH237342   4.789   7.601   5.691
12462TIP3    H137343   4.777   7.686   5.643
12462TIP3    H237344   4.816   7.541   5.618
12463TIP3   OH237345   3.562   7.256   5.814
12463TIP3    H137346   3.590   7.232   5.905
12463TIP3    H237347   3.635   7.214   5.763
12464TIP3   OH237348   3.759   7.131   5.674
12464TIP3    H137349   3.775   7.047   5.722
12464TIP3    H237350   3.850   7.167   5.669
12465TIP3   OH237351   4.026   7.223   5.679
12465TIP3    H137352   4.056   7.130   5.668
12465TIP3    H237353   4.075   7.245   5.760
12466TIP3   OH237354   4.597   5.880   5.759
12466TIP3    H137355   4.557   5.807   5.811
12466TIP3    H237356   4.674   5.836   5.718
12467TIP3   OH237357   5.119   5.759   5.664
12467TIP3    H137358   5.157   5.812   5.589
12467TIP3    H237359   5.025   5.782   5.659
12468TIP3   OH237360   5.217   5.859   5.428
12468TIP3    H137361   5.290   5.807   5.390
12468TIP3    H237362   5.252   5.950   5.414
12469TIP3   OH237363   3.847   5.588   5.776
12469TIP3    H137364   3.754   5.557   5.779
12469TIP3    H237365   3.894   5.502   5.772
12470TIP3   OH237366   3.638   5.461   5.427
12470TIP3    H137367   3.667   5.516   5.353
12470TIP3    H237368   3.611   5.528   5.493
12471TIP3   OH237369   4.295   5.620   5.660
12471TIP3    H137370   4.348   5.667   5.594
12471TIP3    H237371   4.325   5.661   5.742
12472TIP3   OH237372   4.832   5.769   5.642
12472TIP3    H137373   4.839   5.729   5.554
12472TIP3    H237374   4.822   5.689   5.699
12473TIP3   OH237375   4.868   5.693   5.205
12473TIP3    H137376   4.782   5.736   5.220
12473TIP3    H237377   4.854   5.607   5.249
12474TIP3   OH237378   3.350   7.035   5.203
12474TIP3    H137379   3.265   7.001   5.170
12474TIP3    H237380   3.342   7.128   5.176
12475TIP3   OH237381   3.754   5.616   5.189
12475TIP3    H137382   3.801   5.553   5.130
12475TIP3    H237383   3.828   5.670   5.222
12476TIP3   OH237384   4.262   5.796   5.288
12476TIP3    H137385   4.324   5.749   5.346
12476TIP3    H237386   4.285   5.889   5.312
12477TIP3   OH237387   4.124   7.216   4.787
12477TIP3    H137388   4.212   7.238   4.751
12477TIP3    H237389   4.102   7.141   4.726
12478TIP3   OH237390   4.844   7.338   4.881
12478TIP3    H137391   4.837   7.240   4.871
12478TIP3    H237392   4.798   7.368   4.800
12479TIP3   OH237393   4.057   5.866   6.662
12479TIP3    H137394   4.022   5.795   6.719
12479TIP3    H237395   4.151   5.867   6.692
12480TIP3   OH237396   4.306   5.863   6.785
12480TIP3    H137397   4.392   5.850   6.742
12480TIP3    H237398   4.306   5.790   6.850
12481TIP3   OH237399   3.428   7.055   4.841
12481TIP3    H137400   3.433   7.072   4.935
12481TIP3    H237401   3.515   7.011   4.823
12482TIP3   OH237402   5.133   5.929   6.574
12482TIP3    H137403   5.151   5.899   6.665
12482TIP3    H237404   5.222   5.925   6.534
12483TIP3   OH237405   5.059   7.489   6.070
12483TIP3    H137406   4.981   7.449   6.026
12483TIP3    H237407   5.074   7.566   6.014
12484TIP3   OH237408   6.368   6.848   4.804
12484TIP3    H137409   6.336   6.939   4.793
12484TIP3    H237410   6.289   6.797   4.780
12485TIP3   OH237411   6.341   6.845   5.214
12485TIP3    H137412   6.372   6.828   5.304
12485TIP3    H237413   6.294   6.762   5.194
12486TIP3   OH237414   5.644   6.752   5.578
12486TIP3    H137415   5.665   6.698   5.655
12486TIP3    H237416   5.729   6.757   5.532
12487TIP3   OH237417   6.581   7.152   4.900
12487TIP3    H137418   6.558   7.095   4.974
12487TIP3    H237419   6.615   7.231   4.945
12488TIP3   OH237420   5.611   7.163   5.308
12488TIP3    H137421   5.602   7.065   5.306
12488TIP3    H237422   5.706   7.171   5.287
12489TIP3   OH237423   5.313   6.362   5.084
12489TIP3    H137424   5.262   6.443   5.102
12489TIP3    H237425   5.243   6.307   5.043
12490TIP3   OH237426   5.376   6.646   5.266
12490TIP3    H137427   5.424   6.566   5.300
12490TIP3    H237428   5.425   6.665   5.185
12491TIP3   OH237429   6.231   7.616   4.911
12491TIP3    H137430   6.275   7.544   4.863
12491TIP3    H237431   6.221   7.579   5.000
12492TIP3   OH237432   6.133   7.077   5.265
12492TIP3    H137433   6.171   7.001   5.218
12492TIP3    H237434   6.216   7.123   5.291
12493TIP3   OH237435   7.147   6.400   5.257
12493TIP3    H137436   7.180   6.482   5.299
12493TIP3    H237437   7.176   6.413   5.165
12494TIP3   OH237438   6.564   6.588   5.282
12494TIP3    H137439   6.594   6.498   5.308
12494TIP3    H237440   6.506   6.566   5.207
12495TIP3   OH237441   6.580   6.336   4.877
12495TIP3    H137442   6.648   6.314   4.946
12495TIP3    H237443   6.638   6.351   4.801
12496TIP3   OH237444   5.527   6.441   5.368
12496TIP3    H137445   5.613   6.419   5.409
12496TIP3    H237446   5.535   6.385   5.288
12497TIP3   OH237447   5.950   6.635   5.181
12497TIP3    H137448   6.041   6.601   5.190
12497TIP3    H237449   5.905   6.557   5.140
12498TIP3   OH237450   7.224   6.607   5.429
12498TIP3    H137451   7.140   6.652   5.408
12498TIP3    H237452   7.233   6.628   5.523
12499TIP3   OH237453   5.881   6.238   5.698
12499TIP3    H137454   5.823   6.253   5.621
12499TIP3    H237455   5.819   6.249   5.772
12500TIP3   OH237456   6.243   7.088   4.687
12500TIP3    H137457   6.186   7.059   4.614
12500TIP3    H237458   6.189   7.161   4.723
12501TIP3   OH237459   5.985   7.009   5.480
12501TIP3    H137460   5.906   7.065   5.478
12501TIP3    H237461   6.038   7.047   5.406
12502TIP3   OH237462   6.783   6.341   5.055
12502TIP3    H137463   6.761   6.290   5.135
12502TIP3    H237464   6.839   6.412   5.091
12503TIP3   OH237465   5.772   6.332   5.455
12503TIP3    H137466   5.838   6.397   5.486
12503TIP3    H237467   5.825   6.290   5.382
12504TIP3   OH237468   5.205   6.885   4.821
12504TIP3    H137469   5.165   6.913   4.737
12504TIP3    H237470   5.238   6.970   4.857
12505TIP3   OH237471   6.648   7.400   5.058
12505TIP3    H137472   6.558   7.393   5.099
12505TIP3    H237473   6.641   7.488   5.015
12506TIP3   OH237474   6.939   6.303   5.428
12506TIP3    H137475   6.851   6.324   5.393
12506TIP3    H237476   6.999   6.334   5.357
12507TIP3   OH237477   6.249   5.942   5.424
12507TIP3    H137478   6.216   5.851   5.420
12507TIP3    H237479   6.167   5.988   5.451
12508TIP3   OH237480   6.354   7.440   4.734
12508TIP3    H137481   6.408   7.361   4.713
12508TIP3    H237482   6.412   7.510   4.695
12509TIP3   OH237483   6.490   7.206   4.644
12509TIP3    H137484   6.402   7.165   4.653
12509TIP3    H237485   6.532   7.184   4.730
12510TIP3   OH237486   6.854   7.310   5.402
12510TIP3    H137487   6.847   7.236   5.338
12510TIP3    H237488   6.840   7.388   5.345
12511TIP3   OH237489   6.167   6.706   4.664
12511TIP3    H137490   6.084   6.757   4.655
12511TIP3    H237491   6.195   6.700   4.572
12512TIP3   OH237492   6.126   6.490   4.377
12512TIP3    H137493   6.194   6.542   4.423
12512TIP3    H237494   6.183   6.427   4.328
12513TIP3   OH237495   7.068   6.950   5.250
12513TIP3    H137496   6.985   7.003   5.255
12513TIP3    H237497   7.096   6.971   5.158
12514TIP3   OH237498   6.743   6.817   5.536
12514TIP3    H137499   6.744   6.897   5.593
12514TIP3    H237500   6.654   6.824   5.497
12515TIP3   OH237501   5.749   6.784   5.050
12515TIP3    H137502   5.705   6.728   4.982
12515TIP3    H237503   5.818   6.724   5.083
12516TIP3   OH237504   5.871   7.186   5.204
12516TIP3    H137505   5.850   7.160   5.113
12516TIP3    H237506   5.962   7.152   5.215
12517TIP3   OH237507   5.875   6.754   5.420
12517TIP3    H137508   5.901   6.720   5.331
12517TIP3    H237509   5.925   6.837   5.426
12518TIP3   OH237510   6.409   7.394   5.183
12518TIP3    H137511   6.394   7.477   5.232
12518TIP3    H237512   6.391   7.325   5.250
12519TIP3   OH237513   6.009   7.308   5.733
12519TIP3    H137514   5.949   7.358   5.793
12519TIP3    H237515   5.952   7.306   5.654
12520TIP3   OH237516   6.362   6.649   4.456
12520TIP3    H137517   6.390   6.739   4.482
12520TIP3    H237518   6.382   6.655   4.360
12521TIP3   OH237519   6.102   7.321   4.740
12521TIP3    H137520   6.179   7.379   4.749
12521TIP3    H237521   6.038   7.377   4.694
12522TIP3   OH237522   5.804   7.461   5.834
12522TIP3    H137523   5.769   7.489   5.749
12522TIP3    H237524   5.738   7.491   5.899
12523TIP3   OH237525   6.869   5.886   4.512
12523TIP3    H137526   6.787   5.909   4.559
12523TIP3    H237527   6.885   5.967   4.459
12524TIP3   OH237528   5.616   6.638   4.850
12524TIP3    H137529   5.537   6.666   4.799
12524TIP3    H237530   5.595   6.548   4.875
12525TIP3   OH237531   6.670   7.253   4.062
12525TIP3    H137532   6.678   7.349   4.044
12525TIP3    H237533   6.763   7.224   4.049
12526TIP3   OH237534   5.401   6.995   5.773
12526TIP3    H137535   5.337   6.994   5.700
12526TIP3    H237536   5.425   6.902   5.782
12527TIP3   OH237537   5.244   7.208   5.392
12527TIP3    H137538   5.340   7.206   5.386
12527TIP3    H237539   5.230   7.287   5.447
12528TIP3   OH237540   6.216   7.439   5.591
12528TIP3    H137541   6.219   7.533   5.619
12528TIP3    H237542   6.147   7.405   5.652
12529TIP3   OH237543   5.982   7.569   4.541
12529TIP3    H137544   5.935   7.552   4.457
12529TIP3    H237545   5.948   7.656   4.568
12530TIP3   OH237546   5.417   7.419   4.925
12530TIP3    H137547   5.463   7.410   5.012
12530TIP3    H237548   5.365   7.337   4.924
12531TIP3   OH237549   6.179   7.474   4.177
12531TIP3    H137550   6.238   7.405   4.141
12531TIP3    H237551   6.215   7.484   4.268
12532TIP3   OH237552   6.232   7.522   4.447
12532TIP3    H137553   6.143   7.532   4.487
12532TIP3    H237554   6.283   7.489   4.522
12533TIP3   OH237555   7.041   6.781   5.753
12533TIP3    H137556   6.957   6.817   5.719
12533TIP3    H237557   7.036   6.690   5.716
12534TIP3   OH237558   6.001   6.007   5.537
12534TIP3    H137559   5.908   5.982   5.519
12534TIP3    H237560   5.997   6.101   5.515
12535TIP3   OH237561   6.530   6.136   5.733
12535TIP3    H137562   6.597   6.105   5.797
12535TIP3    H237563   6.445   6.115   5.778
12536TIP3   OH237564   6.775   6.568   5.660
12536TIP3    H137565   6.714   6.565   5.737
12536TIP3    H237566   6.745   6.648   5.612
12537TIP3   OH237567   6.432   6.689   4.204
12537TIP3    H137568   6.394   6.668   4.117
12537TIP3    H237569   6.515   6.735   4.177
12538TIP3   OH237570   6.145   6.063   4.509
12538TIP3    H137571   6.109   6.060   4.601
12538TIP3    H237572   6.100   5.984   4.472
12539TIP3   OH237573   5.934   6.537   5.572
12539TIP3    H137574   5.877   6.554   5.649
12539TIP3    H237575   5.914   6.614   5.515
12540TIP3   OH237576   5.795   6.450   5.052
12540TIP3    H137577   5.733   6.396   5.105
12540TIP3    H237578   5.815   6.388   4.980
12541TIP3   OH237579   6.305   6.510   4.800
12541TIP3    H137580   6.252   6.579   4.755
12541TIP3    H237581   6.355   6.471   4.725
12542TIP3   OH237582   6.479   6.802   5.924
12542TIP3    H137583   6.454   6.715   5.963
12542TIP3    H237584   6.577   6.791   5.922
12543TIP3   OH237585   6.462   6.537   5.027
12543TIP3    H137586   6.389   6.555   4.964
12543TIP3    H237587   6.492   6.451   4.990
12544TIP3   OH237588   5.751   6.580   5.787
12544TIP3    H137589   5.710   6.624   5.863
12544TIP3    H237590   5.742   6.487   5.813
12545TIP3   OH237591   5.802   6.044   4.470
12545TIP3    H137592   5.792   6.041   4.567
12545TIP3    H237593   5.722   6.095   4.446
12546TIP3   OH237594   5.346   6.081   5.348
12546TIP3    H137595   5.418   6.120   5.401
12546TIP3    H237596   5.390   6.058   5.265
12547TIP3   OH237597   5.305   6.062   4.863
12547TIP3    H137598   5.355   6.098   4.787
12547TIP3    H237599   5.246   6.138   4.881
12548TIP3   OH237600   6.474   6.778   5.452
12548TIP3    H137601   6.509   6.708   5.394
12548TIP3    H237602   6.444   6.724   5.529
12549TIP3   OH237603   5.578   6.293   5.146
12549TIP3    H137604   5.488   6.296   5.108
12549TIP3    H237605   5.613   6.206   5.115
12550TIP3   OH237606   5.843   6.293   4.828
12550TIP3    H137607   5.932   6.307   4.794
12550TIP3    H237608   5.786   6.308   4.749
12551TIP3   OH237609   6.627   6.319   5.333
12551TIP3    H137610   6.595   6.331   5.425
12551TIP3    H237611   6.558   6.257   5.299
12552TIP3   OH237612   5.687   6.334   4.608
12552TIP3    H137613   5.615   6.287   4.564
12552TIP3    H237614   5.737   6.367   4.531
12553TIP3   OH237615   6.226   6.569   5.244
12553TIP3    H137616   6.265   6.496   5.196
12553TIP3    H237617   6.212   6.529   5.332
12554TIP3   OH237618   5.711   6.060   5.082
12554TIP3    H137619   5.693   5.988   5.144
12554TIP3    H237620   5.803   6.082   5.100
12555TIP3   OH237621   6.201   6.484   5.511
12555TIP3    H137622   6.106   6.500   5.529
12555TIP3    H237623   6.245   6.547   5.570
12556TIP3   OH237624   5.937   6.855   4.618
12556TIP3    H137625   5.865   6.791   4.603
12556TIP3    H237626   5.913   6.891   4.707
12557TIP3   OH237627   6.834   7.092   5.234
12557TIP3    H137628   6.858   7.143   5.154
12557TIP3    H237629   6.747   7.053   5.209
12558TIP3   OH237630   6.393   6.165   4.487
12558TIP3    H137631   6.297   6.140   4.489
12558TIP3    H237632   6.390   6.261   4.502
12559TIP3   OH237633   6.332   7.178   5.610
12559TIP3    H137634   6.351   7.162   5.703
12559TIP3    H237635   6.297   7.269   5.611
12560TIP3   OH237636   6.463   6.424   4.584
12560TIP3    H137637   6.559   6.420   4.575
12560TIP3    H237638   6.439   6.500   4.527
12561TIP3   OH237639   5.636   6.891   5.280
12561TIP3    H137640   5.670   6.858   5.194
12561TIP3    H237641   5.659   6.819   5.339
12562TIP3   OH237642   6.083   7.007   4.443
12562TIP3    H137643   6.034   7.093   4.442
12562TIP3    H237644   6.025   6.953   4.501
12563TIP3   OH237645   6.226   6.916   5.917
12563TIP3    H137646   6.164   6.849   5.882
12563TIP3    H237647   6.312   6.878   5.889
12564TIP3   OH237648   6.487   7.425   5.495
12564TIP3    H137649   6.391   7.433   5.511
12564TIP3    H237650   6.521   7.473   5.574
12565TIP3   OH237651   6.896   6.520   4.419
12565TIP3    H137652   6.839   6.470   4.355
12565TIP3    H237653   6.897   6.605   4.370
12566TIP3   OH237654   7.107   7.322   5.496
12566TIP3    H137655   7.014   7.342   5.471
12566TIP3    H237656   7.142   7.299   5.407
12567TIP3   OH237657   6.611   7.329   4.326
12567TIP3    H137658   6.570   7.261   4.381
12567TIP3    H237659   6.620   7.286   4.239
12568TIP3   OH237660   6.596   6.959   5.156
12568TIP3    H137661   6.502   6.936   5.173
12568TIP3    H237662   6.628   6.876   5.119
12569TIP3   OH237663   5.732   7.188   4.919
12569TIP3    H137664   5.727   7.268   4.863
12569TIP3    H237665   5.639   7.164   4.926
12570TIP3   OH237666   5.294   6.487   4.621
12570TIP3    H137667   5.338   6.572   4.642
12570TIP3    H237668   5.217   6.490   4.681
12571TIP3   OH237669   5.866   6.951   4.859
12571TIP3    H137670   5.829   7.039   4.880
12571TIP3    H237671   5.829   6.896   4.930
12572TIP3   OH237672   6.001   7.525   5.380
12572TIP3    H137673   6.039   7.601   5.331
12572TIP3    H237674   6.079   7.494   5.429
12573TIP3   OH237675   5.649   7.423   4.767
12573TIP3    H137676   5.563   7.433   4.812
12573TIP3    H237677   5.682   7.516   4.769
12574TIP3   OH237678   6.382   7.156   5.343
12574TIP3    H137679   6.372   7.160   5.441
12574TIP3    H237680   6.467   7.112   5.334
12575TIP3   OH237681   6.361   7.057   4.222
12575TIP3    H137682   6.409   7.019   4.298
12575TIP3    H237683   6.270   7.031   4.243
12576TIP3   OH237684   6.619   7.700   5.394
12576TIP3    H137685   6.540   7.644   5.377
12576TIP3    H237686   6.613   7.764   5.320
12577TIP3   OH237687   6.700   7.527   4.044
12577TIP3    H137688   6.738   7.598   3.989
12577TIP3    H237689   6.621   7.574   4.077
12578TIP3   OH237690   5.714   6.309   5.907
12578TIP3    H137691   5.618   6.311   5.924
12578TIP3    H237692   5.746   6.255   5.981
12579TIP3   OH237693   6.522   6.961   4.437
12579TIP3    H137694   6.509   6.997   4.525
12579TIP3    H237695   6.619   6.971   4.425
12580TIP3   OH237696   5.428   7.398   5.531
12580TIP3    H137697   5.490   7.329   5.557
12580TIP3    H237698   5.447   7.468   5.595
12581TIP3   OH237699   5.729   7.034   4.225
12581TIP3    H137700   5.738   6.941   4.198
12581TIP3    H237701   5.706   7.025   4.319
12582TIP3   OH237702   5.670   7.042   4.496
12582TIP3    H137703   5.742   7.015   4.555
12582TIP3    H237704   5.674   7.140   4.503
12583TIP3   OH237705   5.401   6.732   4.699
12583TIP3    H137706   5.335   6.777   4.756
12583TIP3    H237707   5.414   6.801   4.631
12584TIP3   OH237708   6.561   6.373   5.598
12584TIP3    H137709   6.645   6.399   5.639
12584TIP3    H237710   6.540   6.290   5.645
12585TIP3   OH237711   6.445   6.113   4.761
12585TIP3    H137712   6.424   6.133   4.668
12585TIP3    H237713   6.475   6.200   4.794
12586TIP3   OH237714   5.941   7.237   4.446
12586TIP3    H137715   5.853   7.261   4.481
12586TIP3    H237716   5.955   7.310   4.384
12587TIP3   OH237717   6.136   6.300   4.869
12587TIP3    H137718   6.194   6.377   4.853
12587TIP3    H237719   6.103   6.315   4.958
12588TIP3   OH237720   6.404   6.624   5.666
12588TIP3    H137721   6.415   6.654   5.757
12588TIP3    H237722   6.445   6.536   5.667
12589TIP3   OH237723   6.275   6.024   4.967
12589TIP3    H137724   6.281   6.099   5.029
12589TIP3    H237725   6.329   6.057   4.892
12590TIP3   OH237726   5.687   7.313   4.515
12590TIP3    H137727   5.656   7.382   4.452
12590TIP3    H237728   5.669   7.356   4.602
12591TIP3   OH237729   5.782   6.024   4.741
12591TIP3    H137730   5.770   6.100   4.800
12591TIP3    H237731   5.877   6.005   4.758
12592TIP3   OH237732   7.039   6.523   5.649
12592TIP3    H137733   6.941   6.526   5.660
12592TIP3    H237734   7.044   6.468   5.569
12593TIP3   OH237735   6.694   6.684   5.003
12593TIP3    H137736   6.614   6.652   5.052
12593TIP3    H237737   6.764   6.662   5.070
12594TIP3   OH237738   5.401   6.939   4.504
12594TIP3    H137739   5.469   7.007   4.512
12594TIP3    H237740   5.444   6.881   4.437
12595TIP3   OH237741   5.344   6.218   4.638
12595TIP3    H137742   5.344   6.316   4.637
12595TIP3    H237743   5.260   6.198   4.595
12596TIP3   OH237744   6.658   7.668   4.981
12596TIP3    H137745   6.614   7.715   4.907
12596TIP3    H237746   6.752   7.688   4.959
12597TIP3   OH237747   5.730   5.941   5.515
12597TIP3    H137748   5.703   5.909   5.427
12597TIP3    H237749   5.719   5.861   5.570
12598TIP3   OH237750   5.268   7.157   4.889
12598TIP3    H137751   5.204   7.186   4.955
12598TIP3    H237752   5.234   7.200   4.807
12599TIP3   OH237753   5.435   7.686   5.943
12599TIP3    H137754   5.510   7.662   6.001
12599TIP3    H237755   5.391   7.600   5.943
12600TIP3   OH237756   5.940   7.694   5.956
12600TIP3    H137757   6.021   7.652   5.987
12600TIP3    H237758   5.882   7.618   5.944
12601TIP3   OH237759   5.890   7.238   4.135
12601TIP3    H137760   5.836   7.165   4.171
12601TIP3    H237761   5.965   7.189   4.097
12602TIP3   OH237762   6.543   7.538   5.734
12602TIP3    H137763   6.534   7.483   5.815
12602TIP3    H237764   6.611   7.604   5.759
12603TIP3   OH237765   6.324   7.279   4.048
12603TIP3    H137766   6.368   7.214   4.106
12603TIP3    H237767   6.378   7.276   3.966
12604TIP3   OH237768   5.557   7.102   6.152
12604TIP3    H137769   5.575   7.016   6.173
12604TIP3    H237770   5.479   7.113   6.124
12605TIP3   OH237771   5.536   6.754   4.359
12605TIP3    H137772   5.591   6.722   4.432
12605TIP3    H237773   5.603   6.759   4.287
12606TIP3   OH237774   6.177   7.190   5.926
12606TIP3    H137775   6.121   7.209   5.847
12606TIP3    H237776   6.195   7.094   5.915
12607TIP3   OH237777   6.058   6.957   4.170
12607TIP3    H137778   6.052   6.967   4.267
12607TIP3    H237779   6.056   6.860   4.161
12608TIP3   OH237780   6.647   7.204   5.545
12608TIP3    H137781   6.723   7.246   5.500
12608TIP3    H237782   6.578   7.272   5.528
12609TIP3   OH237783   5.745   6.662   4.580
12609TIP3    H137784   5.712   6.625   4.664
12609TIP3    H237785   5.778   6.582   4.534
12610TIP3   OH237786   6.043   6.730   5.822
12610TIP3    H137787   5.947   6.740   5.816
12610TIP3    H237788   6.075   6.760   5.734
12611TIP3   OH237789   5.844   6.456   4.418
12611TIP3    H137790   5.818   6.464   4.324
12611TIP3    H237791   5.942   6.457   4.410
12612TIP3   OH237792   6.533   7.123   5.955
12612TIP3    H137793   6.601   7.123   5.886
12612TIP3    H237794   6.529   7.030   5.979
12613TIP3   OH237795   6.667   6.781   4.089
12613TIP3    H137796   6.649   6.738   4.003
12613TIP3    H237797   6.634   6.871   4.067
12614TIP3   OH237798   6.148   6.503   5.927
12614TIP3    H137799   6.138   6.425   5.869
12614TIP3    H237800   6.103   6.573   5.875
12615TIP3   OH237801   6.142   6.299   5.735
12615TIP3    H137802   6.165   6.333   5.647
12615TIP3    H237803   6.047   6.275   5.722
12616TIP3   OH237804   6.163   6.838   5.606
12616TIP3    H137805   6.247   6.846   5.560
12616TIP3    H237806   6.111   6.911   5.568
12617TIP3   OH237807   6.743   6.801   6.007
12617TIP3    H137808   6.782   6.713   6.002
12617TIP3    H237809   6.809   6.857   5.965
12618TIP3   OH237810   6.775   7.033   5.706
12618TIP3    H137811   6.718   7.093   5.652
12618TIP3    H237812   6.864   7.061   5.672
12619TIP3   OH237813   6.036   6.628   6.160
12619TIP3    H137814   5.959   6.572   6.183
12619TIP3    H237815   6.057   6.593   6.072
12620TIP3   OH237816   6.270   6.062   5.810
12620TIP3    H137817   6.219   6.142   5.785
12620TIP3    H237818   6.202   5.992   5.799
12621TIP3   OH237819   6.391   6.570   6.027
12621TIP3    H137820   6.372   6.543   6.120
12621TIP3    H237821   6.306   6.540   5.987
12622TIP3   OH237822   6.630   6.534   5.886
12622TIP3    H137823   6.555   6.519   5.947
12622TIP3    H237824   6.705   6.496   5.938
12623TIP3   OH237825   6.846   6.461   6.033
12623TIP3    H137826   6.873   6.367   6.042
12623TIP3    H237827   6.869   6.497   6.120
12624TIP3   OH237828   5.875   6.408   6.217
12624TIP3    H137829   5.853   6.320   6.183
12624TIP3    H237830   5.888   6.389   6.312
12625TIP3   OH237831   6.367   6.075   6.067
12625TIP3    H137832   6.430   6.000   6.061
12625TIP3    H237833   6.324   6.069   5.980
12626TIP3   OH237834   6.437   6.291   6.223
12626TIP3    H137835   6.413   6.217   6.161
12626TIP3    H237836   6.356   6.346   6.221
12627TIP3   OH237837   5.654   7.515   4.327
12627TIP3    H137838   5.749   7.508   4.308
12627TIP3    H237839   5.625   7.567   4.250
12628TIP3   OH237840   5.131   6.898   4.541
12628TIP3    H137841   5.226   6.919   4.526
12628TIP3    H237842   5.125   6.809   4.500
12629TIP3   OH237843   5.048   7.510   4.958
12629TIP3    H137844   4.983   7.449   4.918
12629TIP3    H237845   5.093   7.450   5.022
12630TIP3   OH237846   5.182   7.356   5.143
12630TIP3    H137847   5.169   7.287   5.210
12630TIP3    H237848   5.234   7.420   5.194
12631TIP3   OH237849   6.914   7.750   4.940
12631TIP3    H137850   6.936   7.784   5.029
12631TIP3    H237851   6.965   7.810   4.883
12632TIP3   OH237852   6.949   7.767   5.220
12632TIP3    H137853   6.905   7.679   5.226
12632TIP3    H237854   6.958   7.792   5.312
12633TIP3   OH237855   6.812   6.975   4.434
12633TIP3    H137856   6.859   7.039   4.376
12633TIP3    H237857   6.867   6.982   4.513
12634TIP3   OH237858   6.975   7.225   5.040
12634TIP3    H137859   7.031   7.163   4.990
12634TIP3    H237860   6.981   7.306   4.985
12635TIP3   OH237861   6.807   7.536   5.253
12635TIP3    H137862   6.736   7.577   5.306
12635TIP3    H237863   6.758   7.495   5.179
12636TIP3   OH237864   6.866   6.750   4.272
12636TIP3    H137865   6.797   6.747   4.202
12636TIP3    H237866   6.835   6.827   4.323
12637TIP3   OH237867   6.735   6.421   4.227
12637TIP3    H137868   6.699   6.455   4.144
12637TIP3    H237869   6.712   6.326   4.219
12638TIP3   OH237870   5.373   6.775   5.513
12638TIP3    H137871   5.371   6.737   5.422
12638TIP3    H237872   5.469   6.777   5.530
12639TIP3   OH237873   7.024   7.103   5.630
12639TIP3    H137874   7.113   7.064   5.625
12639TIP3    H237875   7.039   7.185   5.579
12640TIP3   OH237876   7.241   6.935   5.644
12640TIP3    H137877   7.160   6.887   5.672
12640TIP3    H237878   7.306   6.862   5.651
12641TIP3   OH237879   6.678   6.157   4.212
12641TIP3    H137880   6.751   6.117   4.264
12641TIP3    H237881   6.604   6.095   4.224
12642TIP3   OH237882   6.753   6.440   4.665
12642TIP3    H137883   6.787   6.348   4.681
12642TIP3    H237884   6.803   6.459   4.583
12643TIP3   OH237885   6.899   6.592   5.155
12643TIP3    H137886   6.987   6.615   5.118
12643TIP3    H237887   6.912   6.623   5.247
12644TIP3   OH237888   6.975   6.731   5.392
12644TIP3    H137889   6.893   6.761   5.436
12644TIP3    H237890   7.003   6.811   5.344
12645TIP3   OH237891   7.423   6.318   5.941
12645TIP3    H137892   7.475   6.250   5.894
12645TIP3    H237893   7.390   6.372   5.866
12646TIP3   OH237894   6.833   6.178   4.707
12646TIP3    H137895   6.889   6.155   4.784
12646TIP3    H237896   6.779   6.097   4.699
12647TIP3   OH237897   5.553   6.154   5.521
12647TIP3    H137898   5.609   6.075   5.530
12647TIP3    H237899   5.619   6.220   5.497
12648TIP3   OH237900   5.347   6.417   5.589
12648TIP3    H137901   5.403   6.417   5.509
12648TIP3    H237902   5.372   6.500   5.631
12649TIP3   OH237903   7.284   6.445   5.740
12649TIP3    H137904   7.192   6.478   5.735
12649TIP3    H237905   7.272   6.362   5.688
12650TIP3   OH237906   6.928   6.091   4.337
12650TIP3    H137907   6.965   6.023   4.277
12650TIP3    H237908   6.993   6.163   4.330
12651TIP3   OH237909   5.333   5.917   5.089
12651TIP3    H137910   5.240   5.918   5.119
12651TIP3    H237911   5.330   5.979   5.014
12652TIP3   OH237912   6.494   7.626   4.599
12652TIP3    H137913   6.545   7.621   4.516
12652TIP3    H237914   6.540   7.696   4.648
12653TIP3   OH237915   5.554   5.997   5.904
12653TIP3    H137916   5.505   5.998   5.988
12653TIP3    H237917   5.489   6.039   5.844
12654TIP3   OH237918   5.781   7.470   5.544
12654TIP3    H137919   5.727   7.539   5.502
12654TIP3    H237920   5.862   7.481   5.491
12655TIP3   OH237921   6.221   7.706   5.666
12655TIP3    H137922   6.251   7.710   5.759
12655TIP3    H237923   6.290   7.760   5.623
12656TIP3   OH237924   6.417   7.858   5.541
12656TIP3    H137925   6.480   7.803   5.492
12656TIP3    H237926   6.458   7.945   5.536
12657TIP3   OH237927   7.192   6.215   5.624
12657TIP3    H137928   7.100   6.200   5.594
12657TIP3    H237929   7.228   6.123   5.618
12658TIP3   OH237930   5.449   7.721   5.560
12658TIP3    H137931   5.359   7.754   5.537
12658TIP3    H237932   5.461   7.764   5.646
12659TIP3   OH237933   5.683   7.695   5.415
12659TIP3    H137934   5.597   7.709   5.460
12659TIP3    H237935   5.664   7.729   5.325
12660TIP3   OH237936   6.110   7.726   5.212
12660TIP3    H137937   6.038   7.744   5.147
12660TIP3    H237938   6.120   7.814   5.254
12661TIP3   OH237939   6.377   7.661   5.261
12661TIP3    H137940   6.284   7.685   5.243
12661TIP3    H237941   6.424   7.734   5.218
12662TIP3   OH237942   6.576   7.851   5.173
12662TIP3    H137943   6.562   7.936   5.125
12662TIP3    H237944   6.608   7.793   5.100
12663TIP3   OH237945   5.357   7.518   5.294
12663TIP3    H137946   5.381   7.491   5.385
12663TIP3    H237947   5.430   7.474   5.245
12664TIP3   OH237948   5.554   7.387   5.160
12664TIP3    H137949   5.571   7.305   5.212
12664TIP3    H237950   5.644   7.425   5.155
12665TIP3   OH237951   5.821   7.481   5.163
12665TIP3    H137952   5.854   7.391   5.148
12665TIP3    H237953   5.866   7.503   5.246
12666TIP3   OH237954   6.420   6.144   5.252
12666TIP3    H137955   6.345   6.106   5.301
12666TIP3    H237956   6.466   6.065   5.220
12667TIP3   OH237957   6.924   6.016   5.150
12667TIP3    H137958   6.957   6.070   5.075
12667TIP3    H237959   6.827   6.030   5.143
12668TIP3   OH237960   7.010   6.116   4.911
12668TIP3    H137961   7.085   6.065   4.875
12668TIP3    H237962   7.046   6.208   4.899
12669TIP3   OH237963   5.645   5.847   5.269
12669TIP3    H137964   5.552   5.815   5.269
12669TIP3    H237965   5.693   5.762   5.259
12670TIP3   OH237966   5.432   5.717   4.913
12670TIP3    H137967   5.462   5.775   4.841
12670TIP3    H237968   5.405   5.781   4.981
12671TIP3   OH237969   6.093   5.875   5.152
12671TIP3    H137970   6.147   5.928   5.092
12671TIP3    H237971   6.060   5.944   5.213
12672TIP3   OH237972   6.654   6.018   5.116
12672TIP3    H137973   6.619   5.985   5.033
12672TIP3    H237974   6.632   5.944   5.178
12673TIP3   OH237975   6.665   5.951   4.692
12673TIP3    H137976   6.580   5.995   4.709
12673TIP3    H237977   6.649   5.864   4.734
12674TIP3   OH237978   5.147   7.292   4.689
12674TIP3    H137979   5.062   7.258   4.657
12674TIP3    H237980   5.138   7.385   4.663
12675TIP3   OH237981   5.549   5.875   4.673
12675TIP3    H137982   5.598   5.812   4.616
12675TIP3    H237983   5.622   5.929   4.710
12676TIP3   OH237984   6.065   6.052   4.773
12676TIP3    H137985   6.115   6.003   4.840
12676TIP3    H237986   6.084   6.144   4.802
12677TIP3   OH237987   5.921   7.472   4.275
12677TIP3    H137988   6.008   7.496   4.238
12677TIP3    H237989   5.898   7.398   4.213
12678TIP3   OH237990   6.639   7.597   4.368
12678TIP3    H137991   6.634   7.500   4.356
12678TIP3    H237992   6.594   7.628   4.287
12679TIP3   OH237993   5.850   6.125   6.151
12679TIP3    H137994   5.813   6.057   6.210
12679TIP3    H237995   5.943   6.128   6.183
12680TIP3   OH237996   6.101   6.125   6.276
12680TIP3    H137997   6.183   6.093   6.236
12680TIP3    H237998   6.084   6.055   6.343
12681TIP3   OH237999   5.224   7.311   4.327
12681TIP3    H138000   5.226   7.332   4.421
12681TIP3    H238001   5.311   7.267   4.313
12682TIP3   OH238002   6.929   6.193   6.058
12682TIP3    H138003   6.943   6.160   6.149
12682TIP3    H238004   7.019   6.187   6.021
12683TIP3   OH238005   8.121   7.101   4.330
12683TIP3    H138006   8.088   7.191   4.310
12683TIP3    H238007   8.052   7.050   4.285
12684TIP3   OH238008   8.090   7.115   4.715
12684TIP3    H138009   8.155   7.064   4.763
12684TIP3    H238010   8.071   7.058   4.639
12685TIP3   OH238011   7.423   6.971   5.041
12685TIP3    H138012   7.451   6.912   5.114
12685TIP3    H238013   7.485   7.044   5.056
12686TIP3   OH238014   7.403   7.414   4.788
12686TIP3    H138015   7.395   7.316   4.790
12686TIP3    H238016   7.499   7.424   4.777
12687TIP3   OH238017   7.109   6.605   4.578
12687TIP3    H138018   7.090   6.698   4.597
12687TIP3    H238019   7.031   6.576   4.527
12688TIP3   OH238020   7.166   6.896   4.737
12688TIP3    H138021   7.218   6.824   4.778
12688TIP3    H238022   7.234   6.946   4.690
12689TIP3   OH238023   7.912   7.321   4.731
12689TIP3    H138024   7.978   7.251   4.716
12689TIP3    H238025   7.965   7.391   4.773
12690TIP3   OH238026   8.353   6.824   4.757
12690TIP3    H138027   8.376   6.730   4.774
12690TIP3    H238028   8.308   6.815   4.670
12691TIP3   OH238029   7.685   6.496   4.745
12691TIP3    H138030   7.664   6.570   4.683
12691TIP3    H238031   7.635   6.424   4.701
12692TIP3   OH238032   8.377   6.592   4.371
12692TIP3    H138033   8.451   6.569   4.432
12692TIP3    H238034   8.428   6.627   4.295
12693TIP3   OH238035   7.312   6.696   4.853
12693TIP3    H138036   7.396   6.684   4.901
12693TIP3    H238037   7.331   6.641   4.774
12694TIP3   OH238038   7.755   6.894   4.641
12694TIP3    H138039   7.849   6.868   4.655
12694TIP3    H238040   7.716   6.809   4.610
12695TIP3   OH238041   7.676   6.480   5.181
12695TIP3    H138042   7.617   6.518   5.113
12695TIP3    H238043   7.624   6.500   5.262
12696TIP3   OH238044   7.978   7.302   4.199
12696TIP3    H138045   7.959   7.308   4.105
12696TIP3    H238046   7.970   7.395   4.227
12697TIP3   OH238047   7.777   7.243   4.954
12697TIP3    H138048   7.710   7.314   4.959
12697TIP3    H238049   7.831   7.273   4.879
12698TIP3   OH238050   8.586   6.567   4.550
12698TIP3    H138051   8.545   6.539   4.633
12698TIP3    H238052   8.635   6.646   4.577
12699TIP3   OH238053   7.548   6.594   4.963
12699TIP3    H138054   7.609   6.667   4.989
12699TIP3    H238055   7.599   6.556   4.888
12700TIP3   OH238056   6.995   7.141   4.307
12700TIP3    H138057   6.963   7.167   4.218
12700TIP3    H238058   7.028   7.227   4.342
12701TIP3   OH238059   8.031   6.192   4.898
12701TIP3    H138060   8.013   6.097   4.917
12701TIP3    H238061   7.957   6.233   4.947
12702TIP3   OH238062   8.223   7.457   4.167
12702TIP3    H138063   8.212   7.398   4.092
12702TIP3    H238064   8.319   7.454   4.180
12703TIP3   OH238065   7.961   6.961   4.152
12703TIP3    H138066   7.884   7.019   4.135
12703TIP3    H238067   8.004   6.958   4.065
12704TIP3   OH238068   7.922   6.743   3.864
12704TIP3    H138069   7.986   6.801   3.909
12704TIP3    H238070   7.983   6.683   3.817
12705TIP3   OH238071   8.300   7.026   4.134
12705TIP3    H138072   8.251   7.050   4.215
12705TIP3    H238073   8.389   7.006   4.171
12706TIP3   OH238074   7.539   7.040   4.544
12706TIP3    H138075   7.499   6.984   4.475
12706TIP3    H238076   7.619   6.988   4.569
12707TIP3   OH238077   7.671   7.447   4.687
12707TIP3    H138078   7.643   7.426   4.597
12707TIP3    H238079   7.756   7.398   4.694
12708TIP3   OH238080   7.681   6.997   4.885
12708TIP3    H138081   7.711   6.975   4.795
12708TIP3    H238082   7.723   7.084   4.902
12709TIP3   OH238083   8.143   6.900   3.946
12709TIP3    H138084   8.203   6.955   4.001
12709TIP3    H238085   8.175   6.921   3.855
12710TIP3   OH238086   7.517   7.133   5.253
12710TIP3    H138087   7.493   7.225   5.231
12710TIP3    H238088   7.443   7.106   5.311
12711TIP3   OH238089   7.892   7.587   4.228
12711TIP3    H138090   7.955   7.657   4.245
12711TIP3    H238091   7.827   7.629   4.171
12712TIP3   OH238092   8.659   6.143   3.995
12712TIP3    H138093   8.579   6.156   4.050
12712TIP3    H238094   8.683   6.233   3.971
12713TIP3   OH238095   7.406   6.885   4.347
12713TIP3    H138096   7.342   6.932   4.291
12713TIP3    H238097   7.372   6.795   4.343
12714TIP3   OH238098   7.162   7.251   5.244
12714TIP3    H138099   7.100   7.237   5.169
12714TIP3    H238100   7.205   7.164   5.253
12715TIP3   OH238101   7.042   7.458   4.894
12715TIP3    H138102   7.136   7.465   4.875
12715TIP3    H238103   7.021   7.547   4.928
12716TIP3   OH238104   7.735   7.842   4.039
12716TIP3    H138105   7.721   7.806   3.950
12716TIP3    H238106   7.811   7.901   4.028
12717TIP3   OH238107   7.209   7.677   4.410
12717TIP3    H138108   7.259   7.667   4.494
12717TIP3    H238109   7.150   7.601   4.416
12718TIP3   OH238110   7.403   7.378   5.207
12718TIP3    H138111   7.438   7.451   5.259
12718TIP3    H238112   7.316   7.358   5.245
12719TIP3   OH238113   7.795   6.275   5.027
12719TIP3    H138114   7.706   6.245   4.996
12719TIP3    H238115   7.768   6.356   5.075
12720TIP3   OH238116   8.230   6.950   3.697
12720TIP3    H138117   8.183   6.926   3.615
12720TIP3    H238118   8.301   7.006   3.663
12721TIP3   OH238119   7.936   6.321   3.997
12721TIP3    H138120   7.900   6.317   4.087
12721TIP3    H238121   7.896   6.240   3.959
12722TIP3   OH238122   7.729   6.786   5.044
12722TIP3    H138123   7.677   6.809   5.124
12722TIP3    H238124   7.709   6.864   4.987
12723TIP3   OH238125   7.610   6.675   4.556
12723TIP3    H138126   7.517   6.652   4.573
12723TIP3    H238127   7.622   6.636   4.467
12724TIP3   OH238128   8.096   6.759   4.280
12724TIP3    H138129   8.046   6.831   4.236
12724TIP3    H238130   8.153   6.728   4.207
12725TIP3   OH238131   8.236   6.787   4.515
12725TIP3    H138132   8.176   6.811   4.440
12725TIP3    H238133   8.283   6.713   4.470
12726TIP3   OH238134   7.544   6.810   5.248
12726TIP3    H138135   7.596   6.875   5.298
12726TIP3    H238136   7.538   6.735   5.309
12727TIP3   OH238137   7.594   6.297   3.962
12727TIP3    H138138   7.582   6.298   4.059
12727TIP3    H238139   7.518   6.351   3.933
12728TIP3   OH238140   7.136   6.341   4.835
12728TIP3    H138141   7.212   6.374   4.887
12728TIP3    H238142   7.176   6.313   4.751
12729TIP3   OH238143   7.101   6.322   4.355
12729TIP3    H138144   7.145   6.355   4.274
12729TIP3    H238145   7.043   6.398   4.373
12730TIP3   OH238146   7.939   6.491   4.616
12730TIP3    H138147   7.856   6.494   4.667
12730TIP3    H238148   8.006   6.500   4.686
12731TIP3   OH238149   7.371   6.552   4.627
12731TIP3    H138150   7.277   6.555   4.600
12731TIP3    H238151   7.399   6.462   4.603
12732TIP3   OH238152   7.636   6.550   4.314
12732TIP3    H138153   7.730   6.566   4.292
12732TIP3    H238154   7.589   6.572   4.230
12733TIP3   OH238155   8.398   6.560   4.818
12733TIP3    H138156   8.363   6.565   4.909
12733TIP3    H238157   8.333   6.497   4.779
12734TIP3   OH238158   7.486   6.585   4.091
12734TIP3    H138159   7.418   6.539   4.038
12734TIP3    H238160   7.539   6.626   4.019
12735TIP3   OH238161   8.011   6.810   4.706
12735TIP3    H138162   8.091   6.788   4.655
12735TIP3    H238163   8.029   6.773   4.794
12736TIP3   OH238164   7.537   6.316   4.597
12736TIP3    H138165   7.503   6.238   4.645
12736TIP3    H238166   7.580   6.276   4.520
12737TIP3   OH238167   7.994   6.721   5.006
12737TIP3    H138168   7.899   6.747   5.009
12737TIP3    H238169   8.033   6.776   5.074
12738TIP3   OH238170   7.732   7.113   4.098
12738TIP3    H138171   7.658   7.051   4.087
12738TIP3    H238172   7.713   7.149   4.188
12739TIP3   OH238173   8.191   6.418   3.976
12739TIP3    H138174   8.093   6.404   3.975
12739TIP3    H238175   8.199   6.515   3.988
12740TIP3   OH238176   8.256   6.675   4.069
12740TIP3    H138177   8.353   6.684   4.080
12740TIP3    H238178   8.235   6.751   4.011
12741TIP3   OH238179   7.424   7.135   4.776
12741TIP3    H138180   7.463   7.109   4.690
12741TIP3    H238181   7.466   7.072   4.836
12742TIP3   OH238182   7.878   7.263   3.922
12742TIP3    H138183   7.830   7.349   3.926
12742TIP3    H238184   7.826   7.209   3.985
12743TIP3   OH238185   7.288   7.038   5.393
12743TIP3    H138186   7.282   7.011   5.486
12743TIP3    H238187   7.216   6.987   5.353
12744TIP3   OH238188   7.531   7.446   4.411
12744TIP3    H138189   7.531   7.525   4.354
12744TIP3    H238190   7.437   7.424   4.410
12745TIP3   OH238191   7.094   6.745   4.108
12745TIP3    H138192   7.138   6.831   4.125
12745TIP3    H238193   7.015   6.752   4.165
12746TIP3   OH238194   7.651   7.203   4.340
12746TIP3    H138195   7.628   7.295   4.361
12746TIP3    H238196   7.620   7.156   4.419
12747TIP3   OH238197   7.447   7.675   4.254
12747TIP3    H138198   7.361   7.690   4.297
12747TIP3    H238199   7.484   7.766   4.255
12748TIP3   OH238200   8.091   7.304   3.706
12748TIP3    H138201   8.141   7.284   3.785
12748TIP3    H238202   8.003   7.274   3.731
12749TIP3   OH238203   7.515   6.560   5.397
12749TIP3    H138204   7.418   6.561   5.404
12749TIP3    H238205   7.540   6.498   5.467
12750TIP3   OH238206   8.320   7.220   3.939
12750TIP3    H138207   8.283   7.171   4.014
12750TIP3    H238208   8.405   7.175   3.932
12751TIP3   OH238209   7.247   7.649   5.024
12751TIP3    H138210   7.278   7.565   5.060
12751TIP3    H238211   7.249   7.708   5.100
12752TIP3   OH238212   7.520   7.292   3.713
12752TIP3    H138213   7.537   7.201   3.684
12752TIP3    H238214   7.498   7.280   3.808
12753TIP3   OH238215   7.467   7.296   3.987
12753TIP3    H138216   7.547   7.276   4.038
12753TIP3    H238217   7.466   7.394   3.991
12754TIP3   OH238218   7.201   6.991   4.189
12754TIP3    H138219   7.135   7.040   4.242
12754TIP3    H238220   7.217   7.056   4.118
12755TIP3   OH238221   8.328   6.612   5.078
12755TIP3    H138222   8.386   6.669   5.131
12755TIP3    H238223   8.251   6.611   5.136
12756TIP3   OH238224   8.236   6.374   4.250
12756TIP3    H138225   8.219   6.393   4.156
12756TIP3    H238226   8.273   6.459   4.281
12757TIP3   OH238227   7.735   7.490   3.943
12757TIP3    H138228   7.645   7.512   3.976
12757TIP3    H238229   7.745   7.564   3.880
12758TIP3   OH238230   7.920   6.558   4.346
12758TIP3    H138231   7.983   6.631   4.326
12758TIP3    H238232   7.927   6.553   4.444
12759TIP3   OH238233   8.063   6.280   4.448
12759TIP3    H138234   8.046   6.360   4.501
12759TIP3    H238235   8.126   6.315   4.381
12760TIP3   OH238236   7.477   7.566   4.002
12760TIP3    H138237   7.448   7.637   3.940
12760TIP3    H238238   7.466   7.612   4.088
12761TIP3   OH238239   7.577   6.285   4.240
12761TIP3    H138240   7.576   6.377   4.274
12761TIP3    H238241   7.673   6.267   4.245
12762TIP3   OH238242   8.510   6.926   4.518
12762TIP3    H138243   8.414   6.917   4.525
12762TIP3    H238244   8.533   6.959   4.605
12763TIP3   OH238245   7.196   7.194   3.992
12763TIP3    H138246   7.264   7.264   4.000
12763TIP3    H238247   7.240   7.138   3.924
12764TIP3   OH238248   7.131   6.473   4.131
12764TIP3    H138249   7.138   6.571   4.127
12764TIP3    H238250   7.069   6.455   4.060
12765TIP3   OH238251   7.528   6.196   4.997
12765TIP3    H138252   7.498   6.161   4.910
12765TIP3    H238253   7.518   6.118   5.055
12766TIP3   OH238254   7.058   7.401   4.375
12766TIP3    H138255   6.996   7.441   4.437
12766TIP3    H238256   7.035   7.448   4.292
12767TIP3   OH238257   7.685   7.494   3.623
12767TIP3    H138258   7.632   7.418   3.656
12767TIP3    H238259   7.756   7.447   3.574
12768TIP3   OH238260   7.332   7.008   3.848
12768TIP3    H138261   7.393   6.983   3.920
12768TIP3    H238262   7.396   7.015   3.774
12769TIP3   OH238263   7.823   7.199   3.659
12769TIP3    H138264   7.821   7.210   3.756
12769TIP3    H238265   7.836   7.102   3.651
12770TIP3   OH238266   7.536   6.918   4.063
12770TIP3    H138267   7.515   6.873   4.146
12770TIP3    H238268   7.577   6.845   4.011
12771TIP3   OH238269   7.789   6.975   5.293
12771TIP3    H138270   7.749   7.052   5.337
12771TIP3    H238271   7.827   7.017   5.215
12772TIP3   OH238272   7.643   6.713   3.907
12772TIP3    H138273   7.617   6.721   3.813
12772TIP3    H238274   7.741   6.713   3.899
12773TIP3   OH238275   7.890   6.760   5.449
12773TIP3    H138276   7.928   6.698   5.385
12773TIP3    H238277   7.865   6.836   5.392
12774TIP3   OH238278   7.939   6.540   5.221
12774TIP3    H138279   7.960   6.587   5.138
12774TIP3    H238280   7.843   6.525   5.211
12775TIP3   OH238281   8.075   6.316   5.307
12775TIP3    H138282   8.029   6.397   5.276
12775TIP3    H238283   8.007   6.248   5.290
12776TIP3   OH238284   7.634   6.659   5.707
12776TIP3    H138285   7.650   6.579   5.654
12776TIP3    H238286   7.694   6.644   5.782
12777TIP3   OH238287   8.161   6.321   5.571
12777TIP3    H138288   8.228   6.257   5.546
12777TIP3    H238289   8.120   6.336   5.483
12778TIP3   OH238290   7.442   7.774   3.824
12778TIP3    H138291   7.537   7.758   3.809
12778TIP3    H238292   7.420   7.818   3.739
12779TIP3   OH238293   6.929   7.151   4.033
12779TIP3    H138294   7.022   7.174   4.014
12779TIP3    H238295   6.922   7.064   3.989
12780TIP3   OH238296   6.845   7.768   4.444
12780TIP3    H138297   6.780   7.707   4.403
12780TIP3    H238298   6.890   7.707   4.506
12781TIP3   OH238299   6.981   7.611   4.625
12781TIP3    H138300   6.963   7.545   4.694
12781TIP3    H238301   7.032   7.677   4.676
12782TIP3   OH238302   8.506   6.686   3.723
12782TIP3    H138303   8.490   6.715   3.633
12782TIP3    H238304   8.491   6.590   3.716
12783TIP3   OH238305   8.538   6.944   4.246
12783TIP3    H138306   8.544   6.849   4.227
12783TIP3    H238307   8.540   6.946   4.343
12784TIP3   OH238308   7.159   7.017   4.996
12784TIP3    H138309   7.151   6.986   4.904
12784TIP3    H238310   7.257   7.012   5.008
12785TIP3   OH238311   8.467   6.414   3.716
12785TIP3    H138312   8.527   6.351   3.756
12785TIP3    H238313   8.388   6.361   3.697
12786TIP3   OH238314   8.535   6.670   4.153
12786TIP3    H138315   8.570   6.579   4.168
12786TIP3    H238316   8.581   6.694   4.072
12787TIP3   OH238317   7.364   6.703   5.704
12787TIP3    H138318   7.463   6.703   5.696
12787TIP3    H238319   7.351   6.608   5.723
12788TIP3   OH238320   8.625   6.418   4.201
12788TIP3    H138321   8.686   6.390   4.272
12788TIP3    H238322   8.567   6.340   4.194
12789TIP3   OH238323   7.343   6.405   5.011
12789TIP3    H138324   7.405   6.329   5.016
12789TIP3    H238325   7.406   6.478   4.998
12790TIP3   OH238326   7.144   6.680   5.076
12790TIP3    H138327   7.195   6.673   4.992
12790TIP3    H238328   7.181   6.760   5.113
12791TIP3   OH238329   7.131   6.181   4.582
12791TIP3    H138330   7.037   6.175   4.607
12791TIP3    H238331   7.128   6.239   4.504
12792TIP3   OH238332   7.351   6.262   5.392
12792TIP3    H138333   7.298   6.252   5.473
12792TIP3    H238334   7.285   6.298   5.331
12793TIP3   OH238335   7.155   7.767   4.784
12793TIP3    H138336   7.185   7.741   4.874
12793TIP3    H238337   7.226   7.724   4.731
12794TIP3   OH238338   7.340   7.635   4.642
12794TIP3    H138339   7.360   7.552   4.692
12794TIP3    H238340   7.431   7.671   4.631
12795TIP3   OH238341   7.597   7.714   4.646
12795TIP3    H138342   7.643   7.628   4.645
12795TIP3    H238343   7.647   7.765   4.710
12796TIP3   OH238344   8.191   6.384   4.741
12796TIP3    H138345   8.144   6.314   4.790
12796TIP3    H238346   8.255   6.333   4.688
12797TIP3   OH238347   8.719   6.277   4.640
12797TIP3    H138348   8.752   6.327   4.563
12797TIP3    H238349   8.623   6.293   4.634
12798TIP3   OH238350   8.823   6.366   4.396
12798TIP3    H138351   8.894   6.312   4.358
12798TIP3    H238352   8.858   6.455   4.388
12799TIP3   OH238353   7.440   6.102   4.749
12799TIP3    H138354   7.347   6.070   4.753
12799TIP3    H238355   7.487   6.016   4.745
12800TIP3   OH238356   7.234   5.973   4.401
12800TIP3    H138357   7.262   6.028   4.325
12800TIP3    H238358   7.205   6.040   4.465
12801TIP3   OH238359   7.887   6.131   4.632
12801TIP3    H138360   7.942   6.180   4.568
12801TIP3    H238361   7.907   6.177   4.714
12802TIP3   OH238362   8.436   6.279   4.612
12802TIP3    H138363   8.431   6.241   4.524
12802TIP3    H238364   8.420   6.201   4.669
12803TIP3   OH238365   8.456   6.203   4.178
12803TIP3    H138366   8.370   6.248   4.192
12803TIP3    H238367   8.440   6.117   4.222
12804TIP3   OH238368   6.942   7.550   4.181
12804TIP3    H138369   6.857   7.517   4.147
12804TIP3    H238370   6.937   7.642   4.152
12805TIP3   OH238371   7.346   6.127   4.165
12805TIP3    H138372   7.394   6.066   4.104
12805TIP3    H238373   7.420   6.182   4.197
12806TIP3   OH238374   7.854   6.308   4.261
12806TIP3    H138375   7.916   6.261   4.319
12806TIP3    H238376   7.876   6.401   4.285
12807TIP3   OH238377   7.709   7.718   3.782
12807TIP3    H138378   7.774   7.778   3.737
12807TIP3    H238379   7.699   7.649   3.712
12808TIP3   OH238380   7.639   6.370   5.632
12808TIP3    H138381   7.603   6.299   5.688
12808TIP3    H238382   7.732   6.372   5.664
12809TIP3   OH238383   7.889   6.357   5.738
12809TIP3    H138384   7.976   6.366   5.698
12809TIP3    H238385   7.904   6.286   5.802
12810TIP3   OH238386   7.017   7.560   3.815
12810TIP3    H138387   7.029   7.594   3.905
12810TIP3    H238388   7.105   7.519   3.797
12811TIP3   OH238389   1.386   7.425   6.413
12811TIP3    H138390   1.405   7.507   6.464
12811TIP3    H238391   1.428   7.444   6.328
12812TIP3   OH238392   0.836   7.321   6.041
12812TIP3    H138393   0.888   7.345   6.120
12812TIP3    H238394   0.866   7.389   5.979
12813TIP3   OH238395   1.432   7.629   6.589
12813TIP3    H138396   1.426   7.721   6.561
12813TIP3    H238397   1.449   7.642   6.685
12814TIP3   OH238398   1.019   7.396   6.235
12814TIP3    H138399   1.043   7.314   6.279
12814TIP3    H238400   1.091   7.457   6.260
12815TIP3   OH238401   1.187   7.336   6.585
12815TIP3    H138402   1.115   7.394   6.556
12815TIP3    H238403   1.257   7.358   6.520
12816TIP3   OH238404   1.084   6.938   5.661
12816TIP3    H138405   1.071   6.980   5.749
12816TIP3    H238406   1.131   7.012   5.615
12817TIP3   OH238407   1.148   7.552   5.588
12817TIP3    H138408   1.083   7.510   5.528
12817TIP3    H238409   1.146   7.643   5.550
12818TIP3   OH238410   1.254   7.530   6.817
12818TIP3    H138411   1.159   7.540   6.817
12818TIP3    H238412   1.271   7.493   6.730
12819TIP3   OH238413   0.920   7.738   6.217
12819TIP3    H138414   0.876   7.653   6.220
12819TIP3    H238415   1.007   7.716   6.257
12820TIP3   OH238416   0.926   7.824   5.255
12820TIP3    H138417   0.877   7.782   5.181
12820TIP3    H238418   0.916   7.918   5.235
12821TIP3   OH238419   1.055   8.002   5.591
12821TIP3    H138420   1.126   8.064   5.565
12821TIP3    H238421   1.092   7.964   5.674
12822TIP3   OH238422   1.180   7.878   5.796
12822TIP3    H138423   1.121   7.833   5.860
12822TIP3    H238424   1.251   7.914   5.853
12823TIP3   OH238425   1.116   7.783   5.442
12823TIP3    H138426   1.046   7.790   5.373
12823TIP3    H238427   1.089   7.858   5.499
12824TIP3   OH238428   0.970   7.449   5.400
12824TIP3    H138429   0.945   7.517   5.337
12824TIP3    H238430   0.952   7.368   5.349
12825TIP3   OH238431   1.016   7.734   5.955
12825TIP3    H138432   0.994   7.642   5.931
12825TIP3    H238433   0.980   7.742   6.045
12826TIP3   OH238434   0.932   7.164   5.391
12826TIP3    H138435   1.021   7.167   5.432
12826TIP3    H238436   0.873   7.182   5.464
12827TIP3   OH238437   0.996   7.461   5.854
12827TIP3    H138438   1.039   7.374   5.860
12827TIP3    H238439   1.034   7.496   5.772
12828TIP3   OH238440   1.150   7.642   6.337
12828TIP3    H138441   1.234   7.669   6.295
12828TIP3    H238442   1.169   7.663   6.429
12829TIP3   OH238443   1.729   7.382   7.111
12829TIP3    H138444   1.758   7.306   7.057
12829TIP3    H238445   1.684   7.435   7.044
12830TIP3   OH238446   1.106   7.194   5.866
12830TIP3    H138447   1.156   7.194   5.950
12830TIP3    H238448   1.031   7.139   5.890
12831TIP3   OH238449   1.618   7.446   6.861
12831TIP3    H138450   1.561   7.510   6.905
12831TIP3    H238451   1.552   7.380   6.830
12832TIP3   OH238452   1.179   7.142   5.511
12832TIP3    H138453   1.221   7.077   5.450
12832TIP3    H238454   1.245   7.215   5.512
12833TIP3   OH238455   1.436   7.255   6.774
12833TIP3    H138456   1.343   7.243   6.752
12833TIP3    H238457   1.468   7.161   6.772
12834TIP3   OH238458   1.183   7.043   6.317
12834TIP3    H138459   1.222   7.100   6.247
12834TIP3    H238460   1.091   7.075   6.318
12835TIP3   OH238461   1.260   7.164   6.088
12835TIP3    H138462   1.335   7.109   6.054
12835TIP3    H238463   1.299   7.254   6.075
12836TIP3   OH238464   0.924   7.106   6.296
12836TIP3    H138465   0.847   7.112   6.239
12836TIP3    H238466   0.906   7.024   6.347
12837TIP3   OH238467   0.891   6.983   5.847
12837TIP3    H138468   0.833   7.046   5.895
12837TIP3    H238469   0.886   6.906   5.908
12838TIP3   OH238470   2.391   8.128   5.498
12838TIP3    H138471   2.362   8.221   5.509
12838TIP3    H238472   2.309   8.088   5.466
12839TIP3   OH238473   2.397   8.145   5.881
12839TIP3    H138474   2.425   8.122   5.971
12839TIP3    H238475   2.345   8.069   5.853
12840TIP3   OH238476   1.695   8.056   6.240
12840TIP3    H138477   1.704   7.989   6.310
12840TIP3    H238478   1.784   8.061   6.203
12841TIP3   OH238479   2.669   8.440   5.578
12841TIP3    H138480   2.609   8.375   5.620
12841TIP3    H238481   2.620   8.517   5.611
12842TIP3   OH238482   1.727   8.381   6.052
12842TIP3    H138483   1.687   8.302   6.013
12842TIP3    H238484   1.803   8.396   5.992
12843TIP3   OH238485   1.359   7.654   5.746
12843TIP3    H138486   1.321   7.740   5.769
12843TIP3    H238487   1.280   7.611   5.707
12844TIP3   OH238488   1.418   7.945   5.911
12844TIP3    H138489   1.463   7.871   5.957
12844TIP3    H238490   1.492   8.000   5.882
12845TIP3   OH238491   2.198   8.383   5.934
12845TIP3    H138492   2.235   8.308   5.884
12845TIP3    H238493   2.260   8.450   5.901
12846TIP3   OH238494   3.194   7.698   5.929
12846TIP3    H138495   3.221   7.782   5.969
12846TIP3    H238496   3.217   7.712   5.835
12847TIP3   OH238497   2.593   7.879   5.957
12847TIP3    H138498   2.635   7.793   5.974
12847TIP3    H238499   2.559   7.866   5.866
12848TIP3   OH238500   1.933   7.541   5.920
12848TIP3    H138501   1.911   7.615   5.859
12848TIP3    H238502   1.882   7.469   5.877
12849TIP3   OH238503   2.626   7.634   5.542
12849TIP3    H138504   2.696   7.618   5.609
12849TIP3    H238505   2.679   7.669   5.468
12850TIP3   OH238506   1.562   7.743   6.031
12850TIP3    H138507   1.643   7.723   6.081
12850TIP3    H238508   1.577   7.689   5.950
12851TIP3   OH238509   1.999   7.941   5.829
12851TIP3    H138510   2.094   7.917   5.839
12851TIP3    H238511   1.962   7.857   5.794
12852TIP3   OH238512   3.260   7.906   6.103
12852TIP3    H138513   3.179   7.958   6.086
12852TIP3    H238514   3.295   7.951   6.182
12853TIP3   OH238515   1.926   7.522   6.356
12853TIP3    H138516   1.864   7.561   6.291
12853TIP3    H238517   1.876   7.536   6.439
12854TIP3   OH238518   2.273   8.340   5.347
12854TIP3    H138519   2.213   8.347   5.272
12854TIP3    H238520   2.282   8.431   5.377
12855TIP3   OH238521   2.034   8.299   6.149
12855TIP3    H138522   1.999   8.372   6.201
12855TIP3    H238523   2.081   8.345   6.077
12856TIP3   OH238524   2.831   7.638   5.720
12856TIP3    H138525   2.811   7.595   5.804
12856TIP3    H238526   2.881   7.716   5.748
12857TIP3   OH238527   1.796   7.639   6.140
12857TIP3    H138528   1.857   7.712   6.167
12857TIP3    H238529   1.847   7.600   6.066
12858TIP3   OH238530   1.260   8.155   5.492
12858TIP3    H138531   1.220   8.158   5.402
12858TIP3    H238532   1.269   8.250   5.508
12859TIP3   OH238533   2.980   7.600   6.084
12859TIP3    H138534   2.894   7.630   6.048
12859TIP3    H238535   3.043   7.636   6.019
12860TIP3   OH238536   2.278   7.240   6.074
12860TIP3    H138537   2.260   7.146   6.092
12860TIP3    H238538   2.202   7.282   6.121
12861TIP3   OH238539   2.643   8.466   5.302
12861TIP3    H138540   2.600   8.392   5.258
12861TIP3    H238541   2.642   8.441   5.397
12862TIP3   OH238542   2.919   8.616   6.068
12862TIP3    H138543   2.904   8.536   6.015
12862TIP3    H238544   2.876   8.685   6.015
12863TIP3   OH238545   2.211   7.997   5.332
12863TIP3    H138546   2.131   8.052   5.317
12863TIP3    H238547   2.254   8.002   5.246
12864TIP3   OH238548   2.170   7.791   5.041
12864TIP3    H138549   2.234   7.844   5.091
12864TIP3    H238550   2.229   7.730   4.995
12865TIP3   OH238551   3.110   8.251   5.917
12865TIP3    H138552   3.030   8.306   5.923
12865TIP3    H238553   3.140   8.272   5.827
12866TIP3   OH238554   2.566   8.083   5.301
12866TIP3    H138555   2.505   8.101   5.376
12866TIP3    H238556   2.646   8.054   5.350
12867TIP3   OH238557   2.791   8.124   6.213
12867TIP3    H138558   2.793   8.203   6.272
12867TIP3    H238559   2.702   8.134   6.173
12868TIP3   OH238560   1.798   8.088   5.707
12868TIP3    H138561   1.755   8.027   5.642
12868TIP3    H238562   1.873   8.034   5.740
12869TIP3   OH238563   1.937   8.468   5.909
12869TIP3    H138564   1.904   8.465   5.819
12869TIP3    H238565   2.033   8.450   5.899
12870TIP3   OH238566   1.919   8.060   6.072
12870TIP3    H138567   1.955   8.034   5.985
12870TIP3    H238568   1.965   8.145   6.090
12871TIP3   OH238569   2.397   7.946   5.126
12871TIP3    H138570   2.455   8.008   5.174
12871TIP3    H238571   2.425   7.960   5.033
12872TIP3   OH238572   2.914   7.187   5.175
12872TIP3    H138573   2.832   7.209   5.223
12872TIP3    H238574   2.929   7.269   5.123
12873TIP3   OH238575   1.661   7.929   5.519
12873TIP3    H138576   1.594   7.972   5.462
12873TIP3    H238577   1.617   7.845   5.538
12874TIP3   OH238578   3.052   8.084   6.388
12874TIP3    H138579   2.960   8.101   6.362
12874TIP3    H238580   3.055   7.987   6.390
12875TIP3   OH238581   2.042   7.319   6.203
12875TIP3    H138582   1.953   7.290   6.174
12875TIP3    H238583   2.016   7.400   6.252
12876TIP3   OH238584   2.568   7.439   6.417
12876TIP3    H138585   2.589   7.429   6.511
12876TIP3    H238586   2.472   7.419   6.420
12877TIP3   OH238587   2.807   7.867   6.317
12877TIP3    H138588   2.759   7.867   6.402
12877TIP3    H238589   2.787   7.956   6.281
12878TIP3   OH238590   2.477   7.974   4.871
12878TIP3    H138591   2.443   7.953   4.782
12878TIP3    H238592   2.528   8.054   4.853
12879TIP3   OH238593   2.186   7.367   5.174
12879TIP3    H138594   2.151   7.363   5.265
12879TIP3    H238595   2.146   7.285   5.137
12880TIP3   OH238596   1.973   7.837   6.219
12880TIP3    H138597   1.939   7.867   6.307
12880TIP3    H238598   1.957   7.918   6.165
12881TIP3   OH238599   1.857   7.723   5.733
12881TIP3    H138600   1.765   7.698   5.753
12881TIP3    H238601   1.868   7.681   5.645
12882TIP3   OH238602   2.350   7.801   5.464
12882TIP3    H138603   2.298   7.873   5.420
12882TIP3    H238604   2.405   7.769   5.390
12883TIP3   OH238605   2.520   8.074   6.532
12883TIP3    H138606   2.503   8.014   6.607
12883TIP3    H238607   2.601   8.119   6.560
12884TIP3   OH238608   2.505   7.834   5.701
12884TIP3    H138609   2.442   7.866   5.633
12884TIP3    H238610   2.538   7.755   5.654
12885TIP3   OH238611   1.793   7.862   6.439
12885TIP3    H138612   1.843   7.901   6.511
12885TIP3    H238613   1.773   7.774   6.475
12886TIP3   OH238614   1.842   7.342   5.138
12886TIP3    H138615   1.832   7.343   5.235
12886TIP3    H238616   1.766   7.397   5.111
12887TIP3   OH238617   1.392   7.380   6.010
12887TIP3    H138618   1.460   7.419   6.068
12887TIP3    H238619   1.440   7.366   5.927
12888TIP3   OH238620   1.350   7.365   5.527
12888TIP3    H138621   1.396   7.402   5.450
12888TIP3    H238622   1.291   7.441   5.548
12889TIP3   OH238623   2.518   8.078   6.123
12889TIP3    H138624   2.552   8.008   6.063
12889TIP3    H238625   2.487   8.024   6.198
12890TIP3   OH238626   2.189   7.538   5.794
12890TIP3    H138627   2.107   7.541   5.846
12890TIP3    H238628   2.257   7.542   5.863
12891TIP3   OH238629   1.619   7.602   5.801
12891TIP3    H138630   1.525   7.611   5.772
12891TIP3    H238631   1.642   7.511   5.776
12892TIP3   OH238632   1.884   7.594   5.493
12892TIP3    H138633   1.978   7.610   5.471
12892TIP3    H238634   1.837   7.616   5.409
12893TIP3   OH238635   2.682   7.615   5.990
12893TIP3    H138636   2.654   7.629   6.084
12893TIP3    H238637   2.610   7.559   5.958
12894TIP3   OH238638   1.735   7.627   5.268
12894TIP3    H138639   1.664   7.584   5.218
12894TIP3    H238640   1.787   7.667   5.195
12895TIP3   OH238641   2.262   7.870   5.893
12895TIP3    H138642   2.340   7.837   5.847
12895TIP3    H238643   2.270   7.829   5.981
12896TIP3   OH238644   1.786   7.360   5.774
12896TIP3    H138645   1.751   7.282   5.823
12896TIP3    H238646   1.833   7.318   5.701
12897TIP3   OH238647   2.243   7.775   6.179
12897TIP3    H138648   2.153   7.809   6.195
12897TIP3    H238649   2.300   7.836   6.230
12898TIP3   OH238650   1.983   8.143   5.282
12898TIP3    H138651   1.905   8.084   5.268
12898TIP3    H238652   1.958   8.187   5.366
12899TIP3   OH238653   2.877   8.400   5.892
12899TIP3    H138654   2.840   8.447   5.817
12899TIP3    H238655   2.802   8.339   5.908
12900TIP3   OH238656   2.438   7.468   5.145
12900TIP3    H138657   2.341   7.449   5.152
12900TIP3    H238658   2.444   7.562   5.168
12901TIP3   OH238659   2.406   8.448   6.294
12901TIP3    H138660   2.460   8.431   6.373
12901TIP3    H238661   2.332   8.501   6.331
12902TIP3   OH238662   2.507   7.719   5.245
12902TIP3    H138663   2.603   7.727   5.258
12902TIP3    H238664   2.485   7.800   5.194
12903TIP3   OH238665   1.652   8.137   5.937
12903TIP3    H138666   1.705   8.122   5.856
12903TIP3    H238667   1.704   8.091   6.005
12904TIP3   OH238668   2.087   8.332   5.115
12904TIP3    H138669   2.047   8.402   5.170
12904TIP3    H238670   2.055   8.253   5.163
12905TIP3   OH238671   2.276   8.205   6.573
12905TIP3    H138672   2.262   8.186   6.479
12905TIP3    H238673   2.372   8.193   6.580
12906TIP3   OH238674   2.945   7.816   5.078
12906TIP3    H138675   2.886   7.767   5.016
12906TIP3    H238676   2.942   7.902   5.032
12907TIP3   OH238677   3.168   8.654   6.167
12907TIP3    H138678   3.072   8.660   6.147
12907TIP3    H238679   3.201   8.638   6.076
12908TIP3   OH238680   2.659   8.246   5.830
12908TIP3    H138681   2.561   8.243   5.830
12908TIP3    H238682   2.679   8.166   5.778
12909TIP3   OH238683   1.343   7.788   5.285
12909TIP3    H138684   1.386   7.874   5.303
12909TIP3    H238685   1.265   7.793   5.344
12910TIP3   OH238686   1.908   8.259   5.517
12910TIP3    H138687   1.881   8.344   5.553
12910TIP3    H238688   1.880   8.198   5.589
12911TIP3   OH238689   2.503   8.491   6.039
12911TIP3    H138690   2.451   8.465   6.118
12911TIP3    H238691   2.487   8.419   5.977
12912TIP3   OH238692   2.440   8.286   4.859
12912TIP3    H138693   2.470   8.281   4.952
12912TIP3    H238694   2.361   8.343   4.867
12913TIP3   OH238695   1.773   7.595   6.576
12913TIP3    H138696   1.681   7.592   6.605
12913TIP3    H238697   1.817   7.545   6.648
12914TIP3   OH238698   2.565   8.273   5.108
12914TIP3    H138699   2.557   8.201   5.174
12914TIP3    H238700   2.661   8.270   5.087
12915TIP3   OH238701   1.759   8.287   4.936
12915TIP3    H138702   1.796   8.199   4.913
12915TIP3    H238703   1.788   8.298   5.026
12916TIP3   OH238704   1.461   8.030   5.359
12916TIP3    H138705   1.394   8.067   5.421
12916TIP3    H238706   1.464   8.102   5.293
12917TIP3   OH238707   2.621   7.654   6.251
12917TIP3    H138708   2.669   7.720   6.303
12917TIP3    H238709   2.591   7.590   6.318
12918TIP3   OH238710   2.485   7.418   5.426
12918TIP3    H138711   2.470   7.440   5.331
12918TIP3    H238712   2.523   7.502   5.460
12919TIP3   OH238713   2.168   7.604   5.525
12919TIP3    H138714   2.233   7.676   5.508
12919TIP3    H238715   2.175   7.595   5.622
12920TIP3   OH238716   2.439   7.917   6.325
12920TIP3    H138717   2.456   7.980   6.399
12920TIP3    H238718   2.485   7.839   6.357
12921TIP3   OH238719   2.312   7.324   5.624
12921TIP3    H138720   2.301   7.403   5.680
12921TIP3    H238721   2.375   7.358   5.557
12922TIP3   OH238722   1.826   7.329   5.414
12922TIP3    H138723   1.824   7.420   5.452
12922TIP3    H238724   1.923   7.312   5.422
12923TIP3   OH238725   3.068   7.801   6.317
12923TIP3    H138726   2.972   7.818   6.311
12923TIP3    H238727   3.094   7.800   6.224
12924TIP3   OH238728   2.735   8.009   5.691
12924TIP3    H138729   2.653   7.959   5.710
12924TIP3    H238730   2.801   7.963   5.747
12925TIP3   OH238731   1.453   8.246   5.175
12925TIP3    H138732   1.474   8.340   5.160
12925TIP3    H238733   1.506   8.202   5.107
12926TIP3   OH238734   1.387   7.518   5.305
12926TIP3    H138735   1.393   7.616   5.305
12926TIP3    H238736   1.308   7.505   5.251
12927TIP3   OH238737   1.776   7.241   6.173
12927TIP3    H138738   1.746   7.205   6.087
12927TIP3    H238739   1.766   7.164   6.233
12928TIP3   OH238740   1.576   8.047   5.027
12928TIP3    H138741   1.626   8.015   5.104
12928TIP3    H238742   1.648   8.050   4.960
12929TIP3   OH238743   2.034   8.228   4.840
12929TIP3    H138744   2.062   8.244   4.930
12929TIP3    H238745   2.063   8.136   4.826
12930TIP3   OH238746   2.709   8.499   6.223
12930TIP3    H138747   2.758   8.571   6.179
12930TIP3    H238748   2.627   8.498   6.171
12931TIP3   OH238749   1.778   7.960   5.239
12931TIP3    H138750   1.752   7.918   5.323
12931TIP3    H238751   1.820   7.886   5.190
12932TIP3   OH238752   2.052   8.011   6.460
12932TIP3    H138753   2.074   8.069   6.534
12932TIP3    H238754   2.110   8.048   6.390
12933TIP3   OH238755   1.891   7.756   5.085
12933TIP3    H138756   1.866   7.760   4.991
12933TIP3    H238757   1.989   7.759   5.078
12934TIP3   OH238758   2.571   8.397   6.548
12934TIP3    H138759   2.658   8.434   6.560
12934TIP3    H238760   2.546   8.377   6.640
12935TIP3   OH238761   2.717   8.092   4.744
12935TIP3    H138762   2.687   8.041   4.666
12935TIP3    H238763   2.692   8.182   4.714
12936TIP3   OH238764   2.203   7.811   6.584
12936TIP3    H138765   2.196   7.727   6.535
12936TIP3    H238766   2.141   7.868   6.536
12937TIP3   OH238767   2.184   7.598   6.399
12937TIP3    H138768   2.208   7.644   6.317
12937TIP3    H238769   2.089   7.577   6.384
12938TIP3   OH238770   2.213   8.138   6.284
12938TIP3    H138771   2.297   8.154   6.241
12938TIP3    H238772   2.154   8.200   6.237
12939TIP3   OH238773   2.813   8.094   6.629
12939TIP3    H138774   2.873   8.035   6.677
12939TIP3    H238775   2.869   8.173   6.619
12940TIP3   OH238776   2.844   8.337   6.385
12940TIP3    H138777   2.780   8.397   6.340
12940TIP3    H238778   2.928   8.369   6.345
12941TIP3   OH238779   1.999   7.928   6.761
12941TIP3    H138780   1.964   7.846   6.803
12941TIP3    H238781   2.090   7.902   6.740
12942TIP3   OH238782   2.313   7.360   6.451
12942TIP3    H138783   2.260   7.442   6.442
12942TIP3    H238784   2.243   7.291   6.456
12943TIP3   OH238785   2.452   7.858   6.691
12943TIP3    H138786   2.443   7.838   6.785
12943TIP3    H238787   2.361   7.843   6.658
12944TIP3   OH238788   2.672   7.788   6.539
12944TIP3    H138789   2.598   7.814   6.597
12944TIP3    H238790   2.740   7.764   6.605
12945TIP3   OH238791   2.909   7.694   6.705
12945TIP3    H138792   2.926   7.628   6.774
12945TIP3    H238793   2.901   7.774   6.761
12946TIP3   OH238794   1.897   7.700   6.880
12946TIP3    H138795   1.889   7.613   6.839
12946TIP3    H238796   1.948   7.678   6.960
12947TIP3   OH238797   2.384   7.334   6.721
12947TIP3    H138798   2.470   7.291   6.717
12947TIP3    H238799   2.360   7.343   6.627
12948TIP3   OH238800   1.193   8.145   5.219
12948TIP3    H138801   1.269   8.195   5.182
12948TIP3    H238802   1.179   8.076   5.152
12949TIP3   OH238803   2.841   8.262   5.090
12949TIP3    H138804   2.907   8.324   5.052
12949TIP3    H238805   2.881   8.241   5.176
12950TIP3   OH238806   2.950   8.199   5.347
12950TIP3    H138807   2.899   8.116   5.361
12950TIP3    H238808   3.043   8.168   5.353
12951TIP3   OH238809   2.909   8.049   4.931
12951TIP3    H138810   2.843   8.048   4.859
12951TIP3    H238811   2.874   8.125   4.982
12952TIP3   OH238812   2.785   7.720   4.884
12952TIP3    H138813   2.735   7.756   4.810
12952TIP3    H238814   2.761   7.625   4.877
12953TIP3   OH238815   2.798   7.990   5.427
12953TIP3    H138816   2.797   7.894   5.414
12953TIP3    H238817   2.777   7.997   5.524
12954TIP3   OH238818   1.415   8.042   6.181
12954TIP3    H138819   1.415   8.045   6.084
12954TIP3    H238820   1.505   8.069   6.204
12955TIP3   OH238821   3.084   8.421   6.292
12955TIP3    H138822   3.154   8.353   6.280
12955TIP3    H238823   3.110   8.489   6.228
12956TIP3   OH238824   3.265   8.220   6.292
12956TIP3    H138825   3.191   8.173   6.337
12956TIP3    H238826   3.338   8.159   6.313
12957TIP3   OH238827   2.725   7.455   4.871
12957TIP3    H138828   2.798   7.420   4.925
12957TIP3    H238829   2.651   7.395   4.888
12958TIP3   OH238830   2.788   7.717   5.323
12958TIP3    H138831   2.825   7.627   5.340
12958TIP3    H238832   2.844   7.743   5.248
12959TIP3   OH238833   2.944   7.882   5.823
12959TIP3    H138834   3.028   7.910   5.781
12959TIP3    H238835   2.957   7.922   5.911
12960TIP3   OH238836   3.013   8.027   6.054
12960TIP3    H138837   2.937   8.062   6.105
12960TIP3    H238838   3.046   8.109   6.010
12961TIP3   OH238839   3.488   7.634   6.609
12961TIP3    H138840   3.537   7.562   6.564
12961TIP3    H238841   3.437   7.673   6.536
12962TIP3   OH238842   2.891   7.466   5.364
12962TIP3    H138843   2.940   7.448   5.447
12962TIP3    H238844   2.831   7.389   5.362
12963TIP3   OH238845   1.589   7.449   6.189
12963TIP3    H138846   1.652   7.375   6.196
12963TIP3    H238847   1.651   7.524   6.178
12964TIP3   OH238848   1.390   7.744   6.257
12964TIP3    H138849   1.442   7.733   6.175
12964TIP3    H238850   1.399   7.839   6.270
12965TIP3   OH238851   3.334   7.756   6.416
12965TIP3    H138852   3.256   7.801   6.454
12965TIP3    H238853   3.290   7.682   6.370
12966TIP3   OH238854   2.971   7.394   4.998
12966TIP3    H138855   3.009   7.323   4.941
12966TIP3    H238856   3.039   7.464   4.993
12967TIP3   OH238857   1.379   7.215   5.749
12967TIP3    H138858   1.288   7.220   5.785
12967TIP3    H238859   1.375   7.280   5.676
12968TIP3   OH238860   1.600   7.295   6.548
12968TIP3    H138861   1.554   7.295   6.634
12968TIP3    H238862   1.532   7.336   6.491
12969TIP3   OH238863   3.224   7.520   6.294
12969TIP3    H138864   3.169   7.522   6.215
12969TIP3    H238865   3.268   7.433   6.286
12970TIP3   OH238866   2.445   7.439   5.917
12970TIP3    H138867   2.398   7.368   5.965
12970TIP3    H238868   2.515   7.391   5.870
12971TIP3   OH238869   2.961   7.322   5.820
12971TIP3    H138870   2.998   7.371   5.743
12971TIP3    H238871   2.865   7.338   5.808
12972TIP3   OH238872   3.057   7.417   5.581
12972TIP3    H138873   3.130   7.366   5.541
12972TIP3    H238874   3.090   7.509   5.566
12973TIP3   OH238875   1.688   7.145   5.925
12973TIP3    H138876   1.595   7.113   5.930
12973TIP3    H238877   1.736   7.060   5.922
12974TIP3   OH238878   1.478   7.017   5.579
12974TIP3    H138879   1.505   7.072   5.503
12974TIP3    H238880   1.452   7.086   5.643
12975TIP3   OH238881   2.135   7.177   5.810
12975TIP3    H138882   2.190   7.225   5.746
12975TIP3    H238883   2.159   7.219   5.893
12976TIP3   OH238884   2.678   7.326   5.789
12976TIP3    H138885   2.678   7.286   5.702
12976TIP3    H238886   2.667   7.247   5.847
12977TIP3   OH238887   2.709   7.252   5.355
12977TIP3    H138888   2.623   7.295   5.371
12977TIP3    H238889   2.695   7.165   5.399
12978TIP3   OH238890   1.595   7.172   5.340
12978TIP3    H138891   1.643   7.111   5.280
12978TIP3    H238892   1.668   7.228   5.374
12979TIP3   OH238893   2.104   7.353   5.437
12979TIP3    H138894   2.164   7.307   5.497
12979TIP3    H238895   2.125   7.446   5.462
12980TIP3   OH238896   1.911   7.428   6.784
12980TIP3    H138897   1.849   7.392   6.849
12980TIP3    H238898   1.998   7.417   6.827
12981TIP3   OH238899   2.156   7.418   6.924
12981TIP3    H138900   2.249   7.432   6.896
12981TIP3    H238901   2.165   7.339   6.979
12982TIP3   OH238902   4.178   8.396   4.990
12982TIP3    H138903   4.139   8.482   4.966
12982TIP3    H238904   4.108   8.338   4.955
12983TIP3   OH238905   4.178   8.411   5.367
12983TIP3    H138906   4.213   8.388   5.455
12983TIP3    H238907   4.138   8.328   5.338
12984TIP3   OH238908   3.456   8.308   5.738
12984TIP3    H138909   3.491   8.239   5.798
12984TIP3    H238910   3.535   8.363   5.726
12985TIP3   OH238911   4.394   8.714   5.056
12985TIP3    H138912   4.393   8.642   5.121
12985TIP3    H238913   4.451   8.779   5.099
12986TIP3   OH238914   3.506   8.647   5.539
12986TIP3    H138915   3.475   8.565   5.499
12986TIP3    H238916   3.586   8.666   5.484
12987TIP3   OH238917   3.148   7.914   5.238
12987TIP3    H138918   3.108   8.000   5.223
12987TIP3    H238919   3.082   7.856   5.197
12988TIP3   OH238920   3.210   8.206   5.408
12988TIP3    H138921   3.256   8.126   5.445
12988TIP3    H238922   3.287   8.256   5.375
12989TIP3   OH238923   3.991   8.628   5.408
12989TIP3    H138924   4.040   8.550   5.375
12989TIP3    H238925   4.068   8.683   5.435
12990TIP3   OH238926   4.988   7.957   5.410
12990TIP3    H138927   5.019   8.040   5.453
12990TIP3    H238928   5.012   7.973   5.317
12991TIP3   OH238929   4.386   8.138   5.442
12991TIP3    H138930   4.430   8.053   5.464
12991TIP3    H238931   4.355   8.120   5.352
12992TIP3   OH238932   3.726   7.799   5.409
12992TIP3    H138933   3.708   7.871   5.345
12992TIP3    H238934   3.679   7.725   5.365
12993TIP3   OH238935   4.422   7.891   5.028
12993TIP3    H138936   4.492   7.876   5.095
12993TIP3    H238937   4.476   7.925   4.955
12994TIP3   OH238938   3.357   8.003   5.514
12994TIP3    H138939   3.440   7.986   5.562
12994TIP3    H238940   3.373   7.946   5.435
12995TIP3   OH238941   3.796   8.198   5.315
12995TIP3    H138942   3.891   8.176   5.325
12995TIP3    H238943   3.759   8.114   5.281
12996TIP3   OH238944   5.065   8.166   5.581
12996TIP3    H138945   4.979   8.211   5.566
12996TIP3    H238946   5.092   8.204   5.666
12997TIP3   OH238947   3.721   7.782   5.842
12997TIP3    H138948   3.661   7.820   5.776
12997TIP3    H238949   3.669   7.798   5.924
12998TIP3   OH238950   4.053   8.600   4.853
12998TIP3    H138951   4.015   8.601   4.764
12998TIP3    H238952   4.089   8.690   4.862
12999TIP3   OH238953   3.826   8.561   5.636
12999TIP3    H138954   3.764   8.629   5.669
12999TIP3    H238955   3.862   8.604   5.556
13000TIP3   OH238956   4.625   7.896   5.207
13000TIP3    H138957   4.614   7.850   5.291
13000TIP3    H238958   4.679   7.973   5.233
13001TIP3   OH238959   3.591   7.899   5.626
13001TIP3    H138960   3.653   7.971   5.652
13001TIP3    H238961   3.641   7.858   5.552
13002TIP3   OH238962   3.657   8.777   5.739
13002TIP3    H138963   3.611   8.764   5.654
13002TIP3    H238964   3.581   8.772   5.799
13003TIP3   OH238965   3.044   8.412   4.981
13003TIP3    H138966   3.012   8.404   4.888
13003TIP3    H238967   3.061   8.508   4.980
13004TIP3   OH238968   4.779   7.857   5.575
13004TIP3    H138969   4.693   7.884   5.541
13004TIP3    H238970   4.842   7.890   5.508
13005TIP3   OH238971   4.072   7.497   5.557
13005TIP3    H138972   4.060   7.402   5.579
13005TIP3    H238973   3.996   7.536   5.606
13006TIP3   OH238974   4.428   8.726   4.774
13006TIP3    H138975   4.402   8.646   4.727
13006TIP3    H238976   4.438   8.697   4.866
13007TIP3   OH238977   4.707   8.867   5.559
13007TIP3    H138978   4.696   8.790   5.500
13007TIP3    H238979   4.737   8.936   5.497
13008TIP3   OH238980   4.010   8.257   4.820
13008TIP3    H138981   3.929   8.310   4.802
13008TIP3    H238982   4.053   8.256   4.733
13009TIP3   OH238983   3.966   8.049   4.528
13009TIP3    H138984   4.032   8.102   4.576
13009TIP3    H238985   4.024   7.986   4.481
13010TIP3   OH238986   4.913   8.507   5.403
13010TIP3    H138987   4.829   8.558   5.408
13010TIP3    H238988   4.943   8.532   5.313
13011TIP3   OH238989   4.356   8.337   4.791
13011TIP3    H138990   4.302   8.358   4.870
13011TIP3    H238991   4.442   8.313   4.833
13012TIP3   OH238992   4.587   8.385   5.700
13012TIP3    H138993   4.585   8.468   5.750
13012TIP3    H238994   4.500   8.388   5.656
13013TIP3   OH238995   3.592   8.346   5.197
13013TIP3    H138996   3.550   8.285   5.133
13013TIP3    H238997   3.667   8.292   5.230
13014TIP3   OH238998   3.727   8.710   5.403
13014TIP3    H138999   3.696   8.708   5.312
13014TIP3    H239000   3.824   8.714   5.394
13015TIP3   OH239001   3.707   8.322   5.554
13015TIP3    H139002   3.749   8.293   5.470
13015TIP3    H239003   3.757   8.404   5.574
13016TIP3   OH239004   3.906   8.771   5.880
13016TIP3    H139005   3.870   8.858   5.903
13016TIP3    H239006   3.832   8.738   5.825
13017TIP3   OH239007   4.189   8.205   4.613
13017TIP3    H139008   4.250   8.264   4.662
13017TIP3    H239009   4.219   8.219   4.520
13018TIP3   OH239010   3.618   8.429   5.984
13018TIP3    H139011   3.623   8.517   6.026
13018TIP3    H239012   3.525   8.406   6.001
13019TIP3   OH239013   4.711   7.443   4.661
13019TIP3    H139014   4.629   7.465   4.710
13019TIP3    H239015   4.726   7.525   4.611
13020TIP3   OH239016   3.451   8.187   5.013
13020TIP3    H139017   3.387   8.227   4.951
13020TIP3    H239018   3.422   8.095   5.014
13021TIP3   OH239019   3.258   8.570   5.924
13021TIP3    H139020   3.212   8.543   5.844
13021TIP3    H239021   3.293   8.485   5.959
13022TIP3   OH239022   4.846   8.337   5.885
13022TIP3    H139023   4.763   8.361   5.841
13022TIP3    H239024   4.857   8.245   5.853
13023TIP3   OH239025   3.444   8.773   5.908
13023TIP3    H139026   3.493   8.742   5.987
13023TIP3    H239027   3.368   8.712   5.909
13024TIP3   OH239028   3.836   7.575   5.690
13024TIP3    H139029   3.748   7.546   5.659
13024TIP3    H239030   3.811   7.656   5.738
13025TIP3   OH239031   4.373   7.691   5.883
13025TIP3    H139032   4.442   7.662   5.946
13025TIP3    H239033   4.290   7.671   5.931
13026TIP3   OH239034   4.613   8.123   5.804
13026TIP3    H139035   4.560   8.118   5.886
13026TIP3    H239036   4.587   8.209   5.767
13027TIP3   OH239037   4.271   8.230   4.358
13027TIP3    H139038   4.239   8.211   4.268
13027TIP3    H239039   4.334   8.302   4.339
13028TIP3   OH239040   3.981   7.625   4.660
13028TIP3    H139041   3.947   7.620   4.751
13028TIP3    H239042   3.943   7.542   4.624
13029TIP3   OH239043   3.766   8.098   5.703
13029TIP3    H139044   3.722   8.120   5.787
13029TIP3    H239045   3.749   8.179   5.651
13030TIP3   OH239046   3.653   7.979   5.221
13030TIP3    H139047   3.560   7.952   5.239
13030TIP3    H239048   3.666   7.938   5.132
13031TIP3   OH239049   4.146   8.059   4.951
13031TIP3    H139050   4.095   8.129   4.905
13031TIP3    H239051   4.203   8.026   4.878
13032TIP3   OH239052   4.322   8.337   6.029
13032TIP3    H139053   4.299   8.266   6.093
13032TIP3    H239054   4.415   8.354   6.054
13033TIP3   OH239055   4.300   8.090   5.186
13033TIP3    H139056   4.238   8.117   5.116
13033TIP3    H239057   4.337   8.010   5.142
13034TIP3   OH239058   3.584   8.121   5.914
13034TIP3    H139059   3.626   8.182   5.976
13034TIP3    H239060   3.579   8.039   5.967
13035TIP3   OH239061   3.638   7.599   4.624
13035TIP3    H139062   3.629   7.598   4.721
13035TIP3    H239063   3.560   7.652   4.599
13036TIP3   OH239064   3.182   7.642   5.497
13036TIP3    H139065   3.258   7.673   5.549
13036TIP3    H239066   3.222   7.608   5.415
13037TIP3   OH239067   3.148   7.622   5.017
13037TIP3    H139068   3.195   7.656   4.937
13037TIP3    H239069   3.086   7.696   5.031
13038TIP3   OH239070   4.310   8.336   5.607
13038TIP3    H139071   4.344   8.264   5.548
13038TIP3    H239072   4.280   8.282   5.684
13039TIP3   OH239073   3.985   7.802   5.281
13039TIP3    H139074   3.906   7.799   5.338
13039TIP3    H239075   4.057   7.792   5.346
13040TIP3   OH239076   3.414   7.856   5.289
13040TIP3    H139077   3.319   7.858   5.261
13040TIP3    H239078   3.441   7.765   5.268
13041TIP3   OH239079   3.680   7.853   4.980
13041TIP3    H139080   3.774   7.865   4.960
13041TIP3    H239081   3.635   7.873   4.894
13042TIP3   OH239082   4.474   7.878   5.484
13042TIP3    H139083   4.442   7.890   5.577
13042TIP3    H239084   4.407   7.816   5.450
13043TIP3   OH239085   3.528   7.889   4.755
13043TIP3    H139086   3.460   7.842   4.705
13043TIP3    H239087   3.582   7.926   4.682
13044TIP3   OH239088   3.602   8.677   6.123
13044TIP3    H139089   3.683   8.703   6.172
13044TIP3    H239090   3.538   8.673   6.198
13045TIP3   OH239091   4.061   8.131   5.379
13045TIP3    H139092   4.135   8.092   5.330
13045TIP3    H239093   4.067   8.086   5.465
13046TIP3   OH239094   3.581   7.617   5.261
13046TIP3    H139095   3.546   7.540   5.310
13046TIP3    H239096   3.631   7.575   5.190
13047TIP3   OH239097   4.039   8.030   5.666
13047TIP3    H139098   3.950   8.067   5.682
13047TIP3    H239099   4.097   8.090   5.717
13048TIP3   OH239100   3.778   8.399   4.768
13048TIP3    H139101   3.700   8.342   4.754
13048TIP3    H239102   3.754   8.443   4.853
13049TIP3   OH239103   4.677   8.647   5.393
13049TIP3    H139104   4.705   8.698   5.313
13049TIP3    H239105   4.593   8.606   5.363
13050TIP3   OH239106   4.234   7.725   4.633
13050TIP3    H139107   4.138   7.706   4.639
13050TIP3    H239108   4.241   7.819   4.655
13051TIP3   OH239109   4.187   8.757   5.761
13051TIP3    H139110   4.221   8.706   5.836
13051TIP3    H239111   4.105   8.793   5.798
13052TIP3   OH239112   4.303   7.977   4.733
13052TIP3    H139113   4.400   7.982   4.747
13052TIP3    H239114   4.285   8.057   4.680
13053TIP3   OH239115   3.444   8.386   5.426
13053TIP3    H139116   3.496   8.384   5.342
13053TIP3    H239117   3.510   8.355   5.490
13054TIP3   OH239118   3.887   8.590   4.606
13054TIP3    H139119   3.844   8.659   4.661
13054TIP3    H239120   3.853   8.510   4.652
13055TIP3   OH239121   3.357   8.353   6.057
13055TIP3    H139122   3.379   8.344   6.152
13055TIP3    H239123   3.287   8.287   6.047
13056TIP3   OH239124   4.084   8.462   6.075
13056TIP3    H139125   4.022   8.410   6.022
13056TIP3    H239126   4.170   8.428   6.044
13057TIP3   OH239127   4.741   8.071   4.566
13057TIP3    H139128   4.681   8.026   4.502
13057TIP3    H239129   4.739   8.160   4.525
13058TIP3   OH239130   4.965   8.904   5.652
13058TIP3    H139131   4.870   8.922   5.639
13058TIP3    H239132   4.992   8.892   5.558
13059TIP3   OH239133   4.441   8.521   5.295
13059TIP3    H139134   4.349   8.495   5.318
13059TIP3    H239135   4.474   8.436   5.259
13060TIP3   OH239136   3.137   8.045   4.771
13060TIP3    H139137   3.181   8.130   4.787
13060TIP3    H239138   3.058   8.052   4.828
13061TIP3   OH239139   3.703   8.515   5.005
13061TIP3    H139140   3.676   8.600   5.038
13061TIP3    H239141   3.677   8.456   5.078
13062TIP3   OH239142   4.231   8.718   5.491
13062TIP3    H139143   4.220   8.730   5.587
13062TIP3    H239144   4.317   8.675   5.486
13063TIP3   OH239145   4.236   8.546   4.346
13063TIP3    H139146   4.268   8.535   4.438
13063TIP3    H239147   4.158   8.603   4.358
13064TIP3   OH239148   3.562   7.861   6.058
13064TIP3    H139149   3.468   7.866   6.081
13064TIP3    H239150   3.598   7.813   6.135
13065TIP3   OH239151   4.361   8.523   4.594
13065TIP3    H139152   4.358   8.451   4.660
13065TIP3    H239153   4.457   8.525   4.573
13066TIP3   OH239154   3.546   8.540   4.427
13066TIP3    H139155   3.590   8.456   4.400
13066TIP3    H239156   3.592   8.561   4.508
13067TIP3   OH239157   3.254   8.288   4.848
13067TIP3    H139158   3.189   8.329   4.908
13067TIP3    H239159   3.259   8.357   4.779
13068TIP3   OH239160   4.401   7.928   5.745
13068TIP3    H139161   4.481   7.965   5.785
13068TIP3    H239162   4.387   7.846   5.798
13069TIP3   OH239163   4.280   7.677   4.913
13069TIP3    H139164   4.268   7.697   4.818
13069TIP3    H239165   4.320   7.759   4.947
13070TIP3   OH239166   3.962   7.862   5.012
13070TIP3    H139167   4.028   7.932   4.994
13070TIP3    H239168   3.971   7.852   5.109
13071TIP3   OH239169   4.237   8.175   5.815
13071TIP3    H139170   4.263   8.228   5.894
13071TIP3    H239171   4.290   8.094   5.826
13072TIP3   OH239172   4.108   7.580   5.110
13072TIP3    H139173   4.107   7.656   5.170
13072TIP3    H239174   4.171   7.614   5.041
13073TIP3   OH239175   3.623   7.587   4.901
13073TIP3    H139176   3.622   7.676   4.940
13073TIP3    H239177   3.719   7.567   4.908
13074TIP3   OH239178   4.880   8.075   5.801
13074TIP3    H139179   4.782   8.072   5.806
13074TIP3    H239180   4.894   8.031   5.716
13075TIP3   OH239181   4.527   8.273   5.189
13075TIP3    H139182   4.452   8.212   5.200
13075TIP3    H239183   4.599   8.226   5.236
13076TIP3   OH239184   3.249   8.504   4.661
13076TIP3    H139185   3.275   8.596   4.646
13076TIP3    H239186   3.304   8.456   4.596
13077TIP3   OH239187   3.180   7.775   4.793
13077TIP3    H139188   3.183   7.872   4.789
13077TIP3    H239189   3.105   7.755   4.736
13078TIP3   OH239190   3.569   7.497   5.661
13078TIP3    H139191   3.542   7.461   5.574
13078TIP3    H239192   3.561   7.418   5.719
13079TIP3   OH239193   3.401   8.651   6.313
13079TIP3    H139194   3.425   8.556   6.317
13079TIP3    H239195   3.316   8.648   6.264
13080TIP3   OH239196   3.372   8.302   4.516
13080TIP3    H139197   3.424   8.269   4.591
13080TIP3    H239198   3.443   8.309   4.448
13081TIP3   OH239199   4.022   8.725   6.122
13081TIP3    H139200   3.991   8.740   6.031
13081TIP3    H239201   4.057   8.634   6.114
13082TIP3   OH239202   3.817   8.481   4.332
13082TIP3    H139203   3.863   8.503   4.414
13082TIP3    H239204   3.852   8.392   4.313
13083TIP3   OH239205   4.495   8.750   5.695
13083TIP3    H139206   4.564   8.804   5.651
13083TIP3    H239207   4.420   8.811   5.689
13084TIP3   OH239208   3.524   8.397   6.293
13084TIP3    H139209   3.600   8.342   6.268
13084TIP3    H239210   3.553   8.429   6.381
13085TIP3   OH239211   3.573   8.215   4.725
13085TIP3    H139212   3.553   8.169   4.807
13085TIP3    H239213   3.617   8.145   4.672
13086TIP3   OH239214   3.847   8.275   5.950
13086TIP3    H139215   3.775   8.341   5.956
13086TIP3    H239216   3.903   8.314   5.879
13087TIP3   OH239217   3.688   8.015   4.572
13087TIP3    H139218   3.664   8.016   4.477
13087TIP3    H239219   3.786   8.016   4.565
13088TIP3   OH239220   4.377   8.672   6.090
13088TIP3    H139221   4.455   8.642   6.044
13088TIP3    H239222   4.372   8.610   6.165
13089TIP3   OH239223   4.505   8.350   4.233
13089TIP3    H139224   4.481   8.298   4.153
13089TIP3    H239225   4.484   8.440   4.200
13090TIP3   OH239226   3.976   8.072   6.083
13090TIP3    H139227   3.979   7.993   6.026
13090TIP3    H239228   3.931   8.138   6.025
13091TIP3   OH239229   3.979   7.859   5.892
13091TIP3    H139230   4.009   7.899   5.808
13091TIP3    H239231   3.886   7.836   5.872
13092TIP3   OH239232   4.001   8.394   5.765
13092TIP3    H139233   4.086   8.404   5.722
13092TIP3    H239234   3.945   8.461   5.720
13093TIP3   OH239235   4.583   8.361   6.142
13093TIP3    H139236   4.629   8.280   6.167
13093TIP3    H239237   4.655   8.419   6.115
13094TIP3   OH239238   4.630   8.610   5.880
13094TIP3    H139239   4.571   8.664   5.822
13094TIP3    H239240   4.718   8.633   5.841
13095TIP3   OH239241   3.850   8.181   6.313
13095TIP3    H139242   3.785   8.111   6.332
13095TIP3    H239243   3.888   8.150   6.228
13096TIP3   OH239244   4.111   7.619   5.958
13096TIP3    H139245   4.061   7.700   5.938
13096TIP3    H239246   4.043   7.550   5.949
13097TIP3   OH239247   4.237   8.124   6.176
13097TIP3    H139248   4.229   8.105   6.271
13097TIP3    H239249   4.147   8.100   6.147
13098TIP3   OH239250   4.474   8.071   6.030
13098TIP3    H139251   4.400   8.074   6.094
13098TIP3    H239252   4.549   8.041   6.084
13099TIP3   OH239253   4.709   8.010   6.167
13099TIP3    H139254   4.724   7.917   6.191
13099TIP3    H239255   4.709   8.056   6.254
13100TIP3   OH239256   3.694   7.958   6.371
13100TIP3    H139257   3.702   7.866   6.342
13100TIP3    H239258   3.732   7.952   6.461
13101TIP3   OH239259   4.200   7.629   6.218
13101TIP3    H139260   4.265   7.556   6.219
13101TIP3    H239261   4.165   7.621   6.127
13102TIP3   OH239262   4.279   7.854   6.355
13102TIP3    H139263   4.253   7.777   6.299
13102TIP3    H239264   4.195   7.905   6.359
13103TIP3   OH239265   2.990   8.399   4.715
13103TIP3    H139266   3.061   8.450   4.673
13103TIP3    H239267   2.970   8.332   4.647
13104TIP3   OH239268   4.857   9.047   5.941
13104TIP3    H139269   4.777   9.018   5.988
13104TIP3    H239270   4.905   9.092   6.014
13105TIP3   OH239271   4.633   8.520   4.574
13105TIP3    H139272   4.703   8.579   4.539
13105TIP3    H239273   4.680   8.482   4.652
13106TIP3   OH239274   4.768   8.393   4.773
13106TIP3    H139275   4.706   8.351   4.836
13106TIP3    H239276   4.840   8.427   4.831
13107TIP3   OH239277   4.810   8.783   5.200
13107TIP3    H139278   4.874   8.725   5.153
13107TIP3    H239279   4.815   8.866   5.150
13108TIP3   OH239280   4.705   8.304   4.415
13108TIP3    H139281   4.635   8.309   4.347
13108TIP3    H239282   4.677   8.378   4.472
13109TIP3   OH239283   4.578   7.976   4.371
13109TIP3    H139284   4.532   8.013   4.296
13109TIP3    H239285   4.556   7.881   4.363
13110TIP3   OH239286   4.583   8.252   4.921
13110TIP3    H139287   4.593   8.156   4.910
13110TIP3    H239288   4.570   8.262   5.018
13111TIP3   OH239289   3.196   8.340   5.654
13111TIP3    H139290   3.218   8.297   5.570
13111TIP3    H239291   3.288   8.349   5.690
13112TIP3   OH239292   4.876   8.675   5.782
13112TIP3    H139293   4.950   8.612   5.769
13112TIP3    H239294   4.899   8.746   5.719
13113TIP3   OH239295   5.063   8.475   5.792
13113TIP3    H139296   4.987   8.427   5.831
13113TIP3    H239297   5.133   8.409   5.806
13114TIP3   OH239298   4.521   7.710   4.355
13114TIP3    H139299   4.595   7.678   4.411
13114TIP3    H239300   4.448   7.650   4.376
13115TIP3   OH239301   4.582   7.971   4.809
13115TIP3    H139302   4.622   7.882   4.824
13115TIP3    H239303   4.639   8.003   4.737
13116TIP3   OH239304   4.740   8.142   5.308
13116TIP3    H139305   4.825   8.166   5.266
13116TIP3    H239306   4.756   8.177   5.398
13117TIP3   OH239307   4.814   8.288   5.540
13117TIP3    H139308   4.735   8.322   5.587
13117TIP3    H239309   4.846   8.367   5.493
13118TIP3   OH239310   3.428   8.003   6.325
13118TIP3    H139311   3.525   8.004   6.339
13118TIP3    H239312   3.405   7.922   6.373
13119TIP3   OH239313   4.688   7.721   4.850
13119TIP3    H139314   4.737   7.704   4.933
13119TIP3    H239315   4.628   7.644   4.849
13120TIP3   OH239316   3.388   7.707   5.673
13120TIP3    H139317   3.448   7.630   5.680
13120TIP3    H239318   3.452   7.779   5.661
13121TIP3   OH239319   3.186   7.982   5.738
13121TIP3    H139320   3.238   7.975   5.655
13121TIP3    H239321   3.236   8.049   5.787
13122TIP3   OH239322   5.077   7.984   5.969
13122TIP3    H139323   5.009   8.028   5.912
13122TIP3    H239324   5.110   7.919   5.904
13123TIP3   OH239325   4.767   7.651   4.484
13123TIP3    H139326   4.806   7.581   4.428
13123TIP3    H239327   4.834   7.722   4.481
13124TIP3   OH239328   3.176   7.485   5.247
13124TIP3    H139329   3.082   7.475   5.271
13124TIP3    H239330   3.170   7.541   5.167
13125TIP3   OH239331   3.392   7.551   6.057
13125TIP3    H139332   3.355   7.574   6.144
13125TIP3    H239333   3.330   7.594   5.996
13126TIP3   OH239334   5.042   7.776   5.769
13126TIP3    H139335   4.947   7.765   5.751
13126TIP3    H239336   5.074   7.684   5.764
13127TIP3   OH239337   4.232   7.692   5.395
13127TIP3    H139338   4.193   7.621   5.449
13127TIP3    H239339   4.310   7.649   5.355
13128TIP3   OH239340   4.756   7.576   5.303
13128TIP3    H139341   4.793   7.627   5.227
13128TIP3    H239342   4.661   7.595   5.296
13129TIP3   OH239343   4.853   7.673   5.066
13129TIP3    H139344   4.927   7.621   5.028
13129TIP3    H239345   4.887   7.764   5.052
13130TIP3   OH239346   3.484   7.402   5.413
13130TIP3    H139347   3.392   7.370   5.417
13130TIP3    H239348   3.532   7.317   5.409
13131TIP3   OH239349   3.274   7.275   5.064
13131TIP3    H139350   3.304   7.330   4.990
13131TIP3    H239351   3.249   7.342   5.130
13132TIP3   OH239352   3.930   7.436   5.297
13132TIP3    H139353   3.985   7.482   5.232
13132TIP3    H239354   3.963   7.473   5.381
13133TIP3   OH239355   4.471   7.583   5.278
13133TIP3    H139356   4.476   7.542   5.191
13133TIP3    H239357   4.461   7.504   5.337
13134TIP3   OH239358   4.505   7.507   4.842
13134TIP3    H139359   4.419   7.549   4.857
13134TIP3    H239360   4.492   7.421   4.887
13135TIP3   OH239361   3.392   7.431   4.825
13135TIP3    H139362   3.439   7.368   4.767
13135TIP3    H239363   3.466   7.484   4.859
13136TIP3   OH239364   3.899   7.611   4.924
13136TIP3    H139365   3.960   7.563   4.983
13136TIP3    H239366   3.923   7.703   4.950
13137TIP3   OH239367   3.694   7.682   6.297
13137TIP3    H139368   3.654   7.619   6.360
13137TIP3    H239369   3.787   7.680   6.328
13138TIP3   OH239370   3.940   7.675   6.423
13138TIP3    H139371   4.027   7.657   6.384
13138TIP3    H239372   3.935   7.606   6.493
13139TIP3   OH239373   4.778   7.732   6.213
13139TIP3    H139374   4.771   7.720   6.310
13139TIP3    H239375   4.845   7.666   6.194
13140TIP3   OH239376   5.973   8.651   4.480
13140TIP3    H139377   5.939   8.737   4.449
13140TIP3    H239378   5.902   8.594   4.445
13141TIP3   OH239379   5.964   8.666   4.854
13141TIP3    H139380   5.995   8.632   4.940
13141TIP3    H239381   5.931   8.584   4.813
13142TIP3   OH239382   5.262   8.570   5.227
13142TIP3    H139383   5.299   8.494   5.273
13142TIP3    H239384   5.338   8.630   5.228
13143TIP3   OH239385   6.189   8.964   4.546
13143TIP3    H139386   6.185   8.890   4.610
13143TIP3    H239387   6.247   9.025   4.592
13144TIP3   OH239388   5.285   8.910   5.007
13144TIP3    H139389   5.243   8.823   5.001
13144TIP3    H239390   5.341   8.907   4.929
13145TIP3   OH239391   4.949   8.169   4.721
13145TIP3    H139392   4.907   8.255   4.740
13145TIP3    H239393   4.876   8.123   4.677
13146TIP3   OH239394   5.003   8.461   4.900
13146TIP3    H139395   5.053   8.383   4.932
13146TIP3    H239396   5.074   8.518   4.868
13147TIP3   OH239397   5.775   8.881   4.901
13147TIP3    H139398   5.822   8.804   4.866
13147TIP3    H239399   5.847   8.945   4.907
13148TIP3   OH239400   6.782   8.209   4.906
13148TIP3    H139401   6.797   8.294   4.950
13148TIP3    H239402   6.810   8.228   4.815
13149TIP3   OH239403   6.196   8.401   4.929
13149TIP3    H139404   6.244   8.318   4.946
13149TIP3    H239405   6.160   8.384   4.841
13150TIP3   OH239406   5.524   8.055   4.896
13150TIP3    H139407   5.504   8.127   4.833
13150TIP3    H239408   5.475   7.982   4.853
13151TIP3   OH239409   6.220   8.145   4.516
13151TIP3    H139410   6.291   8.130   4.583
13151TIP3    H239411   6.273   8.180   4.442
13152TIP3   OH239412   5.153   8.255   5.004
13152TIP3    H139413   5.238   8.244   5.050
13152TIP3    H239414   5.169   8.200   4.925
13153TIP3   OH239415   5.600   8.454   4.767
13153TIP3    H139416   5.690   8.425   4.788
13153TIP3    H239417   5.557   8.370   4.740
13154TIP3   OH239418   5.516   8.034   5.330
13154TIP3    H139419   5.461   8.077   5.262
13154TIP3    H239420   5.462   8.051   5.410
13155TIP3   OH239421   5.858   8.853   4.333
13155TIP3    H139422   5.809   8.853   4.250
13155TIP3    H239423   5.880   8.946   4.346
13156TIP3   OH239424   5.575   8.801   5.080
13156TIP3    H139425   5.536   8.876   5.128
13156TIP3    H239426   5.635   8.845   5.017
13157TIP3   OH239427   6.423   8.151   4.696
13157TIP3    H139428   6.403   8.113   4.783
13157TIP3    H239429   6.474   8.230   4.720
13158TIP3   OH239430   5.394   8.162   5.114
13158TIP3    H139431   5.455   8.235   5.135
13158TIP3    H239432   5.443   8.120   5.040
13159TIP3   OH239433   5.442   9.036   5.223
13159TIP3    H139434   5.404   9.049   5.135
13159TIP3    H239435   5.361   9.022   5.275
13160TIP3   OH239436   4.842   8.663   4.467
13160TIP3    H139437   4.810   8.677   4.375
13160TIP3    H239438   4.860   8.755   4.491
13161TIP3   OH239439   6.560   8.098   5.054
13161TIP3    H139440   6.479   8.129   5.011
13161TIP3    H239441   6.631   8.137   5.000
13162TIP3   OH239442   5.871   7.755   5.048
13162TIP3    H139443   5.852   7.660   5.064
13162TIP3    H239444   5.795   7.796   5.094
13163TIP3   OH239445   6.220   8.983   4.261
13163TIP3    H139446   6.195   8.903   4.212
13163TIP3    H239447   6.233   8.951   4.352
13164TIP3   OH239448   5.806   8.513   4.307
13164TIP3    H139449   5.726   8.565   4.289
13164TIP3    H239450   5.850   8.513   4.220
13165TIP3   OH239451   5.762   8.305   4.015
13165TIP3    H139452   5.828   8.359   4.063
13165TIP3    H239453   5.821   8.243   3.968
13166TIP3   OH239454   6.152   8.594   4.278
13166TIP3    H139455   6.098   8.614   4.358
13166TIP3    H239456   6.237   8.570   4.320
13167TIP3   OH239457   5.386   8.608   4.663
13167TIP3    H139458   5.338   8.550   4.601
13167TIP3    H239459   5.460   8.550   4.692
13168TIP3   OH239460   5.569   9.024   4.763
13168TIP3    H139461   5.493   8.966   4.771
13168TIP3    H239462   5.636   8.984   4.821
13169TIP3   OH239463   5.479   8.557   4.999
13169TIP3    H139464   5.531   8.524   4.924
13169TIP3    H239465   5.527   8.637   5.026
13170TIP3   OH239466   5.530   9.064   5.501
13170TIP3    H139467   5.617   9.106   5.500
13170TIP3    H239468   5.525   9.036   5.408
13171TIP3   OH239469   5.987   8.460   4.100
13171TIP3    H139470   6.047   8.520   4.149
13171TIP3    H239471   6.017   8.475   4.007
13172TIP3   OH239472   5.408   8.665   5.466
13172TIP3    H139473   5.414   8.746   5.521
13172TIP3    H239474   5.312   8.648   5.476
13173TIP3   OH239475   6.507   7.700   4.148
13173TIP3    H139476   6.425   7.724   4.196
13173TIP3    H239477   6.523   7.782   4.097
13174TIP3   OH239478   5.247   8.437   4.484
13174TIP3    H139479   5.178   8.477   4.427
13174TIP3    H239480   5.209   8.352   4.505
13175TIP3   OH239481   5.044   8.826   5.402
13175TIP3    H139482   4.976   8.806   5.336
13175TIP3    H239483   5.078   8.738   5.427
13176TIP3   OH239484   5.233   9.022   5.406
13176TIP3    H139485   5.283   8.973   5.474
13176TIP3    H239486   5.156   8.962   5.395
13177TIP3   OH239487   5.635   7.831   5.177
13177TIP3    H139488   5.547   7.802   5.146
13177TIP3    H239489   5.608   7.911   5.227
13178TIP3   OH239490   6.165   7.946   5.373
13178TIP3    H139491   6.224   7.919   5.446
13178TIP3    H239492   6.076   7.930   5.411
13179TIP3   OH239493   6.069   8.486   3.845
13179TIP3    H139494   6.035   8.468   3.755
13179TIP3    H239495   6.129   8.561   3.826
13180TIP3   OH239496   5.778   7.880   4.147
13180TIP3    H139497   5.743   7.876   4.238
13180TIP3    H239498   5.738   7.799   4.111
13181TIP3   OH239499   5.581   8.332   5.249
13181TIP3    H139500   5.499   8.329   5.302
13181TIP3    H239501   5.619   8.412   5.290
13182TIP3   OH239502   5.449   8.232   4.705
13182TIP3    H139503   5.356   8.209   4.726
13182TIP3    H239504   5.458   8.189   4.617
13183TIP3   OH239505   5.943   8.315   4.437
13183TIP3    H139506   5.890   8.385   4.392
13183TIP3    H239507   5.998   8.282   4.363
13184TIP3   OH239508   6.102   8.347   4.673
13184TIP3    H139509   6.037   8.375   4.606
13184TIP3    H239510   6.137   8.268   4.627
13185TIP3   OH239511   5.367   8.369   5.413
13185TIP3    H139512   5.397   8.441   5.470
13185TIP3    H239513   5.358   8.294   5.475
13186TIP3   OH239514   5.435   7.856   4.112
13186TIP3    H139515   5.425   7.855   4.209
13186TIP3    H239516   5.358   7.910   4.085
13187TIP3   OH239517   4.979   7.896   4.986
13187TIP3    H139518   5.054   7.932   5.038
13187TIP3    H239519   5.020   7.871   4.902
13188TIP3   OH239520   4.943   7.879   4.502
13188TIP3    H139521   4.990   7.915   4.423
13188TIP3    H239522   4.884   7.953   4.521
13189TIP3   OH239523   6.077   8.583   5.093
13189TIP3    H139524   6.133   8.523   5.040
13189TIP3    H239525   6.054   8.524   5.168
13190TIP3   OH239526   5.782   8.057   4.768
13190TIP3    H139527   5.701   8.059   4.823
13190TIP3    H239528   5.852   8.048   4.836
13191TIP3   OH239529   5.210   8.113   4.776
13191TIP3    H139530   5.116   8.121   4.748
13191TIP3    H239531   5.232   8.021   4.753
13192TIP3   OH239532   5.476   8.106   4.465
13192TIP3    H139533   5.570   8.123   4.444
13192TIP3    H239534   5.429   8.129   4.381
13193TIP3   OH239535   6.271   8.133   4.963
13193TIP3    H139536   6.245   8.148   5.057
13193TIP3    H239537   6.199   8.075   4.934
13194TIP3   OH239538   5.326   8.142   4.242
13194TIP3    H139539   5.256   8.098   4.191
13194TIP3    H239540   5.379   8.181   4.168
13195TIP3   OH239541   5.379   8.887   5.618
13195TIP3    H139542   5.443   8.957   5.591
13195TIP3    H239543   5.341   8.920   5.701
13196TIP3   OH239544   5.871   8.377   4.881
13196TIP3    H139545   5.941   8.329   4.837
13196TIP3    H239546   5.871   8.339   4.970
13197TIP3   OH239547   5.380   7.872   4.748
13197TIP3    H139548   5.344   7.795   4.796
13197TIP3    H239549   5.423   7.830   4.672
13198TIP3   OH239550   5.837   8.275   5.147
13198TIP3    H139551   5.747   8.306   5.168
13198TIP3    H239552   5.894   8.330   5.204
13199TIP3   OH239553   5.577   8.657   4.256
13199TIP3    H139554   5.498   8.599   4.245
13199TIP3    H239555   5.554   8.706   4.338
13200TIP3   OH239556   6.031   7.980   4.120
13200TIP3    H139557   5.934   7.963   4.125
13200TIP3    H239558   6.038   8.076   4.141
13201TIP3   OH239559   6.099   8.233   4.219
13201TIP3    H139560   6.196   8.239   4.234
13201TIP3    H239561   6.080   8.314   4.167
13202TIP3   OH239562   5.235   8.642   4.906
13202TIP3    H139563   5.285   8.646   4.822
13202TIP3    H239564   5.303   8.603   4.964
13203TIP3   OH239565   5.683   8.845   4.090
13203TIP3    H139566   5.641   8.915   4.145
13203TIP3    H239567   5.648   8.766   4.137
13204TIP3   OH239568   5.147   8.606   5.543
13204TIP3    H139569   5.159   8.588   5.638
13204TIP3    H239570   5.078   8.543   5.518
13205TIP3   OH239571   6.536   8.328   4.052
13205TIP3    H139572   6.477   8.282   3.987
13205TIP3    H239573   6.531   8.417   4.013
13206TIP3   OH239574   6.203   8.783   4.773
13206TIP3    H139575   6.120   8.733   4.789
13206TIP3    H239576   6.265   8.710   4.754
13207TIP3   OH239577   4.933   8.300   4.257
13207TIP3    H139578   4.976   8.387   4.274
13207TIP3    H239579   4.855   8.307   4.317
13208TIP3   OH239580   5.509   8.790   4.486
13208TIP3    H139581   5.492   8.875   4.529
13208TIP3    H239582   5.478   8.728   4.554
13209TIP3   OH239583   6.050   8.961   4.976
13209TIP3    H139584   6.023   8.898   5.044
13209TIP3    H239585   6.105   8.907   4.918
13210TIP3   OH239586   6.033   8.802   3.833
13210TIP3    H139587   6.064   8.792   3.925
13210TIP3    H239588   5.954   8.859   3.845
13211TIP3   OH239589   5.353   8.118   5.545
13211TIP3    H139590   5.256   8.114   5.557
13211TIP3    H239591   5.384   8.065   5.620
13212TIP3   OH239592   6.157   8.779   4.080
13212TIP3    H139593   6.153   8.708   4.148
13212TIP3    H239594   6.253   8.780   4.060
13213TIP3   OH239595   5.348   8.799   3.911
13213TIP3    H139596   5.388   8.713   3.887
13213TIP3    H239597   5.382   8.813   3.999
13214TIP3   OH239598   5.047   8.543   4.330
13214TIP3    H139599   4.980   8.580   4.392
13214TIP3    H239600   5.052   8.617   4.265
13215TIP3   OH239601   6.208   8.179   5.226
13215TIP3    H139602   6.248   8.239   5.290
13215TIP3    H239603   6.184   8.102   5.281
13216TIP3   OH239604   6.078   7.930   4.399
13216TIP3    H139605   6.063   7.953   4.305
13216TIP3    H239606   6.117   8.014   4.433
13217TIP3   OH239607   5.760   8.117   4.498
13217TIP3    H139608   5.825   8.189   4.480
13217TIP3    H239609   5.767   8.109   4.596
13218TIP3   OH239610   6.004   8.422   5.307
13218TIP3    H139611   5.988   8.441   5.401
13218TIP3    H239612   6.094   8.387   5.315
13219TIP3   OH239613   5.906   7.837   4.597
13219TIP3    H139614   5.900   7.915   4.654
13219TIP3    H239615   5.968   7.870   4.528
13220TIP3   OH239616   5.419   7.843   4.388
13220TIP3    H139617   5.417   7.933   4.425
13220TIP3    H239618   5.515   7.825   4.396
13221TIP3   OH239619   6.324   8.530   4.673
13221TIP3    H139620   6.248   8.471   4.686
13221TIP3    H239621   6.394   8.484   4.724
13222TIP3   OH239622   5.042   8.759   4.148
13222TIP3    H139623   5.067   8.852   4.135
13222TIP3    H239624   5.098   8.713   4.082
13223TIP3   OH239625   4.978   8.031   4.278
13223TIP3    H139626   4.982   8.129   4.277
13223TIP3    H239627   4.899   8.014   4.226
13224TIP3   OH239628   5.369   7.755   5.145
13224TIP3    H139629   5.338   7.720   5.059
13224TIP3    H239630   5.358   7.678   5.204
13225TIP3   OH239631   5.185   8.886   5.816
13225TIP3    H139632   5.220   8.799   5.788
13225TIP3    H239633   5.104   8.893   5.761
13226TIP3   OH239634   5.168   8.560   4.002
13226TIP3    H139635   5.219   8.527   4.078
13226TIP3    H239636   5.240   8.564   3.935
13227TIP3   OH239637   5.621   8.740   3.815
13227TIP3    H139638   5.656   8.758   3.903
13227TIP3    H239639   5.653   8.650   3.798
13228TIP3   OH239640   5.317   8.646   5.796
13228TIP3    H139641   5.392   8.594   5.765
13228TIP3    H239642   5.313   8.616   5.888
13229TIP3   OH239643   5.371   8.473   4.214
13229TIP3    H139644   5.344   8.431   4.297
13229TIP3    H239645   5.413   8.400   4.165
13230TIP3   OH239646   5.645   8.530   5.424
13230TIP3    H139647   5.570   8.593   5.434
13230TIP3    H239648   5.708   8.585   5.371
13231TIP3   OH239649   5.484   8.270   4.059
13231TIP3    H139650   5.459   8.273   3.964
13231TIP3    H239651   5.581   8.273   4.052
13232TIP3   OH239652   6.302   8.608   3.718
13232TIP3    H139653   6.279   8.556   3.639
13232TIP3    H239654   6.280   8.698   3.685
13233TIP3   OH239655   5.748   8.323   5.571
13233TIP3    H139656   5.763   8.247   5.511
13233TIP3    H239657   5.716   8.392   5.509
13234TIP3   OH239658   5.776   8.110   5.377
13234TIP3    H139659   5.805   8.151   5.294
13234TIP3    H239660   5.682   8.091   5.359
13235TIP3   OH239661   5.795   8.657   5.242
13235TIP3    H139662   5.875   8.637   5.192
13235TIP3    H239663   5.755   8.731   5.194
13236TIP3   OH239664   5.641   8.434   5.799
13236TIP3    H139665   5.569   8.370   5.815
13236TIP3    H239666   5.674   8.402   5.712
13237TIP3   OH239667   5.906   7.870   5.438
13237TIP3    H139668   5.855   7.953   5.419
13237TIP3    H239669   5.835   7.803   5.432
13238TIP3   OH239670   6.026   8.376   5.590
13238TIP3    H139671   6.066   8.400   5.675
13238TIP3    H239672   5.935   8.354   5.613
13239TIP3   OH239673   5.486   8.206   5.847
13239TIP3    H139674   5.492   8.112   5.818
13239TIP3    H239675   5.519   8.199   5.938
13240TIP3   OH239676   6.005   7.891   5.693
13240TIP3    H139677   6.062   7.813   5.698
13240TIP3    H239678   5.964   7.879   5.605
13241TIP3   OH239679   6.031   8.082   5.887
13241TIP3    H139680   6.025   8.014   5.816
13241TIP3    H239681   5.966   8.149   5.859
13242TIP3   OH239682   4.779   8.662   4.192
13242TIP3    H139683   4.857   8.708   4.156
13242TIP3    H239684   4.766   8.590   4.128
13243TIP3   OH239685   6.428   8.776   4.061
13243TIP3    H139686   6.497   8.838   4.028
13243TIP3    H239687   6.475   8.737   4.138
13244TIP3   OH239688   6.562   8.649   4.258
13244TIP3    H139689   6.501   8.608   4.323
13244TIP3    H239690   6.635   8.683   4.313
13245TIP3   OH239691   6.497   8.559   3.903
13245TIP3    H139692   6.427   8.567   3.835
13245TIP3    H239693   6.472   8.635   3.960
13246TIP3   OH239694   6.378   8.233   3.854
13246TIP3    H139695   6.326   8.270   3.783
13246TIP3    H239696   6.353   8.138   3.848
13247TIP3   OH239697   6.378   8.508   4.407
13247TIP3    H139698   6.388   8.412   4.398
13247TIP3    H239699   6.365   8.520   4.504
13248TIP3   OH239700   5.002   8.587   5.152
13248TIP3    H139701   5.001   8.551   5.061
13248TIP3    H239702   5.100   8.587   5.169
13249TIP3   OH239703   6.317   7.968   3.843
13249TIP3    H139704   6.391   7.935   3.898
13249TIP3    H239705   6.244   7.907   3.862
13250TIP3   OH239706   6.378   8.227   4.296
13250TIP3    H139707   6.418   8.139   4.311
13250TIP3    H239708   6.435   8.260   4.225
13251TIP3   OH239709   6.537   8.398   4.794
13251TIP3    H139710   6.621   8.426   4.751
13251TIP3    H239711   6.554   8.438   4.881
13252TIP3   OH239712   5.210   8.244   5.820
13252TIP3    H139713   5.307   8.260   5.828
13252TIP3    H239714   5.199   8.176   5.888
13253TIP3   OH239715   6.485   7.978   4.336
13253TIP3    H139716   6.534   7.962   4.420
13253TIP3    H239717   6.425   7.901   4.336
13254TIP3   OH239718   5.187   7.966   5.158
13254TIP3    H139719   5.249   7.890   5.164
13254TIP3    H239720   5.249   8.040   5.149
13255TIP3   OH239721   4.984   8.235   5.228
13255TIP3    H139722   5.035   8.230   5.145
13255TIP3    H239723   5.018   8.317   5.266
13256TIP3   OH239724   6.563   7.907   3.971
13256TIP3    H139725   6.603   7.838   3.915
13256TIP3    H239726   6.630   7.978   3.968
13257TIP3   OH239727   4.972   7.738   4.730
13257TIP3    H139728   4.879   7.732   4.758
13257TIP3    H239729   4.966   7.797   4.652
13258TIP3   OH239730   5.194   7.819   5.539
13258TIP3    H139731   5.144   7.814   5.623
13258TIP3    H239732   5.127   7.856   5.480
13259TIP3   OH239733   6.816   8.017   5.238
13259TIP3    H139734   6.721   8.008   5.236
13259TIP3    H239735   6.847   7.925   5.233
13260TIP3   OH239736   6.029   7.951   4.885
13260TIP3    H139737   5.989   7.879   4.937
13260TIP3    H239738   6.105   7.907   4.843
13261TIP3   OH239739   6.552   7.825   4.787
13261TIP3    H139740   6.591   7.880   4.715
13261TIP3    H239741   6.459   7.854   4.786
13262TIP3   OH239742   6.650   7.929   4.553
13262TIP3    H139743   6.724   7.879   4.514
13262TIP3    H239744   6.683   8.021   4.540
13263TIP3   OH239745   5.280   7.659   4.899
13263TIP3    H139746   5.187   7.628   4.903
13263TIP3    H239747   5.327   7.573   4.895
13264TIP3   OH239748   5.071   7.532   4.551
13264TIP3    H139749   5.100   7.588   4.477
13264TIP3    H239750   5.044   7.598   4.617
13265TIP3   OH239751   5.730   7.688   4.783
13265TIP3    H139752   5.783   7.738   4.718
13265TIP3    H239753   5.752   7.733   4.865
13266TIP3   OH239754   6.264   7.841   4.767
13266TIP3    H139755   6.268   7.806   4.678
13266TIP3    H239756   6.253   7.760   4.821
13267TIP3   OH239757   6.302   7.765   4.329
13267TIP3    H139758   6.216   7.809   4.344
13267TIP3    H239759   6.286   7.679   4.372
13268TIP3   OH239760   5.187   7.687   4.312
13268TIP3    H139761   5.235   7.625   4.254
13268TIP3    H239762   5.261   7.741   4.347
13269TIP3   OH239763   5.696   7.867   4.411
13269TIP3    H139764   5.757   7.820   4.471
13269TIP3    H239765   5.717   7.960   4.436
13270TIP3   OH239766   5.491   7.929   5.802
13270TIP3    H139767   5.454   7.854   5.852
13270TIP3    H239768   5.584   7.924   5.832
13271TIP3   OH239769   5.745   7.922   5.934
13271TIP3    H139770   5.829   7.931   5.887
13271TIP3    H239771   5.762   7.838   5.979
13272TIP3   OH239772   6.740   8.426   4.207
13272TIP3    H139773   6.700   8.511   4.229
13272TIP3    H239774   6.666   8.381   4.162
13273TIP3   OH239775   6.801   8.707   4.372
13273TIP3    H139776   6.851   8.643   4.427
13273TIP3    H239777   6.872   8.755   4.328
13274TIP3   OH239778   7.290   8.312   4.402
13274TIP3    H139779   7.289   8.384   4.337
13274TIP3    H239780   7.252   8.239   4.349
13275TIP3   OH239781   6.958   8.513   4.498
13275TIP3    H139782   7.052   8.521   4.514
13275TIP3    H239783   6.958   8.451   4.421
13276TIP3   OH239784   6.640   8.922   3.969
13276TIP3    H139785   6.619   8.948   3.877
13276TIP3    H239786   6.683   9.003   4.000
13277TIP3   OH239787   7.021   8.679   3.918
13277TIP3    H139788   7.027   8.766   3.955
13277TIP3    H239789   6.984   8.627   3.989
13278TIP3   OH239790   7.228   8.467   4.176
13278TIP3    H139791   7.143   8.441   4.215
13278TIP3    H239792   7.199   8.524   4.103
13279TIP3   OH239793   7.211   8.078   3.595
13279TIP3    H139794   7.206   8.081   3.692
13279TIP3    H239795   7.137   8.135   3.569
13280TIP3   OH239796   6.776   8.152   4.472
13280TIP3    H139797   6.850   8.188   4.524
13280TIP3    H239798   6.817   8.127   4.388
13281TIP3   OH239799   6.740   8.136   3.987
13281TIP3    H139800   6.788   8.169   3.908
13281TIP3    H239801   6.682   8.212   4.005
13282TIP3   OH239802   6.995   8.363   4.272
13282TIP3    H139803   6.902   8.372   4.240
13282TIP3    H239804   7.020   8.273   4.245
13283TIP3   OH239805   7.074   8.377   3.767
13283TIP3    H139806   7.006   8.337   3.709
13283TIP3    H239807   7.074   8.468   3.740
13284TIP3   OH239808   7.175   8.128   4.228
13284TIP3    H139809   7.138   8.053   4.280
13284TIP3    H239810   7.232   8.082   4.166
13285TIP3   OH239811   6.721   8.551   3.747
13285TIP3    H139812   6.760   8.637   3.765
13285TIP3    H239813   6.641   8.554   3.804
13286TIP3   OH239814   7.186   8.095   3.871
13286TIP3    H139815   7.170   8.188   3.893
13286TIP3    H239816   7.279   8.084   3.901
13287TIP3   OH239817   6.766   8.282   3.754
13287TIP3    H139818   6.766   8.380   3.761
13287TIP3    H239819   6.678   8.264   3.719
13288TIP3   OH239820   7.139   8.011   4.642
13288TIP3    H139821   7.137   7.978   4.551
13288TIP3    H239822   7.152   7.931   4.695
13289TIP3   OH239823   6.559   8.923   3.662
13289TIP3    H139824   6.633   8.971   3.623
13289TIP3    H239825   6.551   8.846   3.601
13290TIP3   OH239826   6.977   8.227   4.647
13290TIP3    H139827   7.032   8.146   4.648
13290TIP3    H239828   7.046   8.294   4.650
13291TIP3   OH239829   6.785   8.502   4.721
13291TIP3    H139830   6.837   8.479   4.641
13291TIP3    H239831   6.815   8.593   4.735
13292TIP3   OH239832   6.767   7.993   4.215
13292TIP3    H139833   6.675   7.990   4.244
13292TIP3    H239834   6.763   8.053   4.138
13293TIP3   OH239835   6.995   8.064   5.040
13293TIP3    H139836   6.932   8.069   5.115
13293TIP3    H239837   6.942   8.108   4.972
13294TIP3   OH239838   7.079   7.918   4.381
13294TIP3    H139839   6.987   7.888   4.388
13294TIP3    H239840   7.126   7.832   4.378
13295TIP3   OH239841   6.868   7.787   4.038
13295TIP3    H139842   6.896   7.841   3.963
13295TIP3    H239843   6.841   7.854   4.103
13296TIP3   OH239844   7.512   7.939   4.296
13296TIP3    H139845   7.583   7.988   4.252
13296TIP3    H239846   7.492   7.993   4.372
13297TIP3   OH239847   6.973   7.934   3.796
13297TIP3    H139848   7.023   7.874   3.737
13297TIP3    H239849   7.046   7.990   3.831
13298TIP3   OH239850   7.458   8.105   3.926
13298TIP3    H139851   7.493   8.030   3.877
13298TIP3    H239852   7.499   8.177   3.875
13299TIP3   OH239853   4.609   1.747   7.955
13299TIP3    H139854   4.622   1.841   7.929
13299TIP3    H239855   4.699   1.711   7.937
13300TIP3   OH239856   4.165   1.977   8.032
13300TIP3    H139857   4.211   1.894   8.013
13300TIP3    H239858   4.128   1.962   8.121
13301TIP3   OH239859   4.365   1.238   8.093
13301TIP3    H139860   4.329   1.202   8.010
13301TIP3    H239861   4.460   1.245   8.069
13302TIP3   OH239862   4.526   1.809   8.210
13302TIP3    H139863   4.521   1.717   8.240
13302TIP3    H239864   4.566   1.797   8.122
13303TIP3   OH239865   4.642   2.016   7.934
13303TIP3    H139866   4.684   2.086   7.880
13303TIP3    H239867   4.561   2.065   7.960
13304TIP3   OH239868   3.808   1.715   7.999
13304TIP3    H139869   3.823   1.632   8.048
13304TIP3    H239870   3.890   1.718   7.947
13305TIP3   OH239871   4.286   1.742   7.933
13305TIP3    H139872   4.371   1.748   7.977
13305TIP3    H239873   4.313   1.752   7.839
13306TIP3   OH239874   4.607   1.276   7.968
13306TIP3    H139875   4.589   1.218   7.891
13306TIP3    H239876   4.575   1.362   7.933
13307TIP3   OH239877   4.825   1.315   8.133
13307TIP3    H139878   4.743   1.289   8.086
13307TIP3    H239879   4.812   1.280   8.221
13308TIP3   OH239880   4.566   2.091   8.255
13308TIP3    H139881   4.565   1.994   8.242
13308TIP3    H239882   4.529   2.122   8.170
13309TIP3   OH239883   6.046   1.613   8.226
13309TIP3    H139884   6.023   1.701   8.190
13309TIP3    H239885   5.987   1.558   8.171
13310TIP3   OH239886   6.271   1.873   8.268
13310TIP3    H139887   6.199   1.840   8.323
13310TIP3    H239888   6.290   1.961   8.309
13311TIP3   OH239889   5.952   2.355   8.269
13311TIP3    H139890   6.011   2.283   8.239
13311TIP3    H239891   5.955   2.347   8.366
13312TIP3   OH239892   5.964   1.824   8.073
13312TIP3    H139893   5.920   1.805   7.989
13312TIP3    H239894   5.919   1.907   8.099
13313TIP3   OH239895   4.939   1.633   8.178
13313TIP3    H139896   4.890   1.630   8.094
13313TIP3    H239897   4.959   1.729   8.187
13314TIP3   OH239898   6.346   2.114   8.373
13314TIP3    H139899   6.270   2.128   8.433
13314TIP3    H239900   6.370   2.207   8.352
13315TIP3   OH239901   6.099   2.183   8.118
13315TIP3    H139902   6.147   2.103   8.087
13315TIP3    H239903   6.156   2.252   8.077
13316TIP3   OH239904   6.231   1.969   8.012
13316TIP3    H139905   6.184   1.901   7.962
13316TIP3    H239906   6.245   1.924   8.098
13317TIP3   OH239907   5.905   1.482   8.032
13317TIP3    H139908   5.818   1.525   8.013
13317TIP3    H239909   5.941   1.471   7.942
13318TIP3   OH239910   5.860   1.236   7.757
13318TIP3    H139911   5.930   1.289   7.800
13318TIP3    H239912   5.914   1.175   7.704
13319TIP3   OH239913   6.232   1.556   8.019
13319TIP3    H139914   6.169   1.591   8.085
13319TIP3    H239915   6.288   1.504   8.081
13320TIP3   OH239916   6.135   2.151   8.544
13320TIP3    H139917   6.200   2.210   8.589
13320TIP3    H239918   6.133   2.073   8.601
13321TIP3   OH239919   6.087   1.402   7.834
13321TIP3    H139920   6.144   1.466   7.882
13321TIP3    H239921   6.114   1.420   7.741
13322TIP3   OH239922   5.837   2.067   8.111
13322TIP3    H139923   5.911   2.124   8.138
13322TIP3    H239924   5.777   2.130   8.069
13323TIP3   OH239925   5.363   1.344   8.186
13323TIP3    H139926   5.285   1.394   8.154
13323TIP3    H239927   5.332   1.308   8.270
13324TIP3   OH239928   6.407   1.998   7.442
13324TIP3    H139929   6.415   2.094   7.424
13324TIP3    H239930   6.499   1.968   7.426
13325TIP3   OH239931   5.718   2.314   7.919
13325TIP3    H139932   5.670   2.299   7.835
13325TIP3    H239933   5.684   2.402   7.946
13326TIP3   OH239934   5.138   2.153   8.274
13326TIP3    H139935   5.144   2.099   8.354
13326TIP3    H239936   5.054   2.121   8.238
13327TIP3   OH239937   5.917   2.219   7.558
13327TIP3    H139938   5.976   2.149   7.522
13327TIP3    H239939   5.951   2.228   7.649
13328TIP3   OH239940   5.968   2.266   7.828
13328TIP3    H139941   5.879   2.277   7.867
13328TIP3    H239942   6.016   2.227   7.903
13329TIP3   OH239943   6.163   1.443   7.582
13329TIP3    H139944   6.128   1.411   7.497
13329TIP3    H239945   6.250   1.477   7.553
13330TIP3   OH239946   6.000   1.254   8.149
13330TIP3    H139947   5.965   1.338   8.114
13330TIP3    H239948   6.063   1.227   8.080
13331TIP3   OH239949   5.555   1.036   8.208
13331TIP3    H139950   5.645   1.029   8.172
13331TIP3    H239951   5.501   1.049   8.129
13332TIP3   OH239952   5.408   1.052   7.974
13332TIP3    H139953   5.344   1.035   7.902
13332TIP3    H239954   5.474   1.102   7.922
13333TIP3   OH239955   5.662   1.602   7.975
13333TIP3    H139956   5.593   1.534   7.960
13333TIP3    H239957   5.634   1.638   8.062
13334TIP3   OH239958   6.111   0.957   7.790
13334TIP3    H139959   6.048   0.904   7.843
13334TIP3    H239960   6.127   1.032   7.852
13335TIP3   OH239961   6.169   1.169   7.952
13335TIP3    H139962   6.262   1.178   7.979
13335TIP3    H239963   6.155   1.252   7.901
13336TIP3   OH239964   5.821   1.755   7.817
13336TIP3    H139965   5.772   1.840   7.818
13336TIP3    H239966   5.761   1.699   7.871
13337TIP3   OH239967   6.353   2.070   7.708
13337TIP3    H139968   6.308   2.004   7.762
13337TIP3    H239969   6.359   2.028   7.621
13338TIP3   OH239970   5.440   1.939   8.264
13338TIP3    H139971   5.494   2.013   8.233
13338TIP3    H239972   5.353   1.970   8.238
13339TIP3   OH239973   5.034   1.240   7.977
13339TIP3    H139974   5.094   1.312   8.005
13339TIP3    H239975   4.959   1.260   8.037
13340TIP3   OH239976   5.592   1.712   8.208
13340TIP3    H139977   5.547   1.794   8.236
13340TIP3    H239978   5.640   1.687   8.291
13341TIP3   OH239979   5.380   2.186   8.130
13341TIP3    H139980   5.292   2.194   8.172
13341TIP3    H239981   5.414   2.278   8.139
13342TIP3   OH239982   6.095   1.806   7.598
13342TIP3    H139983   6.145   1.780   7.678
13342TIP3    H239984   6.006   1.774   7.622
13343TIP3   OH239985   6.437   2.272   7.422
13343TIP3    H139986   6.466   2.343   7.362
13343TIP3    H239987   6.358   2.316   7.460
13344TIP3   OH239988   6.244   1.743   7.817
13344TIP3    H139989   6.236   1.678   7.890
13344TIP3    H239990   6.340   1.739   7.801
13345TIP3   OH239991   5.464   1.780   7.607
13345TIP3    H139992   5.476   1.687   7.580
13345TIP3    H239993   5.442   1.770   7.701
13346TIP3   OH239994   5.404   1.786   7.879
13346TIP3    H139995   5.476   1.756   7.935
13346TIP3    H239996   5.411   1.883   7.886
13347TIP3   OH239997   5.146   1.481   8.084
13347TIP3    H139998   5.069   1.519   8.132
13347TIP3    H239999   5.158   1.550   8.016
13348TIP3   OH240000   5.676   1.982   7.823
13348TIP3    H140001   5.589   2.005   7.860
13348TIP3    H240002   5.690   2.056   7.763
13349TIP3   OH240003   5.836   1.030   8.160
13349TIP3    H140004   5.888   1.112   8.148
13349TIP3    H240005   5.850   1.015   8.254
13350TIP3   OH240006   5.422   2.058   7.893
13350TIP3    H140007   5.392   2.126   7.828
13350TIP3    H240008   5.407   2.105   7.978
13351TIP3   OH240009   5.134   1.684   7.881
13351TIP3    H140010   5.206   1.749   7.892
13351TIP3    H240011   5.178   1.624   7.817
13352TIP3   OH240012   5.052   0.942   7.945
13352TIP3    H140013   5.059   1.036   7.972
13352TIP3    H240014   5.026   0.901   8.029
13353TIP3   OH240015   6.422   2.378   8.322
13353TIP3    H140016   6.357   2.432   8.272
13353TIP3    H240017   6.491   2.445   8.335
13354TIP3   OH240018   4.998   1.885   8.249
13354TIP3    H140019   4.969   1.931   8.330
13354TIP3    H240020   4.959   1.941   8.178
13355TIP3   OH240021   5.627   1.983   7.514
13355TIP3    H140022   5.572   1.910   7.552
13355TIP3    H240023   5.702   1.931   7.479
13356TIP3   OH240024   6.063   2.025   7.429
13356TIP3    H140025   6.099   1.954   7.487
13356TIP3    H240026   6.118   2.017   7.349
13357TIP3   OH240027   5.273   1.498   7.741
13357TIP3    H140028   5.330   1.466   7.814
13357TIP3    H240029   5.340   1.504   7.669
13358TIP3   OH240030   5.791   1.702   7.548
13358TIP3    H140031   5.789   1.712   7.645
13358TIP3    H240032   5.791   1.604   7.540
13359TIP3   OH240033   5.472   1.410   7.944
13359TIP3    H140034   5.444   1.381   8.034
13359TIP3    H240035   5.510   1.328   7.908
13360TIP3   OH240036   5.580   1.195   7.807
13360TIP3    H140037   5.554   1.202   7.713
13360TIP3    H240038   5.677   1.197   7.799
13361TIP3   OH240039   6.393   1.524   7.458
13361TIP3    H140040   6.373   1.482   7.372
13361TIP3    H240041   6.360   1.615   7.439
13362TIP3   OH240042   5.390   2.260   7.706
13362TIP3    H140043   5.486   2.252   7.686
13362TIP3    H240044   5.362   2.312   7.629
13363TIP3   OH240045   4.862   1.646   7.907
13363TIP3    H140046   4.958   1.667   7.898
13363TIP3    H240047   4.859   1.556   7.868
13364TIP3   OH240048   4.798   2.240   8.320
13364TIP3    H140049   4.717   2.202   8.282
13364TIP3    H240050   4.822   2.171   8.383
13365TIP3   OH240051   6.642   2.556   8.305
13365TIP3    H140052   6.649   2.621   8.378
13365TIP3    H240053   6.626   2.617   8.233
13366TIP3   OH240054   6.511   1.721   7.791
13366TIP3    H140055   6.571   1.789   7.752
13366TIP3    H240056   6.573   1.650   7.814
13367TIP3   OH240057   6.587   1.511   7.639
13367TIP3    H140058   6.526   1.480   7.569
13367TIP3    H240059   6.536   1.588   7.666
13368TIP3   OH240060   6.400   1.161   7.599
13368TIP3    H140061   6.444   1.226   7.544
13368TIP3    H240062   6.428   1.077   7.560
13369TIP3   OH240063   6.233   2.371   7.979
13369TIP3    H140064   6.285   2.365   7.896
13369TIP3    H240065   6.278   2.443   8.027
13370TIP3   OH240066   5.883   2.491   8.515
13370TIP3    H140067   5.794   2.480   8.478
13370TIP3    H240068   5.871   2.473   8.608
13371TIP3   OH240069   6.109   2.451   8.664
13371TIP3    H140070   6.063   2.471   8.580
13371TIP3    H240071   6.196   2.485   8.639
13372TIP3   OH240072   6.266   2.612   8.504
13372TIP3    H140073   6.283   2.708   8.498
13372TIP3    H240074   6.354   2.576   8.508
13373TIP3   OH240075   4.884   2.050   8.071
13373TIP3    H140076   4.802   2.013   8.034
13373TIP3    H240077   4.876   2.141   8.037
13374TIP3   OH240078   5.657   2.217   7.653
13374TIP3    H140079   5.745   2.240   7.616
13374TIP3    H240080   5.635   2.143   7.592
13375TIP3   OH240081   6.380   2.339   7.747
13375TIP3    H140082   6.373   2.241   7.738
13375TIP3    H240083   6.330   2.368   7.667
13376TIP3   OH240084   4.959   2.052   7.707
13376TIP3    H140085   4.967   2.082   7.799
13376TIP3    H240086   5.047   2.010   7.691
13377TIP3   OH240087   6.714   1.884   7.728
13377TIP3    H140088   6.712   1.892   7.632
13377TIP3    H240089   6.742   1.975   7.754
13378TIP3   OH240090   7.489   2.593   7.402
13378TIP3    H140091   7.458   2.547   7.321
13378TIP3    H240092   7.451   2.681   7.393
13379TIP3   OH240093   6.909   2.446   7.767
13379TIP3    H140094   6.978   2.388   7.805
13379TIP3    H240095   6.831   2.391   7.778
13380TIP3   OH240096   7.693   2.459   7.017
13380TIP3    H140097   7.727   2.375   6.983
13380TIP3    H240098   7.762   2.479   7.085
13381TIP3   OH240099   6.800   1.487   7.475
13381TIP3    H140100   6.836   1.578   7.484
13381TIP3    H240101   6.730   1.490   7.543
13382TIP3   OH240102   7.184   2.443   7.613
13382TIP3    H140103   7.133   2.392   7.678
13382TIP3    H240104   7.159   2.533   7.635
13383TIP3   OH240105   7.270   2.030   7.069
13383TIP3    H140106   7.271   1.935   7.044
13383TIP3    H240107   7.243   2.024   7.164
13384TIP3   OH240108   7.199   2.054   7.332
13384TIP3    H140109   7.219   2.020   7.421
13384TIP3    H240110   7.209   2.151   7.347
13385TIP3   OH240111   6.879   1.744   7.533
13385TIP3    H140112   6.886   1.774   7.625
13385TIP3    H240113   6.936   1.807   7.486
13386TIP3   OH240114   7.481   2.248   7.309
13386TIP3    H140115   7.395   2.277   7.346
13386TIP3    H240116   7.482   2.295   7.225
13387TIP3   OH240117   7.222   2.323   7.369
13387TIP3    H140118   7.182   2.393   7.313
13387TIP3    H240119   7.208   2.362   7.459
13388TIP3   OH240120   6.933   1.966   7.350
13388TIP3    H140121   7.006   2.029   7.354
13388TIP3    H240122   6.972   1.902   7.287
13389TIP3   OH240123   6.873   1.219   7.441
13389TIP3    H140124   6.851   1.309   7.473
13389TIP3    H240125   6.868   1.166   7.521
13390TIP3   OH240126   6.781   2.140   7.771
13390TIP3    H140127   6.701   2.194   7.778
13390TIP3    H240128   6.815   2.174   7.687
13391TIP3   OH240129   7.419   2.247   7.007
13391TIP3    H140130   7.364   2.169   7.032
13391TIP3    H240131   7.490   2.204   6.956
13392TIP3   OH240132   7.831   2.241   6.895
13392TIP3    H140133   7.915   2.236   6.945
13392TIP3    H240134   7.868   2.252   6.804
13393TIP3   OH240135   7.069   1.765   7.218
13393TIP3    H140136   7.114   1.726   7.295
13393TIP3    H240137   7.144   1.767   7.154
13394TIP3   OH240138   7.570   1.951   7.037
13394TIP3    H140139   7.548   1.973   7.128
13394TIP3    H240140   7.544   1.858   7.031
13395TIP3   OH240141   7.178   2.546   7.206
13395TIP3    H140142   7.271   2.527   7.182
13395TIP3    H240143   7.146   2.578   7.119
13396TIP3   OH240144   6.663   1.905   7.401
13396TIP3    H140145   6.758   1.927   7.390
13396TIP3    H240146   6.660   1.814   7.366
13397TIP3   OH240147   6.577   2.520   7.818
13397TIP3    H140148   6.513   2.457   7.779
13397TIP3    H240149   6.624   2.462   7.880
13398TIP3   OH240150   6.714   2.367   7.996
13398TIP3    H140151   6.707   2.295   8.060
13398TIP3    H240152   6.765   2.431   8.047
13399TIP3   OH240153   6.679   2.300   7.566
13399TIP3    H140154   6.597   2.261   7.532
13399TIP3    H240155   6.669   2.391   7.532
13400TIP3   OH240156   7.437   2.488   7.134
13400TIP3    H140157   7.527   2.505   7.098
13400TIP3    H240158   7.413   2.412   7.077
13401TIP3   OH240159   6.759   2.316   7.196
13401TIP3    H140160   6.753   2.326   7.292
13401TIP3    H240161   6.844   2.269   7.184
13402TIP3   OH240162   2.452   3.278   8.010
13402TIP3    H140163   2.436   3.368   8.039
13402TIP3    H240164   2.547   3.265   8.030
13403TIP3   OH240165   2.496   3.599   8.080
13403TIP3    H140166   2.531   3.681   8.040
13403TIP3    H240167   2.404   3.603   8.052
13404TIP3   OH240168   3.925   3.161   8.370
13404TIP3    H140169   3.892   3.251   8.351
13404TIP3    H240170   3.860   3.111   8.315
13405TIP3   OH240171   4.138   3.499   8.387
13405TIP3    H140172   4.140   3.410   8.425
13405TIP3    H240173   4.169   3.553   8.460
13406TIP3   OH240174   3.785   3.921   8.431
13406TIP3    H140175   3.835   3.856   8.377
13406TIP3    H240176   3.802   3.885   8.520
13407TIP3   OH240177   3.799   3.375   8.234
13407TIP3    H140178   3.765   3.359   8.145
13407TIP3    H240179   3.767   3.466   8.250
13408TIP3   OH240180   3.934   3.765   8.267
13408TIP3    H140181   3.973   3.677   8.248
13408TIP3    H240182   3.998   3.822   8.220
13409TIP3   OH240183   4.049   3.547   8.139
13409TIP3    H140184   4.025   3.459   8.106
13409TIP3    H240185   4.090   3.525   8.225
13410TIP3   OH240186   3.758   3.023   8.205
13410TIP3    H140187   3.672   3.066   8.183
13410TIP3    H240188   3.792   3.004   8.116
13411TIP3   OH240189   3.704   2.794   7.904
13411TIP3    H140190   3.771   2.849   7.950
13411TIP3    H240191   3.763   2.732   7.857
13412TIP3   OH240192   4.081   3.102   8.145
13412TIP3    H140193   4.035   3.107   8.232
13412TIP3    H240194   4.167   3.062   8.172
13413TIP3   OH240195   3.923   2.948   7.986
13413TIP3    H140196   3.979   3.010   8.036
13413TIP3    H240197   3.952   2.967   7.894
13414TIP3   OH240198   3.692   3.633   8.261
13414TIP3    H140199   3.758   3.703   8.253
13414TIP3    H240200   3.613   3.673   8.222
13415TIP3   OH240201   4.448   2.185   8.025
13415TIP3    H140202   4.360   2.201   8.064
13415TIP3    H240203   4.463   2.269   7.978
13416TIP3   OH240204   4.247   3.555   7.588
13416TIP3    H140205   4.256   3.651   7.574
13416TIP3    H240206   4.340   3.525   7.576
13417TIP3   OH240207   3.562   3.876   8.067
13417TIP3    H140208   3.509   3.854   7.988
13417TIP3    H240209   3.527   3.962   8.094
13418TIP3   OH240210   3.757   3.777   7.706
13418TIP3    H140211   3.816   3.706   7.671
13418TIP3    H240212   3.791   3.787   7.797
13419TIP3   OH240213   3.810   3.823   7.973
13419TIP3    H140214   3.722   3.835   8.015
13419TIP3    H240215   3.857   3.774   8.043
13420TIP3   OH240216   4.008   2.991   7.735
13420TIP3    H140217   3.973   2.969   7.647
13420TIP3    H240218   4.092   3.036   7.711
13421TIP3   OH240219   3.726   2.371   8.040
13421TIP3    H140220   3.671   2.391   8.116
13421TIP3    H240221   3.682   2.291   8.006
13422TIP3   OH240222   3.974   2.846   8.300
13422TIP3    H140223   3.883   2.876   8.286
13422TIP3    H240224   3.980   2.775   8.234
13423TIP3   OH240225   3.411   2.384   8.006
13423TIP3    H140226   3.385   2.323   8.077
13423TIP3    H240227   3.325   2.415   7.974
13424TIP3   OH240228   3.242   2.616   8.110
13424TIP3    H140229   3.191   2.617   8.027
13424TIP3    H240230   3.327   2.648   8.076
13425TIP3   OH240231   3.517   3.158   8.141
13425TIP3    H140232   3.447   3.103   8.099
13425TIP3    H240233   3.474   3.187   8.223
13426TIP3   OH240234   3.975   2.464   7.994
13426TIP3    H140235   3.879   2.448   8.010
13426TIP3    H240236   3.987   2.559   8.017
13427TIP3   OH240237   4.055   2.710   8.075
13427TIP3    H140238   4.150   2.715   8.098
13427TIP3    H240239   4.036   2.798   8.038
13428TIP3   OH240240   3.663   3.312   7.966
13428TIP3    H140241   3.614   3.398   7.968
13428TIP3    H240242   3.608   3.257   8.025
13429TIP3   OH240243   4.477   2.805   7.941
13429TIP3    H140244   4.416   2.771   7.872
13429TIP3    H240245   4.483   2.897   7.912
13430TIP3   OH240246   4.191   3.631   7.856
13430TIP3    H140247   4.151   3.567   7.918
13430TIP3    H240248   4.196   3.580   7.773
13431TIP3   OH240249   3.203   3.745   8.244
13431TIP3    H140250   3.158   3.738   8.330
13431TIP3    H240251   3.246   3.832   8.252
13432TIP3   OH240252   3.939   3.363   7.751
13432TIP3    H140253   3.994   3.339   7.830
13432TIP3    H240254   3.852   3.331   7.780
13433TIP3   OH240255   4.278   3.831   7.573
13433TIP3    H140256   4.313   3.904   7.520
13433TIP3    H240257   4.198   3.874   7.609
13434TIP3   OH240258   4.102   3.303   7.964
13434TIP3    H140259   4.087   3.233   8.030
13434TIP3    H240260   4.199   3.294   7.951
13435TIP3   OH240261   3.307   3.336   7.755
13435TIP3    H140262   3.317   3.243   7.728
13435TIP3    H240263   3.286   3.325   7.850
13436TIP3   OH240264   3.250   3.341   8.026
13436TIP3    H140265   3.296   3.326   8.108
13436TIP3    H240266   3.250   3.440   8.021
13437TIP3   OH240267   4.061   2.446   8.262
13437TIP3    H140268   4.029   2.451   8.170
13437TIP3    H240269   3.992   2.496   8.308
13438TIP3   OH240270   3.523   3.543   7.975
13438TIP3    H140271   3.431   3.558   8.004
13438TIP3    H240272   3.532   3.617   7.913
13439TIP3   OH240273   3.260   3.609   8.019
13439TIP3    H140274   3.231   3.680   7.957
13439TIP3    H240275   3.235   3.650   8.105
13440TIP3   OH240276   2.979   3.259   8.035
13440TIP3    H140277   3.057   3.316   8.042
13440TIP3    H240278   3.018   3.187   7.981
13441TIP3   OH240279   4.234   4.010   8.537
13441TIP3    H140280   4.198   4.051   8.455
13441TIP3    H240281   4.328   4.004   8.514
13442TIP3   OH240282   3.467   3.539   7.664
13442TIP3    H140283   3.410   3.468   7.702
13442TIP3    H240284   3.543   3.487   7.633
13443TIP3   OH240285   3.904   3.580   7.580
13443TIP3    H140286   3.940   3.512   7.640
13443TIP3    H240287   3.962   3.574   7.502
13444TIP3   OH240288   3.116   3.062   7.888
13444TIP3    H140289   3.180   3.036   7.958
13444TIP3    H240290   3.179   3.069   7.814
13445TIP3   OH240291   3.632   3.259   7.696
13445TIP3    H140292   3.631   3.270   7.793
13445TIP3    H240293   3.629   3.161   7.689
13446TIP3   OH240294   3.327   2.981   8.047
13446TIP3    H140295   3.296   2.959   8.137
13446TIP3    H240296   3.363   2.896   8.015
13447TIP3   OH240297   3.431   2.740   7.945
13447TIP3    H140298   3.407   2.751   7.851
13447TIP3    H240299   3.529   2.744   7.940
13448TIP3   OH240300   4.241   3.085   7.617
13448TIP3    H140301   4.222   3.042   7.531
13448TIP3    H240302   4.208   3.176   7.596
13449TIP3   OH240303   3.232   3.825   7.852
13449TIP3    H140304   3.328   3.816   7.833
13449TIP3    H240305   3.205   3.877   7.773
13450TIP3   OH240306   2.713   3.207   8.051
13450TIP3    H140307   2.810   3.221   8.045
13450TIP3    H240308   2.705   3.113   8.027
13451TIP3   OH240309   4.507   4.059   8.492
13451TIP3    H140310   4.517   4.131   8.556
13451TIP3    H240311   4.553   4.094   8.414
13452TIP3   OH240312   4.378   3.277   7.942
13452TIP3    H140313   4.444   3.341   7.909
13452TIP3    H240314   4.426   3.241   8.020
13453TIP3   OH240315   4.516   3.151   8.139
13453TIP3    H140316   4.445   3.099   8.183
13453TIP3    H240317   4.575   3.177   8.212
13454TIP3   OH240318   4.585   3.557   8.587
13454TIP3    H140319   4.643   3.484   8.558
13454TIP3    H240320   4.562   3.597   8.502
13455TIP3   OH240321   4.445   3.050   7.796
13455TIP3    H140322   4.373   3.050   7.729
13455TIP3    H240323   4.416   3.124   7.852
13456TIP3   OH240324   4.315   2.721   7.743
13456TIP3    H140325   4.266   2.757   7.668
13456TIP3    H240326   4.292   2.626   7.736
13457TIP3   OH240327   4.313   2.982   8.224
13457TIP3    H140328   4.315   2.888   8.198
13457TIP3    H240329   4.329   2.977   8.320
13458TIP3   OH240330   4.258   2.454   7.728
13458TIP3    H140331   4.330   2.424   7.788
13458TIP3    H240332   4.182   2.397   7.751
13459TIP3   OH240333   4.325   2.714   8.155
13459TIP3    H140334   4.360   2.632   8.194
13459TIP3    H240335   4.393   2.732   8.087
13460TIP3   OH240336   4.428   2.448   8.216
13460TIP3    H140337   4.444   2.412   8.304
13460TIP3    H240338   4.354   2.394   8.186
13461TIP3   OH240339   4.502   2.398   7.860
13461TIP3    H140340   4.545   2.331   7.804
13461TIP3    H240341   4.567   2.471   7.860
13462TIP3   OH240342   4.080   3.937   8.124
13462TIP3    H140343   4.129   3.924   8.040
13462TIP3    H240344   4.131   4.006   8.167
13463TIP3   OH240345   4.230   2.248   8.178
13463TIP3    H140346   4.157   2.310   8.195
13463TIP3    H240347   4.192   2.166   8.215
13464TIP3   OH240348   2.765   3.625   8.202
13464TIP3    H140349   2.688   3.618   8.144
13464TIP3    H240350   2.735   3.696   8.262
13465TIP3   OH240351   3.498   3.774   7.802
13465TIP3    H140352   3.586   3.797   7.766
13465TIP3    H240353   3.475   3.700   7.742
13466TIP3   OH240354   4.223   3.898   7.894
13466TIP3    H140355   4.215   3.800   7.886
13466TIP3    H240356   4.172   3.926   7.815
13467TIP3   OH240357   2.804   3.615   7.864
13467TIP3    H140358   2.809   3.631   7.960
13467TIP3    H240359   2.890   3.572   7.846
13468TIP3   OH240360   5.711   3.415   7.846
13468TIP3    H140361   5.678   3.505   7.824
13468TIP3    H240362   5.636   3.361   7.814
13469TIP3   OH240363   5.702   3.416   8.239
13469TIP3    H140364   5.742   3.389   8.324
13469TIP3    H240365   5.665   3.331   8.208
13470TIP3   OH240366   5.034   3.360   8.585
13470TIP3    H140367   5.037   3.285   8.646
13470TIP3    H240368   5.112   3.345   8.530
13471TIP3   OH240369   5.955   3.716   7.915
13471TIP3    H140370   5.938   3.646   7.980
13471TIP3    H240371   5.986   3.789   7.970
13472TIP3   OH240372   4.988   3.713   8.320
13472TIP3    H140373   4.920   3.666   8.371
13472TIP3    H240374   5.018   3.632   8.271
13473TIP3   OH240375   4.701   2.941   8.084
13473TIP3    H140376   4.637   3.014   8.092
13473TIP3    H240377   4.648   2.865   8.112
13474TIP3   OH240378   4.747   3.206   8.279
13474TIP3    H140379   4.793   3.128   8.320
13474TIP3    H240380   4.796   3.214   8.196
13475TIP3   OH240381   5.604   4.175   7.932
13475TIP3    H140382   5.643   4.106   7.875
13475TIP3    H240383   5.606   4.132   8.018
13476TIP3   OH240384   5.511   3.639   8.283
13476TIP3    H140385   5.548   3.559   8.242
13476TIP3    H240386   5.595   3.684   8.303
13477TIP3   OH240387   6.517   2.982   8.262
13477TIP3    H140388   6.548   3.061   8.311
13477TIP3    H240389   6.518   3.016   8.171
13478TIP3   OH240390   5.922   3.139   8.307
13478TIP3    H140391   5.964   3.053   8.326
13478TIP3    H240392   5.889   3.124   8.217
13479TIP3   OH240393   5.265   2.790   8.276
13479TIP3    H140394   5.242   2.871   8.227
13479TIP3    H240395   5.214   2.723   8.224
13480TIP3   OH240396   5.957   2.890   7.896
13480TIP3    H140397   6.028   2.873   7.962
13480TIP3    H240398   6.010   2.926   7.822
13481TIP3   OH240399   4.897   3.009   8.379
13481TIP3    H140400   4.949   2.966   8.450
13481TIP3    H240401   4.916   2.948   8.305
13482TIP3   OH240402   5.325   3.203   8.187
13482TIP3    H140403   5.420   3.182   8.191
13482TIP3    H240404   5.288   3.117   8.158
13483TIP3   OH240405   6.582   3.178   8.444
13483TIP3    H140406   6.498   3.225   8.427
13483TIP3    H240407   6.562   3.144   8.533
13484TIP3   OH240408   5.594   3.633   7.719
13484TIP3    H140409   5.557   3.620   7.631
13484TIP3    H240410   5.549   3.716   7.747
13485TIP3   OH240411   5.373   3.575   8.510
13485TIP3    H140412   5.303   3.640   8.532
13485TIP3    H240413   5.419   3.617   8.434
13486TIP3   OH240414   6.161   2.893   8.077
13486TIP3    H140415   6.126   2.861   8.161
13486TIP3    H240416   6.209   2.973   8.104
13487TIP3   OH240417   5.114   2.887   8.502
13487TIP3    H140418   5.182   2.957   8.496
13487TIP3    H240419   5.144   2.829   8.430
13488TIP3   OH240420   5.157   3.746   8.580
13488TIP3    H140421   5.165   3.838   8.613
13488TIP3    H240422   5.111   3.707   8.657
13489TIP3   OH240423   4.580   3.445   7.835
13489TIP3    H140424   4.540   3.472   7.751
13489TIP3    H240425   4.612   3.530   7.871
13490TIP3   OH240426   6.020   3.961   8.079
13490TIP3    H140427   5.929   3.953   8.115
13490TIP3    H240428   6.013   4.046   8.032
13491TIP3   OH240429   6.318   2.889   8.444
13491TIP3    H140430   6.226   2.894   8.413
13491TIP3    H240431   6.368   2.917   8.365
13492TIP3   OH240432   5.613   2.495   8.403
13492TIP3    H140433   5.617   2.401   8.431
13492TIP3    H240434   5.588   2.537   8.488
13493TIP3   OH240435   5.718   4.004   7.747
13493TIP3    H140436   5.768   3.920   7.730
13493TIP3    H240437   5.782   4.068   7.710
13494TIP3   OH240438   5.864   3.789   7.665
13494TIP3    H140439   5.835   3.708   7.621
13494TIP3    H240440   5.902   3.753   7.748
13495TIP3   OH240441   6.238   3.869   8.421
13495TIP3    H140442   6.233   3.791   8.363
13495TIP3    H240443   6.225   3.943   8.358
13496TIP3   OH240444   5.541   3.266   7.683
13496TIP3    H140445   5.461   3.318   7.661
13496TIP3    H240446   5.585   3.261   7.596
13497TIP3   OH240447   5.498   3.051   7.394
13497TIP3    H140448   5.565   3.104   7.441
13497TIP3    H240449   5.556   2.988   7.346
13498TIP3   OH240450   6.446   3.514   8.267
13498TIP3    H140451   6.361   3.563   8.275
13498TIP3    H240452   6.471   3.538   8.175
13499TIP3   OH240453   5.889   3.349   7.650
13499TIP3    H140454   5.834   3.372   7.728
13499TIP3    H240455   5.973   3.324   7.694
13500TIP3   OH240456   6.120   3.377   8.568
13500TIP3    H140457   6.123   3.456   8.626
13500TIP3    H240458   6.032   3.387   8.526
13501TIP3   OH240459   5.125   3.342   8.059
13501TIP3    H140460   5.081   3.282   7.995
13501TIP3    H240461   5.197   3.286   8.095
13502TIP3   OH240462   5.264   3.757   8.254
13502TIP3    H140463   5.238   3.740   8.162
13502TIP3    H240464   5.353   3.716   8.255
13503TIP3   OH240465   5.253   3.339   8.424
13503TIP3    H140466   5.278   3.303   8.336
13503TIP3    H240467   5.307   3.419   8.431
13504TIP3   OH240468   5.776   3.957   8.199
13504TIP3    H140469   5.767   4.034   8.257
13504TIP3    H240470   5.766   3.881   8.259
13505TIP3   OH240471   5.369   3.922   8.700
13505TIP3    H140472   5.370   3.965   8.788
13505TIP3    H240473   5.356   3.829   8.726
13506TIP3   OH240474   5.726   3.207   7.478
13506TIP3    H140475   5.785   3.267   7.527
13506TIP3    H240476   5.753   3.226   7.385
13507TIP3   OH240477   5.469   3.887   7.762
13507TIP3    H140478   5.554   3.935   7.763
13507TIP3    H240479   5.413   3.945   7.707
13508TIP3   OH240480   6.244   2.443   7.529
13508TIP3    H140481   6.161   2.465   7.577
13508TIP3    H240482   6.260   2.526   7.480
13509TIP3   OH240483   4.986   3.188   7.873
13509TIP3    H140484   4.916   3.228   7.818
13509TIP3    H240485   4.950   3.101   7.892
13510TIP3   OH240486   6.044   3.812   7.078
13510TIP3    H140487   6.052   3.908   7.060
13510TIP3    H240488   6.136   3.782   7.065
13511TIP3   OH240489   4.614   3.783   8.391
13511TIP3    H140490   4.703   3.767   8.423
13511TIP3    H240491   4.581   3.850   8.451
13512TIP3   OH240492   6.492   4.220   8.475
13512TIP3    H140493   6.491   4.123   8.487
13512TIP3    H240494   6.403   4.242   8.512
13513TIP3   OH240495   5.604   4.002   8.596
13513TIP3    H140496   5.605   4.093   8.632
13513TIP3    H240497   5.515   3.972   8.623
13514TIP3   OH240498   5.356   4.127   7.558
13514TIP3    H140499   5.310   4.110   7.475
13514TIP3    H240500   5.322   4.214   7.584
13515TIP3   OH240501   4.788   3.979   7.936
13515TIP3    H140502   4.831   3.971   8.024
13515TIP3    H240503   4.739   3.895   7.931
13516TIP3   OH240504   5.553   4.032   7.194
13516TIP3    H140505   5.612   3.962   7.158
13516TIP3    H240506   5.589   4.043   7.285
13517TIP3   OH240507   5.606   4.081   7.463
13517TIP3    H140508   5.518   4.090   7.505
13517TIP3    H240509   5.658   4.044   7.536
13518TIP3   OH240510   6.388   3.351   8.710
13518TIP3    H140511   6.294   3.367   8.699
13518TIP3    H240512   6.392   3.254   8.716
13519TIP3   OH240513   6.149   3.134   8.698
13519TIP3    H140514   6.109   3.153   8.784
13519TIP3    H240515   6.120   3.209   8.643
13520TIP3   OH240516   5.806   3.250   7.225
13520TIP3    H140517   5.768   3.227   7.138
13520TIP3    H240518   5.890   3.293   7.197
13521TIP3   OH240519   5.516   2.623   7.527
13521TIP3    H140520   5.480   2.620   7.618
13521TIP3    H240521   5.475   2.543   7.490
13522TIP3   OH240522   5.302   3.081   8.497
13522TIP3    H140523   5.334   3.072   8.589
13522TIP3    H240524   5.287   3.177   8.485
13523TIP3   OH240525   5.190   2.981   8.091
13523TIP3    H140526   5.098   2.952   8.112
13523TIP3    H240527   5.200   2.938   8.003
13524TIP3   OH240528   5.678   3.065   7.817
13524TIP3    H140529   5.627   3.136   7.773
13524TIP3    H240530   5.732   3.031   7.743
13525TIP3   OH240531   5.840   3.093   8.049
13525TIP3    H140532   5.771   3.119   7.985
13525TIP3    H240533   5.872   3.012   8.005
13526TIP3   OH240534   5.173   2.601   7.491
13526TIP3    H140535   5.162   2.601   7.588
13526TIP3    H240536   5.096   2.654   7.464
13527TIP3   OH240537   4.677   2.697   8.241
13527TIP3    H140538   4.724   2.706   8.326
13527TIP3    H240539   4.720   2.618   8.204
13528TIP3   OH240540   4.684   2.624   7.882
13528TIP3    H140541   4.728   2.665   7.804
13528TIP3    H240542   4.625   2.698   7.907
13529TIP3   OH240543   5.844   3.340   8.469
13529TIP3    H140544   5.877   3.266   8.414
13529TIP3    H240545   5.823   3.292   8.553
13530TIP3   OH240546   5.518   2.800   8.144
13530TIP3    H140547   5.434   2.796   8.194
13530TIP3    H240548   5.584   2.799   8.215
13531TIP3   OH240549   4.953   2.861   8.154
13531TIP3    H140550   4.861   2.874   8.122
13531TIP3    H240551   4.970   2.767   8.134
13532TIP3   OH240552   5.214   2.853   7.847
13532TIP3    H140553   5.307   2.869   7.823
13532TIP3    H240554   5.165   2.874   7.764
13533TIP3   OH240555   6.013   2.876   8.332
13533TIP3    H140556   5.999   2.882   8.429
13533TIP3    H240557   5.942   2.815   8.308
13534TIP3   OH240558   5.064   2.889   7.622
13534TIP3    H140559   4.992   2.844   7.575
13534TIP3    H240560   5.115   2.926   7.547
13535TIP3   OH240561   6.190   4.559   8.555
13535TIP3    H140562   6.193   4.583   8.461
13535TIP3    H240563   6.221   4.641   8.596
13536TIP3   OH240564   5.593   3.148   8.230
13536TIP3    H140565   5.665   3.091   8.201
13536TIP3    H240566   5.589   3.127   8.326
13537TIP3   OH240567   5.120   2.622   8.116
13537TIP3    H140568   5.076   2.547   8.163
13537TIP3    H240569   5.163   2.576   8.043
13538TIP3   OH240570   5.590   3.074   8.491
13538TIP3    H140571   5.499   3.042   8.506
13538TIP3    H240572   5.641   3.020   8.553
13539TIP3   OH240573   5.308   3.418   7.630
13539TIP3    H140574   5.238   3.351   7.619
13539TIP3    H240575   5.287   3.453   7.720
13540TIP3   OH240576   6.209   3.652   8.255
13540TIP3    H140577   6.232   3.704   8.176
13540TIP3    H240578   6.125   3.609   8.229
13541TIP3   OH240579   5.767   2.725   7.500
13541TIP3    H140580   5.671   2.705   7.505
13541TIP3    H240581   5.772   2.820   7.521
13542TIP3   OH240582   5.700   3.733   8.616
13542TIP3    H140583   5.727   3.695   8.699
13542TIP3    H240584   5.675   3.824   8.637
13543TIP3   OH240585   5.835   2.979   7.599
13543TIP3    H140586   5.931   2.985   7.613
13543TIP3    H240587   5.815   3.059   7.547
13544TIP3   OH240588   5.011   3.454   8.278
13544TIP3    H140589   5.046   3.404   8.201
13544TIP3    H240590   5.016   3.389   8.349
13545TIP3   OH240591   5.456   3.567   7.455
13545TIP3    H140592   5.407   3.653   7.458
13545TIP3    H240593   5.401   3.512   7.515
13546TIP3   OH240594   5.870   3.996   8.523
13546TIP3    H140595   5.773   3.985   8.533
13546TIP3    H240596   5.887   4.064   8.590
13547TIP3   OH240597   6.281   3.070   7.431
13547TIP3    H140598   6.218   3.027   7.368
13547TIP3    H240599   6.277   3.160   7.392
13548TIP3   OH240600   6.486   3.939   8.507
13548TIP3    H140601   6.391   3.920   8.491
13548TIP3    H240602   6.524   3.901   8.425
13549TIP3   OH240603   5.983   3.887   7.342
13549TIP3    H140604   5.952   3.816   7.400
13549TIP3    H240605   5.994   3.842   7.256
13550TIP3   OH240606   5.973   3.517   8.173
13550TIP3    H140607   5.880   3.491   8.187
13550TIP3    H240608   6.008   3.437   8.130
13551TIP3   OH240609   5.103   3.755   7.955
13551TIP3    H140610   5.103   3.830   7.892
13551TIP3    H240611   5.017   3.716   7.937
13552TIP3   OH240612   4.670   3.046   7.638
13552TIP3    H140613   4.713   3.131   7.660
13552TIP3    H240614   4.593   3.049   7.699
13553TIP3   OH240615   5.234   3.515   7.871
13553TIP3    H140616   5.207   3.602   7.904
13553TIP3    H240617   5.202   3.456   7.943
13554TIP3   OH240618   5.387   4.091   8.386
13554TIP3    H140619   5.425   4.167   8.336
13554TIP3    H240620   5.465   4.057   8.430
13555TIP3   OH240621   5.025   3.982   7.786
13555TIP3    H140622   4.937   3.993   7.828
13555TIP3    H240623   5.057   4.075   7.786
13556TIP3   OH240624   5.762   3.724   8.352
13556TIP3    H140625   5.749   3.718   8.450
13556TIP3    H240626   5.836   3.663   8.339
13557TIP3   OH240627   5.738   3.618   7.243
13557TIP3    H140628   5.790   3.592   7.322
13557TIP3    H240629   5.650   3.586   7.267
13558TIP3   OH240630   5.999   4.254   8.409
13558TIP3    H140631   5.919   4.203   8.385
13558TIP3    H240632   5.997   4.322   8.337
13559TIP3   OH240633   6.075   4.087   7.060
13559TIP3    H140634   6.110   4.159   7.006
13559TIP3    H240635   5.995   4.132   7.095
13560TIP3   OH240636   5.899   3.552   7.460
13560TIP3    H140637   5.887   3.483   7.529
13560TIP3    H240638   5.995   3.545   7.445
13561TIP3   OH240639   4.833   3.944   8.552
13561TIP3    H140640   4.824   3.865   8.606
13561TIP3    H240641   4.794   4.008   8.612
13562TIP3   OH240642   5.100   3.595   7.242
13562TIP3    H140643   5.113   3.502   7.214
13562TIP3    H240644   5.078   3.583   7.336
13563TIP3   OH240645   5.044   3.600   7.514
13563TIP3    H140646   5.122   3.572   7.565
13563TIP3    H240647   5.049   3.698   7.522
13564TIP3   OH240648   4.779   3.292   7.718
13564TIP3    H140649   4.712   3.336   7.774
13564TIP3    H240650   4.792   3.360   7.649
13565TIP3   OH240651   5.966   2.911   8.595
13565TIP3    H140652   6.022   2.953   8.662
13565TIP3    H240653   5.879   2.905   8.636
13566TIP3   OH240654   5.816   2.675   7.779
13566TIP3    H140655   5.799   2.697   7.685
13566TIP3    H240656   5.853   2.759   7.813
13567TIP3   OH240657   5.315   3.797   7.464
13567TIP3    H140658   5.227   3.822   7.499
13567TIP3    H240659   5.328   3.867   7.399
13568TIP3   OH240660   5.500   2.862   7.876
13568TIP3    H140661   5.563   2.935   7.861
13568TIP3    H240662   5.504   2.853   7.974
13569TIP3   OH240663   5.802   3.213   8.706
13569TIP3    H140664   5.816   3.262   8.790
13569TIP3    H240665   5.806   3.121   8.735
13570TIP3   OH240666   5.640   2.582   7.976
13570TIP3    H140667   5.630   2.661   8.034
13570TIP3    H240668   5.704   2.616   7.910
13571TIP3   OH240669   5.060   3.873   7.532
13571TIP3    H140670   5.029   3.942   7.469
13571TIP3    H240671   5.043   3.916   7.618
13572TIP3   OH240672   5.156   2.587   7.768
13572TIP3    H140673   5.152   2.677   7.807
13572TIP3    H240674   5.252   2.571   7.775
13573TIP3   OH240675   6.406   3.062   8.643
13573TIP3    H140676   6.313   3.081   8.668
13573TIP3    H240677   6.389   2.994   8.575
13574TIP3   OH240678   6.060   3.275   8.053
13574TIP3    H140679   5.984   3.215   8.062
13574TIP3    H240680   6.130   3.226   8.101
13575TIP3   OH240681   4.775   3.497   7.521
13575TIP3    H140682   4.846   3.563   7.529
13575TIP3    H240683   4.817   3.438   7.454
13576TIP3   OH240684   4.717   2.776   7.655
13576TIP3    H140685   4.719   2.874   7.655
13576TIP3    H240686   4.633   2.759   7.612
13577TIP3   OH240687   6.030   4.230   8.000
13577TIP3    H140688   5.988   4.277   7.925
13577TIP3    H240689   6.125   4.248   7.979
13578TIP3   OH240690   4.646   3.722   7.907
13578TIP3    H140691   4.578   3.746   7.972
13578TIP3    H240692   4.608   3.761   7.825
13579TIP3   OH240693   5.265   3.797   7.153
13579TIP3    H140694   5.209   3.724   7.189
13579TIP3    H240695   5.340   3.747   7.116
13580TIP3   OH240696   5.942   4.112   8.775
13580TIP3    H140697   5.989   4.028   8.766
13580TIP3    H240698   6.010   4.177   8.759
13581TIP3   OH240699   5.699   3.836   7.066
13581TIP3    H140700   5.741   3.771   7.126
13581TIP3    H240701   5.755   3.832   6.986
13582TIP3   OH240702   4.910   3.312   7.376
13582TIP3    H140703   4.966   3.281   7.449
13582TIP3    H240704   4.977   3.318   7.304
13583TIP3   OH240705   5.427   3.515   7.185
13583TIP3    H140706   5.427   3.525   7.282
13583TIP3    H240707   5.427   3.417   7.177
13584TIP3   OH240708   6.031   3.770   8.575
13584TIP3    H140709   6.110   3.799   8.525
13584TIP3    H240710   5.965   3.834   8.541
13585TIP3   OH240711   5.118   3.220   7.597
13585TIP3    H140712   5.088   3.178   7.679
13585TIP3    H240713   5.155   3.144   7.547
13586TIP3   OH240714   5.219   3.016   7.435
13586TIP3    H140715   5.195   3.023   7.341
13586TIP3    H240716   5.317   3.016   7.429
13587TIP3   OH240717   6.039   3.341   7.104
13587TIP3    H140718   6.020   3.298   7.019
13587TIP3    H240719   6.005   3.432   7.083
13588TIP3   OH240720   5.537   3.406   8.663
13588TIP3    H140721   5.616   3.368   8.622
13588TIP3    H240722   5.505   3.468   8.595
13589TIP3   OH240723   6.164   3.591   8.737
13589TIP3    H140724   6.105   3.655   8.691
13589TIP3    H240725   6.252   3.626   8.709
13590TIP3   OH240726   5.028   4.076   7.345
13590TIP3    H140727   5.123   4.067   7.325
13590TIP3    H240728   4.999   4.126   7.267
13591TIP3   OH240729   4.506   3.458   7.557
13591TIP3    H140730   4.601   3.478   7.542
13591TIP3    H240731   4.498   3.369   7.517
13592TIP3   OH240732   4.424   4.069   7.973
13592TIP3    H140733   4.358   4.009   7.933
13592TIP3    H240734   4.466   4.009   8.038
13593TIP3   OH240735   4.555   3.919   8.160
13593TIP3    H140736   4.549   3.847   8.225
13593TIP3    H240737   4.610   3.981   8.211
13594TIP3   OH240738   6.287   4.314   7.961
13594TIP3    H140739   6.307   4.351   8.049
13594TIP3    H240740   6.344   4.367   7.903
13595TIP3   OH240741   6.306   4.340   8.240
13595TIP3    H140742   6.271   4.248   8.239
13595TIP3    H240743   6.386   4.328   8.292
13596TIP3   OH240744   6.176   3.528   7.434
13596TIP3    H140745   6.241   3.594   7.403
13596TIP3    H240746   6.222   3.491   7.513
13597TIP3   OH240747   6.305   3.394   7.639
13597TIP3    H140748   6.236   3.354   7.696
13597TIP3    H240749   6.366   3.434   7.704
13598TIP3   OH240750   6.362   3.793   8.071
13598TIP3    H140751   6.411   3.725   8.022
13598TIP3    H240752   6.359   3.867   8.007
13599TIP3   OH240753   6.187   4.090   8.263
13599TIP3    H140754   6.114   4.130   8.313
13599TIP3    H240755   6.139   4.045   8.190
13600TIP3   OH240756   6.242   3.305   7.283
13600TIP3    H140757   6.171   3.305   7.215
13600TIP3    H240758   6.212   3.380   7.338
13601TIP3   OH240759   6.115   2.976   7.237
13601TIP3    H140760   6.068   3.013   7.161
13601TIP3    H240761   6.090   2.882   7.229
13602TIP3   OH240762   6.117   3.255   7.784
13602TIP3    H140763   6.121   3.159   7.775
13602TIP3    H240764   6.101   3.267   7.880
13603TIP3   OH240765   4.763   3.385   8.488
13603TIP3    H140766   4.750   3.318   8.417
13603TIP3    H240767   4.848   3.357   8.528
13604TIP3   OH240768   6.404   3.692   8.642
13604TIP3    H140769   6.474   3.625   8.633
13604TIP3    H240770   6.446   3.771   8.607
13605TIP3   OH240771   6.605   3.499   8.642
13605TIP3    H140772   6.530   3.437   8.661
13605TIP3    H240773   6.643   3.509   8.729
13606TIP3   OH240774   6.054   2.711   7.223
13606TIP3    H140775   6.121   2.675   7.284
13606TIP3    H240776   5.976   2.655   7.239
13607TIP3   OH240777   6.116   2.972   7.677
13607TIP3    H140778   6.155   2.883   7.692
13607TIP3    H240779   6.172   3.003   7.605
13608TIP3   OH240780   6.271   3.141   8.171
13608TIP3    H140781   6.357   3.167   8.131
13608TIP3    H240782   6.283   3.180   8.260
13609TIP3   OH240783   6.335   3.292   8.395
13609TIP3    H140784   6.263   3.323   8.454
13609TIP3    H240785   6.371   3.376   8.361
13610TIP3   OH240786   6.224   2.720   7.714
13610TIP3    H140787   6.268   2.705   7.800
13610TIP3    H240788   6.160   2.645   7.713
13611TIP3   OH240789   6.304   2.650   7.354
13611TIP3    H140790   6.337   2.580   7.293
13611TIP3    H240791   6.367   2.723   7.338
13612TIP3   OH240792   4.698   2.459   8.093
13612TIP3    H140793   4.604   2.465   8.119
13612TIP3    H240794   4.702   2.525   8.020
13613TIP3   OH240795   5.867   4.187   7.616
13613TIP3    H140796   5.919   4.177   7.534
13613TIP3    H240797   5.918   4.254   7.664
13614TIP3   OH240798   5.145   3.995   8.467
13614TIP3    H140799   5.088   4.075   8.467
13614TIP3    H240800   5.232   4.041   8.464
13615TIP3   OH240801   5.616   4.258   8.690
13615TIP3    H140802   5.661   4.279   8.773
13615TIP3    H240803   5.667   4.314   8.628
13616TIP3   OH240804   5.784   4.418   8.549
13616TIP3    H140805   5.844   4.365   8.494
13616TIP3    H240806   5.841   4.491   8.575
13617TIP3   OH240807   4.823   4.291   8.569
13617TIP3    H140808   4.741   4.332   8.534
13617TIP3    H240809   4.809   4.303   8.663
13618TIP3   OH240810   5.061   4.258   8.433
13618TIP3    H140811   4.976   4.275   8.479
13618TIP3    H240812   5.042   4.293   8.344
13619TIP3   OH240813   5.486   4.290   8.227
13619TIP3    H140814   5.417   4.309   8.160
13619TIP3    H240815   5.497   4.378   8.269
13620TIP3   OH240816   5.752   4.226   8.286
13620TIP3    H140817   5.660   4.247   8.260
13620TIP3    H240818   5.801   4.294   8.236
13621TIP3   OH240819   5.951   4.412   8.193
13621TIP3    H140820   5.942   4.498   8.148
13621TIP3    H240821   5.984   4.355   8.119
13622TIP3   OH240822   4.737   4.078   8.315
13622TIP3    H140823   4.772   4.054   8.403
13622TIP3    H240824   4.804   4.033   8.259
13623TIP3   OH240825   4.926   3.947   8.171
13623TIP3    H140826   4.944   3.856   8.202
13623TIP3    H240827   5.016   3.985   8.165
13624TIP3   OH240828   5.193   4.039   8.179
13624TIP3    H140829   5.252   3.976   8.137
13624TIP3    H240830   5.245   4.065   8.257
13625TIP3   OH240831   5.773   2.696   8.262
13625TIP3    H140832   5.729   2.622   8.306
13625TIP3    H240833   5.851   2.653   8.221
13626TIP3   OH240834   6.294   2.570   8.167
13626TIP3    H140835   6.322   2.629   8.093
13626TIP3    H240836   6.200   2.594   8.176
13627TIP3   OH240837   6.385   2.678   7.934
13627TIP3    H140838   6.458   2.628   7.892
13627TIP3    H240839   6.413   2.770   7.917
13628TIP3   OH240840   5.014   2.403   8.230
13628TIP3    H140841   4.924   2.380   8.260
13628TIP3    H240842   5.061   2.321   8.250
13629TIP3   OH240843   4.807   2.269   7.923
13629TIP3    H140844   4.837   2.330   7.853
13629TIP3    H240845   4.775   2.332   7.991
13630TIP3   OH240846   5.470   2.440   8.166
13630TIP3    H140847   5.518   2.488   8.097
13630TIP3    H240848   5.513   2.472   8.247
13631TIP3   OH240849   6.007   2.584   8.143
13631TIP3    H140850   6.006   2.546   8.054
13631TIP3    H240851   5.991   2.504   8.198
13632TIP3   OH240852   6.039   2.509   7.709
13632TIP3    H140853   5.953   2.554   7.725
13632TIP3    H240854   6.023   2.423   7.754
13633TIP3   OH240855   4.521   3.850   7.705
13633TIP3    H140856   4.436   3.815   7.674
13633TIP3    H240857   4.511   3.943   7.679
13634TIP3   OH240858   4.924   2.430   7.692
13634TIP3    H140859   4.973   2.370   7.632
13634TIP3    H240860   4.997   2.486   7.727
13635TIP3   OH240861   5.433   2.612   7.790
13635TIP3    H140862   5.494   2.565   7.850
13635TIP3    H240863   5.454   2.704   7.815
13636TIP3   OH240864   5.295   4.031   7.291
13636TIP3    H140865   5.383   4.054   7.254
13636TIP3    H240866   5.272   3.957   7.230
13637TIP3   OH240867   6.014   4.154   7.385
13637TIP3    H140868   6.007   4.056   7.375
13637TIP3    H240869   5.968   4.184   7.304
13638TIP3   OH240870   4.599   3.871   7.344
13638TIP3    H140871   4.600   3.889   7.438
13638TIP3    H240872   4.686   3.827   7.329
13639TIP3   OH240873   6.237   4.287   8.558
13639TIP3    H140874   6.156   4.270   8.506
13639TIP3    H240875   6.228   4.384   8.574
13640TIP3   OH240876   7.498   3.664   7.339
13640TIP3    H140877   7.479   3.758   7.321
13640TIP3    H240878   7.423   3.622   7.293
13641TIP3   OH240879   7.481   3.649   7.730
13641TIP3    H140880   7.572   3.622   7.746
13641TIP3    H240881   7.464   3.617   7.642
13642TIP3   OH240882   6.802   3.567   8.072
13642TIP3    H140883   6.833   3.498   8.133
13642TIP3    H240884   6.879   3.627   8.073
13643TIP3   OH240885   7.746   3.973   7.393
13643TIP3    H140886   7.741   3.895   7.452
13643TIP3    H240887   7.781   4.041   7.452
13644TIP3   OH240888   6.778   3.975   7.804
13644TIP3    H140889   6.770   3.878   7.807
13644TIP3    H240890   6.875   3.985   7.798
13645TIP3   OH240891   6.486   3.184   7.588
13645TIP3    H140892   6.433   3.263   7.608
13645TIP3    H240893   6.418   3.127   7.550
13646TIP3   OH240894   6.539   3.470   7.767
13646TIP3    H140895   6.592   3.393   7.798
13646TIP3    H240896   6.596   3.508   7.699
13647TIP3   OH240897   7.406   4.443   7.417
13647TIP3    H140898   7.446   4.368   7.369
13647TIP3    H240899   7.395   4.406   7.505
13648TIP3   OH240900   7.301   3.897   7.763
13648TIP3    H140901   7.344   3.812   7.744
13648TIP3    H240902   7.382   3.951   7.777
13649TIP3   OH240903   7.032   3.019   7.710
13649TIP3    H140904   7.008   3.105   7.672
13649TIP3    H240905   6.953   2.994   7.758
13650TIP3   OH240906   7.717   3.182   7.364
13650TIP3    H140907   7.779   3.117   7.405
13650TIP3    H240908   7.771   3.219   7.293
13651TIP3   OH240909   6.690   3.264   7.865
13651TIP3    H140910   6.778   3.252   7.906
13651TIP3    H240911   6.692   3.192   7.800
13652TIP3   OH240912   7.130   3.449   7.661
13652TIP3    H140913   7.223   3.421   7.674
13652TIP3    H240914   7.089   3.365   7.633
13653TIP3   OH240915   7.013   3.028   8.192
13653TIP3    H140916   6.987   3.107   8.145
13653TIP3    H240917   7.071   3.059   8.262
13654TIP3   OH240918   7.405   3.894   7.194
13654TIP3    H140919   7.356   3.877   7.112
13654TIP3    H240920   7.355   3.971   7.229
13655TIP3   OH240921   7.141   3.823   7.976
13655TIP3    H140922   7.086   3.894   8.016
13655TIP3    H240923   7.193   3.872   7.909
13656TIP3   OH240924   6.939   3.169   7.957
13656TIP3    H140925   6.993   3.243   7.993
13656TIP3    H240926   7.009   3.116   7.917
13657TIP3   OH240927   6.985   4.018   8.094
13657TIP3    H140928   6.962   4.107   8.060
13657TIP3    H240929   6.904   4.001   8.147
13658TIP3   OH240930   6.378   3.699   7.324
13658TIP3    H140931   6.337   3.725   7.239
13658TIP3    H240932   6.408   3.786   7.359
13659TIP3   OH240933   7.820   4.216   7.555
13659TIP3    H140934   7.733   4.200   7.600
13659TIP3    H240935   7.802   4.305   7.520
13660TIP3   OH240936   7.517   4.261   7.233
13660TIP3    H140937   7.570   4.179   7.219
13660TIP3    H240938   7.579   4.327   7.195
13661TIP3   OH240939   7.662   4.040   7.146
13661TIP3    H140940   7.593   3.973   7.136
13661TIP3    H240941   7.703   4.012   7.231
13662TIP3   OH240942   7.332   3.530   7.161
13662TIP3    H140943   7.249   3.581   7.149
13662TIP3    H240944   7.367   3.530   7.070
13663TIP3   OH240945   7.297   3.292   6.888
13663TIP3    H140946   7.359   3.352   6.932
13663TIP3    H240947   7.359   3.238   6.835
13664TIP3   OH240948   7.682   3.604   7.144
13664TIP3    H140949   7.626   3.628   7.221
13664TIP3    H240950   7.767   3.585   7.188
13665TIP3   OH240951   6.916   3.599   7.558
13665TIP3    H140952   6.874   3.541   7.491
13665TIP3    H240953   6.994   3.547   7.586
13666TIP3   OH240954   7.046   4.012   7.703
13666TIP3    H140955   7.026   3.980   7.614
13666TIP3    H240956   7.135   3.976   7.719
13667TIP3   OH240957   7.055   3.572   7.907
13667TIP3    H140958   7.085   3.550   7.817
13667TIP3    H240959   7.085   3.665   7.918
13668TIP3   OH240960   7.580   4.218   7.675
13668TIP3    H140961   7.568   4.300   7.728
13668TIP3    H240962   7.562   4.146   7.739
13669TIP3   OH240963   7.191   4.141   8.235
13669TIP3    H140964   7.122   4.197   8.278
13669TIP3    H240965   7.135   4.080   8.185
13670TIP3   OH240966   7.529   3.463   6.964
13670TIP3    H140967   7.578   3.525   7.021
13670TIP3    H240968   7.551   3.495   6.875
13671TIP3   OH240969   6.928   3.689   8.337
13671TIP3    H140970   6.926   3.777   8.379
13671TIP3    H240971   6.835   3.662   8.351
13672TIP3   OH240972   7.271   4.134   7.243
13672TIP3    H140973   7.350   4.190   7.252
13672TIP3    H240974   7.209   4.191   7.197
13673TIP3   OH240975   6.981   4.286   8.324
13673TIP3    H140976   6.942   4.304   8.236
13673TIP3    H240977   6.902   4.272   8.380
13674TIP3   OH240978   7.972   2.702   6.963
13674TIP3    H140979   7.915   2.723   7.040
13674TIP3    H240980   7.987   2.789   6.923
13675TIP3   OH240981   6.782   3.433   7.362
13675TIP3    H140982   6.725   3.492   7.308
13675TIP3    H240983   6.724   3.356   7.368
13676TIP3   OH240984   7.840   4.065   6.561
13676TIP3    H140985   7.847   4.162   6.546
13676TIP3    H240986   7.934   4.038   6.549
13677TIP3   OH240987   6.562   3.827   8.270
13677TIP3    H140988   6.493   3.810   8.202
13677TIP3    H240989   6.596   3.738   8.289
13678TIP3   OH240990   6.417   4.022   7.903
13678TIP3    H140991   6.514   4.021   7.894
13678TIP3    H240992   6.403   4.103   7.953
13679TIP3   OH240993   7.369   4.275   8.085
13679TIP3    H140994   7.406   4.331   8.154
13679TIP3    H240995   7.301   4.225   8.137
13680TIP3   OH240996   7.154   4.387   7.040
13680TIP3    H140997   7.103   4.364   6.961
13680TIP3    H240998   7.113   4.471   7.069
13681TIP3   OH240999   6.587   4.235   7.429
13681TIP3    H141000   6.634   4.227   7.515
13681TIP3    H241001   6.533   4.154   7.429
13682TIP3   OH241002   7.352   4.293   6.681
13682TIP3    H141003   7.409   4.221   6.646
13682TIP3    H241004   7.384   4.299   6.774
13683TIP3   OH241005   7.404   4.336   6.952
13683TIP3    H141006   7.313   4.347   6.989
13683TIP3    H241007   7.449   4.296   7.027
13684TIP3   OH241008   6.763   4.010   8.255
13684TIP3    H141009   6.802   3.996   8.343
13684TIP3    H241010   6.687   3.947   8.258
13685TIP3   OH241011   0.654   6.216   1.424
13685TIP3    H141012   0.661   6.120   1.427
13685TIP3    H241013   0.668   6.239   1.517
13686TIP3   OH241014   7.628   3.512   6.702
13686TIP3    H141015   7.567   3.470   6.635
13686TIP3    H241016   7.593   3.603   6.697
13687TIP3   OH241017   7.313   2.875   7.018
13687TIP3    H141018   7.240   2.896   7.077
13687TIP3    H241019   7.278   2.794   6.975
13688TIP3   OH241020   7.102   3.354   8.067
13688TIP3    H141021   7.049   3.382   8.144
13688TIP3    H241022   7.099   3.435   8.011
13689TIP3   OH241023   6.970   3.241   7.556
13689TIP3    H141024   6.880   3.207   7.574
13689TIP3    H241025   6.963   3.267   7.464
13690TIP3   OH241026   7.453   3.326   7.295
13690TIP3    H141027   7.407   3.398   7.246
13690TIP3    H241028   7.517   3.294   7.230
13691TIP3   OH241029   7.597   3.372   7.535
13691TIP3    H141030   7.539   3.403   7.463
13691TIP3    H241031   7.637   3.296   7.490
13692TIP3   OH241032   6.905   3.391   8.258
13692TIP3    H141033   6.930   3.458   8.324
13692TIP3    H241034   6.858   3.326   8.313
13693TIP3   OH241035   6.973   2.868   6.982
13693TIP3    H141036   6.955   2.899   7.071
13693TIP3    H241037   6.897   2.909   6.935
13694TIP3   OH241038   6.495   2.903   7.835
13694TIP3    H141039   6.576   2.935   7.879
13694TIP3    H241040   6.528   2.858   7.755
13695TIP3   OH241041   6.485   2.888   7.371
13695TIP3    H141042   6.520   2.926   7.287
13695TIP3    H241043   6.419   2.957   7.392
13696TIP3   OH241044   7.300   3.045   7.645
13696TIP3    H141045   7.214   3.030   7.689
13696TIP3    H241046   7.347   3.094   7.714
13697TIP3   OH241047   6.737   3.101   7.633
13697TIP3    H141048   6.650   3.141   7.608
13697TIP3    H241049   6.711   3.009   7.639
13698TIP3   OH241050   6.857   3.122   7.115
13698TIP3    H141051   6.787   3.091   7.054
13698TIP3    H241052   6.914   3.172   7.053
13699TIP3   OH241053   6.907   3.918   8.490
13699TIP3    H141054   6.968   3.985   8.523
13699TIP3    H241055   6.863   3.888   8.570
13700TIP3   OH241056   7.389   3.347   7.717
13700TIP3    H141057   7.467   3.356   7.658
13700TIP3    H241058   7.425   3.376   7.801
13701TIP3   OH241059   7.102   3.674   7.119
13701TIP3    H141060   7.031   3.607   7.106
13701TIP3    H241061   7.080   3.708   7.209
13702TIP3   OH241062   7.566   2.976   6.987
13702TIP3    H141063   7.469   2.956   6.992
13702TIP3    H241064   7.569   3.073   7.003
13703TIP3   OH241065   7.446   3.989   8.069
13703TIP3    H141066   7.462   3.944   8.154
13703TIP3    H241067   7.434   4.081   8.095
13704TIP3   OH241068   7.627   3.235   7.079
13704TIP3    H141069   7.723   3.247   7.085
13704TIP3    H241070   7.598   3.316   7.032
13705TIP3   OH241071   6.799   3.698   7.791
13705TIP3    H141072   6.837   3.668   7.706
13705TIP3    H241073   6.839   3.636   7.854
13706TIP3   OH241074   7.258   3.826   6.955
13706TIP3    H141075   7.208   3.911   6.952
13706TIP3    H241076   7.197   3.772   7.010
13707TIP3   OH241077   6.675   3.600   8.396
13707TIP3    H141078   6.662   3.572   8.490
13707TIP3    H241079   6.601   3.551   8.354
13708TIP3   OH241080   7.647   4.281   8.023
13708TIP3    H141081   7.553   4.281   8.000
13708TIP3    H241082   7.650   4.347   8.094
13709TIP3   OH241083   7.780   4.144   6.827
13709TIP3    H141084   7.750   4.078   6.891
13709TIP3    H241085   7.790   4.094   6.745
13710TIP3   OH241086   7.745   3.768   7.570
13710TIP3    H141087   7.683   3.786   7.642
13710TIP3    H241088   7.798   3.696   7.606
13711TIP3   OH241089   6.902   4.002   7.416
13711TIP3    H141090   6.898   4.083   7.363
13711TIP3    H241091   6.808   3.983   7.430
13712TIP3   OH241092   6.470   3.302   7.128
13712TIP3    H141093   6.510   3.390   7.146
13712TIP3    H241094   6.390   3.306   7.184
13713TIP3   OH241095   7.033   3.764   7.362
13713TIP3    H141096   7.000   3.855   7.378
13713TIP3    H241097   6.996   3.717   7.438
13714TIP3   OH241098   7.170   4.342   7.883
13714TIP3    H141099   7.212   4.410   7.827
13714TIP3    H241100   7.246   4.309   7.933
13715TIP3   OH241101   6.819   4.239   7.270
13715TIP3    H141102   6.733   4.248   7.316
13715TIP3    H241103   6.850   4.332   7.272
13716TIP3   OH241104   7.556   3.986   7.825
13716TIP3    H141105   7.520   3.986   7.916
13716TIP3    H241106   7.637   3.932   7.838
13717TIP3   OH241107   7.529   3.857   6.721
13717TIP3    H141108   7.571   3.840   6.808
13717TIP3    H241109   7.434   3.843   6.741
13718TIP3   OH241110   7.870   4.342   6.546
13718TIP3    H141111   7.907   4.414   6.492
13718TIP3    H241112   7.791   4.387   6.582
13719TIP3   OH241113   7.688   3.783   6.931
13719TIP3    H141114   7.681   3.739   7.018
13719TIP3    H241115   7.786   3.794   6.925
13720TIP3   OH241116   6.607   4.207   8.043
13720TIP3    H141117   6.663   4.141   8.086
13720TIP3    H241118   6.628   4.287   8.093
13721TIP3   OH241119   6.903   3.856   6.731
13721TIP3    H141120   6.896   3.771   6.685
13721TIP3    H241121   6.875   3.832   6.822
13722TIP3   OH241122   6.838   3.856   7.007
13722TIP3    H141123   6.915   3.835   7.062
13722TIP3    H241124   6.841   3.954   7.006
13723TIP3   OH241125   6.582   3.552   7.208
13723TIP3    H141126   6.512   3.596   7.262
13723TIP3    H241127   6.591   3.618   7.137
13724TIP3   OH241128   7.607   2.945   7.259
13724TIP3    H141129   7.596   2.948   7.162
13724TIP3    H241130   7.625   3.039   7.280
13725TIP3   OH241131   7.112   4.052   6.951
13725TIP3    H141132   7.025   4.078   6.986
13725TIP3    H241133   7.117   4.107   6.872
13726TIP3   OH241134   7.307   3.111   7.375
13726TIP3    H141135   7.354   3.191   7.342
13726TIP3    H241136   7.298   3.132   7.469
13727TIP3   OH241137   7.448   2.868   7.464
13727TIP3    H141138   7.405   2.952   7.488
13727TIP3    H241139   7.510   2.899   7.393
13728TIP3   OH241140   6.859   4.129   7.018
13728TIP3    H141141   6.825   4.197   6.955
13728TIP3    H241142   6.839   4.171   7.104
13729TIP3   OH241143   7.871   3.485   7.535
13729TIP3    H141144   7.779   3.464   7.563
13729TIP3    H241145   7.905   3.528   7.615
13730TIP3   OH241146   6.571   3.751   7.010
13730TIP3    H141147   6.639   3.820   7.017
13730TIP3    H241148   6.612   3.696   6.939
13731TIP3   OH241149   6.509   3.030   7.140
13731TIP3    H141150   6.512   3.128   7.141
13731TIP3    H241151   6.432   3.013   7.085
13732TIP3   OH241152   7.814   4.488   7.491
13732TIP3    H141153   7.784   4.541   7.413
13732TIP3    H241154   7.909   4.484   7.478
13733TIP3   OH241155   7.095   2.655   7.920
13733TIP3    H141156   7.003   2.684   7.905
13733TIP3    H241157   7.084   2.614   8.007
13734TIP3   OH241158   6.437   3.969   7.392
13734TIP3    H141159   6.373   4.001   7.457
13734TIP3    H241160   6.405   4.013   7.310
13735TIP3   OH241161   6.595   4.501   8.440
13735TIP3    H141162   6.657   4.510   8.513
13735TIP3    H241163   6.562   4.411   8.452
13736TIP3   OH241164   7.070   4.053   6.644
13736TIP3    H141165   7.010   3.981   6.678
13736TIP3    H241166   7.137   4.000   6.597
13737TIP3   OH241167   7.500   4.096   6.555
13737TIP3    H141168   7.545   4.031   6.611
13737TIP3    H241169   7.550   4.092   6.472
13738TIP3   OH241170   6.706   3.571   6.855
13738TIP3    H141171   6.768   3.544   6.925
13738TIP3    H241172   6.766   3.576   6.777
13739TIP3   OH241173   7.242   3.780   6.676
13739TIP3    H141174   7.223   3.785   6.771
13739TIP3    H241175   7.230   3.684   6.660
13740TIP3   OH241176   6.917   3.473   7.087
13740TIP3    H141177   6.881   3.428   7.164
13740TIP3    H241178   6.951   3.399   7.033
13741TIP3   OH241179   7.164   3.557   8.322
13741TIP3    H141180   7.079   3.605   8.322
13741TIP3    H241181   7.207   3.595   8.243
13742TIP3   OH241182   7.012   3.266   6.931
13742TIP3    H141183   6.984   3.273   6.837
13742TIP3    H241184   7.110   3.267   6.921
13743TIP3   OH241185   7.880   3.600   6.565
13743TIP3    H141186   7.853   3.580   6.473
13743TIP3    H241187   7.844   3.693   6.568
13744TIP3   OH241188   7.300   3.646   8.107
13744TIP3    H141189   7.379   3.646   8.051
13744TIP3    H241190   7.242   3.709   8.059
13745TIP3   OH241191   6.826   4.336   6.834
13745TIP3    H141192   6.919   4.326   6.810
13745TIP3    H241193   6.793   4.382   6.754
13746TIP3   OH241194   6.301   3.713   7.046
13746TIP3    H141195   6.396   3.734   7.030
13746TIP3    H241196   6.294   3.624   7.004
13747TIP3   OH241197   6.220   4.326   7.461
13747TIP3    H141198   6.153   4.265   7.421
13747TIP3    H241199   6.263   4.266   7.525
13748TIP3   OH241200   6.354   4.171   7.646
13748TIP3    H141201   6.339   4.103   7.713
13748TIP3    H241202   6.406   4.236   7.698
13749TIP3   OH241203   7.963   3.785   6.915
13749TIP3    H141204   8.026   3.851   6.881
13749TIP3    H241205   8.017   3.739   6.982
13750TIP3   OH241206   8.100   3.654   7.127
13750TIP3    H141207   8.027   3.608   7.174
13750TIP3    H241208   8.116   3.730   7.184
13751TIP3   OH241209   8.073   4.002   7.485
13751TIP3    H141210   8.162   4.017   7.517
13751TIP3    H241211   8.037   4.092   7.478
13752TIP3   OH241212   7.996   4.381   7.711
13752TIP3    H141213   7.959   4.384   7.800
13752TIP3    H241214   7.941   4.313   7.669
13753TIP3   OH241215   7.912   3.508   7.266
13753TIP3    H141216   7.911   3.413   7.251
13753TIP3    H241217   7.898   3.514   7.363
13754TIP3   OH241218   6.536   3.582   8.019
13754TIP3    H141219   6.532   3.551   7.926
13754TIP3    H241220   6.634   3.585   8.032
13755TIP3   OH241221   7.843   3.000   6.737
13755TIP3    H141222   7.925   2.958   6.767
13755TIP3    H241223   7.779   2.928   6.734
13756TIP3   OH241224   7.906   3.229   7.160
13756TIP3    H141225   7.918   3.134   7.174
13756TIP3    H241226   7.984   3.251   7.108
13757TIP3   OH241227   6.718   2.979   7.972
13757TIP3    H141228   6.761   2.899   8.008
13757TIP3    H241229   6.784   3.046   7.991
13758TIP3   OH241230   6.521   3.231   8.093
13758TIP3    H141231   6.571   3.236   8.009
13758TIP3    H241232   6.539   3.317   8.133
13759TIP3   OH241233   8.099   2.908   6.832
13759TIP3    H141234   8.145   2.850   6.768
13759TIP3    H241235   8.161   2.984   6.839
13760TIP3   OH241236   6.503   2.747   7.600
13760TIP3    H141237   6.410   2.732   7.622
13760TIP3    H241238   6.497   2.802   7.519
13761TIP3   OH241239   7.663   4.445   7.101
13761TIP3    H141240   7.716   4.435   7.020
13761TIP3    H241241   7.717   4.506   7.154
13762TIP3   OH241242   6.660   2.802   8.406
13762TIP3    H141243   6.637   2.823   8.497
13762TIP3    H241244   6.606   2.865   8.355
13763TIP3   OH241245   6.770   4.231   8.498
13763TIP3    H141246   6.679   4.219   8.463
13763TIP3    H241247   6.754   4.227   8.593
13764TIP3   OH241248   6.945   4.286   8.035
13764TIP3    H141249   6.896   4.362   7.997
13764TIP3    H241250   7.030   4.300   7.989
13765TIP3   OH241251   6.620   4.535   8.065
13765TIP3    H141252   6.528   4.562   8.044
13765TIP3    H241253   6.639   4.597   8.137
13766TIP3   OH241254   6.855   4.518   7.920
13766TIP3    H141255   6.768   4.529   7.965
13766TIP3    H241256   6.836   4.551   7.831
13767TIP3   OH241257   7.270   4.532   7.706
13767TIP3    H141258   7.199   4.559   7.645
13767TIP3    H241259   7.290   4.616   7.753
13768TIP3   OH241260   7.536   4.476   7.764
13768TIP3    H141261   7.444   4.499   7.741
13768TIP3    H241262   7.583   4.557   7.739
13769TIP3   OH241263   7.680   4.690   7.647
13769TIP3    H141264   7.763   4.731   7.676
13769TIP3    H241265   7.714   4.611   7.600
13770TIP3   OH241266   6.530   4.330   7.800
13770TIP3    H141267   6.554   4.304   7.892
13770TIP3    H241268   6.603   4.286   7.751
13771TIP3   OH241269   6.726   4.202   7.662
13771TIP3    H141270   6.741   4.119   7.713
13771TIP3    H241271   6.816   4.239   7.658
13772TIP3   OH241272   6.991   4.296   7.667
13772TIP3    H141273   7.023   4.204   7.657
13772TIP3    H241274   7.038   4.320   7.749
13773TIP3   OH241275   6.807   2.702   7.749
13773TIP3    H141276   6.713   2.680   7.761
13773TIP3    H241277   6.846   2.613   7.752
13774TIP3   OH241278   6.610   2.531   7.422
13774TIP3    H141279   6.624   2.583   7.341
13774TIP3    H241280   6.578   2.598   7.485
13775TIP3   OH241281   7.210   2.750   7.630
13775TIP3    H141282   7.305   2.769   7.627
13775TIP3    H241283   7.195   2.739   7.724
13776TIP3   OH241284   7.830   2.774   7.187
13776TIP3    H141285   7.754   2.820   7.226
13776TIP3    H241286   7.833   2.692   7.239
13777TIP3   OH241287   6.317   4.108   7.194
13777TIP3    H141288   6.232   4.074   7.161
13777TIP3    H241289   6.308   4.201   7.166
13778TIP3   OH241290   6.696   2.674   7.175
13778TIP3    H141291   6.749   2.615   7.117
13778TIP3    H241292   6.759   2.742   7.200
13779TIP3   OH241293   7.192   2.871   7.336
13779TIP3    H141294   7.268   2.823   7.298
13779TIP3    H241295   7.228   2.963   7.332
13780TIP3   OH241296   7.090   4.292   6.772
13780TIP3    H141297   7.179   4.313   6.738
13780TIP3    H241298   7.068   4.217   6.713
13781TIP3   OH241299   7.810   4.411   6.871
13781TIP3    H141300   7.804   4.313   6.861
13781TIP3    H241301   7.763   4.439   6.790
13782TIP3   OH241302   6.395   4.126   6.830
13782TIP3    H141303   6.399   4.146   6.924
13782TIP3    H241304   6.483   4.083   6.814
13783TIP3   OH241305   8.268   3.425   7.148
13783TIP3    H141306   8.226   3.513   7.138
13783TIP3    H241307   8.272   3.396   7.058
13784TIP3   OH241308   8.157   3.966   6.817
13784TIP3    H141309   8.123   3.996   6.731
13784TIP3    H241310   8.195   4.048   6.854
13785TIP3   OH241311   8.501   3.629   6.807
13785TIP3    H141312   8.473   3.712   6.768
13785TIP3    H241313   8.576   3.653   6.862
13786TIP3   OH241314   8.192   4.296   7.403
13786TIP3    H141315   8.285   4.281   7.382
13786TIP3    H241316   8.190   4.275   7.497
13787TIP3   OH241317   8.920   4.625   6.533
13787TIP3    H141318   8.886   4.614   6.442
13787TIP3    H241319   8.871   4.702   6.565
13788TIP3   OH241320   8.382   4.498   6.927
13788TIP3    H141321   8.429   4.473   7.007
13788TIP3    H241322   8.330   4.418   6.910
13789TIP3   OH241323   8.695   3.191   6.480
13789TIP3    H141324   8.743   3.107   6.488
13789TIP3    H241325   8.672   3.192   6.386
13790TIP3   OH241326   8.267   3.127   6.854
13790TIP3    H141327   8.300   3.141   6.763
13790TIP3    H241328   8.264   3.218   6.881
13791TIP3   OH241329   8.599   3.447   6.568
13791TIP3    H141330   8.588   3.352   6.557
13791TIP3    H241331   8.685   3.460   6.524
13792TIP3   OH241332   8.853   3.955   6.602
13792TIP3    H141333   8.806   3.870   6.588
13792TIP3    H241334   8.849   3.963   6.699
13793TIP3   OH241335   9.001   4.075   6.394
13793TIP3    H141336   8.978   4.166   6.424
13793TIP3    H241337   8.977   4.024   6.474
13794TIP3   OH241338   8.692   4.259   6.853
13794TIP3    H141339   8.680   4.347   6.813
13794TIP3    H241340   8.635   4.262   6.931
13795TIP3   OH241341   8.248   3.564   6.606
13795TIP3    H141342   8.332   3.604   6.635
13795TIP3    H241343   8.187   3.634   6.631
13796TIP3   OH241344   8.817   4.021   6.885
13796TIP3    H141345   8.779   4.108   6.858
13796TIP3    H241346   8.757   3.999   6.957
13797TIP3   OH241347   8.615   4.512   6.755
13797TIP3    H141348   8.533   4.536   6.801
13797TIP3    H241349   8.682   4.566   6.802
13798TIP3   OH241350   8.687   4.108   6.216
13798TIP3    H141351   8.695   4.014   6.193
13798TIP3    H241352   8.671   4.102   6.313
13799TIP3   OH241353   8.640   4.114   6.485
13799TIP3    H141354   8.719   4.079   6.530
13799TIP3    H241355   8.645   4.210   6.505
13800TIP3   OH241356   8.350   3.826   6.673
13800TIP3    H141357   8.287   3.868   6.735
13800TIP3    H241358   8.363   3.897   6.608
13801TIP3   OH241359   8.904   4.323   6.451
13801TIP3    H141360   8.813   4.344   6.478
13801TIP3    H241361   8.928   4.403   6.402
13802TIP3   OH241362   8.643   4.388   6.507
13802TIP3    H141363   8.610   4.456   6.443
13802TIP3    H241364   8.629   4.434   6.592
13803TIP3   OH241365   8.368   4.026   6.479
13803TIP3    H141366   8.444   4.086   6.496
13803TIP3    H241367   8.411   3.965   6.416
13804TIP3   OH241368   8.296   3.284   6.634
13804TIP3    H141369   8.328   3.376   6.637
13804TIP3    H241370   8.260   3.280   6.546
13805TIP3   OH241371   8.235   4.231   6.881
13805TIP3    H141372   8.169   4.267   6.941
13805TIP3    H241373   8.207   4.271   6.795
13806TIP3   OH241374   8.853   4.304   6.128
13806TIP3    H141375   8.788   4.238   6.161
13806TIP3    H241376   8.936   4.260   6.151
13807TIP3   OH241377   8.505   3.828   6.346
13807TIP3    H141378   8.552   3.792   6.424
13807TIP3    H241379   8.579   3.832   6.282
13808TIP3   OH241380   8.995   4.005   6.138
13808TIP3    H141381   9.013   4.039   6.229
13808TIP3    H241382   8.922   3.946   6.160
13809TIP3   OH241383   8.699   3.722   6.568
13809TIP3    H141384   8.645   3.663   6.623
13809TIP3    H241385   8.750   3.656   6.517
13810TIP3   OH241386   8.821   3.524   6.417
13810TIP3    H141387   8.788   3.529   6.326
13810TIP3    H241388   8.916   3.509   6.399
13811TIP3   OH241389   8.606   4.588   6.321
13811TIP3    H141390   8.702   4.583   6.307
13811TIP3    H241391   8.581   4.638   6.240
13812TIP3   OH241392   8.101   3.972   6.532
13812TIP3    H141393   8.193   3.999   6.512
13812TIP3    H241394   8.097   3.883   6.491
13813TIP3   OH241395   8.008   4.586   6.950
13813TIP3    H141396   7.945   4.523   6.908
13813TIP3    H241397   8.058   4.524   7.007
13814TIP3   OH241398   8.146   4.418   7.117
13814TIP3    H141399   8.124   4.351   7.182
13814TIP3    H241400   8.196   4.481   7.174
13815TIP3   OH241401   8.112   4.365   6.681
13815TIP3    H141402   8.027   4.330   6.651
13815TIP3    H241403   8.104   4.457   6.651
13816TIP3   OH241404   8.493   2.983   6.659
13816TIP3    H141405   8.577   2.935   6.650
13816TIP3    H241406   8.512   3.039   6.738
13817TIP3   OH241407   8.871   4.545   6.267
13817TIP3    H141408   8.960   4.558   6.228
13817TIP3    H241409   8.843   4.469   6.212
13818TIP3   OH241410   8.189   4.381   6.319
13818TIP3    H141411   8.197   4.403   6.412
13818TIP3    H241412   8.277   4.339   6.300
13819TIP3   OH241413   1.874   5.075   8.284
13819TIP3    H141414   1.906   5.022   8.210
13819TIP3    H241415   1.950   5.130   8.308
13820TIP3   OH241416   1.567   4.351   8.068
13820TIP3    H141417   1.642   4.409   8.093
13820TIP3    H241418   1.615   4.285   8.014
13821TIP3   OH241419   1.782   4.505   8.128
13821TIP3    H141420   1.787   4.597   8.155
13821TIP3    H241421   1.807   4.514   8.033
13822TIP3   OH241422   2.090   5.115   7.739
13822TIP3    H141423   2.100   5.210   7.719
13822TIP3    H241424   2.182   5.083   7.726
13823TIP3   OH241425   1.396   5.427   8.206
13823TIP3    H141426   1.355   5.426   8.118
13823TIP3    H241427   1.370   5.516   8.239
13824TIP3   OH241428   1.603   5.335   7.857
13824TIP3    H141429   1.662   5.264   7.822
13824TIP3    H241430   1.637   5.345   7.948
13825TIP3   OH241431   1.659   5.389   8.128
13825TIP3    H141432   1.570   5.386   8.169
13825TIP3    H241433   1.715   5.358   8.200
13826TIP3   OH241434   1.848   4.560   7.878
13826TIP3    H141435   1.811   4.530   7.793
13826TIP3    H241436   1.936   4.593   7.850
13827TIP3   OH241437   1.516   4.868   8.064
13827TIP3    H141438   1.477   4.958   8.078
13827TIP3    H241439   1.507   4.833   8.154
13828TIP3   OH241440   2.330   4.369   8.070
13828TIP3    H141441   2.257   4.327   8.020
13828TIP3    H241442   2.327   4.458   8.030
13829TIP3   OH241443   2.031   5.186   7.999
13829TIP3    H141444   1.998   5.106   8.041
13829TIP3    H241445   2.046   5.156   7.908
13830TIP3   OH241446   1.775   4.920   7.906
13830TIP3    H141447   1.832   4.897   7.983
13830TIP3    H241448   1.688   4.893   7.940
13831TIP3   OH241449   2.119   5.390   7.723
13831TIP3    H141450   2.158   5.465   7.675
13831TIP3    H241451   2.038   5.433   7.757
13832TIP3   OH241452   1.949   4.871   8.116
13832TIP3    H141453   1.937   4.818   8.196
13832TIP3    H241454   2.046   4.859   8.101
13833TIP3   OH241455   1.144   4.896   7.907
13833TIP3    H141456   1.175   4.807   7.880
13833TIP3    H241457   1.103   4.877   7.994
13834TIP3   OH241458   1.396   5.109   8.112
13834TIP3    H141459   1.353   5.134   8.195
13834TIP3    H241460   1.379   5.187   8.057
13835TIP3   OH241461   0.955   5.213   8.160
13835TIP3    H141462   0.980   5.277   8.090
13835TIP3    H241463   1.032   5.219   8.218
13836TIP3   OH241464   1.305   5.097   7.808
13836TIP3    H141465   1.250   5.028   7.852
13836TIP3    H241466   1.381   5.043   7.779
13837TIP3   OH241467   1.747   5.138   7.730
13837TIP3    H141468   1.785   5.070   7.789
13837TIP3    H241469   1.803   5.131   7.650
13838TIP3   OH241470   0.920   4.650   7.976
13838TIP3    H141471   0.956   4.715   8.039
13838TIP3    H241472   1.002   4.628   7.926
13839TIP3   OH241473   1.448   4.803   7.811
13839TIP3    H141474   1.464   4.824   7.905
13839TIP3    H241475   1.460   4.705   7.814
13840TIP3   OH241476   1.205   4.369   8.079
13840TIP3    H141477   1.213   4.360   7.982
13840TIP3    H241478   1.297   4.373   8.108
13841TIP3   OH241479   2.084   4.645   7.767
13841TIP3    H141480   2.067   4.598   7.683
13841TIP3    H241481   2.049   4.733   7.744
13842TIP3   OH241482   1.076   5.385   7.986
13842TIP3    H141483   1.172   5.373   7.978
13842TIP3    H241484   1.061   5.450   7.916
13843TIP3   OH241485   2.217   4.854   8.089
13843TIP3    H141486   2.290   4.910   8.055
13843TIP3    H241487   2.243   4.846   8.183
13844TIP3   OH241488   2.351   4.661   8.260
13844TIP3    H141489   2.289   4.676   8.332
13844TIP3    H241490   2.303   4.600   8.202
13845TIP3   OH241491   2.281   4.618   7.955
13845TIP3    H141492   2.211   4.611   7.886
13845TIP3    H241493   2.255   4.703   7.996
13846TIP3   OH241494   2.140   4.282   7.893
13846TIP3    H141495   2.102   4.301   7.806
13846TIP3    H241496   2.126   4.184   7.896
13847TIP3   OH241497   2.094   4.014   7.884
13847TIP3    H141498   2.174   3.986   7.934
13847TIP3    H241499   2.023   3.960   7.922
13848TIP3   OH241500   2.341   3.970   8.000
13848TIP3    H141501   2.385   3.892   7.962
13848TIP3    H241502   2.416   4.030   8.016
13849TIP3   OH241503   1.939   5.433   8.293
13849TIP3    H141504   1.973   5.453   8.204
13849TIP3    H241505   1.962   5.514   8.342
13850TIP3   OH241506   1.342   5.336   7.937
13850TIP3    H141507   1.433   5.353   7.906
13850TIP3    H241508   1.319   5.260   7.879
13851TIP3   OH241509   2.061   5.457   8.044
13851TIP3    H141510   2.054   5.359   8.033
13851TIP3    H241511   2.013   5.488   7.965
13852TIP3   OH241512   3.555   4.972   7.993
13852TIP3    H141513   3.524   5.064   7.978
13852TIP3    H241514   3.475   4.922   7.972
13853TIP3   OH241515   3.529   4.977   8.366
13853TIP3    H141516   3.583   4.962   8.446
13853TIP3    H241517   3.491   4.889   8.351
13854TIP3   OH241518   3.795   5.277   8.064
13854TIP3    H141519   3.779   5.206   8.129
13854TIP3    H241520   3.828   5.349   8.120
13855TIP3   OH241521   2.823   5.294   8.462
13855TIP3    H141522   2.814   5.195   8.464
13855TIP3    H241523   2.921   5.298   8.462
13856TIP3   OH241524   2.573   4.507   8.215
13856TIP3    H141525   2.505   4.577   8.215
13856TIP3    H241526   2.522   4.435   8.256
13857TIP3   OH241527   2.694   4.770   8.411
13857TIP3    H141528   2.733   4.700   8.463
13857TIP3    H241529   2.680   4.729   8.326
13858TIP3   OH241530   3.447   5.736   8.081
13858TIP3    H141531   3.489   5.664   8.029
13858TIP3    H241532   3.436   5.694   8.167
13859TIP3   OH241533   3.350   5.201   8.405
13859TIP3    H141534   3.391   5.118   8.374
13859TIP3    H241535   3.428   5.241   8.447
13860TIP3   OH241536   4.366   4.529   8.409
13860TIP3    H141537   4.386   4.613   8.453
13860TIP3    H241538   4.387   4.551   8.316
13861TIP3   OH241539   3.755   4.681   8.460
13861TIP3    H141540   3.798   4.596   8.482
13861TIP3    H241541   3.728   4.665   8.368
13862TIP3   OH241542   3.150   4.350   8.380
13862TIP3    H141543   3.099   4.428   8.352
13862TIP3    H241544   3.085   4.279   8.362
13863TIP3   OH241545   3.796   4.447   8.044
13863TIP3    H141546   3.865   4.434   8.113
13863TIP3    H241547   3.851   4.484   7.972
13864TIP3   OH241548   3.172   4.761   8.329
13864TIP3    H141549   3.266   4.733   8.336
13864TIP3    H241550   3.130   4.681   8.290
13865TIP3   OH241551   4.432   4.728   8.597
13865TIP3    H141552   4.347   4.770   8.572
13865TIP3    H241553   4.422   4.729   8.692
13866TIP3   OH241554   3.448   5.199   7.861
13866TIP3    H141555   3.395   5.173   7.784
13866TIP3    H241556   3.399   5.277   7.892
13867TIP3   OH241557   4.000   4.455   8.223
13867TIP3    H141558   3.991   4.402   8.303
13867TIP3    H241559   4.051   4.532   8.254
13868TIP3   OH241560   2.420   5.007   7.985
13868TIP3    H141561   2.387   5.037   7.898
13868TIP3    H241562   2.456   5.090   8.022
13869TIP3   OH241563   3.866   5.519   8.224
13869TIP3    H141564   3.776   5.507   8.264
13869TIP3    H241565   3.856   5.606   8.181
13870TIP3   OH241566   4.138   4.452   8.571
13870TIP3    H141567   4.050   4.477   8.538
13870TIP3    H241568   4.199   4.489   8.505
13871TIP3   OH241569   3.564   5.561   7.900
13871TIP3    H141570   3.614   5.479   7.884
13871TIP3    H241571   3.626   5.626   7.860
13872TIP3   OH241572   3.709   5.345   7.812
13872TIP3    H141573   3.648   5.272   7.793
13872TIP3    H241574   3.750   5.314   7.896
13873TIP3   OH241575   4.090   5.428   8.571
13873TIP3    H141576   4.077   5.349   8.515
13873TIP3    H241577   4.069   5.500   8.509
13874TIP3   OH241578   3.379   4.821   7.832
13874TIP3    H141579   3.299   4.873   7.813
13874TIP3    H241580   3.424   4.820   7.746
13875TIP3   OH241581   3.338   4.612   7.541
13875TIP3    H141582   3.403   4.661   7.593
13875TIP3    H241583   3.396   4.547   7.496
13876TIP3   OH241584   4.282   5.063   8.418
13876TIP3    H141585   4.199   5.115   8.425
13876TIP3    H241586   4.313   5.092   8.330
13877TIP3   OH241587   3.732   4.906   7.798
13877TIP3    H141588   3.675   4.930   7.875
13877TIP3    H241589   3.815   4.883   7.844
13878TIP3   OH241590   3.959   4.974   8.683
13878TIP3    H141591   3.949   5.069   8.699
13878TIP3    H241592   3.875   4.957   8.635
13879TIP3   OH241593   2.966   4.910   8.211
13879TIP3    H141594   2.923   4.845   8.152
13879TIP3    H241595   3.036   4.857   8.253
13880TIP3   OH241596   3.096   5.321   8.364
13880TIP3    H141597   3.075   5.270   8.285
13880TIP3    H241598   3.182   5.281   8.390
13881TIP3   OH241599   3.100   4.878   8.568
13881TIP3    H141600   3.117   4.831   8.484
13881TIP3    H241601   3.187   4.908   8.592
13882TIP3   OH241602   3.625   5.507   8.345
13882TIP3    H141603   3.605   5.591   8.390
13882TIP3    H241604   3.600   5.438   8.409
13883TIP3   OH241605   3.567   4.764   7.629
13883TIP3    H141606   3.626   4.824   7.680
13883TIP3    H241607   3.595   4.785   7.537
13884TIP3   OH241608   3.315   5.439   7.900
13884TIP3    H141609   3.395   5.492   7.913
13884TIP3    H241610   3.252   5.503   7.864
13885TIP3   OH241611   4.084   4.002   7.678
13885TIP3    H141612   4.002   4.023   7.727
13885TIP3    H241613   4.099   4.085   7.628
13886TIP3   OH241614   2.830   4.742   8.013
13886TIP3    H141615   2.753   4.777   7.964
13886TIP3    H241616   2.798   4.658   8.047
13887TIP3   OH241617   3.886   5.371   7.221
13887TIP3    H141618   3.892   5.469   7.214
13887TIP3    H241619   3.980   5.345   7.210
13888TIP3   OH241620   4.326   5.778   8.623
13888TIP3    H141621   4.327   5.680   8.635
13888TIP3    H241622   4.238   5.798   8.663
13889TIP3   OH241623   3.196   5.688   7.706
13889TIP3    H141624   3.147   5.671   7.624
13889TIP3    H241625   3.162   5.775   7.734
13890TIP3   OH241626   2.628   5.538   8.087
13890TIP3    H141627   2.683   5.530   8.168
13890TIP3    H241628   2.576   5.456   8.092
13891TIP3   OH241629   3.394   5.590   7.345
13891TIP3    H141630   3.453   5.520   7.310
13891TIP3    H241631   3.427   5.601   7.436
13892TIP3   OH241632   3.446   5.637   7.614
13892TIP3    H141633   3.358   5.647   7.656
13892TIP3    H241634   3.497   5.599   7.687
13893TIP3   OH241635   3.647   4.807   7.375
13893TIP3    H141636   3.610   4.783   7.288
13893TIP3    H241637   3.729   4.852   7.350
13894TIP3   OH241638   3.358   4.183   7.676
13894TIP3    H141639   3.322   4.179   7.766
13894TIP3    H241640   3.317   4.102   7.639
13895TIP3   OH241641   3.031   4.557   8.221
13895TIP3    H141642   2.946   4.518   8.251
13895TIP3    H241643   3.040   4.508   8.137
13896TIP3   OH241644   3.522   4.627   7.965
13896TIP3    H141645   3.470   4.698   7.922
13896TIP3    H241646   3.575   4.593   7.890
13897TIP3   OH241647   3.676   4.648   8.198
13897TIP3    H141648   3.613   4.677   8.130
13897TIP3    H241649   3.709   4.567   8.153
13898TIP3   OH241650   3.013   4.159   7.642
13898TIP3    H141651   3.004   4.157   7.739
13898TIP3    H241652   2.935   4.212   7.617
13899TIP3   OH241653   2.538   4.189   8.030
13899TIP3    H141654   2.583   4.228   7.953
13899TIP3    H241655   2.472   4.259   8.049
13900TIP3   OH241656   3.701   4.924   8.572
13900TIP3    H141657   3.719   4.830   8.545
13900TIP3    H241658   3.669   4.915   8.664
13901TIP3   OH241659   3.396   4.377   8.270
13901TIP3    H141660   3.304   4.372   8.305
13901TIP3    H241661   3.446   4.372   8.353
13902TIP3   OH241662   2.818   4.411   8.284
13902TIP3    H141663   2.727   4.437   8.259
13902TIP3    H241664   2.802   4.337   8.345
13903TIP3   OH241665   3.057   4.405   7.993
13903TIP3    H141666   3.150   4.425   7.969
13903TIP3    H241667   3.006   4.430   7.913
13904TIP3   OH241668   3.849   4.429   8.516
13904TIP3    H141669   3.827   4.430   8.611
13904TIP3    H241670   3.777   4.372   8.480
13905TIP3   OH241671   2.904   4.446   7.773
13905TIP3    H141672   2.829   4.402   7.728
13905TIP3    H241673   2.954   4.481   7.696
13906TIP3   OH241674   4.044   6.114   8.702
13906TIP3    H141675   4.035   6.138   8.608
13906TIP3    H241676   4.067   6.199   8.740
13907TIP3   OH241677   3.442   4.696   8.380
13907TIP3    H141678   3.509   4.651   8.327
13907TIP3    H241679   3.460   4.662   8.469
13908TIP3   OH241680   2.993   4.144   8.278
13908TIP3    H141681   2.916   4.087   8.288
13908TIP3    H241682   3.003   4.149   8.182
13909TIP3   OH241683   3.150   4.973   7.777
13909TIP3    H141684   3.078   4.907   7.767
13909TIP3    H241685   3.131   5.009   7.867
13910TIP3   OH241686   4.052   5.211   8.405
13910TIP3    H141687   4.075   5.264   8.326
13910TIP3    H241688   3.966   5.171   8.380
13911TIP3   OH241689   3.607   4.286   7.643
13911TIP3    H141690   3.511   4.265   7.654
13911TIP3    H241691   3.613   4.379   7.672
13912TIP3   OH241692   3.676   4.535   7.748
13912TIP3    H141693   3.772   4.542   7.765
13912TIP3    H241694   3.658   4.617   7.698
13913TIP3   OH241695   2.858   5.028   8.442
13913TIP3    H141696   2.893   4.995   8.357
13913TIP3    H241697   2.826   4.945   8.480
13914TIP3   OH241698   3.294   5.123   7.600
13914TIP3    H141699   3.245   5.209   7.605
13914TIP3    H241700   3.240   5.068   7.662
13915TIP3   OH241701   3.715   5.530   8.710
13915TIP3    H141702   3.636   5.574   8.678
13915TIP3    H241703   3.754   5.596   8.771
13916TIP3   OH241704   4.117   4.627   7.583
13916TIP3    H141705   4.055   4.584   7.519
13916TIP3    H241706   4.115   4.717   7.544
13917TIP3   OH241707   4.331   5.501   8.661
13917TIP3    H141708   4.236   5.483   8.644
13917TIP3    H241709   4.370   5.460   8.581
13918TIP3   OH241710   3.821   5.444   7.492
13918TIP3    H141711   3.791   5.383   7.561
13918TIP3    H241712   3.828   5.388   7.413
13919TIP3   OH241713   3.818   5.082   8.312
13919TIP3    H141714   3.728   5.054   8.337
13919TIP3    H241715   3.852   4.999   8.273
13920TIP3   OH241716   2.944   5.302   8.075
13920TIP3    H141717   2.937   5.385   8.023
13920TIP3    H241718   2.852   5.283   8.095
13921TIP3   OH241719   2.503   4.605   7.789
13921TIP3    H141720   2.553   4.687   7.810
13921TIP3    H241721   2.430   4.610   7.854
13922TIP3   OH241722   3.082   5.069   8.016
13922TIP3    H141723   3.046   5.156   8.041
13922TIP3    H241724   3.049   5.014   8.090
13923TIP3   OH241725   3.206   5.651   8.534
13923TIP3    H141726   3.262   5.721   8.493
13923TIP3    H241727   3.271   5.595   8.578
13924TIP3   OH241728   2.860   5.544   7.929
13924TIP3    H141729   2.775   5.551   7.977
13924TIP3    H241730   2.892   5.636   7.934
13925TIP3   OH241731   3.604   5.280   8.512
13925TIP3    H141732   3.629   5.274   8.606
13925TIP3    H241733   3.681   5.237   8.472
13926TIP3   OH241734   3.583   5.173   7.384
13926TIP3    H141735   3.636   5.147   7.463
13926TIP3    H241736   3.495   5.144   7.413
13927TIP3   OH241737   3.843   5.806   8.553
13927TIP3    H141738   3.757   5.765   8.533
13927TIP3    H241739   3.842   5.879   8.487
13928TIP3   OH241740   3.918   5.650   7.206
13928TIP3    H141741   3.960   5.732   7.174
13928TIP3    H241742   3.835   5.688   7.241
13929TIP3   OH241743   3.741   5.099   7.597
13929TIP3    H141744   3.727   5.041   7.674
13929TIP3    H241745   3.839   5.099   7.593
13930TIP3   OH241746   2.940   5.152   7.392
13930TIP3    H141747   2.954   5.059   7.367
13930TIP3    H241748   2.921   5.143   7.488
13931TIP3   OH241749   2.884   5.159   7.664
13931TIP3    H141750   2.955   5.128   7.721
13931TIP3    H241751   2.890   5.256   7.674
13932TIP3   OH241752   2.615   4.847   7.868
13932TIP3    H141753   2.551   4.894   7.926
13932TIP3    H241754   2.633   4.917   7.802
13933TIP3   OH241755   3.660   4.234   7.926
13933TIP3    H141756   3.642   4.257   7.833
13933TIP3    H241757   3.696   4.317   7.962
13934TIP3   OH241758   3.153   5.354   7.609
13934TIP3    H141759   3.067   5.376   7.649
13934TIP3    H241760   3.168   5.433   7.555
13935TIP3   OH241761   3.342   4.424   8.008
13935TIP3    H141762   3.404   4.498   7.990
13935TIP3    H241763   3.356   4.415   8.105
13936TIP3   OH241764   3.486   4.150   8.124
13936TIP3    H141765   3.470   4.234   8.173
13936TIP3    H241766   3.551   4.181   8.056
13937TIP3   OH241767   2.900   5.431   7.682
13937TIP3    H141768   2.869   5.501   7.621
13937TIP3    H241769   2.883   5.472   7.769
13938TIP3   OH241770   2.997   4.144   7.918
13938TIP3    H141771   2.996   4.235   7.954
13938TIP3    H241772   3.093   4.126   7.926
13939TIP3   OH241773   3.902   4.830   8.203
13939TIP3    H141774   3.824   4.772   8.215
13939TIP3    H241775   3.971   4.782   8.253
13940TIP3   OH241776   2.616   5.057   7.670
13940TIP3    H141777   2.688   5.121   7.681
13940TIP3    H241778   2.660   4.997   7.605
13941TIP3   OH241779   2.563   4.336   7.797
13941TIP3    H141780   2.558   4.434   7.802
13941TIP3    H241781   2.475   4.312   7.767
13942TIP3   OH241782   3.871   5.789   8.150
13942TIP3    H141783   3.829   5.835   8.074
13942TIP3    H241784   3.966   5.808   8.130
13943TIP3   OH241785   2.481   5.271   8.056
13943TIP3    H141786   2.417   5.304   8.120
13943TIP3    H241787   2.449   5.314   7.973
13944TIP3   OH241788   3.103   5.353   7.300
13944TIP3    H141789   3.046   5.284   7.341
13944TIP3    H241790   3.180   5.300   7.275
13945TIP3   OH241791   3.542   5.394   7.216
13945TIP3    H141792   3.578   5.327   7.278
13945TIP3    H241793   3.602   5.389   7.140
13946TIP3   OH241794   2.752   4.870   7.528
13946TIP3    H141795   2.807   4.838   7.602
13946TIP3    H241796   2.820   4.875   7.457
13947TIP3   OH241797   3.268   5.074   7.332
13947TIP3    H141798   3.268   5.084   7.430
13947TIP3    H241799   3.267   4.976   7.326
13948TIP3   OH241800   3.862   5.292   8.673
13948TIP3    H141801   3.953   5.324   8.666
13948TIP3    H241802   3.815   5.376   8.692
13949TIP3   OH241803   2.953   4.780   7.745
13949TIP3    H141804   2.926   4.746   7.833
13949TIP3    H241805   2.991   4.701   7.702
13950TIP3   OH241806   3.059   4.573   7.585
13950TIP3    H141807   3.035   4.581   7.491
13950TIP3    H241808   3.157   4.575   7.580
13951TIP3   OH241809   3.881   4.904   7.252
13951TIP3    H141810   3.866   4.861   7.166
13951TIP3    H241811   3.845   4.993   7.231
13952TIP3   OH241812   2.869   5.636   7.494
13952TIP3    H141813   2.963   5.625   7.475
13952TIP3    H241814   2.842   5.686   7.415
13953TIP3   OH241815   2.347   5.017   7.705
13953TIP3    H141816   2.442   5.036   7.691
13953TIP3    H241817   2.341   4.926   7.667
13954TIP3   OH241818   2.266   5.630   8.116
13954TIP3    H141819   2.198   5.568   8.082
13954TIP3    H241820   2.309   5.574   8.185
13955TIP3   OH241821   2.397   5.482   8.305
13955TIP3    H141822   2.384   5.414   8.372
13955TIP3    H241823   2.448   5.549   8.355
13956TIP3   OH241824   4.125   5.877   8.110
13956TIP3    H141825   4.147   5.911   8.199
13956TIP3    H241826   4.189   5.924   8.054
13957TIP3   OH241827   4.147   5.897   8.390
13957TIP3    H141828   4.109   5.806   8.388
13957TIP3    H241829   4.227   5.880   8.442
13958TIP3   OH241830   4.021   5.088   7.584
13958TIP3    H141831   4.088   5.153   7.558
13958TIP3    H241832   4.061   5.049   7.665
13959TIP3   OH241833   4.144   4.954   7.788
13959TIP3    H141834   4.078   4.913   7.848
13959TIP3    H241835   4.210   4.990   7.851
13960TIP3   OH241836   4.203   5.351   8.219
13960TIP3    H141837   4.254   5.283   8.173
13960TIP3    H241838   4.198   5.423   8.153
13961TIP3   OH241839   4.028   5.647   8.411
13961TIP3    H141840   3.955   5.687   8.463
13961TIP3    H241841   3.980   5.601   8.340
13962TIP3   OH241842   4.085   4.863   7.434
13962TIP3    H141843   4.011   4.864   7.370
13962TIP3    H241844   4.056   4.937   7.493
13963TIP3   OH241845   3.953   4.536   7.385
13963TIP3    H141846   3.906   4.567   7.308
13963TIP3    H241847   3.932   4.440   7.382
13964TIP3   OH241848   3.958   4.814   7.934
13964TIP3    H141849   3.963   4.717   7.926
13964TIP3    H241850   3.942   4.826   8.031
13965TIP3   OH241851   4.216   5.228   8.775
13965TIP3    H141852   4.301   5.181   8.776
13965TIP3    H241853   4.242   5.316   8.745
13966TIP3   OH241854   4.414   5.042   8.796
13966TIP3    H141855   4.351   4.992   8.849
13966TIP3    H241856   4.493   4.986   8.801
13967TIP3   OH241857   3.895   4.270   7.371
13967TIP3    H141858   3.967   4.236   7.429
13967TIP3    H241859   3.820   4.212   7.391
13968TIP3   OH241860   3.955   4.529   7.826
13968TIP3    H141861   3.995   4.440   7.841
13968TIP3    H241862   4.014   4.561   7.755
13969TIP3   OH241863   4.113   4.699   8.330
13969TIP3    H141864   4.199   4.723   8.288
13969TIP3    H241865   4.126   4.740   8.418
13970TIP3   OH241866   4.185   4.848   8.561
13970TIP3    H141867   4.109   4.884   8.612
13970TIP3    H241868   4.216   4.929   8.516
13971TIP3   OH241869   4.063   4.279   7.865
13971TIP3    H141870   4.110   4.263   7.949
13971TIP3    H241871   4.001   4.203   7.864
13972TIP3   OH241872   4.141   4.210   7.501
13972TIP3    H141873   4.179   4.140   7.445
13972TIP3    H241874   4.209   4.280   7.497
13973TIP3   OH241875   2.546   4.023   8.241
13973TIP3    H141876   2.522   4.077   8.317
13973TIP3    H241877   2.555   4.092   8.171
13974TIP3   OH241878   3.706   5.746   7.763
13974TIP3    H141879   3.762   5.739   7.684
13974TIP3    H241880   3.756   5.809   7.818
13975TIP3   OH241881   2.983   5.604   8.701
13975TIP3    H141882   2.965   5.681   8.644
13975TIP3    H241883   3.070   5.577   8.668
13976TIP3   OH241884   3.595   5.971   8.666
13976TIP3    H141885   3.687   5.944   8.653
13976TIP3    H241886   3.602   6.016   8.754
13977TIP3   OH241887   2.891   5.830   8.577
13977TIP3    H141888   2.798   5.840   8.601
13977TIP3    H241889   2.889   5.854   8.482
13978TIP3   OH241890   3.331   5.849   8.376
13978TIP3    H141891   3.257   5.862   8.315
13978TIP3    H241892   3.337   5.938   8.417
13979TIP3   OH241893   3.595   5.771   8.427
13979TIP3    H141894   3.503   5.798   8.410
13979TIP3    H241895   3.643   5.849   8.393
13980TIP3   OH241896   3.795   5.970   8.344
13980TIP3    H141897   3.784   6.055   8.296
13980TIP3    H241898   3.826   5.911   8.272
13981TIP3   OH241899   2.593   5.640   8.438
13981TIP3    H141900   2.612   5.604   8.527
13981TIP3    H241901   2.661   5.593   8.386
13982TIP3   OH241902   2.781   5.504   8.303
13982TIP3    H141903   2.792   5.421   8.355
13982TIP3    H241904   2.873   5.540   8.308
13983TIP3   OH241905   3.041   5.594   8.326
13983TIP3    H141906   3.068   5.499   8.320
13983TIP3    H241907   3.092   5.618   8.406
13984TIP3   OH241908   3.634   4.275   8.425
13984TIP3    H141909   3.558   4.225   8.459
13984TIP3    H241910   3.684   4.208   8.375
13985TIP3   OH241911   4.137   4.139   8.320
13985TIP3    H141912   4.168   4.191   8.243
13985TIP3    H241913   4.040   4.148   8.312
13986TIP3   OH241914   4.228   4.232   8.081
13986TIP3    H141915   4.302   4.182   8.042
13986TIP3    H241916   4.261   4.324   8.068
13987TIP3   OH241917   2.620   3.843   8.046
13987TIP3    H141918   2.668   3.901   7.983
13987TIP3    H241919   2.606   3.903   8.122
13988TIP3   OH241920   3.320   4.016   8.299
13988TIP3    H141921   3.375   4.050   8.227
13988TIP3    H241922   3.338   4.082   8.368
13989TIP3   OH241923   3.861   4.135   8.287
13989TIP3    H141924   3.846   4.099   8.199
13989TIP3    H241925   3.833   4.060   8.344
13990TIP3   OH241926   3.880   4.067   7.858
13990TIP3    H141927   3.794   4.111   7.875
13990TIP3    H241928   3.865   3.981   7.903
13991TIP3   OH241929   2.362   5.407   7.855
13991TIP3    H141930   2.277   5.375   7.822
13991TIP3    H241931   2.353   5.501   7.836
13992TIP3   OH241932   2.766   3.993   7.839
13992TIP3    H141933   2.814   3.928   7.784
13992TIP3    H241934   2.840   4.046   7.875
13993TIP3   OH241935   3.274   4.169   7.937
13993TIP3    H141936   3.330   4.122   8.000
13993TIP3    H241937   3.297   4.261   7.959
13994TIP3   OH241938   3.134   5.588   7.439
13994TIP3    H141939   3.223   5.611   7.404
13994TIP3    H241940   3.113   5.513   7.380
13995TIP3   OH241941   3.857   5.712   7.533
13995TIP3    H141942   3.848   5.614   7.524
13995TIP3    H241943   3.808   5.742   7.454
13996TIP3   OH241944   2.439   5.429   7.495
13996TIP3    H141945   2.441   5.445   7.590
13996TIP3    H241946   2.526   5.386   7.480
13997TIP3   OH241947   4.072   5.841   8.714
13997TIP3    H141948   3.995   5.826   8.656
13997TIP3    H241949   4.065   5.939   8.727
13998TIP3   OH241950   5.348   5.226   7.483
13998TIP3    H141951   5.320   5.318   7.466
13998TIP3    H241952   5.269   5.178   7.452
13999TIP3   OH241953   5.344   5.227   7.869
13999TIP3    H141954   5.380   5.210   7.958
13999TIP3    H241955   5.303   5.142   7.847
14000TIP3   OH241956   4.644   5.121   8.230
14000TIP3    H141957   4.672   5.052   8.293
14000TIP3    H241958   4.721   5.179   8.231
14001TIP3   OH241959   5.592   5.530   7.551
14001TIP3    H141960   5.577   5.467   7.623
14001TIP3    H241961   5.618   5.610   7.600
14002TIP3   OH241962   4.617   5.531   7.952
14002TIP3    H141963   4.610   5.434   7.955
14002TIP3    H241964   4.714   5.542   7.950
14003TIP3   OH241965   4.325   4.733   7.737
14003TIP3    H141966   4.278   4.815   7.758
14003TIP3    H241967   4.252   4.681   7.698
14004TIP3   OH241968   4.380   5.021   7.916
14004TIP3    H141969   4.430   4.943   7.951
14004TIP3    H241970   4.446   5.062   7.858
14005TIP3   OH241971   5.240   5.990   7.567
14005TIP3    H141972   5.283   5.918   7.517
14005TIP3    H241973   5.238   5.954   7.657
14006TIP3   OH241974   5.144   5.453   7.917
14006TIP3    H141975   5.188   5.377   7.874
14006TIP3    H241976   5.225   5.501   7.944
14007TIP3   OH241977   6.159   4.772   7.918
14007TIP3    H141978   6.185   4.854   7.964
14007TIP3    H241979   6.178   4.795   7.825
14008TIP3   OH241980   5.555   4.952   7.947
14008TIP3    H141981   5.601   4.868   7.967
14008TIP3    H241982   5.525   4.935   7.856
14009TIP3   OH241983   4.900   4.613   7.911
14009TIP3    H141984   4.879   4.686   7.850
14009TIP3    H241985   4.850   4.540   7.868
14010TIP3   OH241986   5.592   4.706   7.533
14010TIP3    H141987   5.663   4.691   7.600
14010TIP3    H241988   5.646   4.741   7.460
14011TIP3   OH241989   4.528   4.816   8.020
14011TIP3    H141990   4.611   4.799   8.068
14011TIP3    H241991   4.543   4.760   7.941
14012TIP3   OH241992   4.969   5.012   7.814
14012TIP3    H141993   5.064   4.988   7.826
14012TIP3    H241994   4.931   4.928   7.782
14013TIP3   OH241995   6.221   4.977   8.094
14013TIP3    H141996   6.141   5.031   8.077
14013TIP3    H241997   6.261   5.024   8.169
14014TIP3   OH241998   4.892   4.601   8.342
14014TIP3    H141999   4.838   4.633   8.268
14014TIP3    H242000   4.839   4.634   8.417
14015TIP3   OH242001   5.236   5.449   7.352
14015TIP3    H142002   5.194   5.436   7.267
14015TIP3    H242003   5.192   5.531   7.383
14016TIP3   OH242004   4.997   5.373   8.140
14016TIP3    H142005   4.938   5.443   8.176
14016TIP3    H242006   5.043   5.422   8.067
14017TIP3   OH242007   5.797   4.710   7.713
14017TIP3    H142008   5.777   4.672   7.800
14017TIP3    H242009   5.848   4.790   7.737
14018TIP3   OH242010   4.764   4.713   8.128
14018TIP3    H142011   4.823   4.787   8.153
14018TIP3    H242012   4.814   4.675   8.053
14019TIP3   OH242013   4.824   5.570   8.238
14019TIP3    H142014   4.802   5.659   8.203
14019TIP3    H242015   4.744   5.555   8.293
14020TIP3   OH242016   4.222   5.261   7.476
14020TIP3    H142017   4.173   5.304   7.404
14020TIP3    H242018   4.258   5.340   7.522
14021TIP3   OH242019   5.642   5.765   7.692
14021TIP3    H142020   5.558   5.761   7.744
14021TIP3    H242021   5.639   5.858   7.661
14022TIP3   OH242022   5.952   4.663   8.077
14022TIP3    H142023   5.867   4.698   8.046
14022TIP3    H242024   6.015   4.700   8.012
14023TIP3   OH242025   5.248   4.321   8.064
14023TIP3    H142026   5.224   4.227   8.069
14023TIP3    H242027   5.171   4.361   8.111
14024TIP3   OH242028   5.357   5.816   7.384
14024TIP3    H142029   5.409   5.734   7.368
14024TIP3    H242030   5.420   5.882   7.346
14025TIP3   OH242031   5.506   5.601   7.300
14025TIP3    H142032   5.461   5.522   7.270
14025TIP3    H242033   5.544   5.570   7.385
14026TIP3   OH242034   5.870   5.673   8.064
14026TIP3    H142035   5.858   5.599   8.002
14026TIP3    H242036   5.851   5.751   8.006
14027TIP3   OH242037   5.175   5.077   7.318
14027TIP3    H142038   5.097   5.132   7.298
14027TIP3    H242039   5.223   5.077   7.234
14028TIP3   OH242040   5.135   4.867   7.030
14028TIP3    H142041   5.200   4.919   7.080
14028TIP3    H242042   5.194   4.804   6.983
14029TIP3   OH242043   6.087   5.328   7.907
14029TIP3    H142044   6.000   5.375   7.914
14029TIP3    H242045   6.110   5.352   7.814
14030TIP3   OH242046   5.526   5.161   7.287
14030TIP3    H142047   5.471   5.185   7.365
14030TIP3    H242048   5.611   5.139   7.331
14031TIP3   OH242049   5.753   5.185   8.196
14031TIP3    H142050   5.765   5.262   8.256
14031TIP3    H242051   5.670   5.211   8.152
14032TIP3   OH242052   4.758   5.158   7.707
14032TIP3    H142053   4.718   5.099   7.639
14032TIP3    H242054   4.835   5.105   7.738
14033TIP3   OH242055   4.888   5.570   7.855
14033TIP3    H142056   4.871   5.533   7.767
14033TIP3    H242057   4.978   5.535   7.874
14034TIP3   OH242058   4.893   5.131   8.059
14034TIP3    H142059   4.928   5.108   7.970
14034TIP3    H242060   4.937   5.217   8.078
14035TIP3   OH242061   5.413   5.766   7.836
14035TIP3    H142062   5.404   5.850   7.885
14035TIP3    H242063   5.401   5.699   7.906
14036TIP3   OH242064   5.032   5.684   8.386
14036TIP3    H142065   4.968   5.745   8.429
14036TIP3    H242066   4.970   5.631   8.331
14037TIP3   OH242067   5.362   5.021   7.115
14037TIP3    H142068   5.422   5.082   7.165
14037TIP3    H242069   5.390   5.041   7.022
14038TIP3   OH242070   4.789   5.239   8.480
14038TIP3    H142071   4.787   5.327   8.522
14038TIP3    H242072   4.694   5.215   8.490
14039TIP3   OH242073   5.109   5.697   7.388
14039TIP3    H142074   5.193   5.746   7.399
14039TIP3    H242075   5.050   5.764   7.353
14040TIP3   OH242076   4.820   5.834   8.467
14040TIP3    H142077   4.785   5.853   8.379
14040TIP3    H242078   4.740   5.832   8.524
14041TIP3   OH242079   5.881   4.259   7.165
14041TIP3    H142080   5.799   4.281   7.214
14041TIP3    H242081   5.896   4.341   7.114
14042TIP3   OH242082   4.625   5.001   7.507
14042TIP3    H142083   4.555   5.043   7.454
14042TIP3    H242084   4.588   4.914   7.525
14043TIP3   OH242085   5.680   5.626   6.712
14043TIP3    H142086   5.688   5.723   6.699
14043TIP3    H242087   5.773   5.597   6.700
14044TIP3   OH242088   4.402   5.390   8.421
14044TIP3    H142089   4.332   5.370   8.355
14044TIP3    H242090   4.441   5.302   8.440
14045TIP3   OH242091   4.259   5.582   8.046
14045TIP3    H142092   4.355   5.576   8.043
14045TIP3    H242093   4.248   5.658   8.105
14046TIP3   OH242094   5.221   5.815   8.237
14046TIP3    H142095   5.221   5.906   8.273
14046TIP3    H242096   5.154   5.772   8.294
14047TIP3   OH242097   4.991   5.942   7.195
14047TIP3    H142098   4.946   5.930   7.109
14047TIP3    H242099   4.960   6.030   7.223
14048TIP3   OH242100   4.427   5.793   7.582
14048TIP3    H142101   4.480   5.787   7.665
14048TIP3    H242102   4.369   5.716   7.593
14049TIP3   OH242103   5.189   5.846   6.832
14049TIP3    H142104   5.249   5.776   6.797
14049TIP3    H242105   5.225   5.858   6.923
14050TIP3   OH242106   5.242   5.895   7.101
14050TIP3    H142107   5.154   5.903   7.145
14050TIP3    H242108   5.296   5.863   7.175
14051TIP3   OH242109   6.040   5.163   8.347
14051TIP3    H142110   5.950   5.197   8.352
14051TIP3    H242111   6.029   5.067   8.351
14052TIP3   OH242112   4.604   5.571   8.403
14052TIP3    H142113   4.650   5.550   8.486
14052TIP3    H242114   4.528   5.509   8.407
14053TIP3   OH242115   5.010   4.389   8.194
14053TIP3    H142116   4.921   4.360   8.164
14053TIP3    H242117   4.985   4.472   8.239
14054TIP3   OH242118   5.543   4.506   8.387
14054TIP3    H142119   5.606   4.483   8.457
14054TIP3    H242120   5.456   4.492   8.430
14055TIP3   OH242121   5.772   4.932   8.301
14055TIP3    H142122   5.723   4.939   8.386
14055TIP3    H242123   5.759   5.021   8.262
14056TIP3   OH242124   5.440   5.061   6.860
14056TIP3    H142125   5.406   5.040   6.771
14056TIP3    H242126   5.523   5.108   6.837
14057TIP3   OH242127   5.152   4.439   7.164
14057TIP3    H142128   5.117   4.435   7.255
14057TIP3    H242129   5.113   4.358   7.127
14058TIP3   OH242130   4.938   4.909   8.208
14058TIP3    H142131   4.890   4.933   8.290
14058TIP3    H242132   4.924   4.990   8.154
14059TIP3   OH242133   4.824   4.793   7.724
14059TIP3    H142134   4.732   4.768   7.743
14059TIP3    H242135   4.835   4.752   7.635
14060TIP3   OH242136   5.314   4.877   7.452
14060TIP3    H142137   5.263   4.950   7.409
14060TIP3    H242138   5.369   4.845   7.379
14061TIP3   OH242139   5.475   5.156   8.528
14061TIP3    H142140   5.471   5.090   8.600
14061TIP3    H242141   5.556   5.205   8.548
14062TIP3   OH242142   5.468   4.904   7.691
14062TIP3    H142143   5.407   4.936   7.621
14062TIP3    H242144   5.504   4.826   7.645
14063TIP3   OH242145   4.760   4.941   8.416
14063TIP3    H142146   4.791   5.007   8.480
14063TIP3    H242147   4.747   4.862   8.472
14064TIP3   OH242148   4.808   4.415   7.128
14064TIP3    H142149   4.799   4.414   7.225
14064TIP3    H242150   4.730   4.468   7.103
14065TIP3   OH242151   4.352   4.456   8.000
14065TIP3    H142152   4.428   4.490   8.053
14065TIP3    H242153   4.393   4.428   7.917
14066TIP3   OH242154   4.319   4.438   7.518
14066TIP3    H142155   4.366   4.475   7.440
14066TIP3    H242156   4.258   4.511   7.537
14067TIP3   OH242157   5.464   5.150   8.106
14067TIP3    H142158   5.507   5.081   8.051
14067TIP3    H242159   5.441   5.098   8.185
14068TIP3   OH242160   5.155   4.609   7.783
14068TIP3    H142161   5.073   4.613   7.837
14068TIP3    H242162   5.224   4.617   7.851
14069TIP3   OH242163   4.585   4.673   7.792
14069TIP3    H142164   4.491   4.682   7.763
14069TIP3    H242165   4.606   4.581   7.769
14070TIP3   OH242166   4.850   4.666   7.482
14070TIP3    H142167   4.944   4.682   7.461
14070TIP3    H242168   4.804   4.689   7.399
14071TIP3   OH242169   5.643   4.690   7.984
14071TIP3    H142170   5.613   4.705   8.076
14071TIP3    H242171   5.572   4.632   7.951
14072TIP3   OH242172   4.700   4.702   7.258
14072TIP3    H142173   4.629   4.657   7.209
14072TIP3    H242174   4.752   4.740   7.184
14073TIP3   OH242175   4.751   5.483   8.629
14073TIP3    H142176   4.836   5.520   8.655
14073TIP3    H242177   4.713   5.452   8.712
14074TIP3   OH242178   5.233   4.942   7.878
14074TIP3    H142179   5.311   4.911   7.830
14074TIP3    H242180   5.245   4.903   7.966
14075TIP3   OH242181   4.755   4.431   7.764
14075TIP3    H142182   4.717   4.354   7.812
14075TIP3    H242183   4.795   4.389   7.687
14076TIP3   OH242184   5.209   4.841   8.179
14076TIP3    H142185   5.121   4.882   8.187
14076TIP3    H242186   5.268   4.906   8.223
14077TIP3   OH242187   4.945   5.231   7.265
14077TIP3    H142188   4.872   5.166   7.254
14077TIP3    H242189   4.926   5.265   7.355
14078TIP3   OH242190   5.848   5.460   7.891
14078TIP3    H142191   5.871   5.518   7.815
14078TIP3    H242192   5.761   5.423   7.864
14079TIP3   OH242193   5.404   4.540   7.135
14079TIP3    H142194   5.308   4.522   7.142
14079TIP3    H242195   5.412   4.635   7.158
14080TIP3   OH242196   5.331   5.548   8.265
14080TIP3    H142197   5.351   5.532   8.358
14080TIP3    H242198   5.301   5.640   8.266
14081TIP3   OH242199   5.473   4.793   7.235
14081TIP3    H142200   5.569   4.799   7.251
14081TIP3    H242201   5.454   4.874   7.184
14082TIP3   OH242202   4.638   5.252   7.941
14082TIP3    H142203   4.679   5.224   7.857
14082TIP3    H242204   4.685   5.197   8.005
14083TIP3   OH242205   5.091   5.380   7.088
14083TIP3    H142206   5.042   5.466   7.091
14083TIP3    H242207   5.038   5.326   7.150
14084TIP3   OH242208   4.525   5.174   8.542
14084TIP3    H142209   4.556   5.169   8.635
14084TIP3    H242210   4.447   5.117   8.542
14085TIP3   OH242211   5.232   5.287   8.559
14085TIP3    H142212   5.181   5.220   8.511
14085TIP3    H242213   5.323   5.253   8.549
14086TIP3   OH242214   5.498   5.800   8.156
14086TIP3    H142215   5.401   5.807   8.168
14086TIP3    H242216   5.529   5.847   8.236
14087TIP3   OH242217   5.914   4.885   7.069
14087TIP3    H142218   5.852   4.842   7.006
14087TIP3    H242219   5.911   4.975   7.030
14088TIP3   OH242220   6.131   5.683   8.128
14088TIP3    H142221   6.036   5.699   8.108
14088TIP3    H242222   6.172   5.702   8.042
14089TIP3   OH242223   5.618   5.703   6.979
14089TIP3    H142224   5.589   5.636   7.042
14089TIP3    H242225   5.629   5.652   6.896
14090TIP3   OH242226   5.610   5.332   7.807
14090TIP3    H142227   5.517   5.310   7.823
14090TIP3    H242228   5.642   5.251   7.764
14091TIP3   OH242229   4.743   5.558   7.564
14091TIP3    H142230   4.741   5.640   7.511
14091TIP3    H242231   4.650   5.547   7.586
14092TIP3   OH242232   4.298   4.866   7.261
14092TIP3    H142233   4.349   4.944   7.292
14092TIP3    H242234   4.226   4.864   7.328
14093TIP3   OH242235   4.872   5.320   7.507
14093TIP3    H142236   4.839   5.410   7.526
14093TIP3    H242237   4.840   5.271   7.585
14094TIP3   OH242238   5.012   5.902   8.035
14094TIP3    H142239   5.056   5.973   7.984
14094TIP3    H242240   5.088   5.863   8.081
14095TIP3   OH242241   4.658   5.799   7.417
14095TIP3    H142242   4.574   5.808   7.466
14095TIP3    H242243   4.692   5.891   7.422
14096TIP3   OH242244   5.394   5.532   7.999
14096TIP3    H142245   5.383   5.531   8.097
14096TIP3    H242246   5.482   5.493   7.990
14097TIP3   OH242247   5.375   5.430   6.880
14097TIP3    H142248   5.430   5.403   6.957
14097TIP3    H242249   5.287   5.404   6.911
14098TIP3   OH242250   5.606   6.093   8.082
14098TIP3    H142251   5.575   6.009   8.046
14098TIP3    H242252   5.635   6.140   8.002
14099TIP3   OH242253   5.712   5.901   6.697
14099TIP3    H142254   5.742   5.973   6.640
14099TIP3    H242255   5.632   5.944   6.735
14100TIP3   OH242256   4.714   4.685   8.541
14100TIP3    H142257   4.618   4.699   8.551
14100TIP3    H242258   4.721   4.592   8.568
14101TIP3   OH242259   5.536   5.358   7.090
14101TIP3    H142260   5.525   5.295   7.165
14101TIP3    H242261   5.634   5.357   7.081
14102TIP3   OH242262   4.447   5.763   8.194
14102TIP3    H142263   4.504   5.698   8.237
14102TIP3    H242264   4.472   5.844   8.240
14103TIP3   OH242265   4.735   5.409   6.879
14103TIP3    H142266   4.753   5.316   6.855
14103TIP3    H242267   4.717   5.400   6.975
14104TIP3   OH242268   4.680   5.414   7.152
14104TIP3    H142269   4.756   5.388   7.206
14104TIP3    H242270   4.684   5.512   7.160
14105TIP3   OH242271   4.414   5.105   7.355
14105TIP3    H142272   4.351   5.153   7.413
14105TIP3    H242273   4.436   5.176   7.291
14106TIP3   OH242274   5.572   4.741   8.242
14106TIP3    H142275   5.651   4.787   8.278
14106TIP3    H242276   5.563   4.664   8.301
14107TIP3   OH242277   5.451   4.491   7.416
14107TIP3    H142278   5.437   4.513   7.322
14107TIP3    H242279   5.490   4.574   7.451
14108TIP3   OH242280   4.947   5.608   7.096
14108TIP3    H142281   4.862   5.634   7.135
14108TIP3    H242282   4.968   5.688   7.045
14109TIP3   OH242283   5.134   4.677   7.514
14109TIP3    H142284   5.198   4.749   7.497
14109TIP3    H242285   5.142   4.667   7.612
14110TIP3   OH242286   5.405   4.989   8.317
14110TIP3    H142287   5.426   5.047   8.394
14110TIP3    H242288   5.464   4.914   8.330
14111TIP3   OH242289   5.278   4.396   7.614
14111TIP3    H142290   5.268   4.474   7.671
14111TIP3    H242291   5.342   4.430   7.547
14112TIP3   OH242292   4.692   5.686   7.168
14112TIP3    H142293   4.664   5.757   7.107
14112TIP3    H242294   4.678   5.728   7.256
14113TIP3   OH242295   4.794   4.402   7.405
14113TIP3    H142296   4.792   4.492   7.442
14113TIP3    H242297   4.890   4.384   7.412
14114TIP3   OH242298   6.039   4.882   8.313
14114TIP3    H142299   5.942   4.882   8.303
14114TIP3    H242300   6.069   4.870   8.222
14115TIP3   OH242301   5.698   5.085   7.688
14115TIP3    H142302   5.622   5.027   7.704
14115TIP3    H242303   5.769   5.040   7.738
14116TIP3   OH242304   4.413   5.317   7.156
14116TIP3    H142305   4.485   5.382   7.170
14116TIP3    H242306   4.458   5.259   7.091
14117TIP3   OH242307   4.351   4.596   7.294
14117TIP3    H142308   4.350   4.693   7.286
14117TIP3    H242309   4.271   4.570   7.246
14118TIP3   OH242310   5.665   6.036   7.636
14118TIP3    H142311   5.625   6.085   7.561
14118TIP3    H242312   5.760   6.056   7.623
14119TIP3   OH242313   4.745   4.314   8.161
14119TIP3    H142314   4.713   4.281   8.075
14119TIP3    H242315   4.732   4.237   8.220
14120TIP3   OH242316   4.275   5.522   7.545
14120TIP3    H142317   4.215   5.557   7.612
14120TIP3    H242318   4.245   5.568   7.464
14121TIP3   OH242319   4.444   6.060   8.602
14121TIP3    H142320   4.527   6.024   8.638
14121TIP3    H242321   4.390   5.980   8.599
14122TIP3   OH242322   4.899   5.611   6.786
14122TIP3    H142323   4.845   5.539   6.826
14122TIP3    H242324   4.976   5.561   6.755
14123TIP3   OH242325   5.544   5.915   8.406
14123TIP3    H142326   5.554   5.864   8.487
14123TIP3    H242327   5.615   5.981   8.416
14124TIP3   OH242328   5.336   5.650   6.702
14124TIP3    H142329   5.379   5.587   6.763
14124TIP3    H242330   5.394   5.647   6.623
14125TIP3   OH242331   4.544   5.125   7.014
14125TIP3    H142332   4.601   5.095   7.087
14125TIP3    H242333   4.612   5.130   6.942
14126TIP3   OH242334   5.207   5.562   8.576
14126TIP3    H142335   5.143   5.588   8.508
14126TIP3    H242336   5.206   5.464   8.573
14127TIP3   OH242337   5.058   5.328   6.820
14127TIP3    H142338   5.063   5.340   6.917
14127TIP3    H242339   5.060   5.230   6.814
14128TIP3   OH242340   5.655   5.572   8.199
14128TIP3    H142341   5.737   5.610   8.161
14128TIP3    H242342   5.593   5.645   8.180
14129TIP3   OH242343   4.702   5.173   8.770
14129TIP3    H142344   4.796   5.155   8.759
14129TIP3    H242345   4.688   5.160   8.865
14130TIP3   OH242346   4.747   5.036   7.229
14130TIP3    H142347   4.726   4.996   7.316
14130TIP3    H242348   4.788   4.961   7.182
14131TIP3   OH242349   5.024   5.091   8.457
14131TIP3    H142350   4.949   5.154   8.458
14131TIP3    H242351   5.075   5.124   8.380
14132TIP3   OH242352   4.857   4.831   7.073
14132TIP3    H142353   4.833   4.837   6.979
14132TIP3    H242354   4.955   4.831   7.067
14133TIP3   OH242355   5.675   5.156   6.741
14133TIP3    H142356   5.655   5.113   6.655
14133TIP3    H242357   5.641   5.247   6.720
14134TIP3   OH242358   5.152   4.889   8.588
14134TIP3    H142359   5.153   4.810   8.529
14134TIP3    H242360   5.107   4.955   8.532
14135TIP3   OH242361   5.151   4.672   8.397
14135TIP3    H142362   5.180   4.719   8.316
14135TIP3    H242363   5.058   4.652   8.375
14136TIP3   OH242364   5.172   5.201   8.262
14136TIP3    H142365   5.260   5.223   8.228
14136TIP3    H242366   5.117   5.270   8.221
14137TIP3   OH242367   5.788   5.392   8.361
14137TIP3    H142368   5.731   5.461   8.321
14137TIP3    H242369   5.877   5.429   8.342
14138TIP3   OH242370   4.971   5.005   8.794
14138TIP3    H142371   4.928   4.918   8.784
14138TIP3    H242372   5.044   4.998   8.730
14139TIP3   OH242373   5.284   4.437   8.465
14139TIP3    H142374   5.234   4.519   8.444
14139TIP3    H242375   5.214   4.369   8.456
14140TIP3   OH242376   5.410   4.934   8.683
14140TIP3    H142377   5.394   4.927   8.778
14140TIP3    H242378   5.321   4.913   8.648
14141TIP3   OH242379   5.637   4.885   8.537
14141TIP3    H142380   5.553   4.893   8.586
14141TIP3    H242381   5.699   4.864   8.608
14142TIP3   OH242382   4.867   4.742   8.845
14142TIP3    H142383   4.947   4.702   8.807
14142TIP3    H242384   4.896   4.752   8.937
14143TIP3   OH242385   5.386   4.418   8.721
14143TIP3    H142386   5.455   4.354   8.698
14143TIP3    H242387   5.341   4.433   8.636
14144TIP3   OH242388   4.663   5.885   6.978
14144TIP3    H142389   4.759   5.877   6.962
14144TIP3    H242390   4.639   5.941   6.901
14145TIP3   OH242391   4.145   5.283   7.185
14145TIP3    H142392   4.241   5.308   7.179
14145TIP3    H242393   4.151   5.187   7.192
14146TIP3   OH242394   4.061   5.881   7.612
14146TIP3    H142395   3.994   5.821   7.574
14146TIP3    H242396   4.105   5.822   7.678
14147TIP3   OH242397   4.197   5.726   7.795
14147TIP3    H142398   4.184   5.659   7.865
14147TIP3    H242399   4.249   5.792   7.845
14148TIP3   OH242400   5.920   6.124   7.613
14148TIP3    H142401   5.925   6.187   7.687
14148TIP3    H242402   5.976   6.166   7.546
14149TIP3   OH242403   5.814   5.343   7.071
14149TIP3    H142404   5.880   5.409   7.042
14149TIP3    H242405   5.859   5.306   7.151
14150TIP3   OH242406   5.941   5.210   7.276
14150TIP3    H142407   5.874   5.170   7.334
14150TIP3    H242408   6.005   5.248   7.340
14151TIP3   OH242409   5.999   5.604   7.709
14151TIP3    H142410   6.047   5.539   7.656
14151TIP3    H242411   5.986   5.678   7.646
14152TIP3   OH242412   5.828   5.875   7.894
14152TIP3    H142413   5.838   5.969   7.916
14152TIP3    H242414   5.762   5.871   7.824
14153TIP3   OH242415   5.878   5.120   6.920
14153TIP3    H142416   5.806   5.121   6.853
14153TIP3    H242417   5.850   5.195   6.976
14154TIP3   OH242418   5.750   4.792   6.873
14154TIP3    H142419   5.703   4.827   6.797
14154TIP3    H242420   5.727   4.697   6.867
14155TIP3   OH242421   5.753   5.071   7.420
14155TIP3    H142422   5.761   4.974   7.413
14155TIP3    H242423   5.738   5.084   7.517
14156TIP3   OH242424   4.378   5.140   8.169
14156TIP3    H142425   4.376   5.108   8.077
14156TIP3    H242426   4.476   5.142   8.185
14157TIP3   OH242427   6.031   5.468   8.265
14157TIP3    H142428   6.117   5.440   8.301
14157TIP3    H242429   6.057   5.546   8.212
14158TIP3   OH242430   6.262   5.315   8.326
14158TIP3    H142431   6.175   5.270   8.342
14158TIP3    H242432   6.317   5.234   8.320
14159TIP3   OH242433   5.692   4.526   6.858
14159TIP3    H142434   5.764   4.494   6.915
14159TIP3    H242435   5.618   4.467   6.879
14160TIP3   OH242436   5.751   4.785   7.313
14160TIP3    H142437   5.792   4.697   7.328
14160TIP3    H242438   5.809   4.819   7.243
14161TIP3   OH242439   5.910   4.954   7.811
14161TIP3    H142440   5.995   4.978   7.770
14161TIP3    H242441   5.923   4.995   7.898
14162TIP3   OH242442   5.979   5.103   8.037
14162TIP3    H142443   5.904   5.136   8.092
14162TIP3    H242444   6.012   5.187   7.999
14163TIP3   OH242445   5.860   4.536   7.352
14163TIP3    H142446   5.908   4.520   7.437
14163TIP3    H242447   5.799   4.460   7.351
14164TIP3   OH242448   4.560   4.523   8.171
14164TIP3    H142449   4.622   4.447   8.180
14164TIP3    H242450   4.623   4.597   8.162
14165TIP3   OH242451   4.363   4.790   8.249
14165TIP3    H142452   4.411   4.793   8.164
14165TIP3    H242453   4.380   4.879   8.284
14166TIP3   OH242454   6.286   4.831   8.415
14166TIP3    H142455   6.193   4.859   8.400
14166TIP3    H242456   6.289   4.749   8.364
14167TIP3   OH242457   5.937   4.466   6.988
14167TIP3    H142458   5.976   4.397   6.931
14167TIP3    H242459   6.005   4.537   6.984
14168TIP3   OH242460   4.346   4.298   7.748
14168TIP3    H142461   4.254   4.291   7.776
14168TIP3    H242462   4.339   4.356   7.669
14169TIP3   OH242463   5.500   6.001   7.249
14169TIP3    H142464   5.559   5.996   7.171
14169TIP3    H242465   5.547   6.065   7.306
14170TIP3   OH242466   4.582   4.409   8.527
14170TIP3    H142467   4.532   4.359   8.593
14170TIP3    H242468   4.508   4.447   8.474
14171TIP3   OH242469   4.601   5.816   8.647
14171TIP3    H142470   4.512   5.790   8.615
14171TIP3    H242471   4.610   5.763   8.726
14172TIP3   OH242472   4.784   5.840   8.181
14172TIP3    H142473   4.738   5.918   8.143
14172TIP3    H242474   4.871   5.854   8.139
14173TIP3   OH242475   5.239   6.080   8.334
14173TIP3    H142476   5.300   6.060   8.406
14173TIP3    H242477   5.296   6.137   8.278
14174TIP3   OH242478   5.412   6.241   8.192
14174TIP3    H142479   5.472   6.175   8.148
14174TIP3    H242480   5.465   6.320   8.181
14175TIP3   OH242481   6.204   4.595   8.277
14175TIP3    H142482   6.116   4.596   8.236
14175TIP3    H242483   6.232   4.502   8.264
14176TIP3   OH242484   4.459   6.089   8.218
14176TIP3    H142485   4.369   6.121   8.192
14176TIP3    H242486   4.476   6.149   8.292
14177TIP3   OH242487   4.695   6.074   8.069
14177TIP3    H142488   4.608   6.086   8.113
14177TIP3    H242489   4.677   6.112   7.981
14178TIP3   OH242490   5.116   6.104   7.865
14178TIP3    H142491   5.047   6.124   7.800
14178TIP3    H242492   5.129   6.192   7.907
14179TIP3   OH242493   5.383   6.030   7.908
14179TIP3    H142494   5.294   6.064   7.888
14179TIP3    H242495   5.441   6.104   7.880
14180TIP3   OH242496   5.578   6.221   7.831
14180TIP3    H142497   5.571   6.308   7.785
14180TIP3    H242498   5.616   6.164   7.760
14181TIP3   OH242499   4.370   5.886   7.950
14181TIP3    H142500   4.394   5.860   8.042
14181TIP3    H242501   4.444   5.844   7.902
14182TIP3   OH242502   4.568   5.760   7.811
14182TIP3    H142503   4.582   5.677   7.862
14182TIP3    H242504   4.659   5.797   7.810
14183TIP3   OH242505   4.832   5.851   7.819
14183TIP3    H142506   4.865   5.760   7.811
14183TIP3    H242507   4.879   5.878   7.900
14184TIP3   OH242508   5.412   4.514   7.905
14184TIP3    H142509   5.367   4.442   7.953
14184TIP3    H242510   5.484   4.466   7.859
14185TIP3   OH242511   5.927   4.388   7.805
14185TIP3    H142512   5.964   4.442   7.732
14185TIP3    H242513   5.832   4.412   7.801
14186TIP3   OH242514   6.023   4.489   7.570
14186TIP3    H142515   6.098   4.438   7.531
14186TIP3    H242516   6.056   4.580   7.557
14187TIP3   OH242517   4.653   4.220   7.916
14187TIP3    H142518   4.560   4.188   7.920
14187TIP3    H242519   4.699   4.134   7.910
14188TIP3   OH242520   4.447   4.091   7.569
14188TIP3    H142521   4.474   4.147   7.494
14188TIP3    H242522   4.418   4.157   7.635
14189TIP3   OH242523   5.105   4.248   7.800
14189TIP3    H142524   5.157   4.294   7.732
14189TIP3    H242525   5.119   4.304   7.877
14190TIP3   OH242526   5.640   4.397   7.781
14190TIP3    H142527   5.645   4.359   7.693
14190TIP3    H242528   5.629   4.317   7.838
14191TIP3   OH242529   5.676   4.324   7.345
14191TIP3    H142530   5.590   4.367   7.361
14191TIP3    H242531   5.661   4.238   7.389
14192TIP3   OH242532   4.160   5.661   7.344
14192TIP3    H142533   4.073   5.633   7.310
14192TIP3    H242534   4.154   5.757   7.330
14193TIP3   OH242535   4.562   4.248   7.327
14193TIP3    H142536   4.609   4.184   7.270
14193TIP3    H242537   4.636   4.300   7.363
14194TIP3   OH242538   5.070   4.426   7.428
14194TIP3    H142539   5.132   4.379   7.486
14194TIP3    H242540   5.092   4.518   7.452
14195TIP3   OH242541   4.931   5.845   6.928
14195TIP3    H142542   5.019   5.868   6.892
14195TIP3    H242543   4.910   5.770   6.868
14196TIP3   OH242544   5.654   5.970   7.021
14196TIP3    H142545   5.645   5.872   7.012
14196TIP3    H242546   5.605   6.000   6.942
14197TIP3   OH242547   4.228   5.671   6.985
14197TIP3    H142548   4.236   5.703   7.075
14197TIP3    H242549   4.318   5.635   6.967
14198TIP3   OH242550   7.139   5.482   6.969
14198TIP3    H142551   7.108   5.573   6.951
14198TIP3    H242552   7.065   5.431   6.933
14199TIP3   OH242553   7.097   5.497   7.387
14199TIP3    H142554   7.147   5.440   7.446
14199TIP3    H242555   7.074   5.433   7.318
14200TIP3   OH242556   6.439   5.348   7.693
14200TIP3    H142557   6.466   5.279   7.756
14200TIP3    H242558   6.491   5.423   7.727
14201TIP3   OH242559   6.417   5.790   7.436
14201TIP3    H142560   6.399   5.694   7.440
14201TIP3    H242561   6.513   5.789   7.446
14202TIP3   OH242562   6.122   4.990   7.223
14202TIP3    H142563   6.073   5.072   7.245
14202TIP3    H242564   6.050   4.938   7.183
14203TIP3   OH242565   6.178   5.277   7.402
14203TIP3    H142566   6.227   5.200   7.438
14203TIP3    H242567   6.237   5.308   7.333
14204TIP3   OH242568   6.930   5.713   7.339
14204TIP3    H142569   6.958   5.620   7.339
14204TIP3    H242570   7.014   5.757   7.354
14205TIP3   OH242571   7.356   5.114   7.407
14205TIP3    H142572   7.299   5.097   7.486
14205TIP3    H242573   7.293   5.158   7.347
14206TIP3   OH242574   6.697   4.869   7.397
14206TIP3    H142575   6.673   4.942   7.336
14206TIP3    H242576   6.647   4.796   7.355
14207TIP3   OH242577   7.414   4.971   7.038
14207TIP3    H142578   7.443   4.880   7.040
14207TIP3    H242579   7.456   5.005   6.957
14208TIP3   OH242580   6.323   5.071   7.505
14208TIP3    H142581   6.405   5.056   7.555
14208TIP3    H242582   6.339   5.014   7.427
14209TIP3   OH242583   6.769   5.269   7.285
14209TIP3    H142584   6.860   5.243   7.309
14209TIP3    H242585   6.728   5.184   7.261
14210TIP3   OH242586   6.684   4.851   7.834
14210TIP3    H142587   6.624   4.891   7.769
14210TIP3    H242588   6.633   4.868   7.917
14211TIP3   OH242589   7.035   5.706   6.842
14211TIP3    H142590   6.996   5.684   6.756
14211TIP3    H242591   6.990   5.792   6.860
14212TIP3   OH242592   6.777   5.624   7.582
14212TIP3    H142593   6.733   5.675   7.652
14212TIP3    H242594   6.841   5.689   7.549
14213TIP3   OH242595   6.557   4.967   7.615
14213TIP3    H142596   6.618   5.038   7.644
14213TIP3    H242597   6.609   4.928   7.542
14214TIP3   OH242598   6.015   5.515   6.961
14214TIP3    H142599   5.972   5.544   6.879
14214TIP3    H242600   6.046   5.600   6.998
14215TIP3   OH242601   7.034   4.573   7.547
14215TIP3    H142602   7.021   4.478   7.566
14215TIP3    H242603   6.958   4.611   7.596
14216TIP3   OH242604   7.297   5.878   6.761
14216TIP3    H142605   7.256   5.799   6.723
14216TIP3    H242606   7.332   5.844   6.844
14217TIP3   OH242607   6.972   5.337   6.804
14217TIP3    H142608   6.890   5.388   6.787
14217TIP3    H242609   7.012   5.334   6.715
14218TIP3   OH242610   6.932   5.123   6.516
14218TIP3    H142611   6.999   5.176   6.563
14218TIP3    H242612   6.990   5.058   6.470
14219TIP3   OH242613   7.322   5.418   6.775
14219TIP3    H142614   7.264   5.440   6.852
14219TIP3    H242615   7.405   5.396   6.821
14220TIP3   OH242616   6.553   5.415   7.191
14220TIP3    H142617   6.511   5.357   7.124
14220TIP3    H242618   6.630   5.361   7.218
14221TIP3   OH242619   6.689   5.841   7.322
14221TIP3    H142620   6.643   5.806   7.244
14221TIP3    H242621   6.768   5.782   7.327
14222TIP3   OH242622   6.708   5.365   7.537
14222TIP3    H142623   6.725   5.348   7.443
14222TIP3    H242624   6.734   5.458   7.548
14223TIP3   OH242625   7.160   5.273   6.601
14223TIP3    H142626   7.217   5.336   6.650
14223TIP3    H242627   7.187   5.293   6.508
14224TIP3   OH242628   6.504   5.535   7.901
14224TIP3    H142629   6.439   5.603   7.879
14224TIP3    H242630   6.452   5.476   7.959
14225TIP3   OH242631   6.915   5.954   6.856
14225TIP3    H142632   6.970   6.008   6.916
14225TIP3    H242633   6.844   6.014   6.830
14226TIP3   OH242634   7.678   4.515   6.652
14226TIP3    H142635   7.594   4.535   6.699
14226TIP3    H242636   7.690   4.596   6.599
14227TIP3   OH242637   6.421   5.259   6.994
14227TIP3    H142638   6.350   5.302   6.941
14227TIP3    H242639   6.382   5.172   7.011
14228TIP3   OH242640   7.479   5.885   6.201
14228TIP3    H142641   7.487   5.983   6.197
14228TIP3    H242642   7.570   5.858   6.176
14229TIP3   OH242643   6.230   5.628   7.872
14229TIP3    H142644   6.148   5.620   7.820
14229TIP3    H242645   6.229   5.548   7.927
14230TIP3   OH242646   6.047   5.836   7.534
14230TIP3    H142647   6.143   5.847   7.532
14230TIP3    H242648   6.017   5.912   7.587
14231TIP3   OH242649   6.781   6.202   6.682
14231TIP3    H142650   6.731   6.186   6.600
14231TIP3    H242651   6.749   6.290   6.710
14232TIP3   OH242652   6.222   6.049   7.061
14232TIP3    H142653   6.263   6.041   7.150
14232TIP3    H242654   6.164   5.970   7.061
14233TIP3   OH242655   6.983   6.095   6.310
14233TIP3    H142656   7.043   6.027   6.272
14233TIP3    H242657   7.016   6.100   6.402
14234TIP3   OH242658   7.020   6.127   6.582
14234TIP3    H142659   6.937   6.157   6.626
14234TIP3    H242660   7.043   6.051   6.638
14235TIP3   OH242661   6.804   4.650   7.681
14235TIP3    H142662   6.716   4.619   7.651
14235TIP3    H242663   6.775   4.729   7.732
14236TIP3   OH242664   7.335   4.744   7.861
14236TIP3    H142665   7.391   4.791   7.924
14236TIP3    H242666   7.247   4.745   7.905
14237TIP3   OH242667   7.239   5.317   6.347
14237TIP3    H142668   7.202   5.296   6.259
14237TIP3    H242669   7.319   5.366   6.322
14238TIP3   OH242670   6.951   4.694   6.651
14238TIP3    H142671   6.912   4.690   6.740
14238TIP3    H242672   6.910   4.614   6.612
14239TIP3   OH242673   6.742   5.150   7.694
14239TIP3    H142674   6.700   5.178   7.779
14239TIP3    H242675   6.726   5.231   7.640
14240TIP3   OH242676   6.620   5.051   7.210
14240TIP3    H142677   6.527   5.025   7.231
14240TIP3    H242678   6.630   5.009   7.122
14241TIP3   OH242679   7.104   5.134   6.930
14241TIP3    H142680   7.053   5.207   6.889
14241TIP3    H242681   7.160   5.104   6.855
14242TIP3   OH242682   7.250   5.168   7.158
14242TIP3    H142683   7.181   5.190   7.092
14242TIP3    H242684   7.289   5.090   7.116
14243TIP3   OH242685   6.568   5.184   7.907
14243TIP3    H142686   6.614   5.240   7.972
14243TIP3    H242687   6.549   5.105   7.960
14244TIP3   OH242688   6.608   4.675   6.615
14244TIP3    H142689   6.595   4.671   6.712
14244TIP3    H242690   6.528   4.725   6.589
14245TIP3   OH242691   6.147   4.712   7.486
14245TIP3    H142692   6.222   4.745   7.541
14245TIP3    H242693   6.191   4.683   7.405
14246TIP3   OH242694   6.115   4.695   7.005
14246TIP3    H142695   6.161   4.732   6.927
14246TIP3    H242696   6.054   4.769   7.024
14247TIP3   OH242697   6.951   4.895   7.274
14247TIP3    H142698   6.869   4.880   7.326
14247TIP3    H242699   7.019   4.853   7.330
14248TIP3   OH242700   6.382   4.930   7.277
14248TIP3    H142701   6.288   4.939   7.249
14248TIP3    H242702   6.402   4.837   7.256
14249TIP3   OH242703   6.647   4.924   6.969
14249TIP3    H142704   6.739   4.938   6.943
14249TIP3    H242705   6.597   4.945   6.887
14250TIP3   OH242706   6.497   4.959   6.747
14250TIP3    H142707   6.424   4.914   6.701
14250TIP3    H242708   6.547   4.995   6.671
14251TIP3   OH242709   7.036   5.199   7.381
14251TIP3    H142710   7.063   5.124   7.327
14251TIP3    H242711   7.024   5.160   7.470
14252TIP3   OH242712   6.551   4.687   7.252
14252TIP3    H142713   6.513   4.612   7.303
14252TIP3    H242714   6.591   4.641   7.177
14253TIP3   OH242715   7.010   5.108   7.648
14253TIP3    H142716   6.916   5.130   7.664
14253TIP3    H242717   7.052   5.135   7.731
14254TIP3   OH242718   6.744   5.487   6.756
14254TIP3    H142719   6.672   5.421   6.743
14254TIP3    H242720   6.722   5.522   6.846
14255TIP3   OH242721   7.200   4.794   6.627
14255TIP3    H142722   7.103   4.772   6.629
14255TIP3    H242723   7.202   4.890   6.643
14256TIP3   OH242724   7.272   5.051   6.725
14256TIP3    H142725   7.369   5.059   6.729
14256TIP3    H242726   7.247   5.128   6.671
14257TIP3   OH242727   6.441   5.515   7.431
14257TIP3    H142728   6.481   5.479   7.349
14257TIP3    H242729   6.466   5.449   7.497
14258TIP3   OH242730   6.889   5.637   6.579
14258TIP3    H142731   6.841   5.723   6.581
14258TIP3    H242732   6.834   5.583   6.639
14259TIP3   OH242733   6.307   5.400   8.059
14259TIP3    H142734   6.283   5.384   8.152
14259TIP3    H242735   6.232   5.359   8.013
14260TIP3   OH242736   7.707   5.140   6.554
14260TIP3    H142737   7.647   5.094   6.490
14260TIP3    H242738   7.701   5.229   6.512
14261TIP3   OH242739   7.355   5.947   6.451
14261TIP3    H142740   7.371   5.886   6.524
14261TIP3    H242741   7.409   5.909   6.378
14262TIP3   OH242742   6.538   5.820   7.062
14262TIP3    H142743   6.530   5.899   7.005
14262TIP3    H242744   6.446   5.794   7.071
14263TIP3   OH242745   6.103   5.118   6.761
14263TIP3    H142746   6.146   5.204   6.783
14263TIP3    H242747   6.025   5.121   6.821
14264TIP3   OH242748   6.670   5.582   6.997
14264TIP3    H142749   6.637   5.671   7.020
14264TIP3    H242750   6.636   5.529   7.071
14265TIP3   OH242751   6.455   6.049   6.907
14265TIP3    H142752   6.369   6.060   6.953
14265TIP3    H242753   6.490   6.141   6.911
14266TIP3   OH242754   7.169   5.680   6.365
14266TIP3    H142755   7.220   5.662   6.447
14266TIP3    H242756   7.080   5.655   6.392
14267TIP3   OH242757   7.495   6.160   6.192
14267TIP3    H142758   7.536   6.205   6.117
14267TIP3    H242759   7.412   6.212   6.200
14268TIP3   OH242760   6.528   4.929   8.051
14268TIP3    H142761   6.434   4.937   8.073
14268TIP3    H242762   6.561   4.877   8.126
14269TIP3   OH242763   7.321   5.623   6.588
14269TIP3    H142764   7.312   5.553   6.655
14269TIP3    H242765   7.417   5.616   6.570
14270TIP3   OH242766   6.254   6.029   7.700
14270TIP3    H142767   6.250   5.938   7.731
14270TIP3    H242768   6.235   6.075   7.784
14271TIP3   OH242769   6.534   5.665   6.365
14271TIP3    H142770   6.546   5.572   6.339
14271TIP3    H242771   6.514   5.657   6.460
14272TIP3   OH242772   6.479   5.672   6.635
14272TIP3    H142773   6.549   5.644   6.696
14272TIP3    H242774   6.482   5.770   6.644
14273TIP3   OH242775   6.213   5.364   6.842
14273TIP3    H142776   6.146   5.408   6.899
14273TIP3    H242777   6.223   5.433   6.773
14274TIP3   OH242778   7.249   4.756   6.899
14274TIP3    H142779   7.228   4.755   6.803
14274TIP3    H242780   7.258   4.851   6.914
14275TIP3   OH242781   6.747   5.868   6.583
14275TIP3    H142782   6.660   5.890   6.621
14275TIP3    H242783   6.759   5.942   6.523
14276TIP3   OH242784   6.935   4.930   7.002
14276TIP3    H142785   6.993   5.007   6.984
14276TIP3    H242786   6.937   4.926   7.100
14277TIP3   OH242787   7.074   4.653   7.099
14277TIP3    H142788   7.082   4.723   7.167
14277TIP3    H242789   7.136   4.687   7.031
14278TIP3   OH242790   6.494   5.943   6.655
14278TIP3    H142791   6.462   6.013   6.594
14278TIP3    H242792   6.475   5.984   6.742
14279TIP3   OH242793   6.588   4.658   6.891
14279TIP3    H142794   6.586   4.747   6.930
14279TIP3    H242795   6.684   4.639   6.898
14280TIP3   OH242796   7.520   5.243   7.197
14280TIP3    H142797   7.428   5.260   7.167
14280TIP3    H242798   7.538   5.330   7.236
14281TIP3   OH242799   6.207   5.568   6.646
14281TIP3    H142800   6.273   5.638   6.654
14281TIP3    H242801   6.253   5.512   6.579
14282TIP3   OH242802   6.150   4.849   6.780
14282TIP3    H142803   6.150   4.946   6.779
14282TIP3    H242804   6.069   4.828   6.733
14283TIP3   OH242805   6.541   4.568   7.649
14283TIP3    H142806   6.509   4.534   7.563
14283TIP3    H242807   6.529   4.491   7.708
14284TIP3   OH242808   6.072   5.782   7.029
14284TIP3    H142809   6.015   5.815   7.099
14284TIP3    H242810   6.035   5.827   6.950
14285TIP3   OH242811   6.697   5.867   6.274
14285TIP3    H142812   6.640   5.796   6.313
14285TIP3    H242813   6.773   5.816   6.245
14286TIP3   OH242814   7.135   5.904   6.188
14286TIP3    H142815   7.182   5.854   6.257
14286TIP3    H242816   7.198   5.901   6.113
14287TIP3   OH242817   6.344   5.384   6.499
14287TIP3    H142818   6.400   5.353   6.573
14287TIP3    H242819   6.412   5.390   6.428
14288TIP3   OH242820   6.860   5.587   6.308
14288TIP3    H142821   6.859   5.597   6.405
14288TIP3    H242822   6.859   5.489   6.300
14289TIP3   OH242823   6.552   5.292   6.721
14289TIP3    H142824   6.520   5.252   6.804
14289TIP3    H242825   6.587   5.214   6.673
14290TIP3   OH242826   6.829   5.337   7.925
14290TIP3    H142827   6.782   5.381   7.997
14290TIP3    H242828   6.838   5.407   7.859
14291TIP3   OH242829   6.652   5.086   6.559
14291TIP3    H142830   6.626   5.094   6.465
14291TIP3    H242831   6.750   5.087   6.552
14292TIP3   OH242832   7.472   5.414   6.227
14292TIP3    H142833   7.452   5.371   6.142
14292TIP3    H242834   7.439   5.505   6.207
14293TIP3   OH242835   6.914   5.129   8.091
14293TIP3    H142836   6.945   5.064   8.026
14293TIP3    H242837   6.889   5.204   8.033
14294TIP3   OH242838   6.945   4.916   7.872
14294TIP3    H142839   6.967   4.957   7.787
14294TIP3    H242840   6.848   4.902   7.864
14295TIP3   OH242841   7.079   4.698   7.970
14295TIP3    H142842   7.028   4.776   7.939
14295TIP3    H242843   7.014   4.627   7.954
14296TIP3   OH242844   6.640   5.024   8.361
14296TIP3    H142845   6.672   4.945   8.315
14296TIP3    H242846   6.712   5.041   8.423
14297TIP3   OH242847   7.182   4.694   8.230
14297TIP3    H142848   7.251   4.641   8.189
14297TIP3    H242849   7.123   4.707   8.153
14298TIP3   OH242850   6.462   6.149   6.468
14298TIP3    H142851   6.556   6.140   6.445
14298TIP3    H242852   6.430   6.197   6.390
14299TIP3   OH242853   5.938   5.529   6.679
14299TIP3    H142854   6.033   5.549   6.667
14299TIP3    H242855   5.932   5.439   6.639
14300TIP3   OH242856   5.859   6.141   7.096
14300TIP3    H142857   5.791   6.082   7.057
14300TIP3    H242858   5.900   6.080   7.160
14301TIP3   OH242859   5.988   5.976   7.276
14301TIP3    H142860   5.969   5.909   7.344
14301TIP3    H242861   6.038   6.040   7.329
14302TIP3   OH242862   7.590   5.587   6.565
14302TIP3    H142863   7.647   5.647   6.511
14302TIP3    H242864   7.648   5.570   6.642
14303TIP3   OH242865   7.737   5.483   6.780
14303TIP3    H142866   7.666   5.426   6.816
14303TIP3    H242867   7.814   5.454   6.830
14304TIP3   OH242868   7.667   5.373   6.413
14304TIP3    H142869   7.599   5.375   6.342
14304TIP3    H242870   7.635   5.448   6.467
14305TIP3   OH242871   7.543   5.048   6.362
14305TIP3    H142872   7.500   5.083   6.284
14305TIP3    H242873   7.521   4.952   6.354
14306TIP3   OH242874   7.554   5.313   6.907
14306TIP3    H142875   7.556   5.223   6.871
14306TIP3    H242876   7.547   5.295   7.002
14307TIP3   OH242877   6.172   5.392   7.652
14307TIP3    H142878   6.164   5.360   7.559
14307TIP3    H242879   6.269   5.387   7.663
14308TIP3   OH242880   7.487   4.783   6.347
14308TIP3    H142881   7.557   4.746   6.403
14308TIP3    H242882   7.411   4.724   6.363
14309TIP3   OH242883   7.556   5.050   6.797
14309TIP3    H142884   7.588   4.959   6.812
14309TIP3    H242885   7.611   5.075   6.720
14310TIP3   OH242886   6.378   5.068   8.307
14310TIP3    H142887   6.475   5.063   8.322
14310TIP3    H242888   6.349   4.993   8.364
14311TIP3   OH242889   7.640   4.796   6.848
14311TIP3    H142890   7.700   4.773   6.922
14311TIP3    H242891   7.586   4.714   6.841
14312TIP3   OH242892   6.355   4.776   7.657
14312TIP3    H142893   6.418   4.702   7.668
14312TIP3    H242894   6.416   4.851   7.650
14313TIP3   OH242895   6.155   5.048   7.732
14313TIP3    H142896   6.205   5.050   7.648
14313TIP3    H242897   6.179   5.132   7.772
14314TIP3   OH242898   7.736   4.722   6.479
14314TIP3    H142899   7.772   4.653   6.419
14314TIP3    H242900   7.802   4.794   6.470
14315TIP3   OH242901   6.143   4.553   7.233
14315TIP3    H142902   6.050   4.548   7.262
14315TIP3    H242903   6.136   4.613   7.155
14316TIP3   OH242904   6.360   4.621   8.040
14316TIP3    H142905   6.317   4.630   8.126
14316TIP3    H242906   6.296   4.667   7.982
14317TIP3   OH242907   6.151   6.131   7.444
14317TIP3    H142908   6.185   6.116   7.534
14317TIP3    H242909   6.226   6.094   7.391
14318TIP3   OH242910   6.346   6.014   7.299
14318TIP3    H142911   6.370   5.930   7.347
14318TIP3    H242912   6.435   6.047   7.274
14319TIP3   OH242913   6.599   6.100   7.254
14319TIP3    H142914   6.643   6.013   7.253
14319TIP3    H242915   6.649   6.147   7.321
14320TIP3   OH242916   7.172   4.757   7.369
14320TIP3    H142917   7.144   4.694   7.438
14320TIP3    H242918   7.264   4.732   7.354
14321TIP3   OH242919   7.732   4.643   7.286
14321TIP3    H142920   7.765   4.701   7.214
14321TIP3    H242921   7.637   4.664   7.288
14322TIP3   OH242922   7.819   4.757   7.053
14322TIP3    H142923   7.887   4.694   7.020
14322TIP3    H242924   7.870   4.840   7.049
14323TIP3   OH242925   6.450   4.475   7.402
14323TIP3    H142926   6.358   4.443   7.406
14323TIP3    H242927   6.498   4.389   7.398
14324TIP3   OH242928   6.242   4.347   7.056
14324TIP3    H142929   6.270   4.403   6.981
14324TIP3    H242930   6.214   4.414   7.122
14325TIP3   OH242931   6.899   4.505   7.286
14325TIP3    H142932   6.956   4.553   7.224
14325TIP3    H242933   6.923   4.545   7.371
14326TIP3   OH242934   7.447   4.656   7.257
14326TIP3    H142935   7.440   4.600   7.179
14326TIP3    H242936   7.433   4.588   7.327
14327TIP3   OH242937   7.472   4.577   6.832
14327TIP3    H142938   7.384   4.616   6.844
14327TIP3    H242939   7.460   4.490   6.877
14328TIP3   OH242940   5.956   5.922   6.829
14328TIP3    H142941   5.869   5.889   6.798
14328TIP3    H242942   5.947   6.015   6.804
14329TIP3   OH242943   6.358   4.503   6.814
14329TIP3    H142944   6.404   4.438   6.757
14329TIP3    H242945   6.432   4.555   6.849
14330TIP3   OH242946   6.865   4.683   6.912
14330TIP3    H142947   6.920   4.632   6.973
14330TIP3    H242948   6.889   4.774   6.940
14331TIP3   OH242949   6.727   6.102   6.412
14331TIP3    H142950   6.815   6.124   6.375
14331TIP3    H242951   6.704   6.027   6.352
14332TIP3   OH242952   7.441   6.202   6.488
14332TIP3    H142953   7.402   6.112   6.487
14332TIP3    H242954   7.469   6.208   6.396
14333TIP3   OH242955   6.651   4.735   8.266
14333TIP3    H142956   6.607   4.678   8.332
14333TIP3    H242957   6.743   4.732   8.302
14334TIP3   OH242958   6.896   4.727   8.391
14334TIP3    H142959   6.988   4.736   8.364
14334TIP3    H242960   6.902   4.727   8.489
14335TIP3   OH242961   6.030   5.941   6.467
14335TIP3    H142962   6.027   5.966   6.560
14335TIP3    H242963   6.118   5.899   6.458
14336TIP3   OH242964   7.896   5.250   6.719
14336TIP3    H142965   7.858   5.333   6.687
14336TIP3    H242966   7.841   5.186   6.671
14337TIP3   OH242967   7.749   5.739   6.406
14337TIP3    H142968   7.737   5.762   6.312
14337TIP3    H242969   7.717   5.823   6.447
14338TIP3   OH242970   8.738   4.943   6.079
14338TIP3    H142971   8.777   4.959   6.165
14338TIP3    H242972   8.698   4.855   6.089
14339TIP3   OH242973   8.394   4.921   6.099
14339TIP3    H142974   8.387   4.923   6.196
14339TIP3    H242975   8.323   4.983   6.074
14340TIP3   OH242976   7.973   4.965   6.979
14340TIP3    H142977   8.024   5.038   6.936
14340TIP3    H242978   7.959   4.912   6.898
14341TIP3   OH242979   7.911   4.946   6.495
14341TIP3    H142980   7.960   4.978   6.416
14341TIP3    H242981   7.851   5.022   6.507
14342TIP3   OH242982   8.124   5.113   6.824
14342TIP3    H142983   8.079   5.165   6.757
14342TIP3    H242984   8.195   5.069   6.774
14343TIP3   OH242985   8.483   5.150   6.426
14343TIP3    H142986   8.538   5.229   6.427
14343TIP3    H242987   8.417   5.176   6.358
14344TIP3   OH242988   8.295   5.211   6.240
14344TIP3    H142989   8.219   5.173   6.194
14344TIP3    H242990   8.349   5.240   6.162
14345TIP3   OH242991   8.327   4.952   6.722
14345TIP3    H142992   8.299   4.872   6.770
14345TIP3    H242993   8.395   4.918   6.662
14346TIP3   OH242994   7.882   5.352   6.241
14346TIP3    H142995   7.921   5.442   6.245
14346TIP3    H242996   7.810   5.361   6.307
14347TIP3   OH242997   8.347   5.873   5.813
14347TIP3    H142998   8.307   5.795   5.773
14347TIP3    H242999   8.423   5.833   5.856
14348TIP3   OH243000   7.954   5.609   6.273
14348TIP3    H143001   7.884   5.637   6.335
14348TIP3    H243002   8.020   5.677   6.292
14349TIP3   OH243003   8.374   4.901   6.375
14349TIP3    H143004   8.390   4.992   6.405
14349TIP3    H243005   8.464   4.865   6.385
14350TIP3   OH243006   8.000   5.867   6.093
14350TIP3    H143007   8.021   5.851   6.187
14350TIP3    H243008   8.052   5.798   6.048
14351TIP3   OH243009   7.949   5.091   6.269
14351TIP3    H143010   7.947   5.189   6.266
14351TIP3    H243011   7.873   5.070   6.214
14352TIP3   OH243012   8.161   5.664   5.996
14352TIP3    H143013   8.202   5.603   6.061
14352TIP3    H243014   8.215   5.646   5.917
14353TIP3   OH243015   8.318   5.512   6.171
14353TIP3    H143016   8.350   5.462   6.246
14353TIP3    H243017   8.364   5.464   6.100
14354TIP3   OH243018   8.446   5.316   6.031
14354TIP3    H143019   8.419   5.315   5.937
14354TIP3    H243020   8.532   5.360   6.024
14355TIP3   OH243021   7.733   5.790   6.132
14355TIP3    H143022   7.825   5.817   6.116
14355TIP3    H243023   7.732   5.698   6.096
14356TIP3   OH243024   7.924   4.833   6.741
14356TIP3    H143025   7.831   4.806   6.736
14356TIP3    H243026   7.934   4.881   6.655
14357TIP3   OH243027   8.250   4.745   6.894
14357TIP3    H143028   8.157   4.716   6.901
14357TIP3    H243029   8.296   4.659   6.900
14358TIP3   OH243030   8.040   4.602   6.539
14358TIP3    H143031   8.069   4.655   6.463
14358TIP3    H243032   8.015   4.670   6.603
14359TIP3   OH243033   8.147   4.755   6.303
14359TIP3    H143034   8.197   4.694   6.244
14359TIP3    H243035   8.220   4.811   6.337
14360TIP3   OH243036   8.643   4.907   6.444
14360TIP3    H143037   8.702   4.857   6.503
14360TIP3    H243038   8.616   4.981   6.500
14361TIP3   OH243039   7.785   6.150   5.951
14361TIP3    H143040   7.810   6.223   6.010
14361TIP3    H243041   7.872   6.116   5.926
14362TIP3   OH243042   2.112   6.125   8.494
14362TIP3    H143043   2.137   6.139   8.587
14362TIP3    H243044   2.198   6.109   8.453
14363TIP3   OH243045   1.644   5.992   8.189
14363TIP3    H143046   1.700   5.995   8.268
14363TIP3    H243047   1.697   6.045   8.127
14364TIP3   OH243048   1.842   6.024   8.385
14364TIP3    H143049   1.838   5.944   8.439
14364TIP3    H243050   1.929   6.060   8.411
14365TIP3   OH243051   1.197   6.269   7.912
14365TIP3    H143052   1.112   6.317   7.919
14365TIP3    H243053   1.248   6.320   7.846
14366TIP3   OH243054   1.183   6.149   7.663
14366TIP3    H143055   1.225   6.172   7.747
14366TIP3    H243056   1.255   6.100   7.618
14367TIP3   OH243057   1.591   6.420   7.945
14367TIP3    H143058   1.580   6.488   8.015
14367TIP3    H243059   1.676   6.382   7.974
14368TIP3   OH243060   1.415   6.320   7.763
14368TIP3    H143061   1.486   6.367   7.810
14368TIP3    H243062   1.435   6.342   7.669
14369TIP3   OH243063   1.924   5.561   7.827
14369TIP3    H143064   1.842   5.581   7.877
14369TIP3    H243065   1.938   5.644   7.779
14370TIP3   OH243066   1.742   6.920   7.335
14370TIP3    H143067   1.755   7.016   7.335
14370TIP3    H243068   1.833   6.888   7.349
14371TIP3   OH243069   1.482   6.354   7.507
14371TIP3    H143070   1.454   6.334   7.415
14371TIP3    H243071   1.562   6.408   7.492
14372TIP3   OH243072   1.185   5.755   7.803
14372TIP3    H143073   1.171   5.749   7.900
14372TIP3    H243074   1.159   5.664   7.779
14373TIP3   OH243075   1.352   6.173   8.109
14373TIP3    H143076   1.297   6.199   8.032
14373TIP3    H243077   1.431   6.137   8.064
14374TIP3   OH243078   1.443   5.849   7.787
14374TIP3    H143079   1.347   5.831   7.797
14374TIP3    H243080   1.453   5.940   7.821
14375TIP3   OH243081   1.521   6.092   7.898
14375TIP3    H143082   1.617   6.098   7.913
14375TIP3    H243083   1.502   6.171   7.844
14376TIP3   OH243084   1.954   6.186   7.734
14376TIP3    H143085   1.894   6.142   7.670
14376TIP3    H243086   1.954   6.275   7.693
14377TIP3   OH243087   1.409   6.733   7.517
14377TIP3    H143088   1.461   6.684   7.584
14377TIP3    H243089   1.320   6.706   7.545
14378TIP3   OH243090   1.816   7.235   7.321
14378TIP3    H143091   1.801   7.283   7.237
14378TIP3    H243092   1.727   7.233   7.357
14379TIP3   OH243093   1.553   6.589   7.705
14379TIP3    H143094   1.558   6.546   7.792
14379TIP3    H243095   1.639   6.633   7.701
14380TIP3   OH243096   1.506   5.787   8.071
14380TIP3    H143097   1.488   5.817   7.980
14380TIP3    H243098   1.549   5.866   8.110
14381TIP3   OH243099   1.187   5.971   8.190
14381TIP3    H143100   1.256   6.035   8.163
14381TIP3    H243101   1.187   5.982   8.286
14382TIP3   OH243102   1.340   5.686   8.269
14382TIP3    H143103   1.349   5.737   8.351
14382TIP3    H243104   1.394   5.736   8.205
14383TIP3   OH243105   1.377   6.954   7.345
14383TIP3    H143106   1.415   6.897   7.414
14383TIP3    H243107   1.440   6.943   7.271
14384TIP3   OH243108   1.121   6.638   7.491
14384TIP3    H143109   1.138   6.640   7.587
14384TIP3    H243110   1.112   6.542   7.476
14385TIP3   OH243111   0.936   6.166   7.793
14385TIP3    H143112   0.910   6.156   7.699
14385TIP3    H243113   1.031   6.147   7.783
14386TIP3   OH243114   1.721   6.457   7.403
14386TIP3    H143115   1.701   6.414   7.318
14386TIP3    H243116   1.688   6.548   7.382
14387TIP3   OH243117   1.865   6.645   7.733
14387TIP3    H143118   1.934   6.703   7.693
14387TIP3    H243119   1.916   6.598   7.803
14388TIP3   OH243120   1.979   6.501   7.931
14388TIP3    H143121   1.929   6.465   8.007
14388TIP3    H243122   2.059   6.538   7.976
14389TIP3   OH243123   1.923   6.418   7.582
14389TIP3    H143124   1.852   6.419   7.514
14389TIP3    H243125   1.893   6.493   7.636
14390TIP3   OH243126   1.791   6.093   7.538
14390TIP3    H143127   1.747   6.127   7.459
14390TIP3    H243128   1.770   5.997   7.530
14391TIP3   OH243129   1.806   6.345   8.107
14391TIP3    H143130   1.820   6.253   8.077
14391TIP3    H243131   1.765   6.334   8.193
14392TIP3   OH243132   1.737   5.827   7.520
14392TIP3    H143133   1.812   5.796   7.576
14392TIP3    H243134   1.665   5.767   7.544
14393TIP3   OH243135   1.799   6.097   7.972
14393TIP3    H143136   1.829   6.004   7.986
14393TIP3    H243137   1.858   6.122   7.898
14394TIP3   OH243138   1.891   5.844   8.000
14394TIP3    H143139   1.948   5.829   8.079
14394TIP3    H243140   1.832   5.766   8.006
14395TIP3   OH243141   1.981   5.769   7.650
14395TIP3    H143142   2.022   5.698   7.596
14395TIP3    H243143   2.050   5.839   7.648
14396TIP3   OH243144   1.995   5.686   8.415
14396TIP3    H143145   2.034   5.735   8.339
14396TIP3    H243146   1.900   5.691   8.394
14397TIP3   OH243147   2.077   5.813   8.194
14397TIP3    H143148   2.152   5.759   8.162
14397TIP3    H243149   2.114   5.904   8.185
14398TIP3   OH243150   1.732   5.680   8.387
14398TIP3    H143151   1.663   5.664   8.323
14398TIP3    H243152   1.709   5.616   8.457
14399TIP3   OH243153   1.720   5.625   8.006
14399TIP3    H143154   1.635   5.669   8.026
14399TIP3    H243155   1.705   5.538   8.049
14400TIP3   OH243156   1.155   5.731   8.068
14400TIP3    H143157   1.202   5.690   8.143
14400TIP3    H243158   1.143   5.821   8.105
14401TIP3   OH243159   3.187   6.789   7.635
14401TIP3    H143160   3.159   6.880   7.615
14401TIP3    H243161   3.107   6.740   7.609
14402TIP3   OH243162   3.200   6.762   8.007
14402TIP3    H143163   3.221   6.750   8.101
14402TIP3    H243164   3.151   6.681   7.986
14403TIP3   OH243165   3.432   7.088   7.697
14403TIP3    H143166   3.416   7.024   7.767
14403TIP3    H243167   3.470   7.163   7.745
14404TIP3   OH243168   2.170   6.279   7.885
14404TIP3    H143169   2.139   6.368   7.909
14404TIP3    H243170   2.089   6.240   7.847
14405TIP3   OH243171   2.226   6.572   8.024
14405TIP3    H143172   2.277   6.517   8.087
14405TIP3    H243173   2.281   6.652   8.022
14406TIP3   OH243174   3.088   7.527   7.723
14406TIP3    H143175   3.132   7.470   7.657
14406TIP3    H243176   3.115   7.483   7.805
14407TIP3   OH243177   3.020   6.969   8.033
14407TIP3    H143178   3.072   6.895   7.996
14407TIP3    H243179   3.093   7.020   8.073
14408TIP3   OH243180   4.001   6.329   8.058
14408TIP3    H143181   4.027   6.404   8.115
14408TIP3    H243182   4.052   6.345   7.977
14409TIP3   OH243183   3.394   6.519   8.100
14409TIP3    H143184   3.437   6.434   8.122
14409TIP3    H243185   3.363   6.501   8.009
14410TIP3   OH243186   2.739   6.169   8.060
14410TIP3    H143187   2.718   6.242   7.998
14410TIP3    H243188   2.690   6.096   8.016
14411TIP3   OH243189   3.433   6.264   7.683
14411TIP3    H143190   3.502   6.249   7.752
14411TIP3    H243191   3.489   6.298   7.611
14412TIP3   OH243192   2.388   6.391   8.165
14412TIP3    H143193   2.467   6.354   8.209
14412TIP3    H243194   2.390   6.340   8.082
14413TIP3   OH243195   2.810   6.561   7.971
14413TIP3    H143196   2.905   6.539   7.978
14413TIP3    H243197   2.772   6.479   7.935
14414TIP3   OH243198   4.046   6.513   8.263
14414TIP3    H143199   3.993   6.581   8.219
14414TIP3    H243200   4.123   6.565   8.292
14415TIP3   OH243201   2.746   6.146   8.492
14415TIP3    H143202   2.678   6.187   8.435
14415TIP3    H243203   2.702   6.139   8.577
14416TIP3   OH243204   3.091   7.016   7.493
14416TIP3    H143205   3.033   6.991   7.419
14416TIP3    H243206   3.043   7.094   7.526
14417TIP3   OH243207   3.637   6.270   7.862
14417TIP3    H143208   3.628   6.224   7.946
14417TIP3    H243209   3.695   6.345   7.885
14418TIP3   OH243210   2.607   6.263   8.281
14418TIP3    H143211   2.670   6.335   8.303
14418TIP3    H243212   2.654   6.222   8.205
14419TIP3   OH243213   2.056   6.811   7.624
14419TIP3    H143214   2.030   6.841   7.535
14419TIP3    H243215   2.111   6.883   7.659
14420TIP3   OH243216   3.517   7.319   7.843
14420TIP3    H143217   3.430   7.305   7.885
14420TIP3    H243218   3.504   7.409   7.805
14421TIP3   OH243219   3.792   6.218   8.221
14421TIP3    H143220   3.710   6.262   8.194
14421TIP3    H243221   3.858   6.259   8.162
14422TIP3   OH243222   3.088   5.867   8.213
14422TIP3    H143223   3.073   5.773   8.232
14422TIP3    H243224   3.011   5.907   8.258
14423TIP3   OH243225   3.211   7.372   7.532
14423TIP3    H143226   3.260   7.290   7.513
14423TIP3    H243227   3.273   7.438   7.494
14424TIP3   OH243228   3.346   7.143   7.443
14424TIP3    H143229   3.267   7.086   7.446
14424TIP3    H243230   3.390   7.119   7.527
14425TIP3   OH243231   3.716   7.251   8.171
14425TIP3    H143232   3.705   7.159   8.136
14425TIP3    H243233   3.742   7.299   8.090
14426TIP3   OH243234   3.017   6.632   7.468
14426TIP3    H143235   2.935   6.685   7.455
14426TIP3    H243236   3.057   6.638   7.380
14427TIP3   OH243237   2.976   6.421   7.179
14427TIP3    H143238   3.039   6.467   7.236
14427TIP3    H243239   3.035   6.360   7.131
14428TIP3   OH243240   3.916   6.869   8.056
14428TIP3    H143241   3.839   6.929   8.049
14428TIP3    H243242   3.960   6.882   7.970
14429TIP3   OH243243   3.366   6.716   7.443
14429TIP3    H143244   3.312   6.744   7.521
14429TIP3    H243245   3.451   6.696   7.487
14430TIP3   OH243246   3.598   6.743   8.347
14430TIP3    H143247   3.601   6.822   8.403
14430TIP3    H243248   3.515   6.757   8.298
14431TIP3   OH243249   2.605   6.710   7.852
14431TIP3    H143250   2.561   6.655   7.784
14431TIP3    H243251   2.677   6.652   7.883
14432TIP3   OH243252   2.779   7.083   8.043
14432TIP3    H143253   2.723   7.037   7.980
14432TIP3    H243254   2.867   7.042   8.027
14433TIP3   OH243255   2.750   6.690   8.204
14433TIP3    H143256   2.771   6.651   8.116
14433TIP3    H243257   2.833   6.736   8.225
14434TIP3   OH243258   3.275   7.290   7.958
14434TIP3    H143259   3.276   7.351   8.034
14434TIP3    H243260   3.252   7.205   8.000
14435TIP3   OH243261   3.212   6.585   7.263
14435TIP3    H143262   3.268   6.633   7.329
14435TIP3    H243263   3.219   6.645   7.187
14436TIP3   OH243264   2.954   7.248   7.536
14436TIP3    H143265   3.028   7.307   7.557
14436TIP3    H243266   2.886   7.309   7.505
14437TIP3   OH243267   3.720   5.816   7.313
14437TIP3    H143268   3.639   5.837   7.364
14437TIP3    H243269   3.735   5.901   7.267
14438TIP3   OH243270   2.471   6.557   7.651
14438TIP3    H143271   2.400   6.603   7.603
14438TIP3    H243272   2.427   6.476   7.679
14439TIP3   OH243273   3.525   7.179   6.854
14439TIP3    H143274   3.528   7.277   6.846
14439TIP3    H243275   3.620   7.158   6.845
14440TIP3   OH243276   2.843   7.514   7.339
14440TIP3    H143277   2.807   7.472   7.257
14440TIP3    H243278   2.780   7.585   7.351
14441TIP3   OH243279   3.032   7.413   6.975
14441TIP3    H143280   3.091   7.345   6.937
14441TIP3    H243281   3.066   7.421   7.066
14442TIP3   OH243282   3.089   7.446   7.249
14442TIP3    H143283   3.000   7.465   7.286
14442TIP3    H243284   3.133   7.409   7.327
14443TIP3   OH243285   3.856   6.716   8.528
14443TIP3    H143286   3.793   6.725   8.456
14443TIP3    H243287   3.874   6.620   8.527
14444TIP3   OH243288   2.851   5.946   8.332
14444TIP3    H143289   2.760   5.921   8.304
14444TIP3    H243290   2.830   6.028   8.382
14445TIP3   OH243291   3.386   6.073   8.529
14445TIP3    H143292   3.459   6.032   8.580
14445TIP3    H243293   3.306   6.043   8.576
14446TIP3   OH243294   3.606   6.485   8.454
14446TIP3    H143295   3.574   6.503   8.544
14446TIP3    H243296   3.603   6.574   8.412
14447TIP3   OH243297   2.994   5.998   7.315
14447TIP3    H143298   2.959   5.994   7.406
14447TIP3    H243299   2.954   5.916   7.278
14448TIP3   OH243300   2.780   6.464   8.357
14448TIP3    H143301   2.775   6.494   8.448
14448TIP3    H243302   2.767   6.547   8.306
14449TIP3   OH243303   2.665   6.351   7.874
14449TIP3    H143304   2.572   6.327   7.893
14449TIP3    H243305   2.676   6.310   7.785
14450TIP3   OH243306   3.156   6.437   7.606
14450TIP3    H143307   3.106   6.508   7.561
14450TIP3    H243308   3.211   6.402   7.533
14451TIP3   OH243309   3.310   6.462   7.843
14451TIP3    H143310   3.249   6.490   7.771
14451TIP3    H243311   3.347   6.383   7.799
14452TIP3   OH243312   2.650   5.973   7.278
14452TIP3    H143313   2.641   5.971   7.375
14452TIP3    H243314   2.572   6.027   7.254
14453TIP3   OH243315   2.206   6.040   8.136
14453TIP3    H143316   2.281   6.061   8.196
14453TIP3    H243317   2.249   6.004   8.057
14454TIP3   OH243318   2.158   5.995   7.668
14454TIP3    H143319   2.206   6.031   7.590
14454TIP3    H243320   2.101   6.070   7.688
14455TIP3   OH243321   3.313   6.712   8.269
14455TIP3    H143322   3.350   6.648   8.204
14455TIP3    H243323   3.282   6.648   8.337
14456TIP3   OH243324   2.996   6.176   7.934
14456TIP3    H143325   2.916   6.173   7.990
14456TIP3    H243326   3.067   6.164   8.000
14457TIP3   OH243327   2.428   6.230   7.944
14457TIP3    H143328   2.334   6.237   7.915
14457TIP3    H243329   2.452   6.139   7.919
14458TIP3   OH243330   2.691   6.223   7.634
14458TIP3    H143331   2.785   6.239   7.612
14458TIP3    H243332   2.644   6.246   7.551
14459TIP3   OH243333   3.475   6.257   8.140
14459TIP3    H143334   3.440   6.266   8.231
14459TIP3    H243335   3.414   6.191   8.103
14460TIP3   OH243336   2.542   6.258   7.409
14460TIP3    H143337   2.469   6.215   7.362
14460TIP3    H243338   2.592   6.296   7.335
14461TIP3   OH243339   3.076   6.502   8.032
14461TIP3    H143340   3.149   6.460   7.983
14461TIP3    H243341   3.079   6.455   8.118
14462TIP3   OH243342   2.594   5.987   7.914
14462TIP3    H143343   2.558   5.911   7.964
14462TIP3    H243344   2.643   5.943   7.844
14463TIP3   OH243345   3.053   6.401   8.305
14463TIP3    H143346   2.964   6.434   8.324
14463TIP3    H243347   3.110   6.456   8.363
14464TIP3   OH243348   2.792   6.784   7.413
14464TIP3    H143349   2.716   6.723   7.401
14464TIP3    H243350   2.778   6.813   7.507
14465TIP3   OH243351   3.684   7.018   8.035
14465TIP3    H143352   3.709   7.069   7.955
14465TIP3    H243353   3.600   6.976   8.008
14466TIP3   OH243354   3.243   6.101   7.277
14466TIP3    H143355   3.148   6.079   7.291
14466TIP3    H243356   3.250   6.193   7.309
14467TIP3   OH243357   3.313   6.349   7.387
14467TIP3    H143358   3.409   6.352   7.406
14467TIP3    H243359   3.300   6.429   7.334
14468TIP3   OH243360   2.470   6.755   8.084
14468TIP3    H143361   2.509   6.764   7.995
14468TIP3    H243362   2.533   6.697   8.126
14469TIP3   OH243363   2.934   6.936   7.235
14469TIP3    H143364   2.886   7.022   7.239
14469TIP3    H243365   2.879   6.883   7.297
14470TIP3   OH243366   3.740   6.419   7.232
14470TIP3    H143367   3.681   6.392   7.158
14470TIP3    H243368   3.767   6.506   7.204
14471TIP3   OH243369   3.970   7.241   8.279
14471TIP3    H143370   3.881   7.256   8.242
14471TIP3    H243371   4.022   7.226   8.198
14472TIP3   OH243372   3.445   7.261   7.122
14472TIP3    H143373   3.431   7.201   7.198
14472TIP3    H243374   3.475   7.202   7.051
14473TIP3   OH243375   3.448   6.886   7.962
14473TIP3    H143376   3.355   6.857   7.969
14473TIP3    H243377   3.487   6.808   7.918
14474TIP3   OH243378   2.575   7.060   7.666
14474TIP3    H143379   2.612   7.138   7.711
14474TIP3    H243380   2.486   7.058   7.703
14475TIP3   OH243381   2.147   6.419   7.422
14475TIP3    H143382   2.193   6.503   7.444
14475TIP3    H243383   2.071   6.422   7.484
14476TIP3   OH243384   2.745   6.853   7.665
14476TIP3    H143385   2.691   6.935   7.661
14476TIP3    H243386   2.703   6.809   7.741
14477TIP3   OH243387   3.259   7.073   8.125
14477TIP3    H143388   3.267   7.121   8.209
14477TIP3    H243389   3.340   7.020   8.122
14478TIP3   OH243390   3.206   6.980   7.032
14478TIP3    H143391   3.258   6.954   7.111
14478TIP3    H243392   3.115   6.966   7.063
14479TIP3   OH243393   3.550   7.455   6.843
14479TIP3    H143394   3.585   7.528   6.790
14479TIP3    H243395   3.472   7.502   6.881
14480TIP3   OH243396   3.375   6.888   7.225
14480TIP3    H143397   3.366   6.847   7.313
14480TIP3    H243398   3.472   6.901   7.222
14481TIP3   OH243399   2.576   6.961   7.031
14481TIP3    H143400   2.590   6.866   7.010
14481TIP3    H243401   2.560   6.957   7.128
14482TIP3   OH243402   2.523   6.979   7.302
14482TIP3    H143403   2.584   6.954   7.373
14482TIP3    H243404   2.524   7.077   7.310
14483TIP3   OH243405   2.259   6.662   7.505
14483TIP3    H143406   2.193   6.705   7.563
14483TIP3    H243407   2.273   6.732   7.439
14484TIP3   OH243408   3.399   6.315   8.402
14484TIP3    H143409   3.487   6.351   8.423
14484TIP3    H243410   3.397   6.230   8.453
14485TIP3   OH243411   3.294   6.049   7.566
14485TIP3    H143412   3.281   6.073   7.472
14485TIP3    H243413   3.333   6.131   7.603
14486TIP3   OH243414   2.790   7.161   7.247
14486TIP3    H143415   2.704   7.185   7.286
14486TIP3    H243416   2.805   7.242   7.194
14487TIP3   OH243417   2.976   6.235   7.665
14487TIP3    H143418   3.039   6.308   7.650
14487TIP3    H243419   2.982   6.224   7.763
14488TIP3   OH243420   3.234   6.543   8.467
14488TIP3    H143421   3.268   6.595   8.542
14488TIP3    H243422   3.295   6.466   8.464
14489TIP3   OH243423   3.120   5.954   7.764
14489TIP3    H143424   3.119   6.030   7.825
14489TIP3    H243425   3.183   5.987   7.695
14490TIP3   OH243426   2.536   7.255   7.313
14490TIP3    H143427   2.506   7.315   7.242
14490TIP3    H243428   2.537   7.316   7.389
14491TIP3   OH243429   2.635   5.959   7.554
14491TIP3    H143430   2.632   6.049   7.593
14491TIP3    H243431   2.731   5.941   7.562
14492TIP3   OH243432   3.883   6.447   8.477
14492TIP3    H143433   3.791   6.431   8.450
14492TIP3    H243434   3.930   6.456   8.392
14493TIP3   OH243435   3.538   6.648   7.840
14493TIP3    H143436   3.464   6.586   7.855
14493TIP3    H243437   3.612   6.603   7.887
14494TIP3   OH243438   2.258   6.871   7.310
14494TIP3    H143439   2.324   6.942   7.317
14494TIP3    H243440   2.301   6.816   7.242
14495TIP3   OH243441   2.194   6.149   7.444
14495TIP3    H143442   2.198   6.247   7.441
14495TIP3    H243443   2.112   6.131   7.397
14496TIP3   OH243444   3.516   7.582   7.771
14496TIP3    H143445   3.462   7.642   7.718
14496TIP3    H243446   3.603   7.625   7.760
14497TIP3   OH243447   2.578   5.883   8.309
14497TIP3    H143448   2.552   5.847   8.222
14497TIP3    H243449   2.572   5.803   8.366
14498TIP3   OH243450   2.731   7.155   6.925
14498TIP3    H143451   2.674   7.092   6.974
14498TIP3    H243452   2.816   7.111   6.933
14499TIP3   OH243453   3.184   7.208   6.856
14499TIP3    H143454   3.221   7.159   6.932
14499TIP3    H243455   3.260   7.214   6.796
14500TIP3   OH243456   2.390   6.684   7.164
14500TIP3    H143457   2.446   6.655   7.238
14500TIP3    H243458   2.457   6.690   7.093
14501TIP3   OH243459   2.905   6.892   6.965
14501TIP3    H143460   2.901   6.903   7.062
14501TIP3    H243461   2.910   6.795   6.959
14502TIP3   OH243462   3.513   7.111   8.325
14502TIP3    H143463   3.585   7.170   8.294
14502TIP3    H243464   3.436   7.170   8.326
14503TIP3   OH243465   2.591   6.594   7.382
14503TIP3    H143466   2.564   6.558   7.469
14503TIP3    H243467   2.629   6.515   7.337
14504TIP3   OH243468   2.696   6.386   7.223
14504TIP3    H143469   2.671   6.395   7.129
14504TIP3    H243470   2.794   6.388   7.216
14505TIP3   OH243471   2.931   6.439   8.682
14505TIP3    H143472   2.958   6.346   8.681
14505TIP3    H243473   3.009   6.483   8.652
14506TIP3   OH243474   3.009   6.212   8.525
14506TIP3    H143475   3.034   6.257   8.443
14506TIP3    H243476   2.913   6.197   8.512
14507TIP3   OH243477   2.997   6.771   8.357
14507TIP3    H143478   3.089   6.749   8.359
14507TIP3    H243479   2.996   6.865   8.374
14508TIP3   OH243480   3.629   6.964   8.519
14508TIP3    H143481   3.582   7.022   8.454
14508TIP3    H243482   3.720   6.971   8.482
14509TIP3   OH243483   3.141   5.983   8.611
14509TIP3    H143484   3.093   6.066   8.594
14509TIP3    H243485   3.068   5.919   8.613
14510TIP3   OH243486   3.495   6.449   8.719
14510TIP3    H143487   3.418   6.416   8.769
14510TIP3    H243488   3.558   6.377   8.732
14511TIP3   OH243489   1.995   6.823   7.351
14511TIP3    H143490   2.088   6.846   7.329
14511TIP3    H243491   1.986   6.737   7.305
14512TIP3   OH243492   3.745   7.730   7.754
14512TIP3    H143493   3.813   7.766   7.815
14512TIP3    H243494   3.799   7.719   7.674
14513TIP3   OH243495   3.654   6.893   7.198
14513TIP3    H143496   3.722   6.960   7.176
14513TIP3    H243497   3.695   6.850   7.276
14514TIP3   OH243498   3.776   6.767   7.414
14514TIP3    H143499   3.713   6.732   7.481
14514TIP3    H243500   3.846   6.806   7.471
14515TIP3   OH243501   3.824   7.159   7.848
14515TIP3    H143502   3.884   7.090   7.811
14515TIP3    H243503   3.825   7.227   7.779
14516TIP3   OH243504   3.730   7.447   7.972
14516TIP3    H143505   3.699   7.538   7.963
14516TIP3    H243506   3.668   7.399   7.915
14517TIP3   OH243507   3.581   6.361   7.012
14517TIP3    H143508   3.550   6.368   6.922
14517TIP3    H243509   3.564   6.266   7.028
14518TIP3   OH243510   3.593   6.628   7.573
14518TIP3    H143511   3.602   6.532   7.567
14518TIP3    H243512   3.578   6.642   7.669
14519TIP3   OH243513   3.869   7.015   8.405
14519TIP3    H143514   3.949   6.961   8.420
14519TIP3    H243515   3.909   7.092   8.358
14520TIP3   OH243516   4.086   6.857   8.464
14520TIP3    H143517   4.012   6.814   8.511
14520TIP3    H243518   4.148   6.781   8.459
14521TIP3   OH243519   3.532   6.095   7.019
14521TIP3    H143520   3.608   6.058   7.067
14521TIP3    H243521   3.461   6.031   7.034
14522TIP3   OH243522   3.591   6.340   7.463
14522TIP3    H143523   3.631   6.251   7.479
14522TIP3    H243524   3.648   6.370   7.390
14523TIP3   OH243525   3.757   6.523   7.953
14523TIP3    H143526   3.844   6.541   7.914
14523TIP3    H243527   3.771   6.558   8.043
14524TIP3   OH243528   3.814   6.656   8.186
14524TIP3    H143529   3.737   6.696   8.232
14524TIP3    H243530   3.856   6.736   8.147
14525TIP3   OH243531   3.699   6.092   7.503
14525TIP3    H143532   3.749   6.078   7.586
14525TIP3    H243533   3.639   6.015   7.504
14526TIP3   OH243534   2.394   6.090   8.332
14526TIP3    H143535   2.447   6.008   8.339
14526TIP3    H243536   2.465   6.155   8.315
14527TIP3   OH243537   2.219   6.383   8.386
14527TIP3    H143538   2.198   6.300   8.342
14527TIP3    H243539   2.289   6.416   8.328
14528TIP3   OH243540   4.130   6.390   8.575
14528TIP3    H143541   4.037   6.415   8.555
14528TIP3    H243542   4.140   6.311   8.520
14529TIP3   OH243543   3.778   6.027   7.135
14529TIP3    H143544   3.822   5.955   7.086
14529TIP3    H243545   3.847   6.096   7.139
14530TIP3   OH243546   2.186   5.857   7.897
14530TIP3    H143547   2.093   5.850   7.922
14530TIP3    H243548   2.182   5.916   7.819
14531TIP3   OH243549   3.363   7.555   7.406
14531TIP3    H143550   3.400   7.545   7.316
14531TIP3    H243551   3.411   7.631   7.438
14532TIP3   OH243552   4.044   6.152   8.426
14532TIP3    H143553   3.955   6.150   8.388
14532TIP3    H243554   4.073   6.059   8.414
14533TIP3   OH243555   3.241   6.064   8.048
14533TIP3    H143556   3.204   5.993   8.103
14533TIP3    H243557   3.320   6.022   8.009
14534TIP3   OH243558   3.768   5.942   7.950
14534TIP3    H143559   3.805   5.998   7.879
14534TIP3    H243560   3.674   5.969   7.950
14535TIP3   OH243561   3.866   6.049   7.718
14535TIP3    H143562   3.940   5.997   7.682
14535TIP3    H243563   3.901   6.140   7.704
14536TIP3   OH243564   2.496   5.778   8.065
14536TIP3    H143565   2.404   5.743   8.070
14536TIP3    H243566   2.545   5.693   8.063
14537TIP3   OH243567   2.280   5.649   7.716
14537TIP3    H143568   2.312   5.705   7.644
14537TIP3    H243569   2.257   5.715   7.785
14538TIP3   OH243570   2.941   5.810   7.950
14538TIP3    H143571   2.998   5.857   7.887
14538TIP3    H243572   2.972   5.845   8.035
14539TIP3   OH243573   3.480   5.958   7.933
14539TIP3    H143574   3.488   5.915   7.847
14539TIP3    H243575   3.470   5.879   7.992
14540TIP3   OH243576   3.517   5.879   7.495
14540TIP3    H143577   3.431   5.923   7.513
14540TIP3    H243578   3.504   5.794   7.541
14541TIP3   OH243579   2.403   5.806   7.477
14541TIP3    H143580   2.450   5.742   7.421
14541TIP3    H243581   2.477   5.859   7.513
14542TIP3   OH243582   2.912   5.984   7.577
14542TIP3    H143583   2.970   5.936   7.638
14542TIP3    H243584   2.934   6.077   7.603
14543TIP3   OH243585   2.793   7.389   7.103
14543TIP3    H143586   2.867   7.403   7.041
14543TIP3    H243587   2.715   7.394   7.046
14544TIP3   OH243588   3.491   7.526   7.166
14544TIP3    H143589   3.477   7.429   7.154
14544TIP3    H243590   3.445   7.561   7.088
14545TIP3   OH243591   2.074   7.227   7.124
14545TIP3    H143592   2.080   7.273   7.209
14545TIP3    H243593   2.165   7.191   7.113
14546TIP3   OH243594   4.984   7.044   7.120
14546TIP3    H143595   4.952   7.134   7.098
14546TIP3    H243596   4.908   6.991   7.090
14547TIP3   OH243597   4.961   7.034   7.512
14547TIP3    H143598   5.004   7.009   7.596
14547TIP3    H243599   4.923   6.949   7.485
14548TIP3   OH243600   4.272   6.947   7.864
14548TIP3    H143601   4.265   6.859   7.908
14548TIP3    H243602   4.355   6.979   7.901
14549TIP3   OH243603   5.233   7.335   7.193
14549TIP3    H143604   5.218   7.257   7.249
14549TIP3    H243605   5.227   7.405   7.259
14550TIP3   OH243606   4.246   7.347   7.594
14550TIP3    H143607   4.238   7.249   7.588
14550TIP3    H243608   4.341   7.354   7.614
14551TIP3   OH243609   3.965   6.544   7.361
14551TIP3    H143610   3.933   6.629   7.394
14551TIP3    H243611   3.886   6.489   7.369
14552TIP3   OH243612   4.009   6.836   7.544
14552TIP3    H143613   4.057   6.760   7.585
14552TIP3    H243614   4.083   6.884   7.504
14553TIP3   OH243615   4.856   7.794   7.199
14553TIP3    H143616   4.904   7.723   7.150
14553TIP3    H243617   4.906   7.793   7.283
14554TIP3   OH243618   4.776   7.270   7.544
14554TIP3    H143619   4.811   7.186   7.511
14554TIP3    H243620   4.859   7.318   7.561
14555TIP3   OH243621   5.722   6.561   7.494
14555TIP3    H143622   5.798   6.582   7.553
14555TIP3    H243623   5.762   6.573   7.407
14556TIP3   OH243624   5.194   6.773   7.581
14556TIP3    H143625   5.238   6.689   7.604
14556TIP3    H243626   5.163   6.752   7.491
14557TIP3   OH243627   4.547   6.423   7.535
14557TIP3    H143628   4.522   6.500   7.480
14557TIP3    H243629   4.487   6.355   7.498
14558TIP3   OH243630   5.231   6.519   7.171
14558TIP3    H143631   5.300   6.505   7.239
14558TIP3    H243632   5.285   6.556   7.099
14559TIP3   OH243633   4.159   6.643   7.652
14559TIP3    H143634   4.207   6.635   7.736
14559TIP3    H243635   4.207   6.580   7.596
14560TIP3   OH243636   4.609   6.829   7.448
14560TIP3    H143637   4.702   6.802   7.464
14560TIP3    H243638   4.568   6.745   7.419
14561TIP3   OH243639   4.531   6.411   7.981
14561TIP3    H143640   4.463   6.454   7.926
14561TIP3    H243641   4.494   6.428   8.071
14562TIP3   OH243642   4.878   7.266   6.988
14562TIP3    H143643   4.828   7.246   6.908
14562TIP3    H243644   4.834   7.349   7.016
14563TIP3   OH243645   4.637   7.186   7.775
14563TIP3    H143646   4.572   7.248   7.817
14563TIP3    H243647   4.672   7.242   7.703
14564TIP3   OH243648   5.436   6.521   7.349
14564TIP3    H143649   5.415   6.481   7.435
14564TIP3    H243650   5.500   6.589   7.375
14565TIP3   OH243651   4.398   6.511   7.755
14565TIP3    H143652   4.445   6.589   7.789
14565TIP3    H243653   4.460   6.479   7.687
14566TIP3   OH243654   4.445   7.368   7.856
14566TIP3    H143655   4.455   7.464   7.862
14566TIP3    H243656   4.377   7.353   7.924
14567TIP3   OH243657   3.856   7.074   7.111
14567TIP3    H143658   3.824   7.113   7.028
14567TIP3    H243659   3.889   7.154   7.157
14568TIP3   OH243660   5.555   6.468   7.699
14568TIP3    H143661   5.468   6.498   7.669
14568TIP3    H243662   5.615   6.502   7.629
14569TIP3   OH243663   4.878   6.130   7.699
14569TIP3    H143664   4.863   6.035   7.719
14569TIP3    H243665   4.803   6.171   7.747
14570TIP3   OH243666   5.005   7.632   7.039
14570TIP3    H143667   5.050   7.548   7.016
14570TIP3    H243668   5.059   7.693   6.984
14571TIP3   OH243669   5.146   7.418   6.942
14571TIP3    H143670   5.094   7.345   6.904
14571TIP3    H243671   5.180   7.377   7.024
14572TIP3   OH243672   4.816   6.889   6.958
14572TIP3    H143673   4.735   6.942   6.941
14572TIP3    H243674   4.860   6.892   6.871
14573TIP3   OH243675   4.773   6.680   6.665
14573TIP3    H143676   4.836   6.733   6.717
14573TIP3    H243677   4.835   6.620   6.618
14574TIP3   OH243678   5.163   6.978   6.924
14574TIP3    H143679   5.108   7.000   7.002
14574TIP3    H243680   5.247   6.953   6.967
14575TIP3   OH243681   4.396   6.972   7.345
14575TIP3    H143682   4.358   6.915   7.276
14575TIP3    H243683   4.474   6.920   7.375
14576TIP3   OH243684   4.529   7.404   7.489
14576TIP3    H143685   4.497   7.366   7.406
14576TIP3    H243686   4.612   7.354   7.503
14577TIP3   OH243687   4.535   6.939   7.698
14577TIP3    H143688   4.567   6.920   7.608
14577TIP3    H243689   4.574   7.027   7.718
14578TIP3   OH243690   5.002   6.835   6.751
14578TIP3    H143691   5.060   6.896   6.801
14578TIP3    H243692   5.027   6.857   6.658
14579TIP3   OH243693   4.422   7.061   8.109
14579TIP3    H143694   4.414   7.147   8.153
14579TIP3    H243695   4.334   7.022   8.127
14580TIP3   OH243696   4.748   7.504   7.023
14580TIP3    H143697   4.805   7.574   7.058
14580TIP3    H243698   4.676   7.555   6.982
14581TIP3   OH243699   5.518   6.072   6.802
14581TIP3    H143700   5.436   6.095   6.851
14581TIP3    H243701   5.534   6.154   6.752
14582TIP3   OH243702   4.266   6.816   7.141
14582TIP3    H143703   4.195   6.858   7.088
14582TIP3    H243704   4.225   6.733   7.168
14583TIP3   OH243705   5.323   7.442   6.348
14583TIP3    H143706   5.327   7.536   6.318
14583TIP3    H243707   5.416   7.415   6.338
14584TIP3   OH243708   4.064   7.191   8.024
14584TIP3    H143709   4.000   7.160   7.958
14584TIP3    H243710   4.103   7.107   8.057
14585TIP3   OH243711   3.892   7.395   7.682
14585TIP3    H143712   3.987   7.378   7.672
14585TIP3    H243713   3.886   7.446   7.763
14586TIP3   OH243714   4.629   7.763   6.828
14586TIP3    H143715   4.570   7.741   6.754
14586TIP3    H243716   4.595   7.849   6.858
14587TIP3   OH243717   4.053   7.605   7.219
14587TIP3    H143718   4.111   7.599   7.298
14587TIP3    H243719   4.009   7.519   7.223
14588TIP3   OH243720   4.825   7.663   6.469
14588TIP3    H143721   4.885   7.591   6.438
14588TIP3    H243722   4.853   7.672   6.563
14589TIP3   OH243723   4.877   7.707   6.733
14589TIP3    H143724   4.789   7.720   6.775
14589TIP3    H243725   4.925   7.664   6.805
14590TIP3   OH243726   4.246   7.393   8.044
14590TIP3    H143727   4.285   7.374   8.131
14590TIP3    H243728   4.177   7.323   8.038
14591TIP3   OH243729   4.644   6.208   7.832
14591TIP3    H143730   4.555   6.180   7.803
14591TIP3    H243731   4.619   6.291   7.879
14592TIP3   OH243732   5.176   6.321   8.026
14592TIP3    H143733   5.242   6.290   8.091
14592TIP3    H243734   5.091   6.305   8.073
14593TIP3   OH243735   5.076   6.881   6.495
14593TIP3    H143736   5.045   6.854   6.407
14593TIP3    H243737   5.162   6.921   6.473
14594TIP3   OH243738   4.786   6.255   6.800
14594TIP3    H143739   4.755   6.251   6.893
14594TIP3    H243740   4.749   6.172   6.766
14595TIP3   OH243741   4.565   6.714   7.848
14595TIP3    H143742   4.526   6.739   7.933
14595TIP3    H243743   4.553   6.797   7.797
14596TIP3   OH243744   4.462   6.611   7.358
14596TIP3    H143745   4.370   6.585   7.383
14596TIP3    H243746   4.470   6.568   7.271
14597TIP3   OH243747   4.952   6.690   7.090
14597TIP3    H143748   4.902   6.762   7.047
14597TIP3    H243749   5.008   6.658   7.016
14598TIP3   OH243750   5.103   6.717   7.327
14598TIP3    H143751   5.041   6.744   7.257
14598TIP3    H243752   5.141   6.638   7.284
14599TIP3   OH243753   4.441   6.226   6.764
14599TIP3    H143754   4.437   6.228   6.862
14599TIP3    H243755   4.368   6.286   6.742
14600TIP3   OH243756   3.993   6.272   7.633
14600TIP3    H143757   4.058   6.308   7.696
14600TIP3    H243758   4.049   6.244   7.559
14601TIP3   OH243759   3.958   6.245   7.156
14601TIP3    H143760   4.003   6.285   7.078
14601TIP3    H243761   3.901   6.319   7.181
14602TIP3   OH243762   5.089   6.962   7.748
14602TIP3    H143763   5.138   6.897   7.692
14602TIP3    H243764   5.064   6.903   7.823
14603TIP3   OH243765   4.799   6.425   7.416
14603TIP3    H143766   4.715   6.426   7.467
14603TIP3    H243767   4.865   6.425   7.486
14604TIP3   OH243768   4.229   6.487   7.426
14604TIP3    H143769   4.135   6.495   7.399
14604TIP3    H243770   4.251   6.394   7.405
14605TIP3   OH243771   4.487   6.478   7.119
14605TIP3    H143772   4.581   6.496   7.103
14605TIP3    H243773   4.443   6.503   7.035
14606TIP3   OH243774   5.275   6.508   7.620
14606TIP3    H143775   5.247   6.522   7.714
14606TIP3    H243776   5.205   6.448   7.589
14607TIP3   OH243777   4.335   6.513   6.891
14607TIP3    H143778   4.268   6.471   6.836
14607TIP3    H243779   4.390   6.557   6.823
14608TIP3   OH243780   4.382   7.297   8.278
14608TIP3    H143781   4.472   7.314   8.306
14608TIP3    H243782   4.353   7.230   8.343
14609TIP3   OH243783   4.869   6.758   7.520
14609TIP3    H143784   4.946   6.718   7.475
14609TIP3    H243785   4.870   6.715   7.607
14610TIP3   OH243786   4.383   6.245   7.399
14610TIP3    H143787   4.350   6.168   7.450
14610TIP3    H243788   4.442   6.203   7.335
14611TIP3   OH243789   4.840   6.659   7.797
14611TIP3    H143790   4.749   6.690   7.819
14611TIP3    H243791   4.897   6.715   7.854
14612TIP3   OH243792   4.591   7.039   6.906
14612TIP3    H143793   4.508   6.993   6.885
14612TIP3    H243794   4.567   7.081   6.992
14613TIP3   OH243795   5.041   6.355   6.770
14613TIP3    H143796   4.944   6.339   6.778
14613TIP3    H243797   5.051   6.449   6.794
14614TIP3   OH243798   5.110   6.606   6.871
14614TIP3    H143799   5.206   6.613   6.887
14614TIP3    H243800   5.091   6.687   6.819
14615TIP3   OH243801   4.267   7.069   7.578
14615TIP3    H143802   4.317   7.034   7.501
14615TIP3    H243803   4.307   7.021   7.652
14616TIP3   OH243804   4.726   7.199   6.727
14616TIP3    H143805   4.676   7.283   6.732
14616TIP3    H243806   4.672   7.143   6.788
14617TIP3   OH243807   4.163   6.988   8.184
14617TIP3    H143808   4.161   6.971   8.280
14617TIP3    H243809   4.129   6.904   8.149
14618TIP3   OH243810   5.550   6.700   6.704
14618TIP3    H143811   5.486   6.657   6.643
14618TIP3    H243812   5.549   6.789   6.663
14619TIP3   OH243813   5.256   7.529   6.612
14619TIP3    H143814   5.229   7.462   6.676
14619TIP3    H243815   5.271   7.477   6.531
14620TIP3   OH243816   5.190   7.168   7.419
14620TIP3    H143817   5.110   7.112   7.425
14620TIP3    H243818   5.260   7.102   7.408
14621TIP3   OH243819   4.384   7.372   7.220
14621TIP3    H143820   4.381   7.456   7.170
14621TIP3    H243821   4.293   7.343   7.210
14622TIP3   OH243822   3.940   6.683   6.913
14622TIP3    H143823   4.010   6.752   6.918
14622TIP3    H243824   3.877   6.722   6.974
14623TIP3   OH243825   4.515   7.136   7.147
14623TIP3    H143826   4.483   7.227   7.166
14623TIP3    H243827   4.480   7.087   7.223
14624TIP3   OH243828   4.314   7.612   7.098
14624TIP3    H143829   4.217   7.619   7.106
14624TIP3    H243830   4.337   7.701   7.065
14625TIP3   OH243831   5.044   7.323   7.633
14625TIP3    H143832   5.037   7.256   7.700
14625TIP3    H243833   5.098   7.281   7.566
14626TIP3   OH243834   5.012   7.250   6.515
14626TIP3    H143835   5.066   7.224   6.593
14626TIP3    H243836   4.925   7.219   6.543
14627TIP3   OH243837   5.329   7.722   6.306
14627TIP3    H143838   5.392   7.789   6.273
14627TIP3    H243839   5.260   7.778   6.344
14628TIP3   OH243840   4.416   6.473   8.217
14628TIP3    H143841   4.353   6.536   8.179
14628TIP3    H243842   4.365   6.422   8.281
14629TIP3   OH243843   5.172   7.176   6.727
14629TIP3    H143844   5.160   7.113   6.800
14629TIP3    H243845   5.269   7.173   6.717
14630TIP3   OH243846   4.114   7.593   7.859
14630TIP3    H143847   4.126   7.498   7.846
14630TIP3    H243848   4.182   7.607   7.927
14631TIP3   OH243849   4.054   6.922   6.988
14631TIP3    H143850   3.993   6.973   7.045
14631TIP3    H243851   4.079   6.991   6.923
14632TIP3   OH243852   5.216   6.555   7.883
14632TIP3    H143853   5.299   6.579   7.928
14632TIP3    H243854   5.191   6.475   7.933
14633TIP3   OH243855   5.091   6.305   7.053
14633TIP3    H143856   5.077   6.329   6.959
14633TIP3    H243857   5.129   6.388   7.089
14634TIP3   OH243858   4.573   7.423   6.732
14634TIP3    H143859   4.478   7.405   6.745
14634TIP3    H243860   4.572   7.511   6.693
14635TIP3   OH243861   4.769   6.492   7.150
14635TIP3    H143862   4.834   6.563   7.133
14635TIP3    H243863   4.779   6.480   7.247
14636TIP3   OH243864   5.024   6.794   7.954
14636TIP3    H143865   5.008   6.809   8.050
14636TIP3    H243866   5.098   6.731   7.960
14637TIP3   OH243867   4.916   6.209   7.250
14637TIP3    H143868   4.909   6.286   7.311
14637TIP3    H243869   4.980   6.245   7.184
14638TIP3   OH243870   4.431   6.216   7.040
14638TIP3    H143871   4.428   6.305   7.080
14638TIP3    H243872   4.527   6.198   7.050
14639TIP3   OH243873   5.324   6.908   7.313
14639TIP3    H143874   5.251   6.848   7.336
14639TIP3    H243875   5.398   6.872   7.367
14640TIP3   OH243876   4.052   7.138   6.790
14640TIP3    H143877   4.101   7.223   6.776
14640TIP3    H243878   4.103   7.084   6.726
14641TIP3   OH243879   3.983   6.407   6.937
14641TIP3    H143880   3.989   6.504   6.933
14641TIP3    H243881   3.917   6.387   6.870
14642TIP3   OH243882   4.378   6.128   7.800
14642TIP3    H143883   4.349   6.092   7.713
14642TIP3    H243884   4.369   6.050   7.858
14643TIP3   OH243885   3.915   7.339   7.182
14643TIP3    H143886   3.846   7.375   7.238
14643TIP3    H243887   3.893   7.381   7.096
14644TIP3   OH243888   4.519   7.414   6.433
14644TIP3    H143889   4.449   7.386   6.496
14644TIP3    H243890   4.579   7.338   6.437
14645TIP3   OH243891   4.976   7.469   6.345
14645TIP3    H143892   5.010   7.399   6.405
14645TIP3    H243893   5.033   7.458   6.266
14646TIP3   OH243894   4.181   6.935   6.655
14646TIP3    H143895   4.244   6.912   6.727
14646TIP3    H243896   4.246   6.949   6.582
14647TIP3   OH243897   4.690   7.152   6.458
14647TIP3    H143898   4.696   7.160   6.555
14647TIP3    H243899   4.689   7.055   6.448
14648TIP3   OH243900   4.365   7.058   8.448
14648TIP3    H143901   4.412   6.985   8.406
14648TIP3    H243902   4.322   7.012   8.522
14649TIP3   OH243903   4.375   6.850   6.862
14649TIP3    H143904   4.366   6.817   6.952
14649TIP3    H243905   4.422   6.777   6.817
14650TIP3   OH243906   4.651   6.894   8.087
14650TIP3    H143907   4.575   6.954   8.092
14650TIP3    H243908   4.714   6.945   8.032
14651TIP3   OH243909   4.495   6.642   6.711
14651TIP3    H143910   4.470   6.653   6.617
14651TIP3    H243911   4.592   6.645   6.705
14652TIP3   OH243912   5.311   6.972   6.377
14652TIP3    H143913   5.300   6.921   6.293
14652TIP3    H243914   5.272   7.058   6.351
14653TIP3   OH243915   4.773   6.697   8.227
14653TIP3    H143916   4.769   6.619   8.170
14653TIP3    H243917   4.726   6.764   8.172
14654TIP3   OH243918   4.787   6.485   8.029
14654TIP3    H143919   4.812   6.529   7.946
14654TIP3    H243920   4.692   6.465   8.013
14655TIP3   OH243921   4.811   7.022   7.906
14655TIP3    H143922   4.887   7.021   7.847
14655TIP3    H243923   4.750   7.085   7.862
14656TIP3   OH243924   4.650   6.824   8.446
14656TIP3    H143925   4.589   6.752   8.470
14656TIP3    H243926   4.693   6.785   8.367
14657TIP3   OH243927   4.920   6.255   8.117
14657TIP3    H143928   4.870   6.334   8.088
14657TIP3    H243929   4.855   6.184   8.101
14658TIP3   OH243930   5.044   6.760   8.234
14658TIP3    H143931   5.072   6.765   8.326
14658TIP3    H243932   4.950   6.734   8.243
14659TIP3   OH243933   4.498   6.595   8.499
14659TIP3    H143934   4.502   6.526   8.431
14659TIP3    H243935   4.537   6.550   8.575
14660TIP3   OH243936   5.004   6.248   8.388
14660TIP3    H143937   5.076   6.184   8.372
14660TIP3    H243938   4.971   6.260   8.297
14661TIP3   OH243939   4.309   7.773   6.625
14661TIP3    H143940   4.377   7.704   6.621
14661TIP3    H243941   4.292   7.788   6.531
14662TIP3   OH243942   3.786   7.088   6.825
14662TIP3    H143943   3.881   7.114   6.816
14662TIP3    H243944   3.788   6.996   6.795
14663TIP3   OH243945   3.694   7.699   7.252
14663TIP3    H143946   3.630   7.637   7.209
14663TIP3    H243947   3.738   7.639   7.315
14664TIP3   OH243948   3.826   7.543   7.439
14664TIP3    H143949   3.822   7.471   7.503
14664TIP3    H243950   3.889   7.602   7.484
14665TIP3   OH243951   5.450   7.158   6.710
14665TIP3    H143952   5.515   7.223   6.677
14665TIP3    H243953   5.496   7.122   6.788
14666TIP3   OH243954   5.580   7.030   6.917
14666TIP3    H143955   5.509   6.984   6.967
14666TIP3    H243956   5.631   7.073   6.988
14667TIP3   OH243957   5.516   6.936   6.556
14667TIP3    H143958   5.444   6.935   6.489
14667TIP3    H243959   5.486   7.011   6.611
14668TIP3   OH243960   5.381   6.607   6.512
14668TIP3    H143961   5.344   6.634   6.427
14668TIP3    H243962   5.357   6.512   6.510
14669TIP3   OH243963   5.393   6.884   7.051
14669TIP3    H143964   5.397   6.787   7.045
14669TIP3    H243965   5.372   6.898   7.147
14670TIP3   OH243966   4.011   6.971   7.798
14670TIP3    H143967   4.010   6.927   7.711
14670TIP3    H243968   4.107   6.970   7.818
14671TIP3   OH243969   5.330   6.339   6.500
14671TIP3    H143970   5.404   6.307   6.555
14671TIP3    H243971   5.257   6.279   6.520
14672TIP3   OH243972   5.389   6.601   6.950
14672TIP3    H143973   5.428   6.512   6.965
14672TIP3    H243974   5.446   6.632   6.877
14673TIP3   OH243975   5.538   6.801   7.445
14673TIP3    H143976   5.630   6.808   7.412
14673TIP3    H243977   5.554   6.824   7.538
14674TIP3   OH243978   4.228   6.625   8.461
14674TIP3    H143979   4.325   6.627   8.473
14674TIP3    H243980   4.204   6.547   8.515
14675TIP3   OH243981   5.496   6.350   6.988
14675TIP3    H143982   5.544   6.335   7.073
14675TIP3    H243983   5.434   6.275   6.988
14676TIP3   OH243984   4.187   6.336   7.821
14676TIP3    H143985   4.255   6.266   7.824
14676TIP3    H243986   4.244   6.415   7.811
14677TIP3   OH243987   5.577   6.280   6.627
14677TIP3    H143988   5.614   6.211   6.569
14677TIP3    H243989   5.641   6.353   6.617
14678TIP3   OH243990   3.981   6.095   7.378
14678TIP3    H143991   3.892   6.103   7.415
14678TIP3    H243992   3.979   6.160   7.305
14679TIP3   OH243993   5.149   7.789   6.872
14679TIP3    H143994   5.186   7.806   6.783
14679TIP3    H243995   5.090   7.864   6.888
14680TIP3   OH243996   4.202   6.183   8.193
14680TIP3    H143997   4.155   6.189   8.278
14680TIP3    H243998   4.138   6.227   8.133
14681TIP3   OH243999   4.445   7.640   7.810
14681TIP3    H144000   4.383   7.712   7.790
14681TIP3    H244001   4.454   7.601   7.723
14682TIP3   OH244002   5.863   6.387   7.860
14682TIP3    H144003   5.770   6.385   7.883
14682TIP3    H244004   5.900   6.324   7.926
14683TIP3   OH244005   4.339   7.836   7.653
14683TIP3    H144006   4.305   7.884   7.731
14683TIP3    H244007   4.323   7.902   7.583
14684TIP3   OH244008   4.005   7.693   7.596
14684TIP3    H144009   4.042   7.681   7.686
14684TIP3    H244010   4.078   7.654   7.543
14685TIP3   OH244011   4.199   7.575   7.447
14685TIP3    H144012   4.219   7.489   7.492
14685TIP3    H244013   4.289   7.606   7.423
14686TIP3   OH244014   4.464   7.673   7.430
14686TIP3    H144015   4.505   7.584   7.438
14686TIP3    H244016   4.459   7.704   7.521
14687TIP3   OH244017   5.045   6.324   7.539
14687TIP3    H144018   5.001   6.252   7.589
14687TIP3    H244019   5.121   6.278   7.498
14688TIP3   OH244020   5.566   6.193   7.436
14688TIP3    H144021   5.602   6.253   7.367
14688TIP3    H244022   5.474   6.225   7.443
14689TIP3   OH244023   5.662   6.307   7.204
14689TIP3    H144024   5.737   6.255   7.168
14689TIP3    H244025   5.695   6.398   7.191
14690TIP3   OH244026   4.291   6.031   7.551
14690TIP3    H144027   4.199   5.997   7.558
14690TIP3    H244028   4.341   5.947   7.549
14691TIP3   OH244029   4.070   5.902   7.196
14691TIP3    H144030   4.108   5.963   7.129
14691TIP3    H244031   4.047   5.965   7.268
14692TIP3   OH244032   4.737   6.065   7.437
14692TIP3    H144033   4.793   6.112   7.374
14692TIP3    H244034   4.762   6.105   7.521
14693TIP3   OH244035   5.277   6.213   7.421
14693TIP3    H144036   5.285   6.173   7.334
14693TIP3    H244037   5.266   6.133   7.478
14694TIP3   OH244038   5.312   6.138   6.982
14694TIP3    H144039   5.227   6.183   7.000
14694TIP3    H244040   5.298   6.053   7.027
14695TIP3   OH244041   3.789   7.476   6.985
14695TIP3    H144042   3.702   7.451   6.949
14695TIP3    H244043   3.790   7.570   6.961
14696TIP3   OH244044   4.200   6.062   6.963
14696TIP3    H144045   4.251   6.001   6.907
14696TIP3    H244046   4.272   6.118   7.000
14697TIP3   OH244047   4.709   6.239   7.065
14697TIP3    H144048   4.771   6.196   7.126
14697TIP3    H244049   4.727   6.333   7.089
14698TIP3   OH244050   4.563   7.654   6.566
14698TIP3    H144051   4.651   7.677   6.532
14698TIP3    H244052   4.540   7.581   6.505
14699TIP3   OH244053   5.280   7.802   6.632
14699TIP3    H144054   5.299   7.708   6.653
14699TIP3    H244055   5.240   7.789   6.546
14700TIP3   OH244056   4.484   6.292   8.454
14700TIP3    H144057   4.454   6.221   8.513
14700TIP3    H244058   4.579   6.297   8.477
14701TIP3   OH244059   4.750   6.291   8.539
14701TIP3    H144060   4.829   6.297   8.482
14701TIP3    H244061   4.787   6.250   8.617
14702TIP3   OH244062   3.896   7.490   6.623
14702TIP3    H144063   3.882   7.527   6.711
14702TIP3    H244064   3.984   7.448   6.634
14703TIP3   OH244065   5.751   6.811   6.866
14703TIP3    H144066   5.695   6.890   6.882
14703TIP3    H244067   5.685   6.753   6.823
14704TIP3   OH244068   5.820   7.106   7.044
14704TIP3    H144069   5.869   7.038   7.093
14704TIP3    H244070   5.843   7.088   6.953
14705TIP3   OH244071   6.294   6.720   7.065
14705TIP3    H144072   6.289   6.773   6.984
14705TIP3    H244073   6.269   6.633   7.030
14706TIP3   OH244074   5.981   6.898   7.141
14706TIP3    H144075   6.052   6.842   7.176
14706TIP3    H244076   5.957   6.844   7.064
14707TIP3   OH244077   5.652   7.316   6.600
14707TIP3    H144078   5.619   7.337   6.511
14707TIP3    H244079   5.679   7.405   6.632
14708TIP3   OH244080   6.578   6.969   6.215
14708TIP3    H144081   6.668   7.006   6.229
14708TIP3    H244082   6.604   6.886   6.172
14709TIP3   OH244083   7.277   6.320   6.238
14709TIP3    H144084   7.211   6.308   6.307
14709TIP3    H244085   7.275   6.417   6.228
14710TIP3   OH244086   6.062   7.071   6.611
14710TIP3    H144087   5.985   7.119   6.574
14710TIP3    H244088   6.023   6.987   6.637
14711TIP3   OH244089   6.874   7.119   5.944
14711TIP3    H144090   6.821   7.085   5.870
14711TIP3    H244091   6.943   7.167   5.896
14712TIP3   OH244092   6.591   6.515   6.285
14712TIP3    H144093   6.558   6.506   6.376
14712TIP3    H244094   6.552   6.434   6.246
14713TIP3   OH244095   6.236   6.868   6.834
14713TIP3    H144096   6.150   6.833   6.866
14713TIP3    H244097   6.244   6.820   6.749
14714TIP3   OH244098   6.252   6.491   6.253
14714TIP3    H144099   6.234   6.482   6.348
14714TIP3    H244100   6.168   6.532   6.222
14715TIP3   OH244101   5.786   6.531   7.119
14715TIP3    H144102   5.865   6.569   7.161
14715TIP3    H244103   5.819   6.493   7.037
14716TIP3   OH244104   5.753   6.517   6.639
14716TIP3    H144105   5.792   6.554   6.558
14716TIP3    H244106   5.687   6.586   6.659
14717TIP3   OH244107   6.009   6.741   6.910
14717TIP3    H144108   5.914   6.744   6.885
14717TIP3    H244109   6.033   6.647   6.901
14718TIP3   OH244110   6.280   6.733   6.602
14718TIP3    H144111   6.373   6.742   6.576
14718TIP3    H244112   6.231   6.758   6.521
14719TIP3   OH244113   6.132   6.790   6.381
14719TIP3    H144114   6.048   6.742   6.375
14719TIP3    H244115   6.166   6.774   6.292
14720TIP3   OH244116   6.191   6.506   6.893
14720TIP3    H144117   6.152   6.432   6.945
14720TIP3    H244118   6.231   6.458   6.820
14721TIP3   OH244119   6.432   7.216   6.379
14721TIP3    H144120   6.349   7.222   6.421
14721TIP3    H244121   6.488   7.274   6.434
14722TIP3   OH244122   6.835   6.632   6.259
14722TIP3    H144123   6.746   6.591   6.267
14722TIP3    H244124   6.814   6.725   6.249
14723TIP3   OH244125   5.755   6.937   6.415
14723TIP3    H144126   5.783   7.029   6.430
14723TIP3    H244127   5.669   6.935   6.462
14724TIP3   OH244128   6.178   7.466   5.976
14724TIP3    H144129   6.184   7.372   5.950
14724TIP3    H244130   6.184   7.458   6.073
14725TIP3   OH244131   6.154   7.457   6.245
14725TIP3    H144132   6.128   7.407   6.322
14725TIP3    H244133   6.076   7.511   6.229
14726TIP3   OH244134   5.857   7.195   6.474
14726TIP3    H144135   5.791   7.231   6.536
14726TIP3    H244136   5.845   7.256   6.400
14727TIP3   OH244137   6.874   6.567   6.531
14727TIP3    H144138   6.872   6.604   6.441
14727TIP3    H244139   6.956   6.605   6.568
14728TIP3   OH244140   6.568   6.750   6.627
14728TIP3    H144141   6.642   6.812   6.622
14728TIP3    H244142   6.541   6.765   6.720
14729TIP3   OH244143   6.720   6.477   6.742
14729TIP3    H144144   6.764   6.532   6.808
14729TIP3    H244145   6.767   6.510   6.661
14730TIP3   OH244146   6.226   6.470   6.526
14730TIP3    H144147   6.223   6.556   6.572
14730TIP3    H244148   6.322   6.451   6.533
14731TIP3   OH244149   5.794   6.667   6.404
14731TIP3    H144150   5.785   6.765   6.407
14731TIP3    H244151   5.739   6.646   6.327
14732TIP3   OH244152   6.128   6.377   7.298
14732TIP3    H144153   6.133   6.345   7.206
14732TIP3    H244154   6.150   6.296   7.348
14733TIP3   OH244155   5.704   7.575   6.653
14733TIP3    H144156   5.638   7.617   6.710
14733TIP3    H244157   5.703   7.636   6.577
14734TIP3   OH244158   6.331   7.681   5.915
14734TIP3    H144159   6.270   7.607   5.937
14734TIP3    H244160   6.410   7.632   5.891
14735TIP3   OH244161   5.973   7.179   6.116
14735TIP3    H144162   6.014   7.155   6.199
14735TIP3    H244163   6.049   7.199   6.059
14736TIP3   OH244164   6.483   7.395   5.954
14736TIP3    H144165   6.461   7.413   6.046
14736TIP3    H244166   6.493   7.298   5.954
14737TIP3   OH244167   6.204   7.073   6.371
14737TIP3    H144168   6.153   7.077   6.455
14737TIP3    H244169   6.171   6.987   6.337
14738TIP3   OH244170   6.302   6.903   6.173
14738TIP3    H144171   6.243   6.904   6.094
14738TIP3    H244172   6.377   6.853   6.136
14739TIP3   OH244173   5.590   7.338   6.328
14739TIP3    H144174   5.614   7.406   6.260
14739TIP3    H244175   5.588   7.259   6.274
14740TIP3   OH244176   5.999   6.615   7.274
14740TIP3    H144177   6.042   6.527   7.279
14740TIP3    H244178   6.027   6.654   7.357
14741TIP3   OH244179   5.798   6.886   7.384
14741TIP3    H144180   5.856   6.877   7.307
14741TIP3    H244181   5.775   6.981   7.382
14742TIP3   OH244182   7.418   6.607   6.015
14742TIP3    H144183   7.418   6.510   6.011
14742TIP3    H244184   7.459   6.619   6.102
14743TIP3   OH244185   5.780   6.376   6.872
14743TIP3    H144186   5.686   6.363   6.896
14743TIP3    H244187   5.773   6.431   6.792
14744TIP3   OH244188   6.090   6.290   7.031
14744TIP3    H144189   5.998   6.259   7.039
14744TIP3    H244190   6.137   6.204   7.028
14745TIP3   OH244191   5.883   6.160   6.692
14745TIP3    H144192   5.910   6.215   6.616
14745TIP3    H244193   5.853   6.227   6.756
14746TIP3   OH244194   6.535   6.314   6.921
14746TIP3    H144195   6.593   6.373   6.871
14746TIP3    H244196   6.519   6.362   7.003
14747TIP3   OH244197   7.080   6.366   6.448
14747TIP3    H144198   7.004   6.423   6.470
14747TIP3    H244199   7.056   6.283   6.493
14748TIP3   OH244200   5.587   7.750   6.466
14748TIP3    H144201   5.547   7.683   6.410
14748TIP3    H244202   5.564   7.831   6.419
14749TIP3   OH244203   5.993   6.308   6.466
14749TIP3    H144204   6.036   6.251   6.399
14749TIP3    H244205   6.068   6.363   6.497
14750TIP3   OH244206   6.506   6.495   6.548
14750TIP3    H144207   6.559   6.444   6.611
14750TIP3    H244208   6.534   6.586   6.573
14751TIP3   OH244209   2.635   8.233   6.783
14751TIP3    H144210   2.680   8.304   6.832
14751TIP3    H244211   2.706   8.194   6.731
14752TIP3   OH244212   3.364   7.628   6.944
14752TIP3    H144213   3.286   7.646   7.000
14752TIP3    H244214   3.376   7.715   6.899
14753TIP3   OH244215   2.917   8.398   6.642
14753TIP3    H144216   2.886   8.385   6.550
14753TIP3    H244217   2.980   8.471   6.632
14754TIP3   OH244218   2.617   7.836   6.945
14754TIP3    H144219   2.604   7.831   7.041
14754TIP3    H244220   2.589   7.744   6.926
14755TIP3   OH244221   2.882   7.895   6.882
14755TIP3    H144222   2.787   7.893   6.907
14755TIP3    H244223   2.904   7.991   6.884
14756TIP3   OH244224   2.983   8.149   6.862
14756TIP3    H144225   3.035   8.153   6.945
14756TIP3    H244226   2.938   8.235   6.865
14757TIP3   OH244227   3.385   8.244   6.832
14757TIP3    H144228   3.324   8.199   6.768
14757TIP3    H244229   3.384   8.332   6.792
14758TIP3   OH244230   2.989   7.873   7.162
14758TIP3    H144231   2.949   7.876   7.074
14758TIP3    H244232   2.945   7.946   7.207
14759TIP3   OH244233   3.153   8.543   6.524
14759TIP3    H144234   3.126   8.491   6.446
14759TIP3    H244235   3.151   8.632   6.488
14760TIP3   OH244236   3.356   8.499   6.702
14760TIP3    H144237   3.281   8.487   6.639
14760TIP3    H244238   3.359   8.596   6.704
14761TIP3   OH244239   3.231   8.158   6.625
14761TIP3    H144240   3.155   8.193   6.577
14761TIP3    H244241   3.206   8.064   6.630
14762TIP3   OH244242   3.175   7.889   6.644
14762TIP3    H144243   3.258   7.874   6.694
14762TIP3    H244244   3.112   7.839   6.696
14763TIP3   OH244245   3.257   8.152   7.066
14763TIP3    H144246   3.301   8.071   7.101
14763TIP3    H244247   3.311   8.171   6.988
14764TIP3   OH244248   3.358   7.901   7.129
14764TIP3    H144249   3.390   7.894   7.221
14764TIP3    H244250   3.288   7.832   7.129
14765TIP3   OH244251   3.415   7.845   6.770
14765TIP3    H144252   3.459   7.772   6.720
14765TIP3    H244253   3.486   7.913   6.773
14766TIP3   OH244254   3.420   7.788   7.600
14766TIP3    H144255   3.456   7.820   7.515
14766TIP3    H244256   3.325   7.774   7.577
14767TIP3   OH244257   3.508   7.873   7.359
14767TIP3    H144258   3.580   7.823   7.316
14767TIP3    H244259   3.536   7.966   7.340
14768TIP3   OH244260   3.156   7.749   7.572
14768TIP3    H144261   3.096   7.754   7.497
14768TIP3    H244262   3.118   7.675   7.624
14769TIP3   OH244263   3.176   7.684   7.131
14769TIP3    H144264   3.102   7.746   7.148
14769TIP3    H244265   3.144   7.603   7.176
14770TIP3   OH244266   2.043   7.603   7.088
14770TIP3    H144267   2.077   7.531   7.032
14770TIP3    H244268   2.127   7.637   7.123
14771TIP3   OH244269   3.599   8.321   6.995
14771TIP3    H144270   3.584   8.417   6.988
14771TIP3    H244271   3.515   8.284   6.965
14772TIP3   OH244272   4.174   8.241   7.176
14772TIP3    H144273   4.147   8.312   7.114
14772TIP3    H244274   4.127   8.165   7.135
14773TIP3   OH244275   4.871   8.298   6.797
14773TIP3    H144276   4.914   8.300   6.884
14773TIP3    H244277   4.866   8.392   6.777
14774TIP3   OH244278   4.256   8.624   7.106
14774TIP3    H144279   4.340   8.589   7.078
14774TIP3    H244280   4.194   8.556   7.072
14775TIP3   OH244281   4.044   8.348   7.395
14775TIP3    H144282   4.087   8.434   7.381
14775TIP3    H244283   4.089   8.296   7.325
14776TIP3   OH244284   4.492   7.934   7.311
14776TIP3    H144285   4.499   7.842   7.343
14776TIP3    H244286   4.425   7.971   7.373
14777TIP3   OH244287   4.447   8.689   6.581
14777TIP3    H144288   4.372   8.749   6.571
14777TIP3    H244289   4.500   8.707   6.501
14778TIP3   OH244290   4.405   8.494   6.303
14778TIP3    H144291   4.462   8.537   6.369
14778TIP3    H244292   4.468   8.434   6.259
14779TIP3   OH244293   4.052   8.771   6.926
14779TIP3    H144294   4.051   8.680   6.894
14779TIP3    H244295   4.117   8.769   6.998
14780TIP3   OH244296   4.650   8.666   6.390
14780TIP3    H144297   4.712   8.733   6.419
14780TIP3    H244298   4.667   8.666   6.292
14781TIP3   OH244299   5.111   7.929   6.384
14781TIP3    H144300   5.046   7.918   6.457
14781TIP3    H244301   5.178   7.983   6.430
14782TIP3   OH244302   3.920   8.589   6.754
14782TIP3    H144303   3.861   8.665   6.766
14782TIP3    H244304   3.865   8.514   6.781
14783TIP3   OH244305   4.284   8.032   7.467
14783TIP3    H144306   4.192   8.005   7.447
14783TIP3    H244307   4.271   8.122   7.501
14784TIP3   OH244308   4.720   8.666   6.132
14784TIP3    H144309   4.686   8.647   6.043
14784TIP3    H244310   4.758   8.755   6.118
14785TIP3   OH244311   4.430   8.067   6.435
14785TIP3    H144312   4.393   8.065   6.526
14785TIP3    H244313   4.389   7.986   6.399
14786TIP3   OH244314   4.102   8.430   6.990
14786TIP3    H144315   4.012   8.394   7.004
14786TIP3    H244316   4.120   8.391   6.902
14787TIP3   OH244317   4.586   8.504   6.723
14787TIP3    H144318   4.534   8.577   6.684
14787TIP3    H244319   4.629   8.467   6.644
14788TIP3   OH244320   4.080   8.041   6.402
14788TIP3    H144321   4.076   8.039   6.499
14788TIP3    H244322   4.005   8.099   6.382
14789TIP3   OH244323   3.638   8.098   7.266
14789TIP3    H144324   3.720   8.114   7.317
14789TIP3    H244325   3.669   8.056   7.184
14790TIP3   OH244326   3.596   8.058   6.790
14790TIP3    H144327   3.649   8.094   6.716
14790TIP3    H244328   3.538   8.135   6.807
14791TIP3   OH244329   4.430   8.264   7.063
14791TIP3    H144330   4.344   8.249   7.108
14791TIP3    H244331   4.491   8.219   7.124
14792TIP3   OH244332   3.873   8.304   7.037
14792TIP3    H144333   3.775   8.309   7.040
14792TIP3    H244334   3.888   8.209   7.029
14793TIP3   OH244335   4.129   8.297   6.755
14793TIP3    H144336   4.221   8.304   6.725
14793TIP3    H244337   4.077   8.316   6.673
14794TIP3   OH244338   3.975   8.324   6.531
14794TIP3    H144339   3.901   8.285   6.482
14794TIP3    H244340   4.026   8.366   6.459
14795TIP3   OH244341   4.034   8.052   7.038
14795TIP3    H144342   3.996   7.977   7.089
14795TIP3    H244343   4.083   8.006   6.968
14796TIP3   OH244344   4.220   8.842   6.548
14796TIP3    H144345   4.144   8.782   6.531
14796TIP3    H244346   4.196   8.881   6.634
14797TIP3   OH244347   4.674   8.170   6.387
14797TIP3    H144348   4.581   8.140   6.405
14797TIP3    H244349   4.674   8.261   6.422
14798TIP3   OH244350   4.713   8.418   6.494
14798TIP3    H144351   4.809   8.414   6.510
14798TIP3    H244352   4.703   8.505   6.452
14799TIP3   OH244353   4.322   9.015   6.360
14799TIP3    H144354   4.293   9.091   6.415
14799TIP3    H244355   4.296   8.942   6.420
14800TIP3   OH244356   5.202   8.456   6.292
14800TIP3    H144357   5.116   8.427   6.255
14800TIP3    H244358   5.204   8.548   6.257
14801TIP3   OH244359   3.584   8.487   6.542
14801TIP3    H144360   3.626   8.573   6.563
14801TIP3    H244361   3.510   8.487   6.605
14802TIP3   OH244362   4.700   8.978   6.156
14802TIP3    H144363   4.750   9.052   6.192
14802TIP3    H244364   4.611   9.018   6.146
14803TIP3   OH244365   3.993   8.987   6.203
14803TIP3    H144366   4.035   8.901   6.183
14803TIP3    H244367   4.032   9.010   6.287
14804TIP3   OH244368   3.675   8.736   6.626
14804TIP3    H144369   3.716   8.780   6.702
14804TIP3    H244370   3.689   8.803   6.556
14805TIP3   OH244371   4.722   8.103   6.677
14805TIP3    H144372   4.703   8.137   6.588
14805TIP3    H244373   4.772   8.178   6.717
14806TIP3   OH244374   4.418   8.303   6.794
14806TIP3    H144375   4.478   8.378   6.773
14806TIP3    H244376   4.416   8.306   6.892
14807TIP3   OH244377   4.559   8.034   6.893
14807TIP3    H144378   4.535   8.122   6.925
14807TIP3    H244379   4.616   8.056   6.816
14808TIP3   OH244380   4.064   8.029   6.677
14808TIP3    H144381   4.070   8.118   6.717
14808TIP3    H244382   4.158   8.003   6.684
14809TIP3   OH244383   3.695   8.954   6.442
14809TIP3    H144384   3.730   9.045   6.432
14809TIP3    H244385   3.747   8.906   6.374
14810TIP3   OH244386   3.628   8.216   6.565
14810TIP3    H144387   3.636   8.313   6.559
14810TIP3    H244388   3.539   8.202   6.533
14811TIP3   OH244389   4.027   7.932   7.438
14811TIP3    H144390   3.998   7.897   7.351
14811TIP3    H244391   4.015   7.855   7.497
14812TIP3   OH244392   3.815   8.749   6.295
14812TIP3    H144393   3.866   8.713   6.370
14812TIP3    H244394   3.887   8.754   6.228
14813TIP3   OH244395   4.260   8.921   6.099
14813TIP3    H144396   4.283   8.940   6.191
14813TIP3    H244397   4.296   8.831   6.087
14814TIP3   OH244398   4.015   8.661   6.504
14814TIP3    H144399   3.986   8.622   6.589
14814TIP3    H244400   4.056   8.584   6.460
14815TIP3   OH244401   4.129   8.457   6.349
14815TIP3    H144402   4.105   8.460   6.254
14815TIP3    H244403   4.227   8.461   6.342
14816TIP3   OH244404   4.956   8.796   6.015
14816TIP3    H144405   4.927   8.748   5.934
14816TIP3    H244406   4.941   8.888   5.985
14817TIP3   OH244407   3.429   8.878   6.481
14817TIP3    H144408   3.520   8.910   6.463
14817TIP3    H244409   3.425   8.798   6.426
14818TIP3   OH244410   5.169   8.684   6.151
14818TIP3    H144411   5.090   8.710   6.099
14818TIP3    H244412   5.224   8.763   6.137
14819TIP3   OH244413   4.991   8.390   6.127
14819TIP3    H144414   4.964   8.474   6.089
14819TIP3    H244415   4.945   8.328   6.069
14820TIP3   OH244416   4.979   8.405   6.554
14820TIP3    H144417   4.999   8.330   6.612
14820TIP3    H244418   5.024   8.479   6.594
14821TIP3   OH244419   5.111   8.171   6.661
14821TIP3    H144420   5.126   8.166   6.756
14821TIP3    H244421   5.047   8.098   6.649
14822TIP3   OH244422   3.856   8.147   7.431
14822TIP3    H144423   3.918   8.071   7.436
14822TIP3    H244424   3.916   8.220   7.408
14823TIP3   OH244425   5.244   8.083   6.180
14823TIP3    H144426   5.331   8.041   6.196
14823TIP3    H244427   5.268   8.174   6.207
14824TIP3   OH244428   3.622   7.924   7.024
14824TIP3    H144429   3.528   7.915   7.051
14824TIP3    H244430   3.615   7.983   6.946
14825TIP3   OH244431   4.638   8.118   7.177
14825TIP3    H144432   4.591   8.043   7.222
14825TIP3    H244433   4.683   8.071   7.105
14826TIP3   OH244434   3.927   7.846   7.193
14826TIP3    H144435   3.834   7.816   7.196
14826TIP3    H244436   3.973   7.760   7.188
14827TIP3   OH244437   3.718   7.718   6.843
14827TIP3    H144438   3.745   7.776   6.769
14827TIP3    H244439   3.691   7.783   6.910
14828TIP3   OH244440   4.367   7.892   7.065
14828TIP3    H144441   4.435   7.933   7.009
14828TIP3    H244442   4.403   7.906   7.155
14829TIP3   OH244443   4.965   7.946   6.996
14829TIP3    H144444   4.936   8.036   7.015
14829TIP3    H244445   4.927   7.896   7.072
14830TIP3   OH244446   4.948   7.946   6.616
14830TIP3    H144447   4.861   7.987   6.633
14830TIP3    H244448   4.934   7.860   6.662
14831TIP3   OH244449   3.837   7.879   6.599
14831TIP3    H144450   3.887   7.814   6.546
14831TIP3    H244451   3.909   7.932   6.637
14832TIP3   OH244452   4.340   8.063   6.693
14832TIP3    H144453   4.383   7.994   6.745
14832TIP3    H244454   4.376   8.145   6.733
14833TIP3   OH244455   5.863   8.313   5.904
14833TIP3    H144456   5.841   8.297   5.996
14833TIP3    H244457   5.781   8.354   5.869
14834TIP3   OH244458   5.402   8.278   6.267
14834TIP3    H144459   5.472   8.313   6.210
14834TIP3    H244460   5.345   8.357   6.278
14835TIP3   OH244461   5.367   8.453   6.003
14835TIP3    H144462   5.430   8.517   6.042
14835TIP3    H244463   5.290   8.463   6.060
14836TIP3   OH244464   5.314   8.109   6.468
14836TIP3    H144465   5.260   8.157   6.534
14836TIP3    H244466   5.357   8.183   6.420
14837TIP3   OH244467   5.470   7.963   6.280
14837TIP3    H144468   5.530   8.022   6.229
14837TIP3    H244469   5.448   8.018   6.358
14838TIP3   OH244470   5.631   8.125   6.091
14838TIP3    H144471   5.671   8.056   6.034
14838TIP3    H244472   5.707   8.154   6.143
   8.50000   8.01388   6.94022   0.00000   0.00000  -2.83333   0.00000  -2.83333  -4.00694
