Title
29212
    1ASP      N    1   2.299   1.576   3.672 -0.4145 -0.2054 -0.1124
    1ASP    HT1    2   2.233   1.580   3.592 -0.9102 -0.3139  0.2857
    1ASP    HT2    3   2.398   1.582   3.642 -0.9516  0.9555 -1.7710
    1ASP    HT3    4   2.275   1.663   3.724 -0.2336  1.7964 -3.1154
    1ASP     CA    5   2.285   1.450   3.747  0.8531  0.8028  0.5781
    1ASP     HA    6   2.276   1.378   3.667  0.1483  1.4535  0.0573
    1ASP     CB    7   2.403   1.419   3.837 -0.9164 -0.1811 -0.0716
    1ASP    HB1    8   2.376   1.327   3.894 -1.5061  0.5412  0.8468
    1ASP    HB2    9   2.420   1.503   3.908  2.9669  0.0260 -1.0214
    1ASP     CG   10   2.529   1.386   3.772  0.1501  0.0282  0.7132
    1ASP    OD1   11   2.528   1.373   3.649  0.1410  0.2372  0.4231
    1ASP    OD2   12   2.638   1.379   3.831  0.4294 -0.0874 -0.8819
    1ASP      C   13   2.147   1.448   3.817 -0.3502  0.4618  1.6362
    1ASP      O   14   2.081   1.549   3.816  0.1106 -0.7592 -0.4783
    2GLY      N   15   2.099   1.331   3.869 -0.2527  0.5486 -0.2782
    2GLY     HN   16   2.146   1.245   3.850 -0.1848  0.8098 -1.3263
    2GLY     CA   17   1.973   1.314   3.943  0.1170 -0.2481 -0.0724
    2GLY    HA1   18   1.954   1.209   3.960 -0.0468  0.0632  1.8406
    2GLY    HA2   19   1.893   1.352   3.882  2.0354  0.9973 -1.9451
    2GLY      C   20   1.969   1.396   4.074  0.3901  0.1519 -0.6627
    2GLY      O   21   2.069   1.433   4.137  0.9877  0.7268  0.0854
    3ASP      N   22   1.846   1.428   4.119  0.3786  1.0032 -0.1079
    3ASP     HN   23   1.765   1.385   4.080 -0.6569  2.6370  0.1270
    3ASP     CA   24   1.809   1.503   4.240  0.2106  0.7698 -0.7853
    3ASP     HA   25   1.701   1.504   4.238  0.2008 -0.0465 -0.9338
    3ASP     CB   26   1.861   1.452   4.377  1.6010 -0.0031  0.4143
    3ASP    HB1   27   1.837   1.517   4.465 -2.3735 -0.5996 -0.0585
    3ASP    HB2   28   1.968   1.422   4.379  1.4737 -1.0445 -3.0923
    3ASP     CG   29   1.784   1.326   4.412  0.5931  0.1806 -0.3128
    3ASP    OD1   30   1.806   1.276   4.525 -0.2631  0.2232  0.6403
    3ASP    OD2   31   1.706   1.270   4.334 -0.1131  0.2746  0.3176
    3ASP      C   32   1.832   1.652   4.221  0.6939 -0.6068  0.3925
    3ASP      O   33   1.838   1.737   4.317  0.1950 -0.0015  0.4789
    4GLY      N   34   1.839   1.689   4.091 -0.3267 -0.0216 -0.3774
    4GLY     HN   35   1.824   1.611   4.030  0.6694 -0.3579 -0.2059
    4GLY     CA   36   1.862   1.828   4.052 -0.0087 -0.1043 -0.8605
    4GLY    HA1   37   1.899   1.832   3.950  3.0582 -0.5943  0.1167
    4GLY    HA2   38   1.942   1.867   4.113 -1.4762 -1.4717  2.1319
    4GLY      C   39   1.735   1.906   4.082 -0.6011 -0.1379 -0.4205
    4GLY      O   40   1.631   1.853   4.135 -0.1038 -0.0025  0.6257
    5PRO      N   41   1.733   2.033   4.034 -0.0068  0.0947  0.0477
    5PRO     CD   42   1.858   2.097   3.994  0.6575  0.1123 -0.4216
    5PRO    HD1   43   1.878   2.072   3.887  1.8963 -0.5620 -0.0501
    5PRO    HD2   44   1.950   2.085   4.056  0.2166  1.6383  0.5890
    5PRO     CA   45   1.618   2.123   4.029  0.1396 -0.4047 -0.3047
    5PRO     HA   46   1.589   2.131   4.132 -0.6620  1.5281 -0.6469
    5PRO     CB   47   1.675   2.250   3.959 -0.5922 -1.0139 -0.1695
    5PRO    HB1   48   1.629   2.344   3.997 -1.7351 -1.1240 -1.2298
    5PRO    HB2   49   1.667   2.241   3.849 -1.4001  0.9233 -0.2988
    5PRO     CG   50   1.826   2.246   3.997 -0.0678  0.8617 -0.5440
    5PRO    HG1   51   1.882   2.313   3.927 -1.1256  0.4778 -1.7922
    5PRO    HG2   52   1.845   2.272   4.103  0.5904 -1.9792  0.1008
    5PRO      C   53   1.494   2.077   3.951 -0.3925 -0.1618 -0.1693
    5PRO      O   54   1.498   2.058   3.829 -0.2767  0.3207 -0.3178
    6GLY      N   55   1.372   2.054   4.015 -0.3855 -0.3147 -0.8650
    6GLY     HN   56   1.362   2.069   4.113 -0.1038 -1.4862 -0.6393
    6GLY     CA   57   1.246   2.038   3.940  0.2285 -0.0384 -1.1044
    6GLY    HA1   58   1.166   2.016   4.010  0.7862 -0.1945 -0.4967
    6GLY    HA2   59   1.276   1.956   3.876  2.8082 -0.8218  0.9155
    6GLY      C   60   1.212   2.146   3.849  0.5381  0.5923  0.2506
    6GLY      O   61   1.262   2.256   3.856  0.4405  0.0194 -0.3697
    7ASP      N   62   1.133   2.110   3.747 -1.0150  0.3686 -0.3686
    7ASP     HN   63   1.096   2.018   3.736 -0.1135 -0.3618  2.1519
    7ASP     CA   64   1.080   2.203   3.652  0.2198  0.1233  0.0209
    7ASP     HA   65   1.162   2.260   3.610 -0.5726  0.2745 -1.3678
    7ASP     CB   66   1.015   2.133   3.530  0.3897 -0.3041  0.3012
    7ASP    HB1   67   0.980   2.209   3.456 -1.7186 -0.6176  0.9155
    7ASP    HB2   68   0.927   2.072   3.560  0.3210 -0.6679 -0.6002
    7ASP     CG   69   1.106   2.032   3.472 -0.2975  0.3280 -0.7650
    7ASP    OD1   70   1.080   1.913   3.491  0.1708  0.5162  0.3821
    7ASP    OD2   71   1.202   2.069   3.399  0.0241 -0.3578 -0.0024
    7ASP      C   72   0.981   2.301   3.719  0.4604  0.6436 -0.1265
    7ASP      O   73   0.891   2.256   3.793  0.0946 -0.0767  0.0498
    8PRO      N   74   0.974   2.433   3.687 -0.4158 -0.2797  0.0749
    8PRO     CD   75   1.083   2.498   3.612  0.2452 -0.3338 -1.0553
    8PRO    HD1   76   1.064   2.479   3.504  1.5883 -1.6145 -1.1031
    8PRO    HD2   77   1.178   2.449   3.640 -0.9570 -2.7271 -0.8662
    8PRO     CA   78   0.864   2.520   3.730  0.0818  0.8946  0.1858
    8PRO     HA   79   0.881   2.527   3.836  1.9425 -0.2903  0.0128
    8PRO     CB   80   0.913   2.651   3.656  0.1303  0.4033  0.0657
    8PRO    HB1   81   0.886   2.746   3.707 -2.2208  0.0210 -0.3295
    8PRO    HB2   82   0.874   2.657   3.552  1.1092 -0.4956 -0.3686
    8PRO     CG   83   1.060   2.648   3.646 -0.3114 -0.1905 -0.5458
    8PRO    HG1   84   1.108   2.713   3.569 -0.3076  0.2503 -0.1765
    8PRO    HG2   85   1.100   2.659   3.749 -0.9306 -1.6121 -0.1327
    8PRO      C   86   0.721   2.472   3.699  0.2366  0.0668 -0.7541
    8PRO      O   87   0.695   2.403   3.604  0.5169  0.3489  0.3089
    9GLY      N   88   0.628   2.514   3.792  0.5085 -0.1313 -0.3799
    9GLY     HN   89   0.649   2.573   3.870 -2.3314  0.1448  0.2897
    9GLY     CA   90   0.483   2.485   3.781  0.2824  0.3671  0.6907
    9GLY    HA1   91   0.440   2.514   3.876  2.5419  2.7544  1.0853
    9GLY    HA2   92   0.488   2.381   3.752  2.1693  0.1958  1.4815
    9GLY      C   93   0.412   2.552   3.669 -0.3483 -0.3860  0.4245
    9GLY      O   94   0.468   2.621   3.583  0.5944 -0.0778  0.4194
   10ASP      N   95   0.280   2.551   3.679  0.0103  0.7785 -0.6646
   10ASP     HN   96   0.232   2.500   3.750 -0.1244  2.8622  0.8279
   10ASP     CA   97   0.200   2.602   3.570 -0.1445  0.0821  0.0533
   10ASP     HA   98   0.263   2.606   3.482  0.5102 -1.4387  0.4226
   10ASP     CB   99   0.077   2.504   3.532 -0.0437 -0.8048  0.3490
   10ASP    HB1  100   0.024   2.540   3.442 -0.0420  0.2344  0.7529
   10ASP    HB2  101   0.011   2.492   3.621  0.0570 -3.1710  0.1719
   10ASP     CG  102   0.116   2.367   3.488 -0.2120  0.6801  0.3101
   10ASP    OD1  103   0.237   2.338   3.465  0.3604  0.5756 -0.7287
   10ASP    OD2  104   0.025   2.278   3.476  0.4920 -0.1025 -0.0429
   10ASP      C  105   0.151   2.748   3.579 -0.5202  0.0475  0.5991
   10ASP      O  106   0.111   2.811   3.480 -0.0900  0.3003 -0.1191
   11GLY      N  107   0.173   2.820   3.690 -0.0770 -0.5311  0.5720
   11GLY     HN  108   0.222   2.778   3.766  0.8561  0.7739  0.7066
   11GLY     CA  109   0.126   2.957   3.715 -0.0577  0.2404  0.1460
   11GLY    HA1  110   0.032   2.968   3.663 -1.5199  2.0142  2.9725
   11GLY    HA2  111   0.194   3.032   3.676 -1.2529  2.9914  2.9898
   11GLY      C  112   0.102   2.982   3.863 -0.0677  0.0780  0.2852
   11GLY    OT1  113  -0.004   3.031   3.901 -0.0309 -0.2928  0.6218
   11GLY    OT2  114   0.188   2.949   3.949 -0.0221 -0.4811 -0.1189
   12LIT    LIT  115   5.839   5.979   5.421 -0.6286 -0.3998 -0.8668
   13LIT    LIT  116   1.902   3.234   5.076  0.1418 -0.0933  0.4862
   14LIT    LIT  117   4.504   1.381   0.154 -0.4136  0.2942  0.3209
   15LIT    LIT  118   1.637   0.273   0.552 -0.2185 -0.6597  0.6183
   16LIT    LIT  119   0.100   3.080   4.065  0.1544 -0.1251 -0.7615
   17LIT    LIT  120   1.461   3.883   4.879  0.9324 -0.3770 -0.5075
   18LIT    LIT  121   2.174   4.577   5.673 -0.5642 -0.4764  0.3823
   19LIT    LIT  122   3.541   1.218   0.363 -1.4128 -0.0072  0.9095
   20LIT    LIT  123   0.932   1.788   3.449 -1.4728 -0.9002 -0.1286
   21LIT    LIT  124   3.488   4.491   0.546  0.0431 -0.2391  0.2836
   22LIT    LIT  125   4.312   1.121   4.770 -0.2446  0.0730  0.3339
   23LIT    LIT  126   0.879   0.077   4.522 -0.9100 -0.4879  0.2634
   24LIT    LIT  127   0.519   5.132   0.381  0.1297  0.9545 -0.3171
   25LIT    LIT  128   1.256   1.941   3.274 -0.3352 -0.3639  0.6293
   26LIT    LIT  129   0.335   2.366   3.317  0.1224  0.0894 -0.0903
   27LIT    LIT  130   2.683   2.414   1.809 -0.0159 -0.8054 -0.4885
   28LIT    LIT  131   4.339   5.214   2.397  1.5210  0.1441 -0.1618
   29LIT    LIT  132   1.605   0.366   4.220  0.9407 -0.0882 -0.6367
   30LIT    LIT  133   6.353   3.361   2.935  0.6424  0.3536  0.6897
   31LIT    LIT  134   1.587   1.749   1.837  0.1047 -0.3068 -0.7634
   32LIT    LIT  135   2.249   3.888   1.209  0.2946  0.5440  0.2191
   33LIT    LIT  136   6.461   4.637   1.444  0.0569 -0.1628 -0.2889
   34LIT    LIT  137   5.173   5.814   0.959  0.0993  0.6084 -0.6640
   35LIT    LIT  138   5.404   6.110   2.411 -0.4493  0.7683 -0.1436
   36LIT    LIT  139   5.591   3.642   2.762 -0.0376  0.1796 -1.0788
   37LIT    LIT  140   6.926   6.337   1.805 -0.6302 -0.5479  1.5144
   38LIT    LIT  141   2.817   6.087   1.399 -0.1128  1.0027 -0.1898
   39LIT    LIT  142   2.721   1.353   3.625  0.6467  0.5633 -0.1841
   40LIT    LIT  143   3.915   3.490   1.452 -0.0546 -0.7836  0.1372
   41LIT    LIT  144   4.223   2.452   5.358 -0.2878  0.0364  0.2298
   42LIT    LIT  145   1.709   1.115   4.490 -1.1570  0.3063 -0.7058
   43CLA    CLA  146   2.626   1.963   1.511  0.0418  0.2137  0.3820
   44CLA    CLA  147   0.435   3.143   4.833  0.1186 -0.2546 -0.0683
   45CLA    CLA  148   4.430   6.009   5.217 -0.2113 -0.0747 -0.2466
   46CLA    CLA  149   5.521   6.115   1.450 -0.3840 -0.1810  0.2954
   47CLA    CLA  150   0.084   1.515   3.100  0.0306 -0.4055 -0.0648
   48CLA    CLA  151   1.549   0.314   4.691 -0.1631  0.3300  0.3388
   49CLA    CLA  152   3.509   1.679   1.828 -0.0046  0.3725  0.1681
   50CLA    CLA  153   3.328   3.134   1.659 -0.0808  0.2153  0.2139
   51CLA    CLA  154   0.914   5.876   0.155 -0.0607 -0.0325 -0.0541
   52CLA    CLA  155   5.286   4.530   1.213  0.0415 -0.1342  0.0951
   53CLA    CLA  156   7.118   6.299   1.915  0.0519 -0.1346  0.6125
   54CLA    CLA  157   0.072   0.598   4.395 -0.4030  0.3155 -0.0967
   55CLA    CLA  158   0.410   3.862   4.284  0.0270  0.1854 -0.2349
   56CLA    CLA  159   3.795   2.439   5.582  0.5732 -0.1136  0.1736
   57CLA    CLA  160   2.932   3.779   4.148 -0.1384  0.2953 -0.1728
   58CLA    CLA  161   2.062   2.546   1.606  0.2401 -0.0091 -0.2794
   59CLA    CLA  162   4.864   0.811   4.674  0.1352 -0.0506  0.2140
   60CLA    CLA  163   1.482   1.631   5.880 -0.2527  0.2574 -0.8048
   61CLA    CLA  164   7.081   4.847   5.346  0.0426 -0.1164  0.2575
   62CLA    CLA  165   1.176   3.657   5.801  0.0228 -0.2998 -0.2194
   63CLA    CLA  166   7.108   0.907   5.609 -0.0699 -0.2203 -0.0594
   64CLA    CLA  167   2.047   2.908   4.542  0.1850 -0.1737  0.0948
   65CLA    CLA  168   6.934   4.128   1.761  0.1636  0.0128 -0.2836
   66CLA    CLA  169   2.039   5.515   0.493  0.4884  0.2314  0.2745
   67CLA    CLA  170   6.766   4.928   0.822  0.1591 -0.1379  0.2188
   68CLA    CLA  171   0.322   6.376   4.497 -0.1971 -0.1962 -0.0500
   69CLA    CLA  172   5.626   1.890   2.555  0.2736 -0.4662 -0.0203
   70TIP3   OH2  173   0.338   0.146   4.249 -0.2080  0.1056  0.2744
   70TIP3    H1  174   0.265   0.102   4.205  0.3920 -0.5819 -0.0440
   70TIP3    H2  175   0.302   0.231   4.274 -1.7696 -0.9920  1.9843
   71TIP3   OH2  176   2.069   6.623   4.124  0.0207 -0.7154 -0.3767
   71TIP3    H1  177   1.988   6.660   4.156 -0.7979 -0.9680 -2.0224
   71TIP3    H2  178   2.057   6.528   4.130  0.1067 -0.7577 -0.8024
   72TIP3   OH2  179   5.490   5.617   5.477 -0.0797 -0.5162 -0.1146
   72TIP3    H1  180   5.470   5.627   5.384 -0.4395 -0.7409 -0.0672
   72TIP3    H2  181   5.419   5.662   5.522 -0.1614 -0.8114  0.0553
   73TIP3   OH2  182   2.910   1.440   3.631  0.6064 -0.2034 -0.5303
   73TIP3    H1  183   2.965   1.441   3.552  0.6718  1.7139 -0.5091
   73TIP3    H2  184   2.920   1.528   3.668 -1.1263 -0.3715  0.4293
   74TIP3   OH2  185   5.335   1.286   2.881  0.4301  0.2357  0.1644
   74TIP3    H1  186   5.268   1.354   2.872  0.9942  0.6811 -0.8510
   74TIP3    H2  187   5.400   1.325   2.940  1.2818  1.0438 -1.2484
   75TIP3   OH2  188   0.324   0.846   0.183  0.1961  0.2803  0.1149
   75TIP3    H1  189   0.358   0.922   0.137 -0.8446  1.2080  0.8377
   75TIP3    H2  190   0.347   0.772   0.127  1.7146  1.0593 -0.3221
   76TIP3   OH2  191   2.470   5.233   4.111 -0.4984 -0.0500  0.1352
   76TIP3    H1  192   2.505   5.154   4.070 -0.0191  0.4147 -0.3623
   76TIP3    H2  193   2.383   5.207   4.143  0.1495 -1.1180  1.0937
   77TIP3   OH2  194   4.943   3.884   2.619 -0.3725 -0.0814 -0.4826
   77TIP3    H1  195   4.940   3.839   2.535 -0.0747 -0.7959 -0.1164
   77TIP3    H2  196   4.875   3.841   2.672  0.8384 -1.0670  0.3291
   78TIP3   OH2  197   2.675   4.771   2.973 -0.6443  0.0763 -0.2782
   78TIP3    H1  198   2.673   4.775   3.068  0.2917  2.6338 -0.2575
   78TIP3    H2  199   2.768   4.756   2.952 -0.5905  0.9429 -0.7386
   79TIP3   OH2  200   4.873   5.934   1.305 -0.0503 -0.7948 -0.2682
   79TIP3    H1  201   4.834   5.847   1.311 -2.9760  0.3383 -1.1567
   79TIP3    H2  202   4.875   5.966   1.396 -0.2486 -1.2704 -0.0936
   80TIP3   OH2  203   7.111   5.516   5.555 -0.4990 -0.3644  0.4323
   80TIP3    H1  204   7.117   5.607   5.526  3.4134 -0.8934 -1.0106
   80TIP3    H2  205   7.151   5.516   5.642 -0.5472 -0.7003  0.4549
   81TIP3   OH2  206   2.676   1.782   2.087 -0.0011 -0.7637  0.0052
   81TIP3    H1  207   2.684   1.687   2.083 -0.3631 -0.7850 -0.2787
   81TIP3    H2  208   2.654   1.801   2.178 -0.8518 -1.0302 -0.1331
   82TIP3   OH2  209   0.460   2.853   3.927  0.2756  0.4802 -0.3843
   82TIP3    H1  210   0.370   2.883   3.936  0.0558 -0.3885  0.5010
   82TIP3    H2  211   0.480   2.811   4.011  1.8166  1.4519 -0.2218
   83TIP3   OH2  212   4.295   2.493   2.563 -0.7861  0.0607 -0.3279
   83TIP3    H1  213   4.283   2.511   2.656 -1.5684 -0.4545 -0.3141
   83TIP3    H2  214   4.389   2.498   2.549 -0.7277  1.1006  0.2843
   84TIP3   OH2  215   4.427   1.298   0.794 -0.3869  0.2270  0.5214
   84TIP3    H1  216   4.510   1.263   0.759 -0.1385  0.0398  1.2840
   84TIP3    H2  217   4.363   1.230   0.774 -0.3824  0.4001 -0.1320
   85TIP3   OH2  218   1.920   2.291   2.473 -0.2057  0.3286 -0.5033
   85TIP3    H1  219   1.896   2.210   2.518 -1.5599  1.2972  0.6307
   85TIP3    H2  220   1.846   2.310   2.415 -0.3265  1.1971 -0.0897
   86TIP3   OH2  221   6.473   3.382   1.044  0.3351 -0.1934 -0.3707
   86TIP3    H1  222   6.552   3.365   0.992  0.3668 -0.6817 -0.1599
   86TIP3    H2  223   6.440   3.296   1.067 -0.0765  0.0155 -0.1736
   87TIP3   OH2  224   4.810   2.436   1.243 -0.1149 -0.0554  0.2793
   87TIP3    H1  225   4.880   2.489   1.204 -0.6157  1.6732  1.5925
   87TIP3    H2  226   4.856   2.361   1.281  0.9024  0.4687  0.1342
   88TIP3   OH2  227   5.372   3.512   4.983 -0.3052  0.2046 -0.0568
   88TIP3    H1  228   5.438   3.452   5.019 -0.4006 -0.9275 -1.6498
   88TIP3    H2  229   5.300   3.508   5.046 -0.1602 -1.0989  0.0537
   89TIP3   OH2  230   3.634   2.196   5.688  0.2541  0.0570  0.3742
   89TIP3    H1  231   3.681   2.164   5.764 -0.4721  0.7499  1.1412
   89TIP3    H2  232   3.687   2.269   5.656  0.0901  0.3521  0.7742
   90TIP3   OH2  233   6.290   5.573   2.367  0.4260  0.1302  0.1323
   90TIP3    H1  234   6.225   5.591   2.299 -1.1252  0.7339  1.6875
   90TIP3    H2  235   6.331   5.491   2.340  0.3066  0.6627 -1.8165
   91TIP3   OH2  236   1.368   0.208   2.271 -0.0659 -0.4013 -0.3272
   91TIP3    H1  237   1.387   0.290   2.225 -0.9090  1.5225  2.4522
   91TIP3    H2  238   1.279   0.185   2.243 -0.5865  0.7654  0.2862
   92TIP3   OH2  239   4.041   4.068   4.454  0.1782  0.3158  0.3899
   92TIP3    H1  240   3.979   4.036   4.519  1.1986 -0.3125  1.0851
   92TIP3    H2  241   4.036   4.005   4.382 -0.0702  0.3360  0.3885
   93TIP3   OH2  242   3.233   5.444   2.107 -0.3789 -0.2762 -0.1436
   93TIP3    H1  243   3.187   5.377   2.158 -2.2540  2.9103  2.7967
   93TIP3    H2  244   3.308   5.469   2.161 -0.1970  0.6036 -0.7726
   94TIP3   OH2  245   2.575   5.752   1.795  0.0084 -0.1983  0.6674
   94TIP3    H1  246   2.669   5.765   1.807  0.1082 -0.3155  0.0577
   94TIP3    H2  247   2.537   5.776   1.879  0.4488  1.2643  0.4835
   95TIP3   OH2  248   2.643   1.174   4.873  0.4047  0.2411 -0.3336
   95TIP3    H1  249   2.703   1.143   4.941  0.2193  0.3970 -0.0937
   95TIP3    H2  250   2.605   1.254   4.910 -1.1411 -0.6892  0.2042
   96TIP3   OH2  251   6.385   6.578   5.351  0.0690 -0.5087  0.2909
   96TIP3    H1  252   6.309   6.560   5.295 -0.5135  0.8208  0.6302
   96TIP3    H2  253   6.432   6.495   5.354 -1.2921 -1.3217 -0.0484
   97TIP3   OH2  254   1.437   5.901   3.905  0.3003  0.2273 -0.1025
   97TIP3    H1  255   1.471   5.854   3.981  0.4703 -0.5241 -0.6333
   97TIP3    H2  256   1.418   5.832   3.840  0.9126  0.9062 -1.0328
   98TIP3   OH2  257   5.222   0.672   2.453  0.1834  0.3764  0.5154
   98TIP3    H1  258   5.166   0.738   2.412 -0.4497 -1.5948 -2.1110
   98TIP3    H2  259   5.306   0.680   2.408  0.9447  0.9863  1.9691
   99TIP3   OH2  260   6.310   4.418   2.403 -0.2990  0.5095 -0.6787
   99TIP3    H1  261   6.344   4.495   2.448 -0.5832 -0.2817  0.9234
   99TIP3    H2  262   6.225   4.446   2.369  0.4081  1.4492 -1.7447
  100TIP3   OH2  263   4.139   4.096   3.100  0.2805 -0.1349  0.0610
  100TIP3    H1  264   4.197   4.025   3.127 -0.3155 -0.6591 -0.0036
  100TIP3    H2  265   4.197   4.171   3.088  0.6042  0.1089  2.6702
  101TIP3   OH2  266   4.969   1.196   2.634 -0.3078  0.1027  0.0381
  101TIP3    H1  267   4.970   1.127   2.568  0.5071  0.7293 -0.6260
  101TIP3    H2  268   4.952   1.150   2.717 -0.9429 -0.7373 -0.5383
  102TIP3   OH2  269   0.629   3.363   5.425 -0.1677 -0.6475  0.0002
  102TIP3    H1  270   0.641   3.367   5.520 -0.3605 -2.0584  0.0964
  102TIP3    H2  271   0.543   3.324   5.413 -1.2818  1.8423 -0.7733
  103TIP3   OH2  272   2.456   2.451   3.697  0.0616  0.1863 -0.2792
  103TIP3    H1  273   2.517   2.512   3.654 -1.4104  1.3935 -0.7309
  103TIP3    H2  274   2.378   2.453   3.642 -0.7076 -0.7020  0.7469
  104TIP3   OH2  275   1.984   5.254   4.759 -0.2087 -0.6327  0.4122
  104TIP3    H1  276   1.983   5.158   4.756 -1.4654 -0.6140 -0.5036
  104TIP3    H2  277   1.897   5.277   4.793  0.0398  0.1927  0.4953
  105TIP3   OH2  278   0.046   2.882   1.598  0.4023 -0.1063 -0.6568
  105TIP3    H1  279  -0.029   2.905   1.652  0.6870  1.4984 -0.8935
  105TIP3    H2  280   0.058   2.788   1.613  0.7038  0.3025  2.3550
  106TIP3   OH2  281   6.461   1.468   3.562  0.2414  0.3869 -0.0399
  106TIP3    H1  282   6.544   1.503   3.594  0.9193 -1.7374  0.7054
  106TIP3    H2  283   6.469   1.468   3.467  2.8233 -3.3104 -0.0510
  107TIP3   OH2  284   5.450   5.351   1.769 -0.4501 -0.4510  0.1785
  107TIP3    H1  285   5.399   5.401   1.705  1.0625 -0.3760 -1.0211
  107TIP3    H2  286   5.448   5.404   1.849 -0.2469  0.7419 -0.5813
  108TIP3   OH2  287   5.918   2.345   4.828 -0.0225 -0.2822  0.0398
  108TIP3    H1  288   5.899   2.316   4.918 -1.2039 -0.2415 -0.1740
  108TIP3    H2  289   5.956   2.432   4.838  0.4728 -0.5473  0.5288
  109TIP3   OH2  290   4.340   0.417   1.054  0.3088  0.2129  0.1706
  109TIP3    H1  291   4.421   0.400   1.102 -0.4743 -0.2963  1.3680
  109TIP3    H2  292   4.281   0.346   1.081 -1.8345  2.6273  2.4539
  110TIP3   OH2  293   0.191   5.575   4.535 -0.0062 -0.0682 -0.3327
  110TIP3    H1  294   0.278   5.544   4.510  0.9132  0.8187  1.5831
  110TIP3    H2  295   0.151   5.501   4.581  0.9402  0.4739  1.4264
  111TIP3   OH2  296   3.459   2.793   3.952 -0.7016 -0.4557  0.6311
  111TIP3    H1  297   3.412   2.752   3.880 -1.8805  0.1872  0.9930
  111TIP3    H2  298   3.398   2.859   3.986 -0.1137 -0.6053  2.0879
  112TIP3   OH2  299   3.076   5.583   5.441 -0.5058  0.1480 -0.0956
  112TIP3    H1  300   3.142   5.616   5.501 -0.2038 -1.3257  0.4172
  112TIP3    H2  301   2.997   5.573   5.495 -0.1550 -1.4543  0.1637
  113TIP3   OH2  302   7.007   0.601   3.882  0.2761  0.0469  0.8737
  113TIP3    H1  303   7.006   0.691   3.913  1.7397  0.0194  1.0843
  113TIP3    H2  304   7.053   0.553   3.951 -0.3481 -0.8309  0.6926
  114TIP3   OH2  305   7.126   2.867   4.269 -0.3641  0.0360  0.1655
  114TIP3    H1  306   7.179   2.841   4.345 -0.1658 -1.5618 -0.4627
  114TIP3    H2  307   7.050   2.808   4.271 -0.9540  0.7672 -0.2191
  115TIP3   OH2  308   5.761   4.687   3.844  0.5168 -0.4897  0.1565
  115TIP3    H1  309   5.683   4.688   3.788  0.7699  0.0626 -0.1927
  115TIP3    H2  310   5.743   4.619   3.909 -1.4390  1.4030  1.7482
  116TIP3   OH2  311   6.548   0.806   3.491 -0.5080 -0.4184 -0.0973
  116TIP3    H1  312   6.492   0.860   3.548  0.1436 -0.1200  0.2764
  116TIP3    H2  313   6.552   0.721   3.535 -0.3130 -0.3039  0.1098
  117TIP3   OH2  314   6.479   5.644   1.508 -0.7781 -0.3372 -0.0040
  117TIP3    H1  315   6.461   5.594   1.428  1.7133 -1.3376 -0.0281
  117TIP3    H2  316   6.524   5.723   1.478 -1.0082 -0.0811  0.3204
  118TIP3   OH2  317   5.165   1.634   2.222  0.4951 -0.4170 -0.3947
  118TIP3    H1  318   5.153   1.597   2.134 -0.5757  1.2149 -0.9959
  118TIP3    H2  319   5.084   1.682   2.238  0.9730 -0.1014  1.2103
  119TIP3   OH2  320   6.386   4.995   0.175 -0.2635 -0.5405  0.1042
  119TIP3    H1  321   6.325   4.932   0.214 -0.4054 -0.3193  0.2436
  119TIP3    H2  322   6.460   4.997   0.235 -0.9121  0.5330  0.8945
  120TIP3   OH2  323   5.474   3.456   3.610  0.5692  0.1728  0.0063
  120TIP3    H1  324   5.386   3.442   3.576  0.5038  0.3278  0.1140
  120TIP3    H2  325   5.527   3.387   3.568 -0.1017 -1.6029  1.9208
  121TIP3   OH2  326   0.008   1.747   4.559  0.0879 -0.0057  0.6863
  121TIP3    H1  327  -0.047   1.669   4.565 -0.0970 -0.0518 -1.1657
  121TIP3    H2  328   0.094   1.714   4.535 -0.5303  0.4232 -2.6036
  122TIP3   OH2  329   1.412   3.518   3.622  0.6967  0.2472 -0.6142
  122TIP3    H1  330   1.399   3.573   3.700  1.6513  0.6451 -0.7222
  122TIP3    H2  331   1.428   3.431   3.658 -0.3644  0.1278 -0.4227
  123TIP3   OH2  332   6.231   0.953   4.788 -0.3473 -0.2641  0.6594
  123TIP3    H1  333   6.226   0.874   4.736 -0.9855  0.5311 -0.5394
  123TIP3    H2  334   6.158   1.007   4.757 -0.5121  0.4115  2.1097
  124TIP3   OH2  335   5.893   5.703   1.646 -0.4142  0.3505 -0.3920
  124TIP3    H1  336   5.939   5.625   1.614 -0.1736  0.5958 -0.6435
  124TIP3    H2  337   5.851   5.739   1.567  0.6246  1.2667 -0.5471
  125TIP3   OH2  338   5.554   0.673   4.724 -0.3336  0.0429  0.5215
  125TIP3    H1  339   5.604   0.609   4.673  0.6950  0.4603  0.9846
  125TIP3    H2  340   5.595   0.757   4.703 -1.7034  0.5828 -0.1312
  126TIP3   OH2  341   3.277   5.446   5.758  0.3104  0.3746  0.2773
  126TIP3    H1  342   3.232   5.456   5.842 -2.5904 -0.5228 -1.0736
  126TIP3    H2  343   3.246   5.519   5.705  2.2360  1.0205 -0.0381
  127TIP3   OH2  344   2.541   1.915   4.620 -0.0827  0.3904  0.5709
  127TIP3    H1  345   2.579   1.947   4.538 -1.4069 -2.9097 -1.5590
  127TIP3    H2  346   2.458   1.962   4.628  0.9709  2.2209  1.2137
  128TIP3   OH2  347   2.295   3.247   5.222  0.2349  0.0527 -0.2746
  128TIP3    H1  348   2.367   3.213   5.274  0.9473  0.5494 -0.9159
  128TIP3    H2  349   2.317   3.224   5.132 -0.8711 -0.6046 -0.3930
  129TIP3   OH2  350   6.675   3.036   3.338 -0.2415 -0.0271 -0.6752
  129TIP3    H1  351   6.720   3.073   3.414  2.5269 -1.3073 -1.5600
  129TIP3    H2  352   6.669   3.109   3.277  0.6810  0.1825 -0.5347
  130TIP3   OH2  353   0.968   2.049   4.169  0.1411  0.3315  0.1833
  130TIP3    H1  354   0.912   2.045   4.092  1.7098  0.4212 -1.0218
  130TIP3    H2  355   0.908   2.047   4.243 -1.5314  1.8159 -1.0478
  131TIP3   OH2  356   1.635   0.599   5.837 -0.4953  0.3873  0.0666
  131TIP3    H1  357   1.634   0.680   5.785 -1.4388  0.7991  0.7109
  131TIP3    H2  358   1.672   0.534   5.777 -2.4696  0.6181 -1.5151
  132TIP3   OH2  359   1.175   1.817   2.639  0.2294 -0.3641 -0.1831
  132TIP3    H1  360   1.116   1.743   2.630 -0.0196 -0.1789 -0.0908
  132TIP3    H2  361   1.223   1.800   2.720 -0.6530  0.1482  0.4634
  133TIP3   OH2  362   2.426   3.180   2.248  0.7217 -0.0637  0.5435
  133TIP3    H1  363   2.422   3.085   2.240  0.6404 -0.0282  0.1427
  133TIP3    H2  364   2.340   3.211   2.221  1.6770  0.3244 -2.5233
  134TIP3   OH2  365   2.814   0.769   1.267  0.2444  0.3735  0.3017
  134TIP3    H1  366   2.834   0.724   1.349 -0.0143  1.2138  0.8367
  134TIP3    H2  367   2.763   0.845   1.293 -0.0985  0.4897 -0.6726
  135TIP3   OH2  368   7.181   0.359   5.733  0.4785  0.2394 -0.1983
  135TIP3    H1  369   7.240   0.427   5.765  1.4328 -0.7526  0.2161
  135TIP3    H2  370   7.121   0.405   5.673  0.3972  1.6158  0.8981
  136TIP3   OH2  371   6.764   1.082   1.011  0.0280 -0.2209 -0.1282
  136TIP3    H1  372   6.803   1.116   1.091  1.7857  0.6418 -1.2755
  136TIP3    H2  373   6.722   1.000   1.037  2.7292 -1.2838  1.2143
  137TIP3   OH2  374   0.556   5.515   0.672 -0.3877  0.8534 -0.3515
  137TIP3    H1  375   0.535   5.432   0.716  2.2657 -0.7091 -1.7437
  137TIP3    H2  376   0.490   5.524   0.604 -0.0142 -0.8289 -0.9813
  138TIP3   OH2  377   1.280   1.819   4.691  0.0794  0.5215  0.0351
  138TIP3    H1  378   1.217   1.890   4.680 -0.6964 -0.2702 -0.8305
  138TIP3    H2  379   1.295   1.815   4.786 -0.9735  0.8982  0.2368
  139TIP3   OH2  380   2.737   3.643   3.705  0.0012  0.6378 -0.2452
  139TIP3    H1  381   2.735   3.691   3.787  0.0558  0.2513 -0.0125
  139TIP3    H2  382   2.695   3.559   3.725  3.5904 -1.1745  0.5328
  140TIP3   OH2  383   3.277   3.437   3.828  0.3291 -0.1471  0.3763
  140TIP3    H1  384   3.250   3.525   3.801 -2.2984 -1.4456 -1.7076
  140TIP3    H2  385   3.352   3.417   3.772  1.1734  0.8395  1.1131
  141TIP3   OH2  386   2.764   3.150   1.533  0.0649 -0.1684  0.1282
  141TIP3    H1  387   2.715   3.184   1.458 -2.4241 -2.1706  0.7474
  141TIP3    H2  388   2.741   3.208   1.605 -0.7375 -0.5902  0.2193
  142TIP3   OH2  389   4.863   6.176   4.046 -0.5847  0.2839  0.2905
  142TIP3    H1  390   4.919   6.216   4.113 -0.3859 -1.2890  1.1111
  142TIP3    H2  391   4.777   6.172   4.086 -0.7248  0.3544  0.0024
  143TIP3   OH2  392   3.901   3.489   5.291  0.1495 -0.4414  0.1490
  143TIP3    H1  393   3.994   3.484   5.269  0.1455 -0.1424  0.0571
  143TIP3    H2  394   3.860   3.531   5.214  0.0137 -0.1315  0.3865
  144TIP3   OH2  395   3.405   5.671   1.865  0.5173 -0.0133 -0.1532
  144TIP3    H1  396   3.382   5.764   1.873  1.6474  0.2706 -0.0891
  144TIP3    H2  397   3.499   5.671   1.850  0.9952 -1.2402  2.3800
  145TIP3   OH2  398   5.518   6.290   1.027  0.0674  0.1060  0.0283
  145TIP3    H1  399   5.477   6.345   1.094  1.3579  0.5395  0.5004
  145TIP3    H2  400   5.580   6.348   0.983  1.3357 -0.8862  0.4136
  146TIP3   OH2  401   2.301   5.997   1.954  0.0951  0.2389  0.0705
  146TIP3    H1  402   2.214   5.998   1.914  0.4771 -0.2873 -0.7961
  146TIP3    H2  403   2.309   6.084   1.994  0.4423  1.5576 -2.6720
  147TIP3   OH2  404   5.292   6.481   5.773 -0.2023  0.0589  0.2909
  147TIP3    H1  405   5.283   6.513   5.683  0.7485  2.2003  0.8843
  147TIP3    H2  406   5.219   6.521   5.819 -0.0167 -0.0984  0.7202
  148TIP3   OH2  407   2.142   5.154   2.761  0.2056  0.2288  0.3739
  148TIP3    H1  408   2.145   5.113   2.675 -3.6243  0.5674 -0.0812
  148TIP3    H2  409   2.137   5.080   2.822 -0.4277 -0.0090  0.0411
  149TIP3   OH2  410   5.569   1.221   5.874  0.3686 -0.0133 -0.2517
  149TIP3    H1  411   5.647   1.172   5.902  0.4670  0.3364  0.1045
  149TIP3    H2  412   5.499   1.157   5.876  0.1003  0.2595  2.1222
  150TIP3   OH2  413   1.232   3.411   5.193 -0.3005 -0.0672  0.3367
  150TIP3    H1  414   1.200   3.391   5.105  2.9694 -1.0381 -0.7823
  150TIP3    H2  415   1.190   3.347   5.250  0.0119 -1.5884 -1.0895
  151TIP3   OH2  416   3.749   3.759   4.783  0.5452  0.2304 -0.2304
  151TIP3    H1  417   3.830   3.758   4.834 -0.5238  0.4012  1.5487
  151TIP3    H2  418   3.761   3.691   4.716  0.7305 -2.4925  2.3725
  152TIP3   OH2  419   3.424   6.572   3.189 -0.5080  0.2946  0.3637
  152TIP3    H1  420   3.388   6.661   3.190 -1.5713 -0.1122  1.6991
  152TIP3    H2  421   3.431   6.549   3.282  1.1111 -0.5028  0.0636
  153TIP3   OH2  422   4.725   5.225   4.528 -0.0798  0.0783 -0.2370
  153TIP3    H1  423   4.747   5.256   4.440  2.1137 -1.1414 -0.2119
  153TIP3    H2  424   4.774   5.282   4.587  0.4485 -0.6281  0.0288
  154TIP3   OH2  425   3.052   0.598   5.486  0.3856 -0.5309 -0.5216
  154TIP3    H1  426   3.044   0.597   5.581 -0.6576  0.7041 -0.5675
  154TIP3    H2  427   3.018   0.514   5.458 -0.7687 -0.2971  0.1206
  155TIP3   OH2  428   2.480   2.272   2.458  0.1581  0.3050 -0.4896
  155TIP3    H1  429   2.457   2.277   2.551 -0.3012 -3.1027 -0.3024
  155TIP3    H2  430   2.400   2.300   2.412  0.3110  1.7754  0.0738
  156TIP3   OH2  431   3.429   1.164   1.130  0.5746  0.5635  0.1073
  156TIP3    H1  432   3.448   1.218   1.207 -0.4915  1.7429 -0.4170
  156TIP3    H2  433   3.358   1.210   1.086 -1.0678 -1.8010  0.1381
  157TIP3   OH2  434   4.371   4.065   2.404 -0.2293  0.4800 -0.2316
  157TIP3    H1  435   4.305   4.064   2.472  0.3320 -0.8781  0.3284
  157TIP3    H2  436   4.382   4.157   2.382  0.1944  1.0592  2.1271
  158TIP3   OH2  437   3.135   6.442   2.677  0.1188  0.2249  0.3286
  158TIP3    H1  438   3.132   6.353   2.642 -1.7533  0.3779 -0.0154
  158TIP3    H2  439   3.067   6.443   2.745  0.6798  1.1627  0.8937
  159TIP3   OH2  440   4.987   4.807   4.656 -0.1670  0.0532  0.4010
  159TIP3    H1  441   5.068   4.848   4.687 -0.1665  0.9146 -0.7001
  159TIP3    H2  442   4.950   4.870   4.594  0.0886 -1.7994 -1.7580
  160TIP3   OH2  443   2.800   2.891   0.824  0.0246 -0.0566 -1.1496
  160TIP3    H1  444   2.739   2.818   0.821 -0.3978  0.1467  1.1223
  160TIP3    H2  445   2.880   2.855   0.862 -0.3677  0.7328  0.4963
  161TIP3   OH2  446   6.406   1.846   2.153 -1.2031  0.1205 -0.4237
  161TIP3    H1  447   6.464   1.913   2.117 -0.5710 -0.9563 -1.5096
  161TIP3    H2  448   6.466   1.777   2.183 -1.8466 -0.0673  0.4567
  162TIP3   OH2  449   2.583   4.874   5.549 -0.4106 -0.4417 -0.5118
  162TIP3    H1  450   2.658   4.879   5.608  0.1112  2.4639 -1.2865
  162TIP3    H2  451   2.594   4.789   5.505  1.5084 -0.8078  0.5329
  163TIP3   OH2  452   5.583   5.003   3.119  0.4894 -0.4676 -0.3803
  163TIP3    H1  453   5.663   5.019   3.169  0.4761 -0.2770 -0.4213
  163TIP3    H2  454   5.545   4.925   3.159  0.4723 -0.3090 -0.0854
  164TIP3   OH2  455   5.664   5.329   0.286  0.1864  0.3649  0.2110
  164TIP3    H1  456   5.662   5.421   0.311 -2.6629  0.3993  0.2329
  164TIP3    H2  457   5.611   5.285   0.352 -3.0063 -0.3688 -2.5619
  165TIP3   OH2  458   1.802   6.281   0.879 -0.1336  0.8306  0.6650
  165TIP3    H1  459   1.756   6.235   0.950 -1.5871  0.5830 -0.4152
  165TIP3    H2  460   1.756   6.364   0.870 -1.3363  0.0158 -1.3480
  166TIP3   OH2  461   5.764   5.414   2.049 -0.0462 -0.1860 -0.6525
  166TIP3    H1  462   5.686   5.456   2.086 -0.9128 -1.9035 -0.4071
  166TIP3    H2  463   5.831   5.424   2.116  0.3422  2.3459 -1.3506
  167TIP3   OH2  464   0.807   0.559   1.783  0.1892 -0.8083  0.0650
  167TIP3    H1  465   0.739   0.616   1.749  0.7497 -0.1888 -0.0366
  167TIP3    H2  466   0.870   0.618   1.824 -0.7324 -1.5265  2.7769
  168TIP3   OH2  467   7.127   4.101   0.226 -0.0384  0.5322 -1.0466
  168TIP3    H1  468   7.123   4.162   0.152 -1.0014  1.5970 -0.1428
  168TIP3    H2  469   7.138   4.156   0.303  1.7028 -0.5974 -0.4162
  169TIP3   OH2  470   2.699   6.623   5.068  0.0303 -0.0931 -0.0666
  169TIP3    H1  471   2.665   6.534   5.059 -1.0044  0.2785  0.0187
  169TIP3    H2  472   2.671   6.668   4.988 -0.6344  0.5216  0.4943
  170TIP3   OH2  473   1.228   4.120   1.876  0.6836  0.6695  0.0306
  170TIP3    H1  474   1.300   4.063   1.849 -1.1183 -1.0229 -1.4950
  170TIP3    H2  475   1.232   4.195   1.817 -0.6401 -0.9637 -2.3043
  171TIP3   OH2  476   0.236   1.753   5.324 -0.2343 -0.2908 -0.3432
  171TIP3    H1  477   0.257   1.724   5.236 -1.5134 -0.9145 -0.4618
  171TIP3    H2  478   0.230   1.848   5.318  1.0199 -0.2147 -0.6120
  172TIP3   OH2  479   4.289   4.674   4.146 -0.0542  0.1612  0.7814
  172TIP3    H1  480   4.363   4.733   4.159 -0.9312  1.4274  0.3147
  172TIP3    H2  481   4.255   4.658   4.234  0.8676 -0.5937  1.0172
  173TIP3   OH2  482   1.754   0.618   0.184  0.5183 -0.2416  0.0361
  173TIP3    H1  483   1.750   0.708   0.216  1.9468  0.1548 -0.7936
  173TIP3    H2  484   1.671   0.605   0.138 -0.0307  0.3770  0.8290
  174TIP3   OH2  485   4.720   1.118   2.865 -0.1053  0.5945  0.1501
  174TIP3    H1  486   4.719   1.044   2.805 -0.9667  1.8702 -1.5066
  174TIP3    H2  487   4.777   1.091   2.937 -1.9695 -2.4358  0.6570
  175TIP3   OH2  488   2.539   4.102   3.445 -0.1352 -0.2801 -0.1277
  175TIP3    H1  489   2.546   4.018   3.400 -0.0466 -1.1288  1.4052
  175TIP3    H2  490   2.474   4.151   3.394 -0.1177 -1.2294 -1.1011
  176TIP3   OH2  491   5.255   3.225   2.595  0.2802 -0.2074  0.2021
  176TIP3    H1  492   5.218   3.284   2.661  0.5085 -0.7213  0.8104
  176TIP3    H2  493   5.179   3.184   2.554  0.1456 -1.0997  1.2961
  177TIP3   OH2  494   0.580   1.790   0.990 -0.3068  0.3127 -0.5518
  177TIP3    H1  495   0.621   1.713   0.951  1.2248  1.0740 -0.5125
  177TIP3    H2  496   0.538   1.757   1.069 -0.8695 -0.7116 -1.2525
  178TIP3   OH2  497   1.019   2.996   0.876  0.0058  0.0749 -0.0934
  178TIP3    H1  498   1.081   3.065   0.900 -0.5233  0.3704  0.4572
  178TIP3    H2  499   0.940   3.017   0.925 -0.1469 -0.9557  0.1229
  179TIP3   OH2  500   3.829   4.320   3.993  0.1970 -0.3771 -0.2606
  179TIP3    H1  501   3.862   4.238   3.955  0.6720 -0.8568  1.1296
  179TIP3    H2  502   3.903   4.353   4.044  0.2101  1.2386 -1.2599
  180TIP3   OH2  503   4.359   4.567   4.701  0.3221  0.1298 -0.0609
  180TIP3    H1  504   4.321   4.568   4.789  1.8337 -0.3337  0.6427
  180TIP3    H2  505   4.449   4.598   4.714  0.8386 -0.7758 -1.2872
  181TIP3   OH2  506   0.940   4.696   2.918  0.3235 -0.4209  0.0864
  181TIP3    H1  507   1.020   4.666   2.873  0.1628 -0.8560  0.0848
  181TIP3    H2  508   0.963   4.691   3.011  1.4398  2.6176  0.0837
  182TIP3   OH2  509   5.895   3.720   5.414  0.1806  0.2011  0.1919
  182TIP3    H1  510   5.858   3.670   5.342 -0.4912 -1.7910  1.8230
  182TIP3    H2  511   5.964   3.664   5.450 -0.3834  0.5357  1.8891
  183TIP3   OH2  512   2.759   4.131   0.889 -0.1739  0.2020 -0.0324
  183TIP3    H1  513   2.749   4.066   0.959  2.6807  1.2008  1.4683
  183TIP3    H2  514   2.806   4.085   0.820  3.1440  0.8387  1.6067
  184TIP3   OH2  515   2.872   4.943   1.207 -0.0982 -0.4822 -0.1540
  184TIP3    H1  516   2.777   4.936   1.198 -0.3177  1.3113  0.2835
  184TIP3    H2  517   2.895   4.875   1.270 -1.1904 -0.5153  0.2436
  185TIP3   OH2  518   4.965   5.114   1.946 -1.1748 -0.1733  0.2763
  185TIP3    H1  519   4.873   5.089   1.937 -1.7899  1.4996  1.3444
  185TIP3    H2  520   4.989   5.152   1.861 -1.7300  0.0880  0.2303
  186TIP3   OH2  521   0.876   5.651   2.418  0.3032 -0.4503  0.0414
  186TIP3    H1  522   0.814   5.724   2.428 -1.2043 -1.6194 -0.3567
  186TIP3    H2  523   0.840   5.599   2.346  1.0633 -1.8517  0.6343
  187TIP3   OH2  524   6.220   4.781   5.059 -0.5362  0.6814 -0.4884
  187TIP3    H1  525   6.245   4.860   5.108  1.2155 -0.1877  0.0939
  187TIP3    H2  526   6.148   4.744   5.109 -0.7297  1.3841 -0.2239
  188TIP3   OH2  527   5.221   0.670   5.118 -0.2674  0.3350 -0.5989
  188TIP3    H1  528   5.189   0.584   5.093  0.7966 -0.2225 -0.1321
  188TIP3    H2  529   5.307   0.676   5.078  1.0354 -0.1601  1.8794
  189TIP3   OH2  530   1.626   4.744   2.773 -0.1861 -0.1136  0.6668
  189TIP3    H1  531   1.708   4.782   2.743  0.2999 -1.2087  0.5512
  189TIP3    H2  532   1.652   4.680   2.840 -0.6951 -2.0666 -0.8796
  190TIP3   OH2  533   2.964   1.347   5.260 -0.0790  0.1652  0.4918
  190TIP3    H1  534   2.921   1.382   5.339  0.1318  2.1268 -0.2111
  190TIP3    H2  535   3.053   1.382   5.263  0.8262 -2.0304  0.7701
  191TIP3   OH2  536   0.821   0.411   3.559 -0.4129 -0.4140 -0.0111
  191TIP3    H1  537   0.796   0.503   3.549 -1.0783 -0.8268 -3.3575
  191TIP3    H2  538   0.913   0.408   3.531  0.1494 -0.5711  1.7352
  192TIP3   OH2  539   1.003   4.791   0.229  0.2087 -1.0449  0.7122
  192TIP3    H1  540   1.064   4.811   0.300  2.8747  1.8471 -2.1146
  192TIP3    H2  541   1.025   4.701   0.203  2.7575 -0.3620  0.3210
  193TIP3   OH2  542   6.239   1.693   5.837 -0.1040  0.6317 -0.1780
  193TIP3    H1  543   6.154   1.654   5.860  0.1829  0.0191 -0.1377
  193TIP3    H2  544   6.217   1.771   5.787 -0.6933  0.4719 -0.1748
  194TIP3   OH2  545   3.626   3.466   0.287 -0.4495 -0.2039 -0.1232
  194TIP3    H1  546   3.548   3.515   0.312 -0.7925 -0.4691 -0.6677
  194TIP3    H2  547   3.598   3.409   0.216  0.0555 -0.8626  0.1916
  195TIP3   OH2  548   7.144   1.853   1.859  0.0631 -0.0129  0.2923
  195TIP3    H1  549   7.058   1.819   1.881  0.0125  0.1235  0.3049
  195TIP3    H2  550   7.136   1.948   1.866  0.1687  0.0102  0.1302
  196TIP3   OH2  551   3.744   1.722   1.442 -0.4106  0.2856 -0.0528
  196TIP3    H1  552   3.752   1.805   1.489 -0.7998 -0.2149  0.9410
  196TIP3    H2  553   3.834   1.697   1.421 -0.2807  0.8786 -0.2198
  197TIP3   OH2  554   0.688   1.317   5.851  0.3259  0.5026  0.4212
  197TIP3    H1  555   0.618   1.313   5.917  0.8431 -0.0154  0.9472
  197TIP3    H2  556   0.718   1.408   5.854 -0.6018  0.8396 -0.1112
  198TIP3   OH2  557   1.515   1.551   1.284 -0.4374  0.1529  0.1534
  198TIP3    H1  558   1.575   1.549   1.210  0.1973  0.5127  0.6396
  198TIP3    H2  559   1.571   1.568   1.360 -1.2038  0.9166  0.5704
  199TIP3   OH2  560   3.850   1.533   0.055 -0.8683  0.1012  0.2416
  199TIP3    H1  561   3.852   1.517  -0.039 -0.3607  2.3389 -0.1856
  199TIP3    H2  562   3.811   1.620   0.064  2.5720  1.6794  1.7900
  200TIP3   OH2  563   5.892   1.781   0.737 -0.1902 -0.2486 -0.3164
  200TIP3    H1  564   5.862   1.715   0.674 -0.9952  1.3524 -1.7096
  200TIP3    H2  565   5.910   1.732   0.817  0.9305 -2.4013 -1.7824
  201TIP3   OH2  566   6.916   5.585   2.002 -0.4067 -0.3757  0.0311
  201TIP3    H1  567   6.939   5.496   2.030 -0.8240 -1.2364 -2.1664
  201TIP3    H2  568   6.892   5.630   2.083  1.8925 -1.5824  1.5099
  202TIP3   OH2  569   5.589   5.273   1.283  0.5142 -0.2127 -0.3967
  202TIP3    H1  570   5.506   5.293   1.239  1.4157  1.3311 -1.5057
  202TIP3    H2  571   5.578   5.183   1.315 -1.1649 -0.4445 -1.4752
  203TIP3   OH2  572   4.824   3.746   3.953 -0.4734  0.3124 -0.2688
  203TIP3    H1  573   4.780   3.691   4.019 -0.5542 -0.8087 -1.2336
  203TIP3    H2  574   4.764   3.820   3.941 -0.3946  0.6018  1.0049
  204TIP3   OH2  575   6.307   6.756   3.706  0.0593  0.5102  0.0624
  204TIP3    H1  576   6.241   6.715   3.763  1.9245 -1.5945  0.8932
  204TIP3    H2  577   6.349   6.821   3.762  0.0605  0.3757  0.2217
  205TIP3   OH2  578   3.856   3.386   0.407  0.5698 -0.3560  0.3389
  205TIP3    H1  579   3.796   3.413   0.337  0.1677  1.2900  1.2521
  205TIP3    H2  580   3.868   3.466   0.459  1.3436 -1.3845  1.7845
  206TIP3   OH2  581   4.141   6.633   2.149  0.4958 -0.5126  0.3832
  206TIP3    H1  582   4.131   6.725   2.172  2.0766 -0.1674 -0.2257
  206TIP3    H2  583   4.228   6.626   2.110 -0.9062 -1.5873 -2.9342
  207TIP3   OH2  584   5.073   0.743   1.108 -0.4735  0.5173  0.6124
  207TIP3    H1  585   5.098   0.825   1.151 -3.8837  0.5854  2.7999
  207TIP3    H2  586   5.106   0.674   1.165  0.2724  0.3936  0.0508
  208TIP3   OH2  587   4.719   3.140   5.610 -0.8644 -0.0065 -0.0573
  208TIP3    H1  588   4.708   3.060   5.661 -1.3532 -0.1975 -0.4502
  208TIP3    H2  589   4.730   3.210   5.675 -0.1569 -0.4230  0.2847
  209TIP3   OH2  590   6.308   1.639   1.927 -0.0177 -0.2656 -0.0898
  209TIP3    H1  591   6.229   1.586   1.940 -0.7809  0.9943  0.5597
  209TIP3    H2  592   6.317   1.690   2.007  1.6028 -0.5353 -0.0525
  210TIP3   OH2  593   2.495   1.321   2.909 -0.1670 -0.2721  0.4519
  210TIP3    H1  594   2.559   1.267   2.955 -0.1963 -1.0267 -0.3688
  210TIP3    H2  595   2.507   1.409   2.945  1.2481 -0.4262  0.4018
  211TIP3   OH2  596   6.564   6.786   1.708 -0.6510  0.3555 -0.3343
  211TIP3    H1  597   6.607   6.747   1.632 -2.4447  0.0123 -1.2294
  211TIP3    H2  598   6.524   6.712   1.754 -1.0679  0.7371 -0.0669
  212TIP3   OH2  599   1.281   2.220   2.853  0.4428 -0.3280 -0.1306
  212TIP3    H1  600   1.293   2.195   2.762 -0.8491 -2.8462  0.3229
  212TIP3    H2  601   1.354   2.179   2.899  1.4584  1.4627 -0.0473
  213TIP3   OH2  602   4.688   0.367   4.949  0.2236 -0.3541 -0.1265
  213TIP3    H1  603   4.739   0.367   4.868 -0.0113 -0.5236 -0.2768
  213TIP3    H2  604   4.640   0.450   4.947 -1.3334 -1.2184 -1.1639
  214TIP3   OH2  605   6.972   0.328   0.958 -0.2859 -0.0593  0.4489
  214TIP3    H1  606   6.953   0.415   0.923  2.9961  1.2801  1.6421
  214TIP3    H2  607   7.016   0.282   0.886  1.9527  0.9255  1.1067
  215TIP3   OH2  608   1.977   0.600   3.461 -0.3384  0.4819 -0.8889
  215TIP3    H1  609   1.887   0.578   3.435 -0.1003  1.0056 -2.2791
  215TIP3    H2  610   2.015   0.639   3.382  0.7656  1.2944  0.0099
  216TIP3   OH2  611   2.697   5.535   2.456 -0.1723  0.1365  0.2402
  216TIP3    H1  612   2.652   5.572   2.532 -2.1982  0.7615 -1.1551
  216TIP3    H2  613   2.731   5.611   2.409  0.1165 -0.1588 -0.0305
  217TIP3   OH2  614   5.595   2.060   3.346  0.2597  0.1798 -0.5106
  217TIP3    H1  615   5.623   1.971   3.328  0.3344  0.0035  0.4133
  217TIP3    H2  616   5.529   2.051   3.415 -0.4703  0.7658 -1.1127
  218TIP3   OH2  617   6.755   3.866   2.697  0.0547 -0.2955 -0.3081
  218TIP3    H1  618   6.704   3.827   2.625  1.5206 -0.8828 -1.0603
  218TIP3    H2  619   6.822   3.918   2.654  0.5159 -0.0659  0.6661
  219TIP3   OH2  620   5.534   2.325   0.577 -0.0291 -0.2921 -0.6584
  219TIP3    H1  621   5.515   2.246   0.528 -0.8184 -0.7940  0.4084
  219TIP3    H2  622   5.629   2.332   0.576  0.0136 -0.8840 -1.3268
  220TIP3   OH2  623   3.865   5.532   5.033 -0.4753  0.0336  0.0842
  220TIP3    H1  624   3.773   5.503   5.036 -0.3294 -0.3779  1.8185
  220TIP3    H2  625   3.859   5.627   5.027 -1.0748  0.1015  1.2645
  221TIP3   OH2  626   2.798   4.042   0.008  0.2030  0.3174 -0.0110
  221TIP3    H1  627   2.873   3.983  -0.003  0.1601  0.3543 -0.5487
  221TIP3    H2  628   2.823   4.099   0.080  1.0498  0.8563 -0.7033
  222TIP3   OH2  629   0.859   6.818   1.872 -0.0660  0.1116 -0.4750
  222TIP3    H1  630   0.803   6.833   1.949  1.3158 -0.4702  0.7040
  222TIP3    H2  631   0.902   6.734   1.890  1.4615  0.7214 -1.1400
  223TIP3   OH2  632   4.418   5.117   5.315 -0.7615  0.3548  0.7828
  223TIP3    H1  633   4.355   5.081   5.377  0.2585  0.7084  2.0768
  223TIP3    H2  634   4.455   5.193   5.360 -0.4202  0.9840 -0.5141
  224TIP3   OH2  635   7.156   3.179   2.425  0.1702  0.3539 -0.1441
  224TIP3    H1  636   7.180   3.268   2.400  2.0285 -0.2236 -0.5255
  224TIP3    H2  637   7.155   3.181   2.521 -1.1088  1.0908 -0.1556
  225TIP3   OH2  638   1.280   3.260   2.740  0.0387 -0.0687  0.3621
  225TIP3    H1  639   1.190   3.291   2.734 -0.0497 -0.6184 -1.8902
  225TIP3    H2  640   1.328   3.334   2.778 -1.1669  0.6202  0.5877
  226TIP3   OH2  641   6.331   4.437   3.178  0.3264  0.4324 -0.8442
  226TIP3    H1  642   6.397   4.479   3.234  0.7541  0.1646 -1.1495
  226TIP3    H2  643   6.270   4.397   3.240  0.7914  0.1473 -0.5695
  227TIP3   OH2  644   0.839   5.009   0.806 -0.0738  0.1496 -0.0820
  227TIP3    H1  645   0.796   5.076   0.860  1.8555  1.5218 -0.1536
  227TIP3    H2  646   0.848   5.050   0.720  2.1525  0.2870  0.1751
  228TIP3   OH2  647   0.725   0.420   5.298  0.4469 -0.1293 -0.4372
  228TIP3    H1  648   0.783   0.496   5.301  1.4163 -0.6697 -2.9291
  228TIP3    H2  649   0.649   0.450   5.248  0.8201 -0.7591 -1.4099
  229TIP3   OH2  650   1.349   3.852   2.149 -0.0676  0.9741 -0.0294
  229TIP3    H1  651   1.266   3.815   2.118  1.1264 -1.3254 -0.6722
  229TIP3    H2  652   1.357   3.821   2.239  1.8045 -2.2321 -1.1158
  230TIP3   OH2  653   3.567   6.406   5.501 -0.5540  0.1530 -0.4677
  230TIP3    H1  654   3.485   6.455   5.512 -0.9482 -0.5160 -0.3831
  230TIP3    H2  655   3.618   6.426   5.579 -0.7611  0.3418 -0.3799
  231TIP3   OH2  656   5.454   4.028   4.361 -0.2160 -0.1132  0.0398
  231TIP3    H1  657   5.478   3.985   4.279  2.5038 -0.7395  1.0701
  231TIP3    H2  658   5.495   4.114   4.356  2.5369 -1.1802  1.8140
  232TIP3   OH2  659   1.495   2.113   0.882 -0.3236  0.4672  0.0110
  232TIP3    H1  660   1.430   2.164   0.930 -1.0861 -0.3639 -0.1159
  232TIP3    H2  661   1.483   2.139   0.790 -1.6897 -0.9369 -0.2473
  233TIP3   OH2  662   6.020   0.245   4.258 -0.2679 -0.1782 -0.3993
  233TIP3    H1  663   6.057   0.228   4.344  0.6090 -0.9050 -0.9014
  233TIP3    H2  664   6.050   0.332   4.235 -0.8863  0.2054  0.2130
  234TIP3   OH2  665   3.264   2.514   1.061  0.1039  0.2770  0.8782
  234TIP3    H1  666   3.290   2.429   1.024 -0.6494 -0.3522  1.7543
  234TIP3    H2  667   3.333   2.574   1.033 -0.5367 -0.0971 -1.7644
  235TIP3   OH2  668   1.896   3.560   0.380  0.1663  0.1213 -0.0636
  235TIP3    H1  669   1.870   3.468   0.375  1.1516 -0.1165 -1.0178
  235TIP3    H2  670   1.984   3.563   0.343  0.1679  1.4491 -0.0092
  236TIP3   OH2  671   5.265   5.425   3.585  0.0977  0.4265  0.0915
  236TIP3    H1  672   5.302   5.451   3.501  2.0891 -1.7761  0.1831
  236TIP3    H2  673   5.297   5.336   3.599 -2.5081 -0.3301  1.8895
  237TIP3   OH2  674   6.221   5.642   5.139 -0.3658  0.1426  0.2313
  237TIP3    H1  675   6.243   5.686   5.221 -0.7540 -2.5838  1.8910
  237TIP3    H2  676   6.126   5.634   5.141 -0.1664 -3.0844  1.3405
  238TIP3   OH2  677   4.382   2.516   1.228 -0.8907  0.4353 -0.0694
  238TIP3    H1  678   4.357   2.429   1.198 -1.2233  0.6809 -0.5192
  238TIP3    H2  679   4.317   2.537   1.296 -1.7476  0.9404 -1.0138
  239TIP3   OH2  680   1.043   3.557   1.594 -0.2472 -0.3042  0.4446
  239TIP3    H1  681   1.079   3.644   1.583 -0.0022 -0.5894 -1.2158
  239TIP3    H2  682   0.963   3.557   1.541  0.6278 -1.5570 -0.9729
  240TIP3   OH2  683   5.486   2.959   2.215  0.3660 -0.3808  0.4384
  240TIP3    H1  684   5.461   3.011   2.138 -0.6231  0.2873  1.1854
  240TIP3    H2  685   5.511   2.874   2.179  0.0252 -0.0480 -0.6288
  241TIP3   OH2  686   6.842   6.732   2.033  0.3569  0.3656 -0.0436
  241TIP3    H1  687   6.882   6.740   1.947  0.1621 -0.4888 -0.2157
  241TIP3    H2  688   6.815   6.822   2.055 -0.5886  0.4335 -1.3491
  242TIP3   OH2  689   5.105   0.905   1.456  0.1275  0.1716 -0.2901
  242TIP3    H1  690   5.073   0.820   1.428  2.0708 -0.8036  0.2571
  242TIP3    H2  691   5.144   0.943   1.377  0.8584 -0.2645 -0.1557
  243TIP3   OH2  692   7.063   0.025   2.348  0.4142  0.0424 -0.0996
  243TIP3    H1  693   7.116   0.095   2.309  1.0316 -0.8417 -0.8685
  243TIP3    H2  694   6.980   0.069   2.369  1.7933  1.7576  2.2769
  244TIP3   OH2  695   0.852   5.980   1.233  0.5399  0.2995 -0.2292
  244TIP3    H1  696   0.900   6.063   1.228  1.0690 -0.0743 -2.1136
  244TIP3    H2  697   0.866   5.939   1.148 -0.0168 -1.5805  0.5399
  245TIP3   OH2  698   2.083   6.062   1.782  0.9576  0.1262  0.3635
  245TIP3    H1  699   1.989   6.061   1.801  0.9518 -1.3721  0.3622
  245TIP3    H2  700   2.088   6.071   1.687  0.7266 -1.5742  0.1458
  246TIP3   OH2  701   2.832   5.358   4.810  0.5982 -0.0376 -0.1301
  246TIP3    H1  702   2.887   5.346   4.887 -1.5100 -2.6387  1.1421
  246TIP3    H2  703   2.877   5.310   4.740  1.1741  0.0281  0.1900
  247TIP3   OH2  704   2.819   4.612   1.333 -0.6140 -0.0866 -0.3306
  247TIP3    H1  705   2.914   4.600   1.328 -0.8949 -2.4038 -1.5697
  247TIP3    H2  706   2.788   4.592   1.245 -2.3101  0.1087  0.1931
  248TIP3   OH2  707   3.643   4.996   0.179 -0.4928  0.5421 -0.4511
  248TIP3    H1  708   3.724   5.007   0.129  0.3063 -0.6746  0.5143
  248TIP3    H2  709   3.650   5.061   0.250 -1.2133  1.6556 -1.3700
  249TIP3   OH2  710   6.153   1.978   0.376 -0.3116  0.0570 -0.0222
  249TIP3    H1  711   6.117   1.999   0.289  2.8450  0.4712 -1.3463
  249TIP3    H2  712   6.182   2.062   0.411  0.1215 -0.3521  0.6243
  250TIP3   OH2  713   3.180   6.704   5.223 -0.2432  0.1536  0.4808
  250TIP3    H1  714   3.150   6.739   5.307 -2.8615 -0.3861 -0.1138
  250TIP3    H2  715   3.099   6.691   5.173  1.0150 -1.8603 -1.2178
  251TIP3   OH2  716   4.719   1.800   0.816  0.3072 -0.6723  0.1584
  251TIP3    H1  717   4.642   1.749   0.793 -1.4097  1.3400  1.0248
  251TIP3    H2  718   4.716   1.875   0.756  0.3563  0.4655  1.5019
  252TIP3   OH2  719   5.861   2.967   1.950 -0.1822 -0.2835 -0.3614
  252TIP3    H1  720   5.817   3.051   1.963 -0.2574 -0.4869  0.8045
  252TIP3    H2  721   5.941   2.974   2.002 -0.9561 -1.4916  1.0681
  253TIP3   OH2  722   1.304   6.427   2.260 -0.2071 -0.4330 -0.3626
  253TIP3    H1  723   1.320   6.487   2.333 -0.7342 -0.2917 -0.3642
  253TIP3    H2  724   1.274   6.346   2.302  3.2891 -1.7948 -0.0917
  254TIP3   OH2  725   1.170   2.434   2.700 -0.1420 -0.3962  0.6609
  254TIP3    H1  726   1.086   2.402   2.735 -0.4417  1.9227  2.2729
  254TIP3    H2  727   1.235   2.406   2.765 -0.0344 -0.0377  0.7082
  255TIP3   OH2  728   6.640   5.383   2.637 -0.3721 -0.3393 -0.3422
  255TIP3    H1  729   6.693   5.434   2.699 -0.4804  0.5556 -0.9653
  255TIP3    H2  730   6.549   5.399   2.664 -0.3733 -1.1159  0.1459
  256TIP3   OH2  731   6.829   5.195   4.243  0.0517  0.0773 -0.4270
  256TIP3    H1  732   6.855   5.141   4.317 -0.2141  0.1302 -0.2928
  256TIP3    H2  733   6.734   5.180   4.235 -0.0363  0.5835 -0.3417
  257TIP3   OH2  734   6.454   0.261   4.773 -0.5335  0.4786  0.3779
  257TIP3    H1  735   6.504   0.181   4.758  0.4674  0.9757  0.9760
  257TIP3    H2  736   6.500   0.328   4.723 -0.6861  0.9116  0.8037
  258TIP3   OH2  737   6.170   6.502   4.346  0.3226  0.9468 -0.2335
  258TIP3    H1  738   6.187   6.502   4.252  2.5078  0.4416  0.1054
  258TIP3    H2  739   6.255   6.522   4.386 -0.8043  2.4102  1.6180
  259TIP3   OH2  740   4.182   4.836   1.081  0.8960 -0.1883 -0.7087
  259TIP3    H1  741   4.128   4.784   1.022  0.9928  1.7507 -2.6280
  259TIP3    H2  742   4.121   4.897   1.123  0.9467 -1.0436  0.6981
  260TIP3   OH2  743   2.266   6.204   4.955 -0.5330  0.4209 -0.3019
  260TIP3    H1  744   2.307   6.191   4.869 -0.5965  0.4646 -0.3396
  260TIP3    H2  745   2.186   6.151   4.950 -0.0155 -0.4136  0.1114
  261TIP3   OH2  746   5.214   4.824   0.731  0.2315  0.3757 -0.2908
  261TIP3    H1  747   5.148   4.767   0.691  0.8793 -1.3649  1.0209
  261TIP3    H2  748   5.177   4.848   0.816  0.2442  1.4247 -0.5692
  262TIP3   OH2  749   5.810   4.510   4.020  0.0320 -0.3508  0.8124
  262TIP3    H1  750   5.818   4.528   4.113  2.3486 -0.0391  0.6000
  262TIP3    H2  751   5.898   4.520   3.985 -0.9777  0.9752 -1.6882
  263TIP3   OH2  752   0.189   5.534   5.173  0.0356 -0.5654 -0.1750
  263TIP3    H1  753   0.191   5.448   5.216  2.7197 -0.4483  0.1341
  263TIP3    H2  754   0.173   5.513   5.081  0.8809 -1.4532 -0.1430
  264TIP3   OH2  755   6.326   3.612   0.053 -0.2837  0.2673 -0.8719
  264TIP3    H1  756   6.287   3.680   0.109 -1.5712 -0.4861 -0.8190
  264TIP3    H2  757   6.417   3.641   0.041 -0.8627  2.1727 -1.1122
  265TIP3   OH2  758   2.736   1.570   4.012  0.4047  0.2142  0.1302
  265TIP3    H1  759   2.717   1.494   3.958  2.6441 -1.1274  1.0740
  265TIP3    H2  760   2.665   1.574   4.076 -0.9636  0.3743 -1.3495
  266TIP3   OH2  761   0.971   0.733   1.918 -0.4804 -0.3255  0.5236
  266TIP3    H1  762   0.973   0.828   1.935 -1.2633  0.3145 -2.3052
  266TIP3    H2  763   0.992   0.693   2.002  0.3944  2.3613  1.7153
  267TIP3   OH2  764   6.523   3.900   1.882 -0.1762 -0.1423 -0.2817
  267TIP3    H1  765   6.512   3.992   1.856  0.1052  0.3111  1.0953
  267TIP3    H2  766   6.577   3.862   1.813 -0.3863  0.6891 -0.9349
  268TIP3   OH2  767   3.192   0.177   2.724  0.0529 -0.3121  0.4403
  268TIP3    H1  768   3.139   0.225   2.789  0.0154  0.6156 -0.2564
  268TIP3    H2  769   3.127   0.140   2.664  0.1499  0.1877  0.0201
  269TIP3   OH2  770   4.402   3.771   2.897  0.5640  0.0465  0.0698
  269TIP3    H1  771   4.351   3.845   2.866  0.8934 -0.2241 -1.1891
  269TIP3    H2  772   4.484   3.809   2.928  0.4938  0.2621 -0.0143
  270TIP3   OH2  773   1.591   2.130   5.109 -0.0906 -0.3451 -0.3383
  270TIP3    H1  774   1.593   2.093   5.197 -1.2125  0.1154 -0.1024
  270TIP3    H2  775   1.526   2.200   5.114 -0.6421 -0.7311 -1.6925
  271TIP3   OH2  776   0.986   5.480   2.620 -0.1281  0.3216  0.5721
  271TIP3    H1  777   0.971   5.538   2.545 -0.0248  0.7937  0.9124
  271TIP3    H2  778   0.973   5.392   2.585  1.2476  0.4480 -0.3494
  272TIP3   OH2  779   0.078   3.342   2.125  0.2507  0.1456  0.8011
  272TIP3    H1  780   0.071   3.338   2.221  0.9425 -0.1929  0.8446
  272TIP3    H2  781  -0.010   3.367   2.096 -0.1871 -0.5357  1.4799
  273TIP3   OH2  782   1.043   6.438   1.333 -0.3493 -0.1468 -0.1644
  273TIP3    H1  783   1.131   6.453   1.298  0.0244 -1.2728  0.2481
  273TIP3    H2  784   1.058   6.398   1.419 -1.2371  2.0270  1.0905
  274TIP3   OH2  785   2.115   3.790   2.434  0.4828 -0.2053  0.1491
  274TIP3    H1  786   2.137   3.705   2.472  0.1770 -0.1592  0.4363
  274TIP3    H2  787   2.140   3.854   2.501 -0.0616 -0.1249  0.2821
  275TIP3   OH2  788   2.568   5.760   5.847  0.0619 -0.7582 -0.3426
  275TIP3    H1  789   2.656   5.733   5.820 -0.6013 -1.5365 -1.8266
  275TIP3    H2  790   2.518   5.679   5.854 -0.2761 -0.4438  1.6810
  276TIP3   OH2  791   5.872   4.081   2.308  0.2180  0.1755  0.1028
  276TIP3    H1  792   5.910   4.052   2.225  0.9957  0.5565  0.3138
  276TIP3    H2  793   5.947   4.088   2.367 -0.3756 -0.4573  0.9499
  277TIP3   OH2  794   4.726   4.194   3.080 -0.8920 -0.0937  0.4678
  277TIP3    H1  795   4.687   4.149   3.155  0.7324 -0.7826  0.9429
  277TIP3    H2  796   4.790   4.254   3.120 -1.1137  0.6731 -0.3050
  278TIP3   OH2  797   5.760   3.259   2.588  0.2371  0.5865 -0.1598
  278TIP3    H1  798   5.714   3.237   2.507 -0.4828 -0.7912  0.5791
  278TIP3    H2  799   5.793   3.175   2.619 -0.7635  0.8366  1.7162
  279TIP3   OH2  800   6.999   0.223   1.616 -0.1738  0.3605 -0.2825
  279TIP3    H1  801   6.966   0.256   1.532  1.5570 -1.4049 -1.7575
  279TIP3    H2  802   6.939   0.151   1.638  0.0462  0.0660 -0.6323
  280TIP3   OH2  803   6.229   3.212   1.272  0.2554  0.0026  0.0439
  280TIP3    H1  804   6.299   3.186   1.213  0.5475  0.2043  0.2965
  280TIP3    H2  805   6.231   3.146   1.342 -1.2217 -1.2502 -1.0375
  281TIP3   OH2  806   2.798   6.395   5.533  0.0547  0.3073  0.0080
  281TIP3    H1  807   2.892   6.379   5.528  0.5074  2.2557  1.0442
  281TIP3    H2  808   2.776   6.434   5.448  0.7724  2.2528  0.6555
  282TIP3   OH2  809   5.591   0.448   3.742 -0.0010  0.1831 -0.5169
  282TIP3    H1  810   5.498   0.454   3.720  0.2231 -0.0961 -1.6162
  282TIP3    H2  811   5.600   0.366   3.790 -0.4008  0.4647  0.0416
  283TIP3   OH2  812   5.218   2.314   1.587  0.4878  0.4853  0.6894
  283TIP3    H1  813   5.240   2.366   1.510  0.4758  0.3205  0.5724
  283TIP3    H2  814   5.293   2.324   1.645  0.6620  0.3141  0.4968
  284TIP3   OH2  815   1.741   5.783   0.270 -0.2468  0.1443 -0.0302
  284TIP3    H1  816   1.714   5.867   0.307 -1.2276 -0.3838  0.4801
  284TIP3    H2  817   1.802   5.747   0.335 -0.6052  0.0140  0.2387
  285TIP3   OH2  818   5.499   5.097   5.444  0.4068  0.4244  0.5484
  285TIP3    H1  819   5.442   5.157   5.395  0.8789 -0.4426 -1.1389
  285TIP3    H2  820   5.439   5.029   5.476  0.3266  0.0260 -0.4060
  286TIP3   OH2  821   6.388   0.339   1.863 -0.1756  0.1043 -0.0921
  286TIP3    H1  822   6.324   0.340   1.934 -1.7673 -0.2156 -1.4712
  286TIP3    H2  823   6.471   0.320   1.907 -0.9549  0.7295  1.7734
  287TIP3   OH2  824   0.439   4.843   0.631 -0.1972 -0.0485  0.2210
  287TIP3    H1  825   0.499   4.873   0.700 -0.6820  0.7903  0.2909
  287TIP3    H2  826   0.459   4.750   0.621  0.7009  0.0840  0.6608
  288TIP3   OH2  827   0.915   1.204   1.964  0.2422 -0.1286 -0.8299
  288TIP3    H1  828   0.828   1.185   1.929 -0.0520  0.8029 -0.6369
  288TIP3    H2  829   0.908   1.292   2.000  1.2345 -0.0886 -0.6915
  289TIP3   OH2  830   4.157   4.406   0.802  0.5008 -0.4489  0.2712
  289TIP3    H1  831   4.198   4.491   0.785 -1.1238 -0.0885 -2.7136
  289TIP3    H2  832   4.116   4.416   0.888  2.2745  0.9169  1.0272
  290TIP3   OH2  833   1.937   0.424   0.124 -0.4589  0.1909  0.6695
  290TIP3    H1  834   1.873   0.480   0.169  0.5753  3.1341 -1.2637
  290TIP3    H2  835   2.011   0.419   0.185 -0.7255  0.5873  1.0372
  291TIP3   OH2  836   4.255   0.631   0.902 -0.5333 -0.2645  0.7928
  291TIP3    H1  837   4.292   0.580   0.974  0.3098 -0.6356  0.1158
  291TIP3    H2  838   4.214   0.706   0.945 -0.6396 -0.8210  1.7054
  292TIP3   OH2  839   2.857   0.691   2.665  0.1515  0.2150  0.4863
  292TIP3    H1  840   2.910   0.697   2.585 -0.9815  2.3239 -0.1784
  292TIP3    H2  841   2.918   0.714   2.736  0.4662  1.2559 -0.1056
  293TIP3   OH2  842   3.206   6.145   2.947 -0.3269 -1.0159  0.3574
  293TIP3    H1  843   3.192   6.186   3.032  0.6172  0.7557 -0.2754
  293TIP3    H2  844   3.121   6.150   2.903 -0.3116  0.0175  0.4247
  294TIP3   OH2  845   0.616   5.498   3.388 -0.0683 -0.1401 -0.0160
  294TIP3    H1  846   0.551   5.433   3.412 -0.5634 -0.1712 -1.4013
  294TIP3    H2  847   0.636   5.543   3.471 -0.4174 -1.3941  0.7754
  295TIP3   OH2  848   0.951   1.892   5.101 -0.2519 -0.3730  0.8138
  295TIP3    H1  849   0.884   1.948   5.062 -0.3883  0.1414  1.7643
  295TIP3    H2  850   0.916   1.803   5.091  0.3093 -0.4097 -1.3841
  296TIP3   OH2  851   4.974   1.437   1.852 -0.5082 -0.3253  0.3873
  296TIP3    H1  852   4.984   1.484   1.769 -1.9011 -0.4640  0.1230
  296TIP3    H2  853   4.955   1.506   1.916 -0.1548 -0.2926  0.4588
  297TIP3   OH2  854   2.109   3.557   3.279  0.1539 -0.5533 -0.0748
  297TIP3    H1  855   2.021   3.595   3.279  0.2057 -0.3966  1.4167
  297TIP3    H2  856   2.160   3.613   3.336  1.4740 -0.1749 -1.5457
  298TIP3   OH2  857   2.416   5.744   2.320  0.0867 -0.2357 -0.2221
  298TIP3    H1  858   2.356   5.783   2.256  0.6718  1.2232  0.0773
  298TIP3    H2  859   2.441   5.660   2.281  1.4295  1.1417 -2.5854
  299TIP3   OH2  860   0.915   5.756   0.645 -0.1741 -0.3041  0.4137
  299TIP3    H1  861   0.922   5.838   0.693 -0.6215 -0.2448  0.3820
  299TIP3    H2  862   0.878   5.781   0.560  1.3180 -0.2948 -0.2681
  300TIP3   OH2  863   4.753   6.491   3.628  0.1298 -0.2509 -0.0008
  300TIP3    H1  864   4.668   6.532   3.642  0.5857  0.3486  1.2784
  300TIP3    H2  865   4.807   6.524   3.701  0.9321 -2.0250  0.2598
  301TIP3   OH2  866   4.993   2.859   3.884 -0.0938  0.3666  0.1814
  301TIP3    H1  867   5.087   2.865   3.868 -0.1415  0.1597 -0.1869
  301TIP3    H2  868   4.973   2.936   3.936  0.0205  1.2195 -0.9943
  302TIP3   OH2  869   5.329   2.556   3.770  0.2416  0.6674  0.1997
  302TIP3    H1  870   5.380   2.502   3.709 -1.0150  1.5241 -1.7199
  302TIP3    H2  871   5.277   2.493   3.820 -0.8987 -0.0068 -1.7194
  303TIP3   OH2  872   0.708   3.912   3.065  0.1259  0.6763 -0.4663
  303TIP3    H1  873   0.784   3.860   3.090 -0.6992  0.1386  1.0768
  303TIP3    H2  874   0.735   4.003   3.080  0.3170  0.4626  0.5553
  304TIP3   OH2  875   4.383   3.877   0.850 -0.2284  0.2127 -0.4972
  304TIP3    H1  876   4.294   3.914   0.849 -0.1428  0.4210 -0.3940
  304TIP3    H2  877   4.396   3.846   0.760 -1.1639 -1.6529 -0.0531
  305TIP3   OH2  878   7.112   0.270   1.204 -0.1051 -0.6705 -0.2659
  305TIP3    H1  879   7.073   0.312   1.127  1.0836  1.3268  0.1458
  305TIP3    H2  880   7.201   0.250   1.177 -0.0673 -1.1435  0.2047
  306TIP3   OH2  881   5.733   0.918   3.639  0.4884 -0.3136 -0.3682
  306TIP3    H1  882   5.648   0.962   3.647 -0.5140 -2.3544  1.6615
  306TIP3    H2  883   5.737   0.861   3.716  2.1313 -2.9269 -2.2145
  307TIP3   OH2  884   4.605   0.398   2.961 -0.2051  0.2221  0.3811
  307TIP3    H1  885   4.523   0.388   3.009 -0.3619 -0.6131 -0.0394
  307TIP3    H2  886   4.660   0.451   3.019 -1.8871  3.0489 -0.4198
  308TIP3   OH2  887   4.280   4.665   0.774  0.3686 -0.0156  0.1545
  308TIP3    H1  888   4.357   4.635   0.725 -0.8162  0.5803 -2.2347
  308TIP3    H2  889   4.297   4.758   0.790  0.5344 -0.0916  0.4209
  309TIP3   OH2  890   4.880   0.057   0.681 -0.1852 -0.7417 -0.5697
  309TIP3    H1  891   4.821   0.126   0.711  0.3698 -0.0918 -0.9204
  309TIP3    H2  892   4.953   0.104   0.640  0.6263 -1.5075 -0.0698
  310TIP3   OH2  893   0.190   5.697   2.903  0.5569  0.1689 -0.1153
  310TIP3    H1  894   0.209   5.682   2.811  0.0274  0.6349 -0.3123
  310TIP3    H2  895   0.253   5.643   2.951 -0.0870 -1.1776 -0.7537
  311TIP3   OH2  896   6.124   2.659   4.167  0.5755  0.0536  0.3968
  311TIP3    H1  897   6.146   2.750   4.188  0.6776 -0.1601  1.2639
  311TIP3    H2  898   6.128   2.614   4.251  0.9598 -0.8501 -0.0957
  312TIP3   OH2  899   0.455   5.800   4.780 -0.2278  0.4216 -0.2516
  312TIP3    H1  900   0.394   5.868   4.809  1.0793  1.5093  0.0150
  312TIP3    H2  901   0.529   5.806   4.840 -0.6666 -2.2094  0.6865
  313TIP3   OH2  902   0.031   2.129   3.951 -0.0464  0.0494 -0.0225
  313TIP3    H1  903  -0.027   2.204   3.967  0.3564  0.3655 -0.0321
  313TIP3    H2  904   0.028   2.079   4.033 -0.2330  0.1324  0.0229
  314TIP3   OH2  905   0.064   0.598   5.072 -0.1248 -0.0867  0.3545
  314TIP3    H1  906   0.118   0.660   5.121  0.3193  1.6095 -2.1217
  314TIP3    H2  907  -0.002   0.570   5.135  0.2212  2.1833  1.8527
  315TIP3   OH2  908   4.752   4.473   4.318  0.1621  0.1474  0.2275
  315TIP3    H1  909   4.663   4.438   4.323  0.2094 -0.1933 -1.1004
  315TIP3    H2  910   4.748   4.542   4.252  0.5304  1.3265  1.3752
  316TIP3   OH2  911   1.329   3.601   2.952  0.3242 -0.2180  0.4008
  316TIP3    H1  912   1.294   3.689   2.937 -1.2115 -0.9322 -0.5350
  316TIP3    H2  913   1.251   3.547   2.968  1.0552 -1.7648 -0.9776
  317TIP3   OH2  914   0.015   5.214   1.409  0.6817 -0.1216  0.0990
  317TIP3    H1  915  -0.058   5.259   1.451 -0.3070 -1.6009  0.0465
  317TIP3    H2  916   0.092   5.241   1.459  0.0644  1.2070  0.3673
  318TIP3   OH2  917   3.394   3.300   4.311 -0.4769 -0.2551  0.4535
  318TIP3    H1  918   3.329   3.354   4.355  1.6321  1.7846  1.2959
  318TIP3    H2  919   3.420   3.352   4.234 -0.3248 -1.3461 -0.2572
  319TIP3   OH2  920   2.458   3.858   3.245 -0.0020 -0.6164  0.3233
  319TIP3    H1  921   2.413   3.797   3.187  0.3713 -0.4085 -0.1938
  319TIP3    H2  922   2.500   3.803   3.311  0.0367 -0.8912  0.0690
  320TIP3   OH2  923   6.565   1.500   3.065  0.3944 -0.5017 -0.1221
  320TIP3    H1  924   6.601   1.585   3.039  0.7604 -0.8651 -0.8383
  320TIP3    H2  925   6.637   1.457   3.110 -0.1627  0.0279  1.3163
  321TIP3   OH2  926   4.836   4.380   3.308 -0.3966  0.4768 -0.1742
  321TIP3    H1  927   4.774   4.352   3.374 -1.3059  0.3405 -1.0624
  321TIP3    H2  928   4.849   4.474   3.325  0.3929  0.1821  0.9807
  322TIP3   OH2  929   1.523   5.743   5.115  0.4201  0.1732 -0.1967
  322TIP3    H1  930   1.613   5.715   5.131  0.8250  1.0245 -0.9257
  322TIP3    H2  931   1.525   5.838   5.127  0.0005  0.4224 -1.8673
  323TIP3   OH2  932   5.641   1.698   1.583  0.5136 -0.0285  0.0938
  323TIP3    H1  933   5.588   1.642   1.639 -1.2166  0.3694 -1.0853
  323TIP3    H2  934   5.677   1.764   1.642 -0.5451 -0.1393  0.8907
  324TIP3   OH2  935   4.949   5.928   4.499  0.0631 -0.0368  0.2025
  324TIP3    H1  936   4.876   5.879   4.460 -1.6840  2.6518 -0.2328
  324TIP3    H2  937   4.989   5.974   4.425 -0.3118  1.4977  0.9061
  325TIP3   OH2  938   0.840   2.119   0.706 -0.2006 -0.5894 -0.1494
  325TIP3    H1  939   0.848   2.049   0.640  0.3085  0.6917 -1.5225
  325TIP3    H2  940   0.825   2.198   0.654 -0.0949  0.4230  1.3200
  326TIP3   OH2  941   3.522   6.212   5.339  1.0576 -0.0200  0.3240
  326TIP3    H1  942   3.429   6.196   5.357 -0.0074  3.2202 -1.4863
  326TIP3    H2  943   3.553   6.261   5.415  1.4150 -1.2509  1.0094
  327TIP3   OH2  944   3.471   1.328   4.470  0.2735  0.1022 -0.1071
  327TIP3    H1  945   3.424   1.281   4.401 -0.2797  0.7198 -0.1592
  327TIP3    H2  946   3.503   1.260   4.529  0.7879 -0.4438 -0.9899
  328TIP3   OH2  947   5.751   0.050   1.740 -0.0992 -0.1388 -0.1530
  328TIP3    H1  948   5.753  -0.004   1.820  3.7445  0.6317  0.5136
  328TIP3    H2  949   5.720   0.135   1.770  1.3382  0.1528  0.6513
  329TIP3   OH2  950   1.435   6.731   3.309 -0.0128  0.2625 -0.6488
  329TIP3    H1  951   1.372   6.788   3.264  0.0790  0.3026 -0.7258
  329TIP3    H2  952   1.472   6.786   3.377 -1.0311 -0.1428  0.2685
  330TIP3   OH2  953   7.182   2.235   2.315 -0.0208  0.1949  0.2362
  330TIP3    H1  954   7.268   2.238   2.273  0.3496  0.4363  0.9901
  330TIP3    H2  955   7.165   2.325   2.341 -0.4690  0.1309  0.1694
  331TIP3   OH2  956   6.762   4.165   1.356 -0.0801 -0.0149 -0.5926
  331TIP3    H1  957   6.710   4.140   1.279  0.6116 -1.1590 -0.7195
  331TIP3    H2  958   6.848   4.126   1.340  0.5047  0.9638  0.0979
  332TIP3   OH2  959   6.709   4.364   2.129  0.1822  0.1159  0.0827
  332TIP3    H1  960   6.662   4.366   2.212 -2.1492 -1.4221 -1.0873
  332TIP3    H2  961   6.660   4.424   2.072  0.5130 -0.4147 -0.7823
  333TIP3   OH2  962   0.686   2.792   5.615 -0.2391 -0.1259  0.0452
  333TIP3    H1  963   0.636   2.862   5.656 -1.0675 -1.4732  1.4628
  333TIP3    H2  964   0.776   2.823   5.616 -0.6568  1.1512  0.1072
  334TIP3   OH2  965   5.968   3.311   4.073  0.2274 -0.4247  0.0350
  334TIP3    H1  966   5.978   3.405   4.091  0.9466 -0.0960 -1.8820
  334TIP3    H2  967   5.884   3.304   4.029 -0.0611 -0.7648  0.6317
  335TIP3   OH2  968   6.852   1.141   2.594  0.1827  0.3951 -0.0802
  335TIP3    H1  969   6.943   1.129   2.567  0.4668  0.6075  0.7665
  335TIP3    H2  970   6.856   1.198   2.671 -0.3250 -2.5368  2.3144
  336TIP3   OH2  971   2.393   5.916   0.040 -0.1127 -0.3438 -0.1065
  336TIP3    H1  972   2.371   5.918  -0.053  2.0103  0.1501 -0.6732
  336TIP3    H2  973   2.336   5.982   0.080 -2.0266 -1.5250 -0.7726
  337TIP3   OH2  974   6.897   6.236   0.533  0.1114  0.3465  0.1148
  337TIP3    H1  975   6.927   6.147   0.517  0.0924  0.4667 -0.5979
  337TIP3    H2  976   6.839   6.228   0.610  2.3028  0.2013  1.8435
  338TIP3   OH2  977   7.005   3.762   1.121  0.6655 -0.2796 -0.6227
  338TIP3    H1  978   6.967   3.712   1.194  0.9059  1.3920  0.6925
  338TIP3    H2  979   6.955   3.734   1.045 -1.5751  0.0184  0.6488
  339TIP3   OH2  980   6.361   0.921   5.627  0.3959 -0.3760 -0.0667
  339TIP3    H1  981   6.271   0.953   5.624  0.1451 -0.6273  2.4825
  339TIP3    H2  982   6.410   0.990   5.670  1.5489 -0.0828 -1.7683
  340TIP3   OH2  983   5.084   4.841   0.985 -0.2310  0.7274 -0.2604
  340TIP3    H1  984   5.139   4.862   1.061  1.1253 -0.9803 -0.7163
  340TIP3    H2  985   5.011   4.791   1.021  0.2901  0.1093 -0.0584
  341TIP3   OH2  986   6.364   4.331   4.911 -0.2279  0.3320  1.4963
  341TIP3    H1  987   6.351   4.416   4.869 -0.7882 -0.6103 -0.3640
  341TIP3    H2  988   6.290   4.322   4.972 -2.3718 -0.3122 -0.9996
  342TIP3   OH2  989   1.753   3.810   0.732 -0.4002  0.0691  0.3863
  342TIP3    H1  990   1.685   3.788   0.795 -0.9471 -0.4436 -0.3667
  342TIP3    H2  991   1.817   3.739   0.740  0.1622  0.6503  1.2301
  343TIP3   OH2  992   2.264   1.921   3.607 -0.2931 -0.1729 -0.4868
  343TIP3    H1  993   2.174   1.888   3.607 -1.2117  2.1035  0.3558
  343TIP3    H2  994   2.287   1.927   3.699  0.9639 -1.2372 -0.7056
  344TIP3   OH2  995   3.032   2.979   3.146  0.3652  0.5044  0.2487
  344TIP3    H1  996   3.021   3.050   3.083 -0.2715  1.2252  1.1529
  344TIP3    H2  997   3.004   3.016   3.229 -0.2601 -0.8987  0.6882
  345TIP3   OH2  998   5.224   3.745   2.554 -0.1580  0.1488  0.4926
  345TIP3    H1  999   5.209   3.765   2.461 -0.4857 -0.1460  0.4784
  345TIP3    H2 1000   5.138   3.717   2.586  0.2429 -1.0671  0.5573
  346TIP3   OH2 1001   2.929   1.436   4.955  0.0650  0.3523  0.2551
  346TIP3    H1 1002   2.990   1.482   5.012 -1.1887  0.3195  1.6866
  346TIP3    H2 1003   2.895   1.364   5.008  0.1347 -0.7553 -1.1208
  347TIP3   OH2 1004   2.924   6.516   0.312  0.0759 -0.4831 -0.3749
  347TIP3    H1 1005   2.881   6.595   0.344 -0.4064 -1.1423  0.6673
  347TIP3    H2 1006   2.852   6.460   0.281  0.4148 -0.5057 -1.1558
  348TIP3   OH2 1007   3.143   3.520   0.854  0.2725 -0.2933  0.5586
  348TIP3    H1 1008   3.140   3.601   0.905  1.8684  1.1106 -1.4090
  348TIP3    H2 1009   3.128   3.548   0.764 -0.0288 -2.3340 -0.0690
  349TIP3   OH2 1010   7.160   2.339   5.423 -0.2721  0.2851  0.7738
  349TIP3    H1 1011   7.094   2.378   5.366  0.6909  0.7292 -0.0802
  349TIP3    H2 1012   7.145   2.244   5.416 -0.1391  0.3270 -0.2845
  350TIP3   OH2 1013   2.738   6.224   0.344 -0.1386 -0.6709  0.2874
  350TIP3    H1 1014   2.826   6.241   0.310  0.3305 -0.3523  1.6072
  350TIP3    H2 1015   2.680   6.241   0.270  0.9009 -0.8226 -0.5846
  351TIP3   OH2 1016   5.893   4.178   1.307  0.0241  0.5744 -0.6841
  351TIP3    H1 1017   5.878   4.091   1.344  3.4106  0.2826  0.3726
  351TIP3    H2 1018   5.881   4.166   1.213  0.6446 -1.1335 -0.5823
  352TIP3   OH2 1019   2.760   4.715   4.951 -0.3641  0.3867  0.4584
  352TIP3    H1 1020   2.705   4.716   5.029 -2.2034 -1.2322 -0.7022
  352TIP3    H2 1021   2.845   4.682   4.981 -0.3859  1.6352  2.0560
  353TIP3   OH2 1022   1.608   1.447   5.571  0.0666  0.2197  0.2845
  353TIP3    H1 1023   1.641   1.535   5.590  3.5938 -1.3653  2.2708
  353TIP3    H2 1024   1.541   1.431   5.638  1.0134  0.5975  1.3421
  354TIP3   OH2 1025   2.157   4.821   1.109 -0.0228  0.0608  0.5389
  354TIP3    H1 1026   2.209   4.749   1.074 -2.2986 -1.3243 -0.2342
  354TIP3    H2 1027   2.137   4.875   1.033 -0.4384  0.0735  0.6525
  355TIP3   OH2 1028   1.529   2.335   0.409 -0.1343 -0.2989  0.5761
  355TIP3    H1 1029   1.529   2.414   0.462 -0.2358 -0.7597  1.2723
  355TIP3    H2 1030   1.517   2.263   0.472  2.0842 -1.0392  0.2395
  356TIP3   OH2 1031   4.825   4.153   2.484  0.0924  0.0240 -0.2100
  356TIP3    H1 1032   4.862   4.065   2.476  1.9944  0.7601  0.0085
  356TIP3    H2 1033   4.739   4.139   2.524  1.3583 -1.5916  2.2294
  357TIP3   OH2 1034   2.032   5.793   0.382  0.0466 -0.0575  0.1216
  357TIP3    H1 1035   2.064   5.834   0.463  0.1703 -0.5623  0.3347
  357TIP3    H2 1036   2.025   5.700   0.404  0.0068 -0.1868 -0.4295
  358TIP3   OH2 1037   0.503   6.702   0.630  0.1597 -0.2978  0.3906
  358TIP3    H1 1038   0.461   6.617   0.622  1.3982 -0.7425 -2.3057
  358TIP3    H2 1039   0.595   6.686   0.613  0.5074  1.5168  0.2901
  359TIP3   OH2 1040   1.744   2.707   4.464  0.3525  0.6164 -0.1435
  359TIP3    H1 1041   1.742   2.680   4.556 -0.2626  0.1933 -0.2753
  359TIP3    H2 1042   1.757   2.625   4.415 -0.4268  0.6881 -0.4893
  360TIP3   OH2 1043   2.703   2.411   4.304  0.6400 -0.1380 -0.3296
  360TIP3    H1 1044   2.618   2.395   4.263 -0.5196  0.7047  1.6377
  360TIP3    H2 1045   2.743   2.324   4.312 -0.8582 -0.7879  0.4260
  361TIP3   OH2 1046   1.445   4.634   2.316 -0.2323  0.0564  0.3408
  361TIP3    H1 1047   1.465   4.726   2.330 -0.5984  0.1013  0.5760
  361TIP3    H2 1048   1.357   4.623   2.351 -1.3046  0.2146 -2.1143
  362TIP3   OH2 1049   1.784   0.292   4.184  0.4167 -0.2253  0.9057
  362TIP3    H1 1050   1.832   0.214   4.212  1.7386  0.5337  0.8439
  362TIP3    H2 1051   1.848   0.343   4.136 -0.9385  0.0244 -0.7342
  363TIP3   OH2 1052   4.525   0.312   0.125 -0.4393  0.3657 -0.0996
  363TIP3    H1 1053   4.575   0.230   0.131 -1.1288 -0.1228 -0.7219
  363TIP3    H2 1054   4.550   0.349   0.041 -1.1222  0.0984 -0.4330
  364TIP3   OH2 1055   3.373   3.231   2.538 -0.2276  0.0174 -0.5184
  364TIP3    H1 1056   3.341   3.318   2.562  0.3832  0.4705 -1.3008
  364TIP3    H2 1057   3.375   3.232   2.442  2.0201 -0.0157 -0.5225
  365TIP3   OH2 1058   3.780   1.521   1.033  0.1808  0.0225  0.0360
  365TIP3    H1 1059   3.737   1.578   0.968 -1.2408  0.1548  1.0329
  365TIP3    H2 1060   3.865   1.562   1.049 -0.5647  1.5529  0.2790
  366TIP3   OH2 1061   2.610   0.545   4.315 -0.5325 -0.6749  0.8391
  366TIP3    H1 1062   2.622   0.599   4.393 -0.8036 -0.0387  0.4473
  366TIP3    H2 1063   2.523   0.508   4.325 -1.1293  0.4927  0.2013
  367TIP3   OH2 1064   0.258   5.334   1.526 -0.4977 -0.4143  0.3863
  367TIP3    H1 1065   0.241   5.309   1.617 -0.8541  1.3176  0.8370
  367TIP3    H2 1066   0.249   5.430   1.526  3.0796  0.0602 -0.6730
  368TIP3   OH2 1067   5.747   1.387   3.899  0.2631 -0.1351  0.2595
  368TIP3    H1 1068   5.659   1.410   3.869  0.0771 -1.7570 -0.5422
  368TIP3    H2 1069   5.805   1.436   3.841 -0.0895  0.8129  0.6823
  369TIP3   OH2 1070   2.330   0.525   0.366  0.0760 -0.1770  0.6519
  369TIP3    H1 1071   2.280   0.555   0.441  0.2252 -1.6253  1.3583
  369TIP3    H2 1072   2.366   0.441   0.393  0.5968 -0.4626 -0.8423
  370TIP3   OH2 1073   2.960   2.760   0.989  0.7121  0.1504 -0.7962
  370TIP3    H1 1074   2.877   2.719   1.016  1.4044 -0.3320  0.6863
  370TIP3    H2 1075   3.004   2.781   1.072  1.2879  2.0625 -1.5380
  371TIP3   OH2 1076   6.343   6.823   4.026  0.7283 -0.0774 -0.1469
  371TIP3    H1 1077   6.435   6.825   3.998  0.7483  0.3293 -0.0589
  371TIP3    H2 1078   6.327   6.732   4.049  1.5922  0.1326  1.4192
  372TIP3   OH2 1079   1.196   6.718   4.568  1.2095  0.0946  0.7524
  372TIP3    H1 1080   1.144   6.663   4.627  2.0639 -1.3225  0.2316
  372TIP3    H2 1081   1.273   6.743   4.620  1.7442 -0.7840  0.3930
  373TIP3   OH2 1082   5.408   3.945   5.044 -0.1099  0.2531 -0.2395
  373TIP3    H1 1083   5.441   3.893   4.970  0.6626  0.3403  0.0293
  373TIP3    H2 1084   5.313   3.946   5.033 -0.0995 -0.7969 -0.5259
  374TIP3   OH2 1085   3.208   3.849   5.075  0.0173 -0.2490 -0.1485
  374TIP3    H1 1086   3.156   3.900   5.138  0.8454 -0.7564  0.9734
  374TIP3    H2 1087   3.205   3.759   5.108  1.5894 -0.2921 -0.0483
  375TIP3   OH2 1088   0.716   5.823   4.817 -0.4391  0.3191  0.4597
  375TIP3    H1 1089   0.739   5.823   4.724  0.1631  1.4082  0.5913
  375TIP3    H2 1090   0.780   5.764   4.858 -0.4944  0.1010  0.2344
  376TIP3   OH2 1091   3.209   4.050   2.559  0.2338 -0.5880  0.5057
  376TIP3    H1 1092   3.122   4.013   2.547 -1.3265  3.0893 -0.7787
  376TIP3    H2 1093   3.247   4.051   2.471  0.5100  0.1699  0.6255
  377TIP3   OH2 1094   5.677   0.977   4.713 -0.5408  0.1256 -0.4352
  377TIP3    H1 1095   5.702   0.903   4.658  0.8590  0.4149 -0.2405
  377TIP3    H2 1096   5.752   0.989   4.772 -1.8585 -0.0016  1.3589
  378TIP3   OH2 1097   4.490   3.743   1.081 -0.3310  0.1714  0.2501
  378TIP3    H1 1098   4.565   3.799   1.101  0.5452 -0.7703 -0.3519
  378TIP3    H2 1099   4.456   3.779   0.999 -1.6307  1.6646  1.3594
  379TIP3   OH2 1100   2.239   2.637   2.869  0.7261  0.1057  0.4204
  379TIP3    H1 1101   2.160   2.611   2.917  0.6442  2.2265  1.5580
  379TIP3    H2 1102   2.267   2.557   2.824  0.3177 -1.8265  3.3095
  380TIP3   OH2 1103   6.192   2.159   1.663 -0.6498  0.1629  0.9902
  380TIP3    H1 1104   6.176   2.072   1.625  0.0412  0.4330  0.0300
  380TIP3    H2 1105   6.129   2.216   1.619 -0.3958  0.3303  0.8396
  381TIP3   OH2 1106   1.335   6.604   2.747  0.1072  0.1200  0.6811
  381TIP3    H1 1107   1.395   6.533   2.773  0.2723  0.0604  0.1414
  381TIP3    H2 1108   1.392   6.669   2.706 -0.3229 -0.3463 -0.6766
  382TIP3   OH2 1109   4.302   1.851   2.550  0.3649  0.3230 -0.0815
  382TIP3    H1 1110   4.362   1.911   2.506 -0.7028  0.7358 -1.0443
  382TIP3    H2 1111   4.224   1.904   2.568 -0.1701 -0.4936  0.0585
  383TIP3   OH2 1112   3.075   2.080   2.073 -0.0517  0.1191 -0.5557
  383TIP3    H1 1113   3.029   2.147   2.123  0.6604  1.0778 -1.1470
  383TIP3    H2 1114   3.146   2.127   2.029 -0.4147 -0.7575 -2.1608
  384TIP3   OH2 1115   2.482   2.471   5.670  0.0950 -1.1171  0.5365
  384TIP3    H1 1116   2.537   2.524   5.728 -2.9827 -0.3687  3.0145
  384TIP3    H2 1117   2.442   2.406   5.727 -0.7033 -2.4265 -1.3975
  385TIP3   OH2 1118   0.863   2.975   2.297 -0.2889 -0.4411 -0.1451
  385TIP3    H1 1119   0.805   3.036   2.249 -0.4857  1.3835  2.2297
  385TIP3    H2 1120   0.811   2.947   2.372 -0.4583 -4.2711 -1.4771
  386TIP3   OH2 1121   2.553   3.998   2.228  0.2757  0.6570  0.6460
  386TIP3    H1 1122   2.561   4.084   2.268  0.8341  1.2246 -0.6395
  386TIP3    H2 1123   2.504   3.946   2.292  0.5823  1.7032  1.7625
  387TIP3   OH2 1124   4.629   0.428   1.107 -0.3919  0.1185  0.5671
  387TIP3    H1 1125   4.617   0.335   1.126 -1.7322 -0.2147 -1.5240
  387TIP3    H2 1126   4.712   0.433   1.059 -1.4174 -0.4259 -1.3890
  388TIP3   OH2 1127   2.695   5.037   3.105 -0.5813 -0.0360  0.6944
  388TIP3    H1 1128   2.785   5.017   3.078 -0.2541  0.6563  1.2486
  388TIP3    H2 1129   2.705   5.096   3.180 -1.5051  0.2751  0.5779
  389TIP3   OH2 1130   0.394   5.684   4.226 -0.0587  0.4886 -0.1592
  389TIP3    H1 1131   0.316   5.727   4.190  0.3552  1.2779 -0.1350
  389TIP3    H2 1132   0.409   5.729   4.310  0.4710  0.4060 -0.2086
  390TIP3   OH2 1133   0.090   5.960   3.610  0.0666 -0.2541  0.0332
  390TIP3    H1 1134   0.161   5.974   3.548  0.5013 -1.0464  0.3400
  390TIP3    H2 1135   0.046   5.881   3.579  0.4550 -0.8139  0.8680
  391TIP3   OH2 1136   5.743   0.669   2.939  0.8785  0.5595  0.0995
  391TIP3    H1 1137   5.692   0.590   2.956 -2.8158  2.5190 -0.7936
  391TIP3    H2 1138   5.819   0.638   2.889 -0.8619 -2.3308 -1.0088
  392TIP3   OH2 1139   0.226   2.880   0.990  0.3240  0.2878  0.0011
  392TIP3    H1 1140   0.261   2.874   0.901 -0.6004  2.0132 -0.5258
  392TIP3    H2 1141   0.189   2.793   1.006  0.0822  0.0799 -1.4968
  393TIP3   OH2 1142   1.620   4.088   2.485 -0.3950 -0.0660 -0.3827
  393TIP3    H1 1143   1.526   4.086   2.463 -0.3660 -0.0138 -0.5098
  393TIP3    H2 1144   1.646   3.996   2.486  0.0484 -0.0172 -2.4597
  394TIP3   OH2 1145   6.759   1.610   5.075 -0.3738 -0.6573 -0.3530
  394TIP3    H1 1146   6.826   1.651   5.020  1.4824 -3.5035 -0.4079
  394TIP3    H2 1147   6.789   1.520   5.088 -3.4423 -1.6588  0.9446
  395TIP3   OH2 1148   0.001   6.428   4.517 -0.7796 -0.1078 -0.0421
  395TIP3    H1 1149  -0.052   6.395   4.445 -0.9699  1.3619 -0.6128
  395TIP3    H2 1150   0.090   6.400   4.497 -0.6389  1.2650 -1.4841
  396TIP3   OH2 1151   2.418   5.251   1.631  0.0826  0.5530  0.6383
  396TIP3    H1 1152   2.453   5.337   1.655 -0.7748  1.2196 -0.4444
  396TIP3    H2 1153   2.482   5.215   1.570  0.2403  0.5806  0.7841
  397TIP3   OH2 1154   5.130   3.955   5.107 -0.8018  0.5846 -0.2798
  397TIP3    H1 1155   5.104   4.030   5.053 -2.1634  0.9034  0.7706
  397TIP3    H2 1156   5.081   3.882   5.071  0.7617  0.0832 -1.5032
  398TIP3   OH2 1157   6.109   6.572   4.915 -0.1437  0.3335 -0.0846
  398TIP3    H1 1158   6.091   6.616   4.998 -4.8082  0.3560 -0.8456
  398TIP3    H2 1159   6.122   6.642   4.852 -0.7032  0.4602 -0.0660
  399TIP3   OH2 1160   4.333   3.984   0.044  0.2545 -0.0461 -0.0746
  399TIP3    H1 1161   4.390   4.011  -0.028 -0.4473  1.0130 -0.2572
  399TIP3    H2 1162   4.249   3.965   0.002 -0.1960  0.6891  0.4622
  400TIP3   OH2 1163   4.333   5.971   4.534 -0.6905 -0.7424  0.2031
  400TIP3    H1 1164   4.264   5.944   4.594 -2.2418  0.5889 -0.8787
  400TIP3    H2 1165   4.312   6.062   4.512  1.4160 -0.2952 -0.2010
  401TIP3   OH2 1166   4.698   3.434   2.731  0.1527 -0.2729  0.3805
  401TIP3    H1 1167   4.748   3.397   2.804  0.8992 -0.2769 -0.1187
  401TIP3    H2 1168   4.607   3.420   2.755  0.4042 -1.2213  0.8324
  402TIP3   OH2 1169   6.407   2.488   2.635 -0.2732 -0.1365  0.3048
  402TIP3    H1 1170   6.415   2.531   2.720  1.9917 -2.6001  1.4896
  402TIP3    H2 1171   6.490   2.440   2.624 -0.8735 -0.6940 -2.8600
  403TIP3   OH2 1172   3.995   5.858   0.910 -0.1500 -0.3430  0.2996
  403TIP3    H1 1173   4.080   5.900   0.920  0.5354 -1.5404 -0.3386
  403TIP3    H2 1174   3.954   5.868   0.996  0.5819  0.3445  0.5813
  404TIP3   OH2 1175   6.129   5.611   2.592  0.1359 -0.2930  0.7244
  404TIP3    H1 1176   6.118   5.516   2.582  1.2965 -0.5924  2.0942
  404TIP3    H2 1177   6.195   5.634   2.526  2.5514 -1.0992  2.6897
  405TIP3   OH2 1178   4.666   6.497   1.340 -0.3815 -0.2380  0.5247
  405TIP3    H1 1179   4.708   6.412   1.327  1.7149  0.5720  1.3931
  405TIP3    H2 1180   4.631   6.521   1.254  0.6298 -1.1578 -0.1698
  406TIP3   OH2 1181   3.086   6.555   1.694  0.0053  0.1722  0.1245
  406TIP3    H1 1182   3.035   6.580   1.770 -0.6503 -0.0850 -0.2248
  406TIP3    H2 1183   3.109   6.638   1.652  1.1959  0.3708  1.1127
  407TIP3   OH2 1184   0.622   0.696   4.538  0.0473  0.4023  0.2844
  407TIP3    H1 1185   0.671   0.666   4.462  2.4114 -0.6389  2.1020
  407TIP3    H2 1186   0.543   0.641   4.539  0.1751  0.1685 -1.1713
  408TIP3   OH2 1187   4.733   3.489   2.321  0.4350 -0.6710 -0.3936
  408TIP3    H1 1188   4.820   3.514   2.288  0.1442 -0.6007 -1.1354
  408TIP3    H2 1189   4.681   3.476   2.242 -0.5434  0.3691  0.0610
  409TIP3   OH2 1190   1.442   4.276   4.885  0.8887 -0.1968 -0.7922
  409TIP3    H1 1191   1.412   4.361   4.917  2.9146  0.0097  0.7887
  409TIP3    H2 1192   1.536   4.288   4.870  1.3437 -2.2634  0.0140
  410TIP3   OH2 1193   6.587   4.353   2.397  0.7091  0.4013  0.1735
  410TIP3    H1 1194   6.500   4.388   2.378  0.9551  0.2440 -1.3417
  410TIP3    H2 1195   6.623   4.413   2.462 -0.3075  0.7837  0.4127
  411TIP3   OH2 1196   4.894   0.709   1.374  0.0824  0.7592 -0.2289
  411TIP3    H1 1197   4.848   0.773   1.320  0.6220  0.3646 -1.1694
  411TIP3    H2 1198   4.874   0.625   1.334 -1.7207  0.1495  1.7713
  412TIP3   OH2 1199   3.491   0.556   0.824 -0.1999 -0.6368  0.6249
  412TIP3    H1 1200   3.490   0.646   0.790  0.6823 -1.1357 -0.8058
  412TIP3    H2 1201   3.427   0.509   0.769 -0.6693 -0.8895  1.3767
  413TIP3   OH2 1202   7.198   0.035   3.673  0.3937  0.2621  0.3139
  413TIP3    H1 1203   7.236   0.113   3.712 -0.1685  0.6021  0.2062
  413TIP3    H2 1204   7.149  -0.006   3.745  0.2359  0.3108  0.2351
  414TIP3   OH2 1205   6.564   6.049   4.212  0.1308  0.0849 -0.0106
  414TIP3    H1 1206   6.566   6.064   4.307 -2.3327  0.3709  0.0488
  414TIP3    H2 1207   6.636   6.103   4.178  0.7013  0.4158  1.6256
  415TIP3   OH2 1208   5.292   0.590   4.398 -0.1032  0.1342  0.2954
  415TIP3    H1 1209   5.251   0.630   4.322  0.3857  0.5912  0.2608
  415TIP3    H2 1210   5.223   0.537   4.438 -0.2805 -0.3491 -0.6272
  416TIP3   OH2 1211   5.083   1.932   0.556  0.1027  0.0072  0.0597
  416TIP3    H1 1212   5.035   1.942   0.638 -1.0612  0.3056 -0.6422
  416TIP3    H2 1213   5.131   2.015   0.547 -0.6256  0.4179 -0.0969
  417TIP3   OH2 1214   0.683   2.470   2.259 -0.0152 -0.1336 -0.0449
  417TIP3    H1 1215   0.590   2.450   2.257  0.0262 -0.2980 -1.3674
  417TIP3    H2 1216   0.694   2.528   2.334 -0.9962 -0.9327  0.7450
  418TIP3   OH2 1217   4.321   4.855   1.831  0.2996  0.6274 -0.1993
  418TIP3    H1 1218   4.346   4.810   1.750  0.4580 -1.0334  0.7100
  418TIP3    H2 1219   4.382   4.928   1.837  3.5073 -1.8597  0.6739
  419TIP3   OH2 1220   3.473   6.740   5.768  0.0661 -0.3847  0.3815
  419TIP3    H1 1221   3.568   6.745   5.779  0.4538 -1.3261 -2.0006
  419TIP3    H2 1222   3.449   6.653   5.799  0.4433 -1.2086 -1.5130
  420TIP3   OH2 1223   1.449   0.412   3.233 -0.1266 -0.1881 -0.2326
  420TIP3    H1 1224   1.417   0.395   3.322  2.2338  0.6823  0.8797
  420TIP3    H2 1225   1.466   0.506   3.231  1.5189 -0.4647 -0.9717
  421TIP3   OH2 1226   6.618   0.796   1.568 -0.4011 -0.0199 -0.0179
  421TIP3    H1 1227   6.685   0.731   1.589  1.5760  2.5651  2.4150
  421TIP3    H2 1228   6.615   0.798   1.473  2.0154 -1.1877 -0.1822
  422TIP3   OH2 1229   1.010   2.044   4.544  0.1475  0.2736  0.4313
  422TIP3    H1 1230   0.941   2.046   4.477 -0.7190 -0.6834  1.2662
  422TIP3    H2 1231   0.965   2.020   4.625  1.3514  0.3556  1.1549
  423TIP3   OH2 1232   4.632   3.592   4.108 -0.6056  0.1946  0.3213
  423TIP3    H1 1233   4.671   3.555   4.187 -0.6232  0.5196  0.4856
  423TIP3    H2 1234   4.541   3.562   4.110 -0.9669  1.2725  1.1259
  424TIP3   OH2 1235   3.505   3.683   4.280  0.3482 -0.7126 -0.1671
  424TIP3    H1 1236   3.541   3.770   4.299  0.2395 -0.7216  0.0849
  424TIP3    H2 1237   3.427   3.677   4.335 -1.9449  0.5581 -3.0012
  425TIP3   OH2 1238   4.834   3.365   1.127  0.1850 -0.3100  0.2803
  425TIP3    H1 1239   4.842   3.453   1.166  1.4878 -0.1249 -0.3540
  425TIP3    H2 1240   4.745   3.362   1.093 -0.7086 -0.1449  2.4585
  426TIP3   OH2 1241   0.943   5.843   3.342  0.1943 -0.4579  0.6062
  426TIP3    H1 1242   0.976   5.825   3.430 -1.8199 -0.5556  1.3977
  426TIP3    H2 1243   1.021   5.866   3.291  1.4206 -0.5270  2.3691
  427TIP3   OH2 1244   6.766   5.784   2.194  0.3391  0.3255 -0.2244
  427TIP3    H1 1245   6.683   5.806   2.237 -1.0228 -0.8958 -2.0862
  427TIP3    H2 1246   6.832   5.798   2.262 -1.2812  1.9882  1.1209
  428TIP3   OH2 1247   0.514   0.968   3.559 -0.2510 -0.7300  0.0884
  428TIP3    H1 1248   0.420   0.965   3.577 -0.9058  0.6890 -2.4983
  428TIP3    H2 1249   0.522   1.027   3.484  2.2976 -3.6508 -2.2364
  429TIP3   OH2 1250   6.854   2.337   5.743 -0.3743  0.0354 -0.2275
  429TIP3    H1 1251   6.801   2.278   5.796  0.0026 -0.6209 -0.5606
  429TIP3    H2 1252   6.873   2.411   5.800  0.2967 -0.8051  0.6688
  430TIP3   OH2 1253   5.028   5.186   5.527 -0.6240  0.3882 -0.4046
  430TIP3    H1 1254   5.024   5.207   5.433 -0.1465 -2.5584 -1.1861
  430TIP3    H2 1255   4.936   5.178   5.552 -0.7685  1.5756 -0.4847
  431TIP3   OH2 1256   0.634   0.521   2.037  0.1687 -0.4101 -0.2450
  431TIP3    H1 1257   0.662   0.607   2.068 -3.0578  0.6141  0.2227
  431TIP3    H2 1258   0.697   0.498   1.969  1.8817  1.6966  0.5387
  432TIP3   OH2 1259   3.157   4.867   2.954 -0.2661 -0.1605  0.2166
  432TIP3    H1 1260   3.174   4.865   3.048 -1.9337  3.1657  0.7521
  432TIP3    H2 1261   3.243   4.855   2.914  0.5682 -1.1290  2.1502
  433TIP3   OH2 1262   2.508   4.006   4.682  0.3216 -0.3625  0.3931
  433TIP3    H1 1263   2.553   3.934   4.637 -0.3994 -0.7483  0.2701
  433TIP3    H2 1264   2.529   3.995   4.774  2.9794  1.2546  0.0762
  434TIP3   OH2 1265   2.680   6.298   5.260  0.4175  0.1482 -0.0266
  434TIP3    H1 1266   2.733   6.304   5.180 -0.3697 -0.8423 -0.6497
  434TIP3    H2 1267   2.591   6.285   5.228 -0.0140  0.4427  1.0193
  435TIP3   OH2 1268   2.265   0.087   5.507 -0.1025  0.2009  0.7519
  435TIP3    H1 1269   2.198   0.094   5.439  0.6455 -0.1828 -0.0428
  435TIP3    H2 1270   2.337   0.141   5.475  0.1891  0.1551  1.3283
  436TIP3   OH2 1271   1.648   4.026   1.674 -0.1856 -0.3862 -0.5158
  436TIP3    H1 1272   1.604   4.095   1.724  0.2320 -0.0642 -0.5861
  436TIP3    H2 1273   1.646   4.058   1.583  0.2101 -0.3514 -0.5169
  437TIP3   OH2 1274   2.910   1.082   0.533 -0.0590 -0.2989 -0.2172
  437TIP3    H1 1275   2.959   1.131   0.600  0.9754  0.6734 -1.6159
  437TIP3    H2 1276   2.943   1.116   0.450 -1.8164 -0.9511 -1.2413
  438TIP3   OH2 1277   4.198   1.428   1.147 -0.3912 -0.4204 -0.1149
  438TIP3    H1 1278   4.161   1.403   1.232  0.8476 -0.3837  0.4584
  438TIP3    H2 1279   4.284   1.386   1.146  0.9434  2.1127  0.0281
  439TIP3   OH2 1280   3.151   1.233   1.034 -0.0588  0.7592 -0.1206
  439TIP3    H1 1281   3.127   1.169   1.102  0.8368  0.2357 -0.2780
  439TIP3    H2 1282   3.114   1.197   0.954 -0.5601  1.0450 -0.0209
  440TIP3   OH2 1283   4.444   1.325   1.415 -0.1162  0.2933 -0.0280
  440TIP3    H1 1284   4.474   1.289   1.498  1.4414 -0.7996 -1.0065
  440TIP3    H2 1285   4.383   1.394   1.440 -0.1230 -0.3635  1.9980
  441TIP3   OH2 1286   4.886   0.600   0.452 -0.1352 -0.0298 -0.3232
  441TIP3    H1 1287   4.796   0.569   0.438 -0.6826  1.1557  0.3621
  441TIP3    H2 1288   4.879   0.696   0.446  1.6044  0.0362 -3.1116
  442TIP3   OH2 1289   6.478   5.562   2.029 -0.0166  0.0041 -0.4688
  442TIP3    H1 1290   6.445   5.650   2.048 -2.9446 -1.2950  1.1531
  442TIP3    H2 1291   6.481   5.558   1.934 -3.1573  0.8674 -0.7309
  443TIP3   OH2 1292   5.385   5.642   1.587 -0.5363 -0.6581 -0.7102
  443TIP3    H1 1293   5.325   5.596   1.645 -0.7828 -1.1696 -1.3616
  443TIP3    H2 1294   5.472   5.625   1.623 -0.5157 -2.5393 -1.5155
  444TIP3   OH2 1295   4.930   2.158   5.066 -0.3737 -0.5687 -0.2484
  444TIP3    H1 1296   4.839   2.146   5.093 -0.0932  1.1930  1.7824
  444TIP3    H2 1297   4.982   2.117   5.135  0.4096 -1.2189 -1.1919
  445TIP3   OH2 1298   1.764   1.337   2.701 -0.3776  0.5186  0.1509
  445TIP3    H1 1299   1.841   1.367   2.652 -0.1507  0.6978  0.6107
  445TIP3    H2 1300   1.695   1.400   2.677  0.1316  1.5138  1.2111
  446TIP3   OH2 1301   4.687   5.752   3.488 -0.1062 -0.1672 -0.5891
  446TIP3    H1 1302   4.697   5.723   3.579 -3.0877 -1.6456 -0.5908
  446TIP3    H2 1303   4.718   5.679   3.436 -0.7117 -0.3557 -0.6957
  447TIP3   OH2 1304   2.948   6.292   2.002 -0.2533  0.0869  0.0649
  447TIP3    H1 1305   2.961   6.300   2.097  0.1648  0.2907 -0.0062
  447TIP3    H2 1306   2.896   6.369   1.978 -0.4382 -0.0140  0.1452
  448TIP3   OH2 1307   6.512   5.496   3.864 -0.1897  0.7499 -0.2756
  448TIP3    H1 1308   6.593   5.499   3.812 -0.7913  1.1524 -1.2263
  448TIP3    H2 1309   6.532   5.438   3.937  0.7033  0.1855 -0.9510
  449TIP3   OH2 1310   0.852   1.213   5.570  0.2318 -0.2679 -0.3170
  449TIP3    H1 1311   0.906   1.275   5.619  1.7594 -1.0520 -0.9368
  449TIP3    H2 1312   0.859   1.131   5.619 -0.5150 -0.3433 -0.3342
  450TIP3   OH2 1313   0.180   5.139   2.531 -0.4669 -0.1840 -0.0714
  450TIP3    H1 1314   0.265   5.112   2.565 -0.2572 -1.4261 -1.4771
  450TIP3    H2 1315   0.125   5.061   2.542 -1.1662  0.3103 -0.0169
  451TIP3   OH2 1316   1.824   5.668   0.043 -0.3606 -0.3234  0.1461
  451TIP3    H1 1317   1.736   5.634   0.027 -0.3521 -1.9296  2.8349
  451TIP3    H2 1318   1.813   5.727   0.118  0.7200  0.3588 -0.2031
  452TIP3   OH2 1319   0.216   4.282   1.906 -0.6690 -0.3396 -0.1637
  452TIP3    H1 1320   0.125   4.254   1.919 -1.7065  1.5756 -2.3824
  452TIP3    H2 1321   0.257   4.271   1.991 -3.2604 -0.3575  1.1859
  453TIP3   OH2 1322   0.330   1.124   5.767  0.0251 -0.0789  0.6081
  453TIP3    H1 1323   0.271   1.128   5.691  0.3501 -2.6193  0.1376
  453TIP3    H2 1324   0.375   1.040   5.758  0.4863 -0.2075  3.3518
  454TIP3   OH2 1325   1.181   3.216   1.072 -0.1001  0.2634  0.0200
  454TIP3    H1 1326   1.111   3.230   1.136 -1.7892 -0.8882 -1.4958
  454TIP3    H2 1327   1.227   3.139   1.104 -1.7415 -1.0969 -0.7254
  455TIP3   OH2 1328   1.218   3.677   2.626 -0.3392  0.3091  0.2476
  455TIP3    H1 1329   1.148   3.668   2.691  1.5526 -1.5879  2.1932
  455TIP3    H2 1330   1.203   3.605   2.565 -0.5015  0.3324  0.2595
  456TIP3   OH2 1331   2.542   5.564   2.661  0.4310 -0.1006  0.0257
  456TIP3    H1 1332   2.533   5.638   2.722  2.3845 -0.4354  0.8001
  456TIP3    H2 1333   2.471   5.505   2.686  0.7474  0.0992  1.5434
  457TIP3   OH2 1334   7.150   2.202   0.584 -0.0775 -0.0492  0.2409
  457TIP3    H1 1335   7.235   2.241   0.564 -0.3054 -0.1900 -1.1523
  457TIP3    H2 1336   7.086   2.262   0.545 -0.4863 -1.1483 -0.8746
  458TIP3   OH2 1337   5.351   1.330   0.978 -0.0795 -0.1965  0.0326
  458TIP3    H1 1338   5.414   1.274   1.022 -1.2710 -0.0176  2.1164
  458TIP3    H2 1339   5.392   1.417   0.979 -0.2023 -0.1302  1.1484
  459TIP3   OH2 1340   2.580   1.940   5.046  0.0784 -0.1447 -0.1403
  459TIP3    H1 1341   2.646   1.940   5.115  0.1745 -1.3680 -0.2058
  459TIP3    H2 1342   2.518   2.008   5.071  1.3246  0.9954 -0.0439
  460TIP3   OH2 1343   6.681   3.703   3.594  0.1711  0.5715  0.2840
  460TIP3    H1 1344   6.746   3.692   3.664  0.6830 -0.6922 -0.3521
  460TIP3    H2 1345   6.597   3.692   3.637  0.5105 -2.0358  0.4866
  461TIP3   OH2 1346   3.598   4.411   2.061 -0.5245 -0.1289  0.2482
  461TIP3    H1 1347   3.635   4.324   2.047 -0.5963 -0.1596  0.2524
  461TIP3    H2 1348   3.540   4.425   1.986 -0.1340  0.1175 -0.0161
  462TIP3   OH2 1349   4.040   2.896   5.463  0.6630  0.3411 -0.1944
  462TIP3    H1 1350   3.961   2.915   5.412  1.0070 -1.2212 -1.3996
  462TIP3    H2 1351   4.097   2.848   5.402  1.4302 -0.9122  1.4311
  463TIP3   OH2 1352   2.696   4.325   2.150 -0.4962  0.3208  0.2896
  463TIP3    H1 1353   2.712   4.419   2.136  1.1078 -0.1580 -1.5612
  463TIP3    H2 1354   2.698   4.287   2.063 -2.8734 -1.2551  0.8265
  464TIP3   OH2 1355   2.254   0.826   2.454 -0.6194 -0.1668  0.2737
  464TIP3    H1 1356   2.340   0.793   2.426 -0.1885  0.0213  1.3259
  464TIP3    H2 1357   2.269   0.918   2.475 -1.3715  0.2033 -0.7340
  465TIP3   OH2 1358   3.526   6.234   4.184  0.4621 -0.6803  0.2588
  465TIP3    H1 1359   3.508   6.309   4.240  0.1319 -1.0852  0.7054
  465TIP3    H2 1360   3.622   6.229   4.180  0.4850 -0.3515  0.3743
  466TIP3   OH2 1361   0.678   5.459   4.348 -0.3034  0.5672 -0.0649
  466TIP3    H1 1362   0.739   5.386   4.360 -1.3716 -0.2556  0.5585
  466TIP3    H2 1363   0.733   5.531   4.319  0.8766 -0.3164 -0.1223
  467TIP3   OH2 1364   1.385   0.611   0.674 -0.0162  0.5329  0.1520
  467TIP3    H1 1365   1.342   0.693   0.651 -1.2700 -0.0405  0.3430
  467TIP3    H2 1366   1.314   0.555   0.707  1.1266  0.0600  1.9505
  468TIP3   OH2 1367   4.546   6.502   5.131 -0.1815  0.1250  0.5265
  468TIP3    H1 1368   4.573   6.413   5.151  1.3503  0.4779  0.1091
  468TIP3    H2 1369   4.625   6.555   5.142 -0.2415  0.9769 -2.3034
  469TIP3   OH2 1370   1.260   0.223   3.956 -0.0795 -0.0481 -0.1526
  469TIP3    H1 1371   1.301   0.231   3.869 -0.7998  0.6433 -0.4394
  469TIP3    H2 1372   1.167   0.236   3.940 -0.0137  2.5444  1.0175
  470TIP3   OH2 1373   0.522   4.887   2.803 -0.2061 -0.4129 -0.4452
  470TIP3    H1 1374   0.542   4.931   2.886 -0.0716  1.2717 -1.3342
  470TIP3    H2 1375   0.607   4.857   2.771 -0.1747 -0.4763 -0.3046
  471TIP3   OH2 1376   0.616   6.023   1.343  0.1291  0.9822  0.6801
  471TIP3    H1 1377   0.700   6.022   1.298  0.6784 -1.1179  1.6392
  471TIP3    H2 1378   0.560   5.965   1.292 -0.4246  1.5375  0.6391
  472TIP3   OH2 1379   5.722   0.674   5.143 -0.3126  0.4382  0.4000
  472TIP3    H1 1380   5.704   0.602   5.203 -2.2526 -0.0985 -0.7179
  472TIP3    H2 1381   5.763   0.632   5.067  0.0160  0.7568  0.3978
  473TIP3   OH2 1382   6.915   5.467   0.198 -0.2554 -0.3669 -0.3490
  473TIP3    H1 1383   6.838   5.477   0.144 -0.1297  1.0041 -0.3114
  473TIP3    H2 1384   6.899   5.387   0.248 -0.8351 -1.0746 -1.6217
  474TIP3   OH2 1385   0.722   4.652   3.372 -0.2120  0.0965 -0.3077
  474TIP3    H1 1386   0.791   4.617   3.429  0.7406  0.0172 -1.4960
  474TIP3    H2 1387   0.657   4.687   3.433  1.0904  0.6148  0.8226
  475TIP3   OH2 1388   5.930   2.886   5.725  0.2391  0.4109  0.0292
  475TIP3    H1 1389   5.961   2.916   5.811  2.4391 -0.2260 -0.4635
  475TIP3    H2 1390   5.931   2.790   5.732 -2.2195  0.3494  0.1218
  476TIP3   OH2 1391   3.821   2.895   0.421 -0.1118  0.1235  0.5482
  476TIP3    H1 1392   3.795   2.986   0.436  1.8820  1.0342 -1.0919
  476TIP3    H2 1393   3.858   2.866   0.504  0.3452  1.2240  0.7388
  477TIP3   OH2 1394   4.998   5.205   2.370  0.4905  0.6478  0.0784
  477TIP3    H1 1395   4.965   5.272   2.431 -1.1624  0.0826 -0.1337
  477TIP3    H2 1396   5.018   5.130   2.426  1.4146  0.9714  0.2003
  478TIP3   OH2 1397   2.779   4.580   4.724  0.5574  0.3629  0.1549
  478TIP3    H1 1398   2.751   4.631   4.800 -2.3373 -2.1440  1.0015
  478TIP3    H2 1399   2.785   4.490   4.756  2.2092 -0.3706 -1.9592
  479TIP3   OH2 1400   0.387   2.300   5.297  0.1489  0.5054  0.3108
  479TIP3    H1 1401   0.469   2.349   5.292 -0.5758  1.6672 -1.3642
  479TIP3    H2 1402   0.334   2.348   5.360 -0.3442  1.6226 -0.8999
  480TIP3   OH2 1403   5.710   5.421   4.114  0.0104  0.3024  0.6416
  480TIP3    H1 1404   5.661   5.410   4.033 -3.0207 -0.3144  2.4187
  480TIP3    H2 1405   5.760   5.502   4.102 -2.4112  1.6599 -0.8798
  481TIP3   OH2 1406   4.418   3.635   1.947  0.1727  0.6660  0.6905
  481TIP3    H1 1407   4.493   3.695   1.950 -0.1436  1.0810  0.4282
  481TIP3    H2 1408   4.403   3.611   2.038 -1.1467  2.8198  1.1071
  482TIP3   OH2 1409   3.613   4.933   5.235 -0.1556 -0.3013  0.3145
  482TIP3    H1 1410   3.643   4.842   5.225 -0.9507 -0.6690  1.1755
  482TIP3    H2 1411   3.676   4.984   5.183  1.6109 -1.0971  1.5533
  483TIP3   OH2 1412   0.069   6.166   5.192  0.3299 -0.4232 -0.0254
  483TIP3    H1 1413   0.084   6.221   5.115  0.4877 -1.4786 -0.7743
  483TIP3    H2 1414   0.145   6.108   5.195  0.4655 -0.2096  1.1080
  484TIP3   OH2 1415   6.675   1.866   0.728  0.2525  0.4050 -0.3004
  484TIP3    H1 1416   6.746   1.929   0.742 -0.1421  0.8354 -0.2014
  484TIP3    H2 1417   6.633   1.894   0.647  1.0176 -0.6435 -1.0898
  485TIP3   OH2 1418   3.950   1.177   2.485 -0.5649  0.3242  0.1942
  485TIP3    H1 1419   4.008   1.214   2.551  0.9115 -2.5272  0.6193
  485TIP3    H2 1420   3.869   1.157   2.532  0.2624 -1.1366  1.0413
  486TIP3   OH2 1421   3.028   1.745   5.888  0.1160  0.3723 -0.2193
  486TIP3    H1 1422   3.115   1.745   5.847  1.4668 -0.7928  2.4147
  486TIP3    H2 1423   2.991   1.660   5.863 -0.6370  1.1365 -1.8968
  487TIP3   OH2 1424   2.173   6.758   2.089  0.1461 -0.3197 -0.2371
  487TIP3    H1 1425   2.145   6.667   2.103  2.3222 -1.0527 -0.2296
  487TIP3    H2 1426   2.123   6.808   2.153 -0.6352 -1.6147  0.2047
  488TIP3   OH2 1427   4.896   2.814   2.794 -0.3949 -0.5320 -0.1980
  488TIP3    H1 1428   4.914   2.746   2.728  0.3015  0.2462 -0.8284
  488TIP3    H2 1429   4.915   2.771   2.877  1.2709 -0.7777 -0.6464
  489TIP3   OH2 1430   5.628   5.995   5.844  0.1344 -0.7595 -0.3483
  489TIP3    H1 1431   5.566   6.006   5.916 -0.8640 -0.6128 -1.2034
  489TIP3    H2 1432   5.690   6.066   5.855  0.4857 -1.2301  0.8407
  490TIP3   OH2 1433   5.656   0.898   2.363  0.0067  0.2057  0.6226
  490TIP3    H1 1434   5.700   0.813   2.362  2.4869  1.3699 -1.0325
  490TIP3    H2 1435   5.570   0.881   2.400  0.0508 -3.2027 -0.5237
  491TIP3   OH2 1436   6.101   3.223   1.597 -0.2569  0.6654  0.2808
  491TIP3    H1 1437   6.024   3.214   1.652 -0.2344  0.7957  0.3348
  491TIP3    H2 1438   6.069   3.263   1.516 -0.4800 -0.5314 -0.2409
  492TIP3   OH2 1439   6.025   1.092   2.480 -0.6201  0.1449 -0.3374
  492TIP3    H1 1440   5.968   1.116   2.552 -0.5097  2.1144 -0.8607
  492TIP3    H2 1441   6.113   1.089   2.518 -0.3984  2.3150 -0.5516
  493TIP3   OH2 1442   3.057   0.004   0.061  0.6596  0.9798  0.5460
  493TIP3    H1 1443   2.965   0.004   0.034  0.8609 -0.3986 -0.2361
  493TIP3    H2 1444   3.094   0.081   0.019  0.0727  0.9952  0.0417
  494TIP3   OH2 1445   0.822   4.725   1.019 -0.1764 -0.4691 -0.3601
  494TIP3    H1 1446   0.910   4.696   0.995 -0.5529 -0.8190 -1.3776
  494TIP3    H2 1447   0.836   4.804   1.070  0.7438 -0.6619 -0.2977
  495TIP3   OH2 1448   0.639   1.874   2.189 -0.2378 -0.2885  0.2023
  495TIP3    H1 1449   0.641   1.870   2.094 -2.0561 -2.0266  0.1857
  495TIP3    H2 1450   0.561   1.926   2.210 -0.7633 -1.2639  0.7271
  496TIP3   OH2 1451   2.917   4.434   0.260  0.3692  0.2237  0.2696
  496TIP3    H1 1452   2.896   4.527   0.269  1.5050  0.3682  1.9184
  496TIP3    H2 1453   2.839   4.395   0.220  0.2783  2.0320 -1.5112
  497TIP3   OH2 1454   6.476   2.562   1.744 -0.5812 -0.2460 -0.2555
  497TIP3    H1 1455   6.557   2.530   1.783 -0.4030  0.5994  0.1131
  497TIP3    H2 1456   6.448   2.493   1.684  1.0465 -0.0650 -1.2993
  498TIP3   OH2 1457   1.745   4.562   2.304 -0.3851  0.0846  0.0578
  498TIP3    H1 1458   1.652   4.582   2.299 -0.4069 -0.2805 -1.3675
  498TIP3    H2 1459   1.761   4.547   2.397 -1.5947  0.8287  0.4117
  499TIP3   OH2 1460   7.232   3.751   0.933 -0.5782  0.1351  0.1977
  499TIP3    H1 1461   7.153   3.761   0.987 -1.3503  0.3539 -0.9314
  499TIP3    H2 1462   7.220   3.814   0.861  2.2126  2.6994  1.7288
  500TIP3   OH2 1463   4.724   0.090   5.670 -0.0827  0.2310 -0.4808
  500TIP3    H1 1464   4.768   0.018   5.625 -1.1929 -0.3783 -0.6293
  500TIP3    H2 1465   4.757   0.087   5.759  1.3426  0.7799 -0.9672
  501TIP3   OH2 1466   6.157   3.639   1.239  0.1528 -0.5482  0.4068
  501TIP3    H1 1467   6.139   3.726   1.205  1.0829 -0.2405  0.6802
  501TIP3    H2 1468   6.151   3.582   1.162  0.0035 -0.1818  0.1428
  502TIP3   OH2 1469   2.953   2.356   0.006 -0.3115  0.3673  0.2442
  502TIP3    H1 1470   2.988   2.284   0.058  1.0134  0.8955  0.1053
  502TIP3    H2 1471   2.962   2.433   0.062 -0.3792  0.6695 -0.1549
  503TIP3   OH2 1472   4.466   1.197   0.202  0.0608  0.3497  0.5907
  503TIP3    H1 1473   4.500   1.123   0.152 -1.1721  0.6276 -0.7272
  503TIP3    H2 1474   4.372   1.181   0.208 -0.0914  1.3376  1.0858
  504TIP3   OH2 1475   2.192   4.398   5.768  0.7816  0.1872 -0.2688
  504TIP3    H1 1476   2.180   4.392   5.863 -0.7133  1.5192 -0.3375
  504TIP3    H2 1477   2.187   4.308   5.738  1.8872 -0.3264  0.9611
  505TIP3   OH2 1478   1.290   3.271   0.534  0.5270  0.1224  0.5696
  505TIP3    H1 1479   1.330   3.187   0.557  2.3934  0.2019 -1.9347
  505TIP3    H2 1480   1.360   3.335   0.548 -0.1778  0.9500  0.3535
  506TIP3   OH2 1481   0.330   3.046   3.138 -0.2713  0.6206 -0.1436
  506TIP3    H1 1482   0.306   3.016   3.226  0.5002  0.5141  0.0338
  506TIP3    H2 1483   0.396   3.113   3.153  2.3581 -1.6583 -0.7010
  507TIP3   OH2 1484   2.197   3.549   2.657  0.6089  0.5585  0.0519
  507TIP3    H1 1485   2.284   3.515   2.676  1.5611  1.8218 -1.7959
  507TIP3    H2 1486   2.167   3.500   2.581 -1.3479 -1.4439  1.9325
  508TIP3   OH2 1487   4.466   0.946   0.583 -0.2267  0.5823 -0.2493
  508TIP3    H1 1488   4.440   0.864   0.626 -1.6451  1.9072  1.5656
  508TIP3    H2 1489   4.443   1.014   0.645  0.3041  2.4416 -1.9842
  509TIP3   OH2 1490   3.898   1.587   2.664  0.0997  0.4523 -0.4316
  509TIP3    H1 1491   3.896   1.671   2.710  0.4953  0.9777 -1.3375
  509TIP3    H2 1492   3.838   1.599   2.590 -0.3974 -0.3154 -0.1606
  510TIP3   OH2 1493   5.526   3.862   2.394 -1.0810  0.1394 -0.0786
  510TIP3    H1 1494   5.449   3.805   2.387 -2.1530  0.9705  3.0998
  510TIP3    H2 1495   5.583   3.819   2.457  0.3346  0.3471 -1.1707
  511TIP3   OH2 1496   5.481   3.590   5.519 -0.9764 -0.2957 -0.3169
  511TIP3    H1 1497   5.411   3.606   5.456 -0.8202  0.5758 -0.2888
  511TIP3    H2 1498   5.506   3.678   5.549  0.5647 -0.5347 -0.8212
  512TIP3   OH2 1499   3.629   1.563   3.556  0.0452  0.2162 -0.0589
  512TIP3    H1 1500   3.604   1.621   3.484 -1.2525 -0.9216 -0.5709
  512TIP3    H2 1501   3.601   1.609   3.635 -0.6304  0.4674 -0.4332
  513TIP3   OH2 1502   6.444   4.145   1.781 -0.1640 -0.5926  0.1734
  513TIP3    H1 1503   6.381   4.203   1.738 -0.4261 -0.1463  1.1264
  513TIP3    H2 1504   6.524   4.153   1.729 -0.0265  1.0744  0.5841
  514TIP3   OH2 1505   0.749   5.050   1.905 -0.3789  0.6887 -0.7176
  514TIP3    H1 1506   0.788   5.076   1.988  0.7922 -2.0568 -0.2897
  514TIP3    H2 1507   0.656   5.071   1.914 -0.3499  0.1008  1.4810
  515TIP3   OH2 1508   1.353   2.480   0.837  0.0198  0.1198 -0.5881
  515TIP3    H1 1509   1.271   2.520   0.808  0.3763  0.0845 -1.6881
  515TIP3    H2 1510   1.409   2.481   0.759  0.4314 -1.5024 -0.3561
  516TIP3   OH2 1511   6.144   1.901   1.944  0.5020 -0.0651 -0.2826
  516TIP3    H1 1512   6.054   1.933   1.944  0.3138 -0.2482  3.1621
  516TIP3    H2 1513   6.193   1.967   1.894 -1.4372  0.0919 -2.1183
  517TIP3   OH2 1514   6.200   4.243   3.882 -0.0072 -0.6215 -0.2734
  517TIP3    H1 1515   6.195   4.322   3.827 -0.5897 -0.1216  0.4715
  517TIP3    H2 1516   6.291   4.215   3.876  0.1958  0.0803 -0.5850
  518TIP3   OH2 1517   6.425   2.572   2.351  0.3383  0.1785  0.8192
  518TIP3    H1 1518   6.457   2.559   2.441 -0.7014 -0.0878  1.1686
  518TIP3    H2 1519   6.392   2.486   2.325 -0.8655  0.6244  0.8043
  519TIP3   OH2 1520   3.282   5.595   3.984 -0.2067 -0.4474 -0.2973
  519TIP3    H1 1521   3.229   5.543   3.924 -0.2020 -0.2568 -0.4706
  519TIP3    H2 1522   3.335   5.651   3.926  0.1094 -0.5651 -0.1254
  520TIP3   OH2 1523   5.967   6.467   3.143  0.1214  0.1595 -0.3357
  520TIP3    H1 1524   6.030   6.516   3.089 -1.9344  2.4521 -0.8219
  520TIP3    H2 1525   5.903   6.434   3.080  0.4457 -1.6871  0.2217
  521TIP3   OH2 1526   0.773   3.108   5.255 -0.2466 -0.1016  0.7432
  521TIP3    H1 1527   0.728   3.061   5.184 -0.0489 -0.5430  0.9014
  521TIP3    H2 1528   0.709   3.170   5.288  0.4663  2.0061 -1.5459
  522TIP3   OH2 1529   6.096   6.656   5.201  0.1700  0.5586 -0.0123
  522TIP3    H1 1530   6.040   6.721   5.243 -0.1316  0.5971 -0.4701
  522TIP3    H2 1531   6.098   6.582   5.263  0.6851  1.0755  0.6114
  523TIP3   OH2 1532   6.563   2.670   4.475  0.4295  0.3496  0.2936
  523TIP3    H1 1533   6.648   2.627   4.486  1.1064  1.6734  0.4485
  523TIP3    H2 1534   6.528   2.634   4.394  0.8554 -0.6561  0.5423
  524TIP3   OH2 1535   3.222   0.977   4.072  0.2817 -0.8475  0.3026
  524TIP3    H1 1536   3.129   0.987   4.091  0.0571 -1.5754 -0.3393
  524TIP3    H2 1537   3.241   0.887   4.096  1.2208 -0.2273  1.9782
  525TIP3   OH2 1538   2.157   6.436   5.003 -0.3103 -0.5832 -0.2011
  525TIP3    H1 1539   2.073   6.422   5.048 -0.2391  1.2232  0.5667
  525TIP3    H2 1540   2.185   6.348   4.979 -0.9851 -1.5338  2.1664
  526TIP3   OH2 1541   5.347   0.228   1.458  0.5768  0.0429 -0.8310
  526TIP3    H1 1542   5.434   0.241   1.496  0.2107  0.1443 -0.0097
  526TIP3    H2 1543   5.292   0.294   1.500 -0.4842 -1.6884  0.6695
  527TIP3   OH2 1544   6.578   2.839   2.928 -0.1247 -0.7361 -0.0158
  527TIP3    H1 1545   6.664   2.872   2.951  0.5792 -1.7534 -1.0733
  527TIP3    H2 1546   6.542   2.804   3.010 -0.7189  2.1185  1.0465
  528TIP3   OH2 1547   5.234   0.253   4.192  0.0079  0.0678  0.1531
  528TIP3    H1 1548   5.305   0.244   4.256  0.2796  0.3224 -0.1060
  528TIP3    H2 1549   5.209   0.345   4.199 -1.3444 -0.3594  1.3351
  529TIP3   OH2 1550   3.187   5.476   0.220 -0.8120  0.6687 -0.7246
  529TIP3    H1 1551   3.200   5.532   0.144  0.3991 -1.2067 -1.9694
  529TIP3    H2 1552   3.092   5.475   0.232 -1.0510  0.8369 -2.3525
  530TIP3   OH2 1553   2.324   6.370   2.193 -0.2936 -0.3151 -0.5322
  530TIP3    H1 1554   2.283   6.428   2.257  2.4127 -1.7146  2.7838
  530TIP3    H2 1555   2.263   6.297   2.184 -0.1181 -0.8271  1.7834
  531TIP3   OH2 1556   5.048   1.761   5.518 -0.3494 -0.2281  0.2343
  531TIP3    H1 1557   5.088   1.844   5.544 -1.0343 -0.1724  1.1551
  531TIP3    H2 1558   4.964   1.785   5.480 -0.1177 -0.4380 -0.4204
  532TIP3   OH2 1559   6.722   3.617   4.385 -0.2355 -0.1260 -0.1857
  532TIP3    H1 1560   6.790   3.554   4.361  0.0459  0.2351 -0.3578
  532TIP3    H2 1561   6.655   3.565   4.428 -0.0025 -0.5411 -0.3172
  533TIP3   OH2 1562   5.831   2.266   2.877  0.0823  0.1563 -0.2200
  533TIP3    H1 1563   5.857   2.275   2.785  0.6480 -0.1488 -0.0887
  533TIP3    H2 1564   5.803   2.354   2.902 -3.3588 -0.3286 -1.6609
  534TIP3   OH2 1565   6.382   6.086   5.440 -0.0377  0.2132 -0.0618
  534TIP3    H1 1566   6.465   6.052   5.473  0.2768  0.8328 -0.1949
  534TIP3    H2 1567   6.317   6.059   5.504  0.0314 -1.4922 -0.6574
  535TIP3   OH2 1568   0.055   1.441   2.146 -0.3398 -0.0066 -0.0507
  535TIP3    H1 1569   0.030   1.493   2.222 -1.4089 -0.0008 -0.3916
  535TIP3    H2 1570  -0.010   1.463   2.079 -0.8097 -1.7566 -0.2201
  536TIP3   OH2 1571   5.435   3.412   1.632  0.0738 -0.1375 -0.1125
  536TIP3    H1 1572   5.385   3.493   1.630  1.0713  0.4986 -0.0729
  536TIP3    H2 1573   5.517   3.435   1.676 -0.6852 -1.7884  2.4387
  537TIP3   OH2 1574   2.128   0.865   2.223 -0.3368  0.3693  0.1705
  537TIP3    H1 1575   2.130   0.869   2.319  1.3114 -0.9048  0.2432
  537TIP3    H2 1576   2.169   0.781   2.203  1.1353  1.4864 -1.7168
  538TIP3   OH2 1577   5.851   3.876   5.690 -0.3816  0.5935 -0.1291
  538TIP3    H1 1578   5.806   3.892   5.607  1.0440 -2.2980 -1.6050
  538TIP3    H2 1579   5.938   3.913   5.678 -0.2560  0.4065  0.1842
  539TIP3   OH2 1580   2.658   4.674   0.694 -0.1582 -0.0873  0.7969
  539TIP3    H1 1581   2.699   4.614   0.632  0.9330  0.2036  1.2212
  539TIP3    H2 1582   2.718   4.749   0.699 -1.2654  0.8498  0.6155
  540TIP3   OH2 1583   4.499   4.551   3.267  0.4454  0.1936 -0.2367
  540TIP3    H1 1584   4.568   4.581   3.327  0.9770 -0.9795 -0.2397
  540TIP3    H2 1585   4.503   4.456   3.271 -0.1572  0.0997 -1.4194
  541TIP3   OH2 1586   3.443   2.368   3.830  0.4844 -0.1864 -0.1072
  541TIP3    H1 1587   3.478   2.415   3.906 -1.1278  0.8796  0.0344
  541TIP3    H2 1588   3.430   2.279   3.861 -0.4688  0.3106  1.0265
  542TIP3   OH2 1589   4.532   2.892   4.104 -0.1930  0.0087 -0.1762
  542TIP3    H1 1590   4.594   2.962   4.084  1.7356 -0.5340  3.1406
  542TIP3    H2 1591   4.568   2.815   4.061 -0.5125  0.3464 -1.0834
  543TIP3   OH2 1592   3.426   3.851   3.759  0.0952 -0.5137  0.3783
  543TIP3    H1 1593   3.356   3.827   3.821 -0.8003 -1.2639 -0.8622
  543TIP3    H2 1594   3.386   3.839   3.673  1.4710 -0.0064 -0.3575
  544TIP3   OH2 1595   3.916   0.691   1.590  0.2556  0.1375  0.3238
  544TIP3    H1 1596   3.932   0.781   1.616  0.1924 -0.1454  1.3925
  544TIP3    H2 1597   3.943   0.639   1.666 -1.2778 -0.6318  0.3785
  545TIP3   OH2 1598   6.551   2.405   4.585  0.4509 -0.6354 -0.6415
  545TIP3    H1 1599   6.534   2.315   4.612  1.7661 -0.4054  1.1665
  545TIP3    H2 1600   6.499   2.417   4.506  0.7699 -3.2006 -1.3341
  546TIP3   OH2 1601   2.062   5.007   2.238  0.5470  0.0060  0.5038
  546TIP3    H1 1602   2.076   4.970   2.151  1.2474  1.1630  0.1038
  546TIP3    H2 1603   1.997   5.077   2.225  0.1350 -0.2646  1.0389
  547TIP3   OH2 1604   0.418   1.958   4.558 -0.3641 -0.5735 -0.0899
  547TIP3    H1 1605   0.388   1.906   4.633 -1.4728  0.0394 -0.0839
  547TIP3    H2 1606   0.379   2.045   4.572  1.6541  0.3664  0.0396
  548TIP3   OH2 1607   4.703   0.763   3.854 -0.4640  0.1048 -0.9475
  548TIP3    H1 1608   4.720   0.818   3.931  0.1786 -4.5546  2.7293
  548TIP3    H2 1609   4.608   0.752   3.854 -0.3956 -0.6532 -0.0872
  549TIP3   OH2 1610   3.721   4.732   2.668  0.1874 -0.6425 -0.3862
  549TIP3    H1 1611   3.626   4.724   2.654  0.0248 -1.9875  1.2113
  549TIP3    H2 1612   3.731   4.734   2.763  1.5628  3.0211 -0.4499
  550TIP3   OH2 1613   3.958   6.207   0.308  0.5356  0.2569  0.0066
  550TIP3    H1 1614   3.962   6.255   0.391  2.2961 -0.3743  0.3335
  550TIP3    H2 1615   4.009   6.261   0.247  0.5904 -0.0647 -0.2356
  551TIP3   OH2 1616   0.471   5.457   4.081 -0.3036 -0.1023  0.0624
  551TIP3    H1 1617   0.402   5.483   4.019 -0.5707 -1.2461 -0.1488
  551TIP3    H2 1618   0.466   5.522   4.151 -0.4308  0.8360 -0.7955
  552TIP3   OH2 1619   0.105   4.948   1.757 -0.0403 -0.2156  0.7698
  552TIP3    H1 1620   0.066   4.900   1.684 -0.1390  1.8032 -0.5838
  552TIP3    H2 1621   0.030   4.977   1.809 -0.0592 -0.2527  0.7636
  553TIP3   OH2 1622   5.948   0.019   0.123  0.3852 -0.0285  0.0841
  553TIP3    H1 1623   5.969   0.098   0.073  2.0967 -0.2298  0.4258
  553TIP3    H2 1624   5.957   0.046   0.214 -1.9059  0.1165  0.3248
  554TIP3   OH2 1625   0.896   1.013   1.182  0.0218  0.1415 -0.2270
  554TIP3    H1 1626   0.861   1.054   1.261 -0.4668 -1.3338  0.3723
  554TIP3    H2 1627   0.972   0.963   1.212  0.7408  0.7559 -0.9691
  555TIP3   OH2 1628   5.589   3.259   0.865 -0.3512 -0.2997  0.5496
  555TIP3    H1 1629   5.608   3.259   0.771 -1.7972  2.0078  0.1767
  555TIP3    H2 1630   5.507   3.210   0.873 -0.8320  0.4652  0.4227
  556TIP3   OH2 1631   0.472   2.844   5.867  0.3839 -0.2929 -0.0216
  556TIP3    H1 1632   0.467   2.929   5.822  0.9621 -0.5798 -0.6289
  556TIP3    H2 1633   0.530   2.860   5.941  0.8118 -0.2620 -0.3637
  557TIP3   OH2 1634   6.664   0.908   4.750  0.3567 -0.8422  0.0353
  557TIP3    H1 1635   6.717   0.975   4.707 -1.2615  0.2662 -0.3014
  557TIP3    H2 1636   6.712   0.826   4.735  1.5055 -0.0114 -1.0024
  558TIP3   OH2 1637   4.104   6.297   1.728 -0.2082  0.0747 -0.0478
  558TIP3    H1 1638   4.083   6.285   1.820  0.3875  0.7416  0.1868
  558TIP3    H2 1639   4.108   6.392   1.716  2.9572  0.0855  0.0545
  559TIP3   OH2 1640   2.741   0.168   2.021 -0.3822 -0.3866 -0.2198
  559TIP3    H1 1641   2.747   0.258   1.988 -0.8289 -0.4690 -0.5404
  559TIP3    H2 1642   2.715   0.116   1.945 -1.0030 -0.6460  0.1561
  560TIP3   OH2 1643   1.078   3.697   2.262 -0.0321  0.0354 -0.2420
  560TIP3    H1 1644   0.998   3.645   2.255 -1.4425  1.9187  0.8071
  560TIP3    H2 1645   1.115   3.673   2.347  0.6747 -1.0234 -0.8397
  561TIP3   OH2 1646   1.176   5.836   4.261 -0.2885  0.4108 -0.4627
  561TIP3    H1 1647   1.085   5.843   4.233 -0.7451 -1.0084  0.5263
  561TIP3    H2 1648   1.215   5.921   4.239 -1.6055  0.7304 -1.7048
  562TIP3   OH2 1649   2.724   1.416   1.677  0.0969  0.0930  0.3094
  562TIP3    H1 1650   2.767   1.492   1.637 -2.0241  0.8641 -0.6590
  562TIP3    H2 1651   2.631   1.436   1.674 -0.5946 -2.7170 -0.3363
  563TIP3   OH2 1652   4.507   4.268   4.870 -0.3114 -0.3794  0.3229
  563TIP3    H1 1653   4.572   4.335   4.849 -0.6618 -0.0429  0.2987
  563TIP3    H2 1654   4.442   4.313   4.924  0.7060 -1.2939  2.4173
  564TIP3   OH2 1655   6.528   5.235   0.857 -0.5534 -0.6359  0.1614
  564TIP3    H1 1656   6.580   5.314   0.874 -1.0423 -0.3990  0.5792
  564TIP3    H2 1657   6.585   5.181   0.803 -0.7662  0.6502 -1.4384
  565TIP3   OH2 1658   0.218   2.044   5.343 -0.6559  0.3290 -0.1556
  565TIP3    H1 1659   0.235   2.090   5.426  1.6431 -0.3828 -0.1484
  565TIP3    H2 1660   0.285   2.078   5.284 -1.5632 -0.0045 -1.4131
  566TIP3   OH2 1661   4.151   1.735   0.453 -0.3291  0.0268  0.2367
  566TIP3    H1 1662   4.092   1.756   0.525 -0.9402 -1.7217  0.2804
  566TIP3    H2 1663   4.113   1.779   0.377 -0.0114  1.3742  0.8210
  567TIP3   OH2 1664   5.719   2.796   4.369 -0.4829 -0.4239  0.6693
  567TIP3    H1 1665   5.789   2.852   4.400 -0.5977 -0.1695  0.4697
  567TIP3    H2 1666   5.761   2.712   4.352  0.0380  0.1005 -0.7189
  568TIP3   OH2 1667   6.143   2.347   5.214 -0.4247 -0.2048  0.0297
  568TIP3    H1 1668   6.109   2.380   5.297  0.8417  0.0921  0.4635
  568TIP3    H2 1669   6.095   2.395   5.147  1.3396  2.6953  0.6138
  569TIP3   OH2 1670   0.261   0.577   1.813 -0.5772  0.6546 -0.0198
  569TIP3    H1 1671   0.322   0.509   1.783  0.1428  1.3975 -0.2688
  569TIP3    H2 1672   0.251   0.560   1.907 -1.6540 -0.7567 -0.3558
  570TIP3   OH2 1673   4.096   0.015   5.183  0.7195 -0.1152 -0.7042
  570TIP3    H1 1674   4.166   0.064   5.227 -0.0541  1.6843 -1.3697
  570TIP3    H2 1675   4.037  -0.011   5.253  0.5759  0.9036 -0.4272
  571TIP3   OH2 1676   5.100   0.083   0.061 -0.3409  0.2561  0.0290
  571TIP3    H1 1677   5.037   0.143   0.021  0.8415  0.6659 -1.2991
  571TIP3    H2 1678   5.049   0.034   0.126 -1.4306  2.3927  0.8712
  572TIP3   OH2 1679   0.072   5.143   5.553 -0.3639 -0.5301  0.1042
  572TIP3    H1 1680   0.114   5.201   5.489 -2.5376 -0.4482 -1.3812
  572TIP3    H2 1681  -0.010   5.186   5.574 -1.0138 -1.9784  0.6918
  573TIP3   OH2 1682   7.008   1.102   2.867 -0.1760  0.1121  0.1651
  573TIP3    H1 1683   7.058   1.143   2.937 -1.1907 -0.6262  1.3587
  573TIP3    H2 1684   6.927   1.153   2.863  0.7340  1.5581 -2.0202
  574TIP3   OH2 1685   6.133   1.652   1.319 -0.8891 -0.4404 -0.3935
  574TIP3    H1 1686   6.152   1.705   1.242 -0.6526 -0.5255 -0.3952
  574TIP3    H2 1687   6.063   1.700   1.364 -1.0001 -0.3708 -0.6378
  575TIP3   OH2 1688   5.993   5.359   1.535  0.0048 -0.5973  0.6664
  575TIP3    H1 1689   6.010   5.413   1.612  0.6548  2.2260 -1.2889
  575TIP3    H2 1690   5.905   5.384   1.507 -0.1641 -1.4801  0.3776
  576TIP3   OH2 1691   7.046   0.685   1.344  0.3740 -0.0226  0.0602
  576TIP3    H1 1692   6.965   0.736   1.334 -1.0849 -2.4065 -1.1846
  576TIP3    H2 1693   7.046   0.658   1.436 -1.1246 -1.2326 -0.2381
  577TIP3   OH2 1694   4.678   4.464   5.863 -0.0923 -0.0948 -0.5979
  577TIP3    H1 1695   4.651   4.410   5.788 -0.2331 -0.8217 -0.0374
  577TIP3    H2 1696   4.724   4.538   5.824  0.2731 -0.7181 -1.3771
  578TIP3   OH2 1697   5.320   2.200   5.793  0.0593 -0.8158 -0.0848
  578TIP3    H1 1698   5.228   2.183   5.815 -0.0411 -0.0174  0.1351
  578TIP3    H2 1699   5.329   2.295   5.800  1.1861 -0.9828  1.0160
  579TIP3   OH2 1700   7.036   2.465   2.403  0.0950  0.4985 -0.5449
  579TIP3    H1 1701   7.103   2.463   2.471  0.1696  0.0283 -0.6297
  579TIP3    H2 1702   7.042   2.553   2.366 -2.4739  2.1995  2.5464
  580TIP3   OH2 1703   5.959   3.253   3.081 -0.0630  0.1917 -0.4087
  580TIP3    H1 1704   5.880   3.220   3.125 -0.3687  0.5290 -0.6953
  580TIP3    H2 1705   5.925   3.309   3.011  0.4123 -0.4906 -1.1997
  581TIP3   OH2 1706   4.895   5.468   0.514 -0.0169  0.1133 -0.4304
  581TIP3    H1 1707   4.958   5.487   0.584 -1.3007 -0.1629  0.8397
  581TIP3    H2 1708   4.843   5.548   0.506  0.4459  0.3388 -1.4731
  582TIP3   OH2 1709   2.037   1.926   0.551  0.4085  0.0166 -0.2792
  582TIP3    H1 1710   2.114   1.919   0.608  0.1913 -1.1568 -0.0888
  582TIP3    H2 1711   1.983   1.850   0.576  0.8408 -1.2316 -2.8306
  583TIP3   OH2 1712   3.467   4.255   5.118  0.3349 -0.3911  0.4512
  583TIP3    H1 1713   3.416   4.185   5.078  0.9541 -1.6449  1.8062
  583TIP3    H2 1714   3.402   4.321   5.143 -0.1485  0.1318 -1.8811
  584TIP3   OH2 1715   2.415   5.346   5.393  0.1237 -0.7793  0.7400
  584TIP3    H1 1716   2.329   5.323   5.357  0.8481 -1.6667 -0.5122
  584TIP3    H2 1717   2.472   5.349   5.317  0.8528  1.7427  1.2829
  585TIP3   OH2 1718   4.874   0.582   1.643 -0.1085  0.9176 -0.8804
  585TIP3    H1 1719   4.902   0.614   1.557  1.4243  3.2774  0.3872
  585TIP3    H2 1720   4.807   0.645   1.671  1.1655  1.6784  0.6225
  586TIP3   OH2 1721   4.804   0.211   2.822 -0.0785 -0.0322 -0.3323
  586TIP3    H1 1722   4.865   0.216   2.896 -0.7120  1.4594  0.1371
  586TIP3    H2 1723   4.765   0.124   2.829  0.8865 -0.4453  0.2377
  587TIP3   OH2 1724   5.554   4.989   2.850 -0.0278 -0.0201 -0.0287
  587TIP3    H1 1725   5.598   4.906   2.829 -1.5028 -0.8767  0.1105
  587TIP3    H2 1726   5.588   5.013   2.935  0.8762 -0.1610 -0.3425
  588TIP3   OH2 1727   0.875   3.990   3.721 -0.0702  0.0822 -0.4582
  588TIP3    H1 1728   0.938   3.932   3.765 -1.9694 -1.1898  0.7039
  588TIP3    H2 1729   0.916   4.076   3.726  0.2427 -0.1122  3.1263
  589TIP3   OH2 1730   2.133   0.360   3.192 -0.0638 -0.4309  0.3660
  589TIP3    H1 1731   2.068   0.423   3.223 -0.0184 -0.2642  0.1296
  589TIP3    H2 1732   2.217   0.401   3.210 -0.0446  0.2333 -1.0903
  590TIP3   OH2 1733   5.977   2.886   4.363 -0.3429  0.2638  0.3405
  590TIP3    H1 1734   6.059   2.889   4.314 -0.6670  0.2737 -0.2124
  590TIP3    H2 1735   5.941   2.974   4.355 -1.3747 -0.2619 -1.1182
  591TIP3   OH2 1736   5.356   4.475   5.075 -0.1029 -0.2750  0.3834
  591TIP3    H1 1737   5.350   4.381   5.056  0.0038 -0.7880  2.5555
  591TIP3    H2 1738   5.328   4.482   5.167  2.1992  1.4797  1.0529
  592TIP3   OH2 1739   3.008   2.083   5.612 -0.1841  0.0965 -0.3677
  592TIP3    H1 1740   2.988   2.171   5.644 -0.3942  0.0267 -0.2997
  592TIP3    H2 1741   2.927   2.034   5.627  0.5163 -0.6072  1.3282
  593TIP3   OH2 1742   7.010   3.624   2.896  0.3132 -0.1657 -0.3429
  593TIP3    H1 1743   6.916   3.614   2.911  0.3562 -0.9688 -0.5817
  593TIP3    H2 1744   7.035   3.697   2.952 -0.4767  0.1413 -0.3755
  594TIP3   OH2 1745   1.754   4.982   4.095 -0.1813 -1.0622 -0.2079
  594TIP3    H1 1746   1.702   4.994   4.016 -1.0406  2.0966  0.6576
  594TIP3    H2 1747   1.843   5.003   4.069 -0.3256 -0.8395 -0.5256
  595TIP3   OH2 1748   4.304   5.693   5.512  0.2404  0.2717 -0.1743
  595TIP3    H1 1749   4.245   5.617   5.515  0.2466  0.2869  0.8964
  595TIP3    H2 1750   4.286   5.740   5.593  1.6172  0.3578  0.1056
  596TIP3   OH2 1751   5.094   4.123   4.857 -0.0582  0.7867 -0.0882
  596TIP3    H1 1752   5.134   4.203   4.891  0.1779  0.7948 -0.3806
  596TIP3    H2 1753   5.002   4.129   4.883  0.0959  0.8383  0.4630
  597TIP3   OH2 1754   3.990   4.157   5.248 -0.2845 -0.5310  0.4155
  597TIP3    H1 1755   3.917   4.211   5.278 -0.4910  0.0732 -1.0648
  597TIP3    H2 1756   4.064   4.184   5.302 -1.4161 -2.2365  3.0201
  598TIP3   OH2 1757   2.609   0.395   3.047  0.6871  0.2023 -0.0015
  598TIP3    H1 1758   2.639   0.430   2.963  0.1892 -1.6155 -0.9953
  598TIP3    H2 1759   2.681   0.414   3.108  2.2819 -0.8200 -1.4752
  599TIP3   OH2 1760   3.828   0.252   5.379 -0.1414 -0.0212  0.2541
  599TIP3    H1 1761   3.818   0.342   5.411  0.8481 -0.6031  2.3856
  599TIP3    H2 1762   3.841   0.200   5.458 -0.1876 -1.9854 -0.9686
  600TIP3   OH2 1763   2.164   2.132   5.571  0.3051  0.3349  0.1080
  600TIP3    H1 1764   2.251   2.143   5.609  0.8083  0.5626 -1.0592
  600TIP3    H2 1765   2.118   2.213   5.590  0.7950  0.7313 -0.3552
  601TIP3   OH2 1766   0.922   6.093   5.535 -0.6956  0.8403  0.3568
  601TIP3    H1 1767   1.011   6.128   5.525 -0.9098  1.9223  1.8644
  601TIP3    H2 1768   0.882   6.103   5.448  0.2409  1.5592 -0.0080
  602TIP3   OH2 1769   6.484   6.012   1.107 -0.0793 -0.5246  0.4401
  602TIP3    H1 1770   6.419   5.967   1.161 -0.4339 -1.3485 -0.6579
  602TIP3    H2 1771   6.544   5.944   1.077 -0.2788 -0.1997 -0.7605
  603TIP3   OH2 1772   0.972   0.380   2.587  0.0970  0.1585  0.3385
  603TIP3    H1 1773   1.006   0.313   2.645 -1.0977 -0.4993  0.3233
  603TIP3    H2 1774   1.005   0.356   2.500  0.3173  0.0348  0.4574
  604TIP3   OH2 1775   6.604   2.547   3.656 -0.2987  0.0840  0.1493
  604TIP3    H1 1776   6.550   2.524   3.579 -0.3260  0.0169  0.1875
  604TIP3    H2 1777   6.639   2.633   3.636 -1.7908  0.8851  0.8597
  605TIP3   OH2 1778   2.713   3.647   0.660  0.5305 -0.6094  0.2606
  605TIP3    H1 1779   2.699   3.705   0.585 -0.1181  0.0913  0.9067
  605TIP3    H2 1780   2.754   3.569   0.623  1.5069  0.2922 -0.6056
  606TIP3   OH2 1781   1.234   5.079   1.164 -0.0416 -0.5355  0.3360
  606TIP3    H1 1782   1.154   5.119   1.198  0.3389 -0.2779  0.9575
  606TIP3    H2 1783   1.266   5.142   1.099  0.2455 -0.0916  0.8947
  607TIP3   OH2 1784   0.489   4.379   0.761  0.1087 -1.0671  0.3556
  607TIP3    H1 1785   0.499   4.320   0.836 -1.9207 -1.1365  0.6242
  607TIP3    H2 1786   0.552   4.449   0.778  1.3324 -2.2520  0.9137
  608TIP3   OH2 1787   0.227   0.859   2.097 -0.3100  0.4736 -0.0396
  608TIP3    H1 1788   0.219   0.911   2.177  0.1150  0.6321 -0.0999
  608TIP3    H2 1789   0.234   0.768   2.128  0.3909  0.5808  0.1282
  609TIP3   OH2 1790   0.268   1.732   5.729 -0.3459  0.8909 -0.1013
  609TIP3    H1 1791   0.193   1.710   5.673  0.3160  1.4852 -1.2778
  609TIP3    H2 1792   0.288   1.823   5.707  2.7979 -0.1767 -2.3984
  610TIP3   OH2 1793   3.022   2.156   4.692  0.5743  0.5057 -0.0260
  610TIP3    H1 1794   2.968   2.151   4.771  2.0926 -0.0946  1.0093
  610TIP3    H2 1795   3.024   2.249   4.670 -0.0308  0.6546  0.5216
  611TIP3   OH2 1796   2.728   5.921   1.402 -0.3080  0.0348  0.3411
  611TIP3    H1 1797   2.763   5.832   1.397  1.3781  0.6912 -0.3047
  611TIP3    H2 1798   2.641   5.910   1.441 -1.1663 -2.1444 -1.9088
  612TIP3   OH2 1799   1.257   6.077   3.771 -0.4141  0.0085 -0.7107
  612TIP3    H1 1800   1.325   6.011   3.780 -0.5742 -0.1224 -0.4360
  612TIP3    H2 1801   1.292   6.154   3.815 -0.4352 -0.0524 -0.5869
  613TIP3   OH2 1802   7.185   2.854   5.813 -0.2851 -0.3576 -0.4596
  613TIP3    H1 1803   7.130   2.795   5.865  0.1046  0.0832  0.4742
  613TIP3    H2 1804   7.274   2.838   5.843 -0.3201  1.9158  1.1102
  614TIP3   OH2 1805   6.071   4.016   0.318 -0.3653  0.0855 -0.2279
  614TIP3    H1 1806   6.014   4.021   0.395  0.3677  0.0423  0.3322
  614TIP3    H2 1807   6.043   4.088   0.262 -1.1357 -0.0923 -0.0825
  615TIP3   OH2 1808   3.751   1.362   4.614  0.3206 -0.0959  0.9404
  615TIP3    H1 1809   3.804   1.429   4.655  2.0508 -1.7390  1.5141
  615TIP3    H2 1810   3.673   1.409   4.582  1.0586  1.9879  2.0391
  616TIP3   OH2 1811   0.158   1.976   0.093  0.5799  0.0094 -0.2987
  616TIP3    H1 1812   0.084   2.017   0.048  1.0878 -0.7094 -1.8929
  616TIP3    H2 1813   0.207   1.934   0.023  1.9909 -0.3249  0.8475
  617TIP3   OH2 1814   4.274   1.887   2.877 -0.1885  0.1950  0.5851
  617TIP3    H1 1815   4.255   1.796   2.855 -0.2605  0.3331  0.0624
  617TIP3    H2 1816   4.194   1.919   2.920 -0.9602  0.5920 -1.0497
  618TIP3   OH2 1817   3.044   1.925   1.275  1.0292  0.5476  0.0687
  618TIP3    H1 1818   2.970   1.865   1.265  1.4279  0.1497 -0.5037
  618TIP3    H2 1819   3.011   2.008   1.240  1.8658 -0.4131 -3.3139
  619TIP3   OH2 1820   6.343   2.252   3.238  0.5563  0.3609 -0.7210
  619TIP3    H1 1821   6.251   2.277   3.234  0.7836  1.3926  0.1249
  619TIP3    H2 1822   6.371   2.250   3.147  0.5189  3.3510 -0.9098
  620TIP3   OH2 1823   4.132   2.793   0.480  0.3090 -0.0835 -0.1945
  620TIP3    H1 1824   4.139   2.704   0.516 -0.2955 -0.4090 -0.8513
  620TIP3    H2 1825   4.079   2.840   0.545 -0.0321 -0.4234 -0.2202
  621TIP3   OH2 1826   3.357   2.975   2.324 -0.4102  0.3421 -0.3613
  621TIP3    H1 1827   3.409   3.049   2.293 -0.1280  0.8230  1.1695
  621TIP3    H2 1828   3.419   2.903   2.331 -0.0232  0.7829  0.9905
  622TIP3   OH2 1829   2.087   0.823   3.873 -0.1359 -0.4322 -0.0411
  622TIP3    H1 1830   2.009   0.871   3.844 -0.3308 -1.0719 -0.6134
  622TIP3    H2 1831   2.060   0.783   3.956 -0.9852 -1.9334 -0.9794
  623TIP3   OH2 1832   0.274   1.293   4.732 -0.3379  0.3035 -0.4827
  623TIP3    H1 1833   0.209   1.233   4.768 -0.0827  0.7993  0.8635
  623TIP3    H2 1834   0.351   1.281   4.787  0.7702 -0.3207 -2.0900
  624TIP3   OH2 1835   4.176   4.509   2.508 -0.3993 -0.4402 -0.1520
  624TIP3    H1 1836   4.200   4.510   2.415 -0.4628  0.6985 -0.1685
  624TIP3    H2 1837   4.160   4.601   2.530  3.0738 -0.1259  1.8449
  625TIP3   OH2 1838   3.375   3.590   4.504  0.2964 -0.4298 -0.5080
  625TIP3    H1 1839   3.383   3.666   4.562 -1.4051 -1.6630  1.4720
  625TIP3    H2 1840   3.457   3.542   4.516  0.5970  0.1230 -0.3188
  626TIP3   OH2 1841   5.121   4.700   2.068 -0.0008  0.1787  0.4796
  626TIP3    H1 1842   5.137   4.794   2.082  0.9339  0.3211 -1.2886
  626TIP3    H2 1843   5.205   4.666   2.036 -0.5411 -1.1186  0.3898
  627TIP3   OH2 1844   2.495   1.260   3.421 -0.7356  0.2975 -0.4186
  627TIP3    H1 1845   2.479   1.262   3.515 -0.2438 -1.4563 -0.2579
  627TIP3    H2 1846   2.429   1.318   3.384 -1.1289  0.7762  0.9815
  628TIP3   OH2 1847   3.051   6.137   0.783 -0.6519 -0.5413 -0.2992
  628TIP3    H1 1848   2.986   6.112   0.718 -1.0287 -1.9091  0.5491
  628TIP3    H2 1849   3.062   6.058   0.837  1.2313 -0.1446 -0.0204
  629TIP3   OH2 1850   1.428   3.321   2.463 -0.4026  0.3224  0.0687
  629TIP3    H1 1851   1.392   3.253   2.407 -1.6852  1.7509 -0.9337
  629TIP3    H2 1852   1.353   3.378   2.483  0.3666  0.7551  1.9106
  630TIP3   OH2 1853   5.820   2.403   1.489 -0.4154 -0.5545  0.5688
  630TIP3    H1 1854   5.887   2.462   1.523 -0.3251  0.3652 -1.0620
  630TIP3    H2 1855   5.737   2.448   1.506 -0.3628 -0.0414 -0.4487
  631TIP3   OH2 1856   1.910   5.250   2.124 -0.4086 -0.1649  0.5024
  631TIP3    H1 1857   1.972   5.262   2.052  1.4576 -0.0461  2.0595
  631TIP3    H2 1858   1.912   5.333   2.172 -1.3980 -0.3380  0.8799
  632TIP3   OH2 1859   6.787   3.180   4.697 -0.0322 -0.4948  0.1859
  632TIP3    H1 1860   6.735   3.175   4.778  0.2768  0.3440  0.4478
  632TIP3    H2 1861   6.727   3.152   4.629 -0.5811 -0.3487  0.5970
  633TIP3   OH2 1862   4.366   4.210   1.813 -0.6130 -0.0555  0.3891
  633TIP3    H1 1863   4.439   4.149   1.812 -1.1202 -0.6772  0.2865
  633TIP3    H2 1864   4.335   4.213   1.723 -1.1395 -0.3356  0.5520
  634TIP3   OH2 1865   3.078   5.446   2.757  0.1361  0.7339  0.7336
  634TIP3    H1 1866   3.021   5.429   2.682 -1.5827 -0.1319  2.1345
  634TIP3    H2 1867   3.144   5.506   2.725 -1.6030  1.8273 -1.0192
  635TIP3   OH2 1868   2.020   3.947   2.674 -0.0230 -0.2521 -0.0452
  635TIP3    H1 1869   1.933   3.918   2.646 -0.6059 -0.6722  2.0643
  635TIP3    H2 1870   2.004   4.011   2.743  1.2732 -2.4099  2.4409
  636TIP3   OH2 1871   1.779   0.448   5.650  0.4040 -0.1474 -0.1773
  636TIP3    H1 1872   1.829   0.413   5.724 -0.1020  0.1097  0.2897
  636TIP3    H2 1873   1.830   0.422   5.573  0.1180 -1.7722  0.1492
  637TIP3   OH2 1874   5.641   5.757   3.752  0.5287  0.3600 -0.0789
  637TIP3    H1 1875   5.547   5.757   3.735  0.4574  1.6981  0.1965
  637TIP3    H2 1876   5.649   5.745   3.846  0.6644 -0.2153 -0.1582
  638TIP3   OH2 1877   2.820   3.381   5.307  1.0838  0.2797 -0.6020
  638TIP3    H1 1878   2.849   3.469   5.285  1.0202 -0.0698 -2.2563
  638TIP3    H2 1879   2.900   3.328   5.304  0.8903  0.0053 -1.3245
  639TIP3   OH2 1880   5.203   0.560   1.276  0.2866 -0.0656  0.1139
  639TIP3    H1 1881   5.272   0.540   1.213  0.0733  0.6664 -0.3721
  639TIP3    H2 1882   5.236   0.636   1.324 -0.0468  0.0970  0.0905
  640TIP3   OH2 1883   6.993   2.402   0.483 -0.2836  0.8441 -0.3995
  640TIP3    H1 1884   6.911   2.445   0.507 -1.1654  0.4534 -2.4935
  640TIP3    H2 1885   6.982   2.378   0.391  1.1127 -1.6775 -0.0090
  641TIP3   OH2 1886   1.792   4.758  -0.006  0.4646 -0.1410 -0.3001
  641TIP3    H1 1887   1.878   4.740   0.032  0.6822 -0.5103 -0.9411
  641TIP3    H2 1888   1.759   4.833   0.043  0.8720 -0.4001  0.3828
  642TIP3   OH2 1889   4.303   1.978   1.219  0.1717 -0.0151  0.2402
  642TIP3    H1 1890   4.340   1.995   1.306  0.4031 -0.4933  0.2352
  642TIP3    H2 1891   4.322   1.886   1.202 -1.8764 -0.5815  0.6639
  643TIP3   OH2 1892   3.641   1.494   3.080 -0.3055 -0.1263  1.0482
  643TIP3    H1 1893   3.648   1.556   3.008  1.6688 -2.5762 -1.0360
  643TIP3    H2 1894   3.550   1.464   3.077  0.3375 -2.3002 -2.4933
  644TIP3   OH2 1895   3.242   5.412   2.493 -0.3373  0.1711 -0.2024
  644TIP3    H1 1896   3.329   5.450   2.484 -0.1407 -0.2056  0.0663
  644TIP3    H2 1897   3.257   5.317   2.492 -0.6596  0.1049  0.6076
  645TIP3   OH2 1898   2.817   0.959   5.405 -0.3111  0.0256  0.3214
  645TIP3    H1 1899   2.865   0.991   5.482 -1.4079  1.7814  0.3509
  645TIP3    H2 1900   2.758   1.031   5.384 -0.2562 -0.5523 -1.9927
  646TIP3   OH2 1901   3.108   3.748   0.686 -0.4019 -0.2111 -0.2315
  646TIP3    H1 1902   3.084   3.670   0.636  0.8469 -0.4333 -0.5115
  646TIP3    H2 1903   3.161   3.800   0.626  1.3563 -0.6025  0.8939
  647TIP3   OH2 1904   3.409   3.480   0.563  1.0473 -0.1507 -0.3838
  647TIP3    H1 1905   3.388   3.535   0.638  1.4241 -0.5680  0.0378
  647TIP3    H2 1906   3.398   3.537   0.487 -0.9756 -0.1761 -0.1621
  648TIP3   OH2 1907   4.476   5.076   3.353  0.5146 -0.8191 -0.3595
  648TIP3    H1 1908   4.433   5.026   3.284 -0.4805 -0.3054 -0.1288
  648TIP3    H2 1909   4.464   5.023   3.432 -1.5665  0.2351  0.1275
  649TIP3   OH2 1910   2.112   2.765   3.569  0.5467  0.8500  0.1448
  649TIP3    H1 1911   2.206   2.779   3.582  0.8035 -1.4102  1.1415
  649TIP3    H2 1912   2.106   2.732   3.479  1.0635 -1.2341  0.8081
  650TIP3   OH2 1913   1.436   2.448   1.946 -0.2165 -0.5793  0.2124
  650TIP3    H1 1914   1.411   2.420   2.034 -0.8841  1.9677  0.9216
  650TIP3    H2 1915   1.525   2.482   1.956 -0.6764  0.6900  0.1816
  651TIP3   OH2 1916   0.588   0.999   2.699  0.0534  0.4215 -0.0921
  651TIP3    H1 1917   0.625   0.951   2.774 -0.3114  1.1674  0.5792
  651TIP3    H2 1918   0.583   0.934   2.629 -2.1463 -1.0533  1.3206
  652TIP3   OH2 1919   0.125   1.928   2.902  0.1985  0.8166  0.2112
  652TIP3    H1 1920   0.043   1.898   2.864 -0.6823  1.3759  1.5811
  652TIP3    H2 1921   0.135   1.877   2.982  1.5582  0.2803 -0.2687
  653TIP3   OH2 1922   7.023   0.946   4.264  0.2687  0.1956 -0.1277
  653TIP3    H1 1923   7.000   0.973   4.353 -1.5176 -0.5621 -0.3051
  653TIP3    H2 1924   7.113   0.915   4.270  0.3794  0.7347  1.2822
  654TIP3   OH2 1925   3.109   2.769   0.775  0.1074 -0.1240  0.4542
  654TIP3    H1 1926   3.064   2.774   0.860 -1.0719 -0.6413 -0.1314
  654TIP3    H2 1927   3.117   2.676   0.757  0.6354 -0.0201  0.1197
  655TIP3   OH2 1928   2.936   5.495   4.043  0.2437  0.9770  0.0409
  655TIP3    H1 1929   3.000   5.486   3.972 -0.5663 -0.4070 -0.5559
  655TIP3    H2 1930   2.899   5.408   4.053 -1.0016  1.5716  0.9101
  656TIP3   OH2 1931   0.297   0.625   3.714 -0.1570  0.3361  0.3875
  656TIP3    H1 1932   0.211   0.583   3.711  0.7352 -1.6066 -0.2610
  656TIP3    H2 1933   0.290   0.700   3.655 -1.2160 -0.1951 -0.1910
  657TIP3   OH2 1934   6.228   5.317   1.394  0.5907  0.0117 -0.2919
  657TIP3    H1 1935   6.154   5.350   1.444  1.9136 -0.1765  1.9086
  657TIP3    H2 1936   6.214   5.222   1.391  1.3525 -0.1795  1.2665
  658TIP3   OH2 1937   2.645   4.023   4.019  0.3804 -0.4090  0.1408
  658TIP3    H1 1938   2.685   4.100   3.978 -1.2580  1.9716  2.5966
  658TIP3    H2 1939   2.561   4.013   3.974  0.2695 -0.2417  0.3050
  659TIP3   OH2 1940   5.735   3.461   3.882  0.1028 -0.0157  0.3270
  659TIP3    H1 1941   5.662   3.519   3.860 -0.3362 -0.5744  0.2895
  659TIP3    H2 1942   5.694   3.375   3.896  0.6248 -0.1035  1.3598
  660TIP3   OH2 1943   4.623   1.076   2.503  0.3689 -0.3011 -0.2810
  660TIP3    H1 1944   4.681   1.095   2.429  0.4804 -0.1876 -0.1629
  660TIP3    H2 1945   4.557   1.016   2.466  1.9353 -2.4113  0.1539
  661TIP3   OH2 1946   5.587   3.062   5.436  0.0547 -0.1764 -0.1156
  661TIP3    H1 1947   5.509   3.111   5.462 -0.1002 -0.3628 -0.2221
  661TIP3    H2 1948   5.639   3.057   5.515  0.4980  0.9322 -0.3160
  662TIP3   OH2 1949   1.374   0.813   2.543  0.0984 -0.4736  0.2179
  662TIP3    H1 1950   1.340   0.902   2.553 -0.2634 -0.6257  0.3657
  662TIP3    H2 1951   1.469   0.823   2.541  0.0529 -0.0617  0.0115
  663TIP3   OH2 1952   1.058   3.825   3.888  0.5819  0.0451  0.0807
  663TIP3    H1 1953   1.045   3.844   3.981  1.4804 -1.0708  0.4588
  663TIP3    H2 1954   1.141   3.778   3.884  1.1521  1.0943 -1.4449
  664TIP3   OH2 1955   6.053   2.253   3.487 -0.3245  0.3226 -0.2765
  664TIP3    H1 1956   6.077   2.272   3.396 -0.8210 -0.1097 -0.5068
  664TIP3    H2 1957   6.008   2.332   3.517  1.4571  1.2006  0.2109
  665TIP3   OH2 1958   2.728   3.811   0.426 -0.1682  0.7295  0.0914
  665TIP3    H1 1959   2.817   3.848   0.427  0.4152 -0.5617  2.3498
  665TIP3    H2 1960   2.728   3.751   0.351  1.7759 -1.2073  1.5315
  666TIP3   OH2 1961   7.131   4.608   0.995  0.3826  0.3209 -0.1457
  666TIP3    H1 1962   7.136   4.626   0.901  2.1775  0.6846 -0.0240
  666TIP3    H2 1963   7.144   4.514   1.003 -0.2781  0.2141 -0.2799
  667TIP3   OH2 1964   6.105   0.785   1.635  0.3241  0.2573 -0.1130
  667TIP3    H1 1965   6.164   0.779   1.711 -0.7508 -0.2124  0.7212
  667TIP3    H2 1966   6.156   0.829   1.568  2.1170 -1.3505  0.1083
  668TIP3   OH2 1967   6.222   1.713   5.242  0.8855  0.5888  0.1837
  668TIP3    H1 1968   6.275   1.654   5.188 -1.2832  0.1070 -1.5804
  668TIP3    H2 1969   6.280   1.786   5.262  2.2970 -0.0287 -1.3990
  669TIP3   OH2 1970   0.401   0.984   1.934  0.1944 -0.5323  0.2403
  669TIP3    H1 1971   0.382   1.026   1.851  0.2587  0.5874  0.7759
  669TIP3    H2 1972   0.318   0.946   1.962 -0.3493  0.9260  0.6745
  670TIP3   OH2 1973   6.174   2.045   2.235 -0.0628 -0.5932 -0.1871
  670TIP3    H1 1974   6.184   2.030   2.141  1.7458  2.1615 -0.5527
  670TIP3    H2 1975   6.242   1.992   2.276  0.3845 -0.3579 -0.6202
  671TIP3   OH2 1976   1.175   3.057   4.388  0.0859  0.3306  0.5714
  671TIP3    H1 1977   1.142   2.969   4.408 -0.7628  0.5638  0.2724
  671TIP3    H2 1978   1.186   3.099   4.473  0.5394 -0.0761  0.7184
  672TIP3   OH2 1979   6.701   0.463   2.250 -0.0242 -0.2820  0.2183
  672TIP3    H1 1980   6.614   0.433   2.223 -0.6997  0.2232  1.7053
  672TIP3    H2 1981   6.690   0.557   2.263  0.5599 -0.3140  1.0372
  673TIP3   OH2 1982   4.743   0.173   2.000  0.1893 -0.0173 -0.3348
  673TIP3    H1 1983   4.692   0.237   1.952 -1.7360 -0.9318  0.3507
  673TIP3    H2 1984   4.688   0.094   2.000  0.0138 -0.0595  3.3075
  674TIP3   OH2 1985   6.038   2.686   2.802 -0.2504  0.0603  0.3006
  674TIP3    H1 1986   6.092   2.642   2.736 -1.6673  0.1387 -0.9723
  674TIP3    H2 1987   6.051   2.780   2.786  0.0862  0.0947  0.7395
  675TIP3   OH2 1988   1.762   6.530   2.713 -0.4450  0.3384 -0.3045
  675TIP3    H1 1989   1.683   6.487   2.681  0.9128 -2.0339 -0.7581
  675TIP3    H2 1990   1.753   6.531   2.808 -1.0595  0.1877 -0.3600
  676TIP3   OH2 1991   1.495   3.576   1.257  0.4807 -0.1159 -0.4114
  676TIP3    H1 1992   1.577   3.531   1.279 -1.3101 -2.2147  2.6538
  676TIP3    H2 1993   1.475   3.546   1.168  2.3397 -0.5603 -0.7287
  677TIP3   OH2 1994   5.005   2.357   0.977  0.1006 -0.0486  0.2565
  677TIP3    H1 1995   5.072   2.425   0.965 -0.6770  0.5527 -0.8872
  677TIP3    H2 1996   4.953   2.387   1.052  0.0875  0.3622  0.0876
  678TIP3   OH2 1997   4.640   4.692   4.584 -0.2379  0.5023  0.3624
  678TIP3    H1 1998   4.667   4.764   4.641  1.9127 -0.4603  0.6461
  678TIP3    H2 1999   4.716   4.635   4.578 -1.3371 -0.9366 -1.1780
  679TIP3   OH2 2000   4.571   3.063   0.873 -0.4287 -0.5830  0.1222
  679TIP3    H1 2001   4.580   2.975   0.911 -2.0748  0.0327  2.1047
  679TIP3    H2 2002   4.635   3.116   0.921 -0.6151 -0.3468  0.1086
  680TIP3   OH2 2003   6.509   5.720   2.709  0.4165 -0.3948  0.2162
  680TIP3    H1 2004   6.553   5.727   2.624 -1.3954  2.5199 -0.6442
  680TIP3    H2 2005   6.502   5.810   2.739 -1.2078 -1.1420  2.2887
  681TIP3   OH2 2006   5.719   2.384   5.341  0.4965 -0.0022 -0.2575
  681TIP3    H1 2007   5.650   2.325   5.310 -0.2067  0.2318  0.8023
  681TIP3    H2 2008   5.769   2.332   5.404  0.1039  0.3972  0.3972
  682TIP3   OH2 2009   0.747   1.091   0.644 -0.7707 -0.2785  0.1176
  682TIP3    H1 2010   0.723   1.183   0.653  1.6821  0.3483  0.9409
  682TIP3    H2 2011   0.822   1.091   0.585  0.1220 -1.5953  1.2000
  683TIP3   OH2 2012   5.439   0.346   4.932  0.0389 -0.1643 -0.1087
  683TIP3    H1 2013   5.453   0.440   4.938 -0.3120  0.0205 -1.8357
  683TIP3    H2 2014   5.346   0.336   4.915  0.2611 -0.7630 -1.0547
  684TIP3   OH2 2015   6.191   4.535   0.259 -0.0144 -0.2359 -0.2097
  684TIP3    H1 2016   6.169   4.491   0.177 -2.1045  0.6350 -0.2078
  684TIP3    H2 2017   6.238   4.470   0.310  2.1513 -0.5330 -2.3892
  685TIP3   OH2 2018   2.411   0.289   1.713  0.4233  0.6045  0.4432
  685TIP3    H1 2019   2.349   0.315   1.646  0.6382  1.2317  0.4811
  685TIP3    H2 2020   2.365   0.305   1.796  1.5051  3.6187  0.5950
  686TIP3   OH2 2021   0.009   6.031   4.524 -0.0514 -0.1749 -0.1279
  686TIP3    H1 2022   0.103   6.030   4.505  0.2501 -1.1596  1.3212
  686TIP3    H2 2023  -0.018   5.940   4.515 -0.3175 -0.3359  1.9286
  687TIP3   OH2 2024   3.796   5.222   5.538  0.1942  0.4458  0.8539
  687TIP3    H1 2025   3.840   5.306   5.548  1.2506 -0.0522  0.4375
  687TIP3    H2 2026   3.731   5.237   5.469  1.0680  0.6664  0.0561
  688TIP3   OH2 2027   3.332   2.222   5.476 -0.1128 -0.2941 -0.2619
  688TIP3    H1 2028   3.251   2.243   5.431 -0.3483  0.9065  0.6719
  688TIP3    H2 2029   3.340   2.289   5.545  2.1052  0.1787 -0.8829
  689TIP3   OH2 2030   3.863   2.324   3.695 -0.0520 -0.0179 -0.2654
  689TIP3    H1 2031   3.835   2.364   3.612 -0.8859 -0.4599 -0.2093
  689TIP3    H2 2032   3.849   2.230   3.682  1.4710 -0.2679 -0.2334
  690TIP3   OH2 2033   4.199   0.877   1.950 -0.1967  0.0204  0.2070
  690TIP3    H1 2034   4.202   0.829   2.032 -1.7076 -1.2680 -0.4478
  690TIP3    H2 2035   4.106   0.884   1.929  0.1335  0.7815 -1.1390
  691TIP3   OH2 2036   4.401   0.128   2.882 -0.3653  0.0727 -0.2267
  691TIP3    H1 2037   4.358   0.211   2.862  0.5781  0.5150 -0.4921
  691TIP3    H2 2038   4.464   0.150   2.951  0.5558 -0.2198 -0.9568
  692TIP3   OH2 2039   1.111   2.427   0.175 -0.1226 -0.2437 -0.1089
  692TIP3    H1 2040   1.016   2.431   0.167 -0.1172 -0.0426 -0.0552
  692TIP3    H2 2041   1.139   2.374   0.100 -0.4159 -1.7383  0.8003
  693TIP3   OH2 2042   2.098   6.065   5.340  0.7040  0.6097  0.2708
  693TIP3    H1 2043   2.054   6.071   5.425  0.4597 -0.3361  0.2236
  693TIP3    H2 2044   2.054   6.130   5.286  0.4138  0.7559  0.6765
  694TIP3   OH2 2045   4.978   0.877   4.995 -0.5060  0.1309 -0.0038
  694TIP3    H1 2046   4.938   0.862   4.909 -0.5759 -0.3754  0.1143
  694TIP3    H2 2047   5.071   0.861   4.981 -0.3999  0.8329 -0.1651
  695TIP3   OH2 2048   3.374   6.483   5.832  0.3902  0.3614 -0.0219
  695TIP3    H1 2049   3.380   6.398   5.789  0.0761  0.3424 -0.0330
  695TIP3    H2 2050   3.445   6.483   5.896  0.4427  0.1259 -0.0794
  696TIP3   OH2 2051   6.957   1.990   1.220 -0.4243  0.1561 -0.3198
  696TIP3    H1 2052   7.018   2.017   1.151  0.0572  0.1089  0.0783
  696TIP3    H2 2053   6.987   1.903   1.245 -0.5525  0.2005 -0.0080
  697TIP3   OH2 2054   1.707   1.575   1.804  0.8082  0.1249 -0.5262
  697TIP3    H1 2055   1.792   1.614   1.784  0.5929  1.2043  0.5951
  697TIP3    H2 2056   1.719   1.481   1.787  2.9351 -0.1072  1.7921
  698TIP3   OH2 2057   3.733   4.846   1.252  0.2820  0.4065  0.5408
  698TIP3    H1 2058   3.781   4.909   1.305 -1.1750  1.3995  0.7633
  698TIP3    H2 2059   3.681   4.901   1.193  0.9623 -0.6489 -1.1115
  699TIP3   OH2 2060   3.471   5.830   5.465  0.5708  0.0712  0.0165
  699TIP3    H1 2061   3.560   5.825   5.500 -0.0801 -0.0268  1.7605
  699TIP3    H2 2062   3.448   5.923   5.468  1.5715  0.5723 -3.1797
  700TIP3   OH2 2063   6.607   5.094   4.506 -0.3293 -0.0371 -0.0595
  700TIP3    H1 2064   6.703   5.085   4.505 -0.4413 -1.4945 -0.2005
  700TIP3    H2 2065   6.587   5.122   4.596  0.1196 -1.4742  0.5134
  701TIP3   OH2 2066   2.126   3.569   1.398 -0.4980  0.0069  0.1836
  701TIP3    H1 2067   2.207   3.571   1.346 -1.3949 -0.7038 -1.2835
  701TIP3    H2 2068   2.102   3.477   1.402 -1.5043  0.2602  0.1881
  702TIP3   OH2 2069   6.380   3.825   1.172  0.6404  0.4181 -0.0381
  702TIP3    H1 2070   6.431   3.744   1.172 -1.7104 -1.1886 -1.2413
  702TIP3    H2 2071   6.401   3.867   1.089 -0.3961 -0.5663 -0.8289
  703TIP3   OH2 2072   4.929   6.252   0.621 -0.4712  0.1718  0.0353
  703TIP3    H1 2073   5.024   6.252   0.629 -0.3056  0.6778 -1.5760
  703TIP3    H2 2074   4.912   6.215   0.535 -1.7425  0.0901  0.3022
  704TIP3   OH2 2075   3.108   6.247   0.185  0.4084  0.5736 -0.4222
  704TIP3    H1 2076   3.114   6.198   0.267 -0.3877 -0.1711 -0.7915
  704TIP3    H2 2077   3.135   6.336   0.208  0.1481  0.3925  0.6540
  705TIP3   OH2 2078   4.925   4.285   4.422  0.5861  0.3639 -0.3501
  705TIP3    H1 2079   4.916   4.196   4.387 -0.0375 -0.3187  1.4287
  705TIP3    H2 2080   4.842   4.327   4.401  0.7722  0.4469 -0.9430
  706TIP3   OH2 2081   6.778   3.299   1.207 -0.3961 -0.1635 -0.2938
  706TIP3    H1 2082   6.727   3.254   1.274  1.1167  1.3627  2.0507
  706TIP3    H2 2083   6.747   3.389   1.209  1.2489  0.4334  0.0868
  707TIP3   OH2 2084   3.682   1.414   2.783  0.4180 -0.0456 -0.2105
  707TIP3    H1 2085   3.747   1.448   2.722  1.0611 -0.1819  0.3857
  707TIP3    H2 2086   3.734   1.369   2.850 -0.2934 -0.1481  0.2755
  708TIP3   OH2 2087   7.162   5.078   3.415 -0.1530 -0.1599  0.4046
  708TIP3    H1 2088   7.134   5.058   3.505  0.5933  1.9122  1.1686
  708TIP3    H2 2089   7.252   5.108   3.425 -0.1220  0.2702 -1.0153
  709TIP3   OH2 2090   0.567   3.029   5.099  0.4443  0.2406  0.1882
  709TIP3    H1 2091   0.513   2.950   5.100  1.1936 -0.3299 -1.2211
  709TIP3    H2 2092   0.546   3.071   5.016  2.4576 -0.2524 -0.6317
  710TIP3   OH2 2093   0.471   5.328   5.081  0.2464  0.5126  0.4016
  710TIP3    H1 2094   0.421   5.379   5.144 -1.1826 -0.5347  0.1751
  710TIP3    H2 2095   0.477   5.241   5.121  1.0432  0.3636 -0.0297
  711TIP3   OH2 2096   5.043   6.511   1.299  0.0849 -0.5961  0.1917
  711TIP3    H1 2097   5.047   6.429   1.348 -0.6254 -0.8071 -0.0908
  711TIP3    H2 2098   4.979   6.495   1.229  1.2908 -0.3852 -0.9893
  712TIP3   OH2 2099   7.067   0.493   4.768  0.2802 -0.3436 -0.3063
  712TIP3    H1 2100   7.091   0.414   4.817 -0.4006 -0.3627  0.0176
  712TIP3    H2 2101   7.033   0.460   4.684 -0.2080 -0.4172 -0.0860
  713TIP3   OH2 2102   3.747   3.664   5.158 -0.0189 -0.0462 -0.1669
  713TIP3    H1 2103   3.674   3.691   5.102  0.3004  0.7232 -0.2162
  713TIP3    H2 2104   3.778   3.745   5.198  2.9858  0.2520 -2.7042
  714TIP3   OH2 2105   4.924   0.022   3.389  0.7842  0.4300  0.1395
  714TIP3    H1 2106   4.954   0.112   3.379  0.1659  0.6773  0.4975
  714TIP3    H2 2107   4.850   0.014   3.330  0.3133  0.4062  0.7258
  715TIP3   OH2 2108   4.495   6.219   2.330  0.3205  0.2117  0.0475
  715TIP3    H1 2109   4.539   6.301   2.312  1.1091  0.1313  1.4645
  715TIP3    H2 2110   4.406   6.244   2.356  0.1603  0.5100 -0.7559
  716TIP3   OH2 2111   0.181   5.942   0.011 -0.3250 -0.2030  0.1328
  716TIP3    H1 2112   0.252   5.989  -0.032 -0.9009 -0.1379 -0.7871
  716TIP3    H2 2113   0.114   6.009   0.027 -0.7591 -0.5151 -0.3219
  717TIP3   OH2 2114   0.041   4.019   0.534 -0.1925 -0.6793 -0.5022
  717TIP3    H1 2115   0.112   4.008   0.598  0.5426  0.6839 -1.0269
  717TIP3    H2 2116   0.039   3.936   0.486  1.3251 -0.6241 -0.7136
  718TIP3   OH2 2117   6.661   3.811   1.636 -0.2017 -0.3330 -0.7632
  718TIP3    H1 2118   6.732   3.803   1.573 -1.3138 -1.9446 -1.8751
  718TIP3    H2 2119   6.582   3.821   1.583 -0.9309  0.5346  0.4316
  719TIP3   OH2 2120   0.021   3.200   2.727  0.8902  0.4975  0.0248
  719TIP3    H1 2121   0.109   3.186   2.762  1.1656  1.8098 -0.0814
  719TIP3    H2 2122   0.008   3.295   2.733 -0.7463  0.2744  0.5884
  720TIP3   OH2 2123   3.595   3.961   0.933 -0.3525 -0.4552 -0.4228
  720TIP3    H1 2124   3.651   3.898   0.888 -0.9942 -0.7509 -0.8200
  720TIP3    H2 2125   3.655   4.030   0.961  0.4046 -1.3435  0.2299
  721TIP3   OH2 2126   0.764   1.854   2.615 -0.4237  0.2098  0.3227
  721TIP3    H1 2127   0.809   1.790   2.670 -0.7879 -0.0078  0.3633
  721TIP3    H2 2128   0.812   1.936   2.631  0.0220 -0.0415  0.2909
  722TIP3   OH2 2129   4.792   4.211   3.829  0.3052 -0.3593  0.1910
  722TIP3    H1 2130   4.733   4.283   3.806  0.5243  0.1347  1.0989
  722TIP3    H2 2131   4.846   4.198   3.751  1.5338  1.7610  0.5973
  723TIP3   OH2 2132   0.326   4.265   5.703  0.4040  0.4338 -0.3378
  723TIP3    H1 2133   0.281   4.331   5.650 -0.9841 -1.1374 -1.2164
  723TIP3    H2 2134   0.413   4.258   5.664  0.3211  1.2438 -0.6778
  724TIP3   OH2 2135   4.715   6.223   1.352  0.5319 -1.0617 -0.0050
  724TIP3    H1 2136   4.708   6.215   1.256 -0.1859  0.8454 -0.1701
  724TIP3    H2 2137   4.808   6.235   1.368  0.3979  2.3223 -0.9322
  725TIP3   OH2 2138   5.195   3.894   4.721  0.0548  0.6004 -0.3885
  725TIP3    H1 2139   5.240   3.939   4.649 -1.2293  0.6246 -1.2052
  725TIP3    H2 2140   5.158   3.964   4.774 -0.9338  0.5647 -0.9993
  726TIP3   OH2 2141   2.485   4.029   1.617  0.1268 -0.4318 -0.0518
  726TIP3    H1 2142   2.461   4.087   1.690 -0.5472 -1.0953  0.2610
  726TIP3    H2 2143   2.462   3.941   1.647  0.5922 -0.8033 -0.7573
  727TIP3   OH2 2144   3.619   2.901   4.789 -0.1463  0.6465 -0.2376
  727TIP3    H1 2145   3.562   2.895   4.865  1.2976 -0.1355  0.8421
  727TIP3    H2 2146   3.681   2.971   4.810 -0.9260  1.7950 -1.5768
  728TIP3   OH2 2147   6.356   3.109   3.205  0.8305  0.5247  0.9541
  728TIP3    H1 2148   6.370   3.191   3.253  1.3036  0.7328  0.4758
  728TIP3    H2 2149   6.433   3.056   3.225  0.8596  0.4725  0.7076
  729TIP3   OH2 2150   1.160   3.680   5.246 -0.0089 -0.3147  0.9323
  729TIP3    H1 2151   1.186   3.588   5.242  1.8008  0.1754 -0.0747
  729TIP3    H2 2152   1.121   3.692   5.332 -0.3421 -2.0332  1.0375
  730TIP3   OH2 2153   6.774   1.706   5.848  0.3011 -0.1037 -0.1822
  730TIP3    H1 2154   6.731   1.779   5.893 -0.9110 -0.5594 -0.5710
  730TIP3    H2 2155   6.710   1.635   5.849  1.5942 -1.3110  0.5075
  731TIP3   OH2 2156   5.365   5.203   3.264 -0.2053 -0.0447  0.1681
  731TIP3    H1 2157   5.310   5.128   3.283 -0.3890 -0.0204 -0.2516
  731TIP3    H2 2158   5.429   5.171   3.201 -1.0235  0.4334 -0.9432
  732TIP3   OH2 2159   2.940   5.728   4.806  0.7289 -0.5781 -0.3365
  732TIP3    H1 2160   2.885   5.693   4.877 -0.8389  1.4603 -0.4704
  732TIP3    H2 2161   3.030   5.717   4.838  0.0791 -0.0354  1.8430
  733TIP3   OH2 2162   5.993   2.207   2.347  0.5928  0.2947  0.2376
  733TIP3    H1 2163   5.960   2.148   2.415 -1.2814 -0.0605 -0.8918
  733TIP3    H2 2164   6.056   2.155   2.298 -0.3609 -0.5010 -0.1760
  734TIP3   OH2 2165   6.673   0.502   5.475  0.8057 -0.2842  0.8732
  734TIP3    H1 2166   6.626   0.420   5.455 -0.2410  0.2636  1.0059
  734TIP3    H2 2167   6.679   0.547   5.391  2.0124 -0.8022  0.6691
  735TIP3   OH2 2168   0.281   0.920   2.640  0.0038 -0.0742 -0.0876
  735TIP3    H1 2169   0.220   0.981   2.681  0.4639 -1.1347  2.3652
  735TIP3    H2 2170   0.367   0.963   2.649  0.4570 -1.3336  2.4470
  736TIP3   OH2 2171   4.676   4.394   3.550 -0.1484  0.3751 -0.6337
  736TIP3    H1 2172   4.675   4.484   3.517 -1.9752  0.4357 -0.4933
  736TIP3    H2 2173   4.645   4.401   3.640  1.0455 -0.2663 -0.1399
  737TIP3   OH2 2174   0.832   2.366   0.202  0.5970 -0.0010 -0.4311
  737TIP3    H1 2175   0.743   2.403   0.200  0.9765  1.4169  2.7582
  737TIP3    H2 2176   0.819   2.272   0.191 -1.3212  0.1673  0.0272
  738TIP3   OH2 2177   5.754   6.752   5.501  0.3857 -0.1564 -0.3763
  738TIP3    H1 2178   5.667   6.786   5.480  0.8698  1.2519 -0.1773
  738TIP3    H2 2179   5.748   6.658   5.481 -1.1253 -0.0607 -0.5031
  739TIP3   OH2 2180   0.310   5.760   0.176 -0.0862  0.6249  0.3360
  739TIP3    H1 2181   0.401   5.781   0.155 -0.0582 -0.2464 -0.5014
  739TIP3    H2 2182   0.258   5.826   0.130  0.0383 -0.3887 -1.3444
  740TIP3   OH2 2183   3.560   5.551   4.448 -0.1256 -0.1497  0.5601
  740TIP3    H1 2184   3.532   5.634   4.488  1.4446  0.5818  0.2262
  740TIP3    H2 2185   3.508   5.484   4.493 -2.7383  1.1176 -0.3848
  741TIP3   OH2 2186   3.108   5.759   1.393 -0.7145 -0.5462  0.2729
  741TIP3    H1 2187   3.169   5.729   1.459 -0.0057  1.2269  0.4605
  741TIP3    H2 2188   3.101   5.685   1.332  1.8809 -0.7080  0.0530
  742TIP3   OH2 2189   2.977   3.134   3.376  0.0825 -0.1993  0.2113
  742TIP3    H1 2190   2.944   3.223   3.389  2.2114  0.5084  1.3258
  742TIP3    H2 2191   2.976   3.095   3.463  1.1610 -0.4911  0.1085
  743TIP3   OH2 2192   0.700   1.137   2.425 -0.4864 -0.1669 -0.5407
  743TIP3    H1 2193   0.669   1.115   2.513 -0.7191 -2.4753 -1.1396
  743TIP3    H2 2194   0.634   1.098   2.367  0.5892 -0.2087 -1.7587
  744TIP3   OH2 2195   3.901   3.689   3.072  0.0998  0.1428  0.4157
  744TIP3    H1 2196   3.842   3.731   3.135 -1.2737 -2.5517  1.0756
  744TIP3    H2 2197   3.954   3.629   3.125  1.2471  0.2227 -0.5977
  745TIP3   OH2 2198   2.721   1.565   1.924  0.4173 -0.4800 -0.5407
  745TIP3    H1 2199   2.776   1.631   1.881  0.7008 -0.7414 -0.5812
  745TIP3    H2 2200   2.710   1.497   1.858 -0.5786 -0.0870 -0.7929
  746TIP3   OH2 2201   4.154   4.813   2.456 -0.1501 -0.8479  0.1213
  746TIP3    H1 2202   4.063   4.796   2.482 -0.9271  1.8934 -0.4510
  746TIP3    H2 2203   4.150   4.823   2.361  0.6793 -0.2816  0.1371
  747TIP3   OH2 2204   5.648   0.468   0.508 -0.3125  0.0834 -0.1701
  747TIP3    H1 2205   5.624   0.510   0.425 -0.3241 -0.6087 -0.5281
  747TIP3    H2 2206   5.665   0.541   0.568  0.8887  0.6256 -1.1110
  748TIP3   OH2 2207   2.875   4.923   2.712  0.2683 -0.0238  0.4837
  748TIP3    H1 2208   2.787   4.956   2.694  0.2424 -0.4474 -0.2031
  748TIP3    H2 2209   2.881   4.919   2.807 -0.9206 -1.2488  0.5329
  749TIP3   OH2 2210   6.457   4.976   3.555 -0.2776  0.0420 -0.2627
  749TIP3    H1 2211   6.388   4.911   3.545  0.1686 -0.3601 -0.7816
  749TIP3    H2 2212   6.524   4.950   3.492  0.3316  0.4460  0.2075
  750TIP3   OH2 2213   6.456   3.903   3.641 -0.1439 -0.0661  0.0114
  750TIP3    H1 2214   6.425   3.820   3.679 -1.2099 -0.5141 -1.7477
  750TIP3    H2 2215   6.507   3.876   3.565  0.9629  0.8638  0.4038
  751TIP3   OH2 2216   5.751   4.475   5.489  0.4389  0.4176  0.4307
  751TIP3    H1 2217   5.676   4.417   5.502  0.5615  0.2042  0.1853
  751TIP3    H2 2218   5.718   4.542   5.428  0.1980  0.7982  0.9680
  752TIP3   OH2 2219   5.619   6.385   3.876 -0.1608 -0.0782 -0.1106
  752TIP3    H1 2220   5.590   6.293   3.874  0.8660 -0.4735  1.3732
  752TIP3    H2 2221   5.538   6.436   3.871 -0.8850 -1.0989  0.8265
  753TIP3   OH2 2222   3.426   6.066   2.801 -0.1247  0.4529 -0.3294
  753TIP3    H1 2223   3.485   6.141   2.789  0.6664 -0.2742 -1.1495
  753TIP3    H2 2224   3.349   6.102   2.845  0.7771  1.5032  0.4363
  754TIP3   OH2 2225   1.617   3.855   1.351  0.0617  0.0794 -0.0061
  754TIP3    H1 2226   1.578   3.773   1.323 -1.2409  0.6732  0.0074
  754TIP3    H2 2227   1.685   3.829   1.414 -0.0454 -0.9937 -0.3135
  755TIP3   OH2 2228   7.191   2.377   0.812 -0.4288  0.3382 -0.6212
  755TIP3    H1 2229   7.115   2.329   0.779 -0.7065 -1.4652  2.3420
  755TIP3    H2 2230   7.266   2.323   0.788 -0.4541  0.0608 -0.0860
  756TIP3   OH2 2231   2.975   5.721   4.339  0.5277  0.0532  0.0314
  756TIP3    H1 2232   2.914   5.777   4.290 -0.6608 -2.0849 -1.0805
  756TIP3    H2 2233   3.048   5.707   4.278  0.9206  0.5184  0.3855
  757TIP3   OH2 2234   3.842   6.197   1.654  0.1829 -0.7329  0.2631
  757TIP3    H1 2235   3.790   6.273   1.681  0.3658 -1.3676  2.5384
  757TIP3    H2 2236   3.930   6.215   1.688  0.7244 -1.1051 -0.8750
  758TIP3   OH2 2237   4.538   4.777   5.014  0.0077  0.0163  0.2159
  758TIP3    H1 2238   4.512   4.840   4.946  0.4101 -0.9593 -0.8654
  758TIP3    H2 2239   4.463   4.776   5.075 -1.1365 -0.3882 -1.1512
  759TIP3   OH2 2240   1.321   1.453   1.918 -0.1653 -0.2366 -0.4109
  759TIP3    H1 2241   1.265   1.417   1.987 -1.1392  0.8405 -0.5964
  759TIP3    H2 2242   1.393   1.391   1.910 -0.2859 -0.6305  1.2334
  760TIP3   OH2 2243   6.868   5.957   1.342  0.7865  0.2111 -0.4348
  760TIP3    H1 2244   6.949   5.990   1.381  0.0374  1.6623 -0.0346
  760TIP3    H2 2245   6.890   5.941   1.251  1.5095  0.6275 -0.3412
  761TIP3   OH2 2246   2.962   1.268   2.105  0.6743  0.6020 -0.5599
  761TIP3    H1 2247   3.006   1.260   2.020 -1.2512  0.0417 -1.5502
  761TIP3    H2 2248   3.020   1.224   2.167  1.5968  0.0822 -1.7677
  762TIP3   OH2 2249   1.896   1.015   3.211  0.0621  0.0411 -0.6076
  762TIP3    H1 2250   1.937   0.939   3.252 -1.8561 -0.7752 -0.0665
  762TIP3    H2 2251   1.960   1.045   3.147  0.9660 -1.9039 -0.6966
  763TIP3   OH2 2252   2.300   2.310   3.947  0.0481  0.2829  0.1571
  763TIP3    H1 2253   2.252   2.393   3.950  0.6042  0.6307 -0.3385
  763TIP3    H2 2254   2.321   2.299   3.854  2.8573  1.2642  0.5958
  764TIP3   OH2 2255   5.064   3.829   1.226  0.1060  0.4651  0.0562
  764TIP3    H1 2256   5.099   3.889   1.292 -0.1434  4.5311 -3.1240
  764TIP3    H2 2257   5.141   3.792   1.184  0.3860  1.2096 -0.1074
  765TIP3   OH2 2258   4.030   1.552   5.592 -0.6129  0.0427  0.0090
  765TIP3    H1 2259   4.058   1.486   5.656 -0.1559 -0.2186 -0.4586
  765TIP3    H2 2260   4.112   1.589   5.558 -0.8433 -0.0905 -0.7034
  766TIP3   OH2 2261   0.877   1.203   3.921 -0.0654 -0.1658 -0.0806
  766TIP3    H1 2262   0.880   1.138   3.991 -0.0642 -0.5684 -0.4487
  766TIP3    H2 2263   0.816   1.166   3.857  1.9879 -1.1655 -1.6066
  767TIP3   OH2 2264   6.790   6.645   3.313 -0.2010 -0.3654 -0.4453
  767TIP3    H1 2265   6.875   6.609   3.340 -0.5067 -1.0575 -0.3953
  767TIP3    H2 2266   6.799   6.661   3.219  0.8202  1.9147 -0.0143
  768TIP3   OH2 2267   6.297   2.560   0.514 -0.3900  0.0130 -0.1119
  768TIP3    H1 2268   6.234   2.562   0.586 -0.9673 -1.2016 -0.5526
  768TIP3    H2 2269   6.365   2.622   0.540 -1.2161  0.5327  0.8865
  769TIP3   OH2 2270   4.663   6.574   3.120  0.5573  0.3761  0.1859
  769TIP3    H1 2271   4.619   6.606   3.199  1.0462  1.0507  0.1948
  769TIP3    H2 2272   4.697   6.488   3.145  1.9062  1.1534  1.1850
  770TIP3   OH2 2273   0.854   6.174   4.281  0.0528 -0.0404  0.2389
  770TIP3    H1 2274   0.815   6.088   4.264  1.0363 -0.2315 -1.1757
  770TIP3    H2 2275   0.888   6.203   4.196  0.0956  1.5777  0.7718
  771TIP3   OH2 2276   5.050   4.436   3.876 -0.0924  0.2673 -0.5527
  771TIP3    H1 2277   5.138   4.399   3.875  1.1204  2.7044  2.4311
  771TIP3    H2 2278   5.001   4.382   3.938  0.0275  0.3359 -0.3980
  772TIP3   OH2 2279   3.670   5.911   1.274 -0.5451  0.3583  0.4031
  772TIP3    H1 2280   3.631   5.851   1.338 -1.0189  1.0057  0.7313
  772TIP3    H2 2281   3.650   5.872   1.189  2.7225 -2.1835  0.6214
  773TIP3   OH2 2282   7.103   3.298   0.058 -0.1403  0.4141 -0.8758
  773TIP3    H1 2283   7.087   3.233   0.127  1.2914  0.6837 -0.2517
  773TIP3    H2 2284   7.018   3.310   0.016 -1.0770  0.2949  0.8991
  774TIP3   OH2 2285   7.057   6.156   1.269  0.4066 -0.0466 -0.3578
  774TIP3    H1 2286   7.151   6.145   1.255  0.3024 -0.1742 -0.9889
  774TIP3    H2 2287   7.019   6.150   1.181 -0.4389 -2.2570  0.0882
  775TIP3   OH2 2288   5.748   0.392   4.312 -0.0409 -0.0736  0.3214
  775TIP3    H1 2289   5.735   0.408   4.219  1.1722  0.1661  0.1723
  775TIP3    H2 2290   5.834   0.351   4.318 -0.3698 -0.6543  1.2866
  776TIP3   OH2 2291   3.152   3.667   3.820  0.4649  0.0737 -0.1510
  776TIP3    H1 2292   3.167   3.713   3.903  0.7873 -0.4364  0.0827
  776TIP3    H2 2293   3.088   3.721   3.774 -0.2913 -0.0132  0.7527
  777TIP3   OH2 2294   3.820   3.737   2.120 -0.0031  0.1162  0.2954
  777TIP3    H1 2295   3.742   3.683   2.132 -0.5619  0.6039 -1.0611
  777TIP3    H2 2296   3.845   3.761   2.209 -1.7537  0.4507  0.7396
  778TIP3   OH2 2297   4.804   1.452   5.451  0.3531 -0.0055  0.2423
  778TIP3    H1 2298   4.830   1.510   5.522  1.1039 -1.0583  0.8466
  778TIP3    H2 2299   4.864   1.378   5.457  1.7864  0.7756 -2.7369
  779TIP3   OH2 2300   1.838   2.709   4.729  0.0937 -0.2829  0.7381
  779TIP3    H1 2301   1.876   2.624   4.749  1.6044  0.2436  0.2721
  779TIP3    H2 2302   1.907   2.755   4.680 -0.4392  1.4176  1.5070
  780TIP3   OH2 2303   1.758   4.355   1.471  0.3877  0.5270  0.8732
  780TIP3    H1 2304   1.835   4.362   1.527  1.4804 -0.3607 -0.4519
  780TIP3    H2 2305   1.728   4.265   1.480  0.7055  0.3098 -0.1008
  781TIP3   OH2 2306   6.069   5.354   2.637 -0.2518  0.3826 -0.3100
  781TIP3    H1 2307   6.059   5.297   2.561 -0.1071  0.8707 -0.7009
  781TIP3    H2 2308   6.068   5.295   2.712  0.3165 -0.1712 -0.7336
  782TIP3   OH2 2309   3.919   5.103   4.790  0.3121  0.5316 -0.8358
  782TIP3    H1 2310   3.868   5.181   4.813  0.3643  0.8023 -1.5934
  782TIP3    H2 2311   3.866   5.059   4.723  0.5957  0.2800 -0.8934
  783TIP3   OH2 2312   0.530   6.747   1.505  0.2914  0.2674 -0.1449
  783TIP3    H1 2313   0.606   6.765   1.561  0.1250 -0.3206  0.2798
  783TIP3    H2 2314   0.521   6.652   1.507  1.0433  0.0993 -2.1802
  784TIP3   OH2 2315   3.481   5.290   3.635 -0.4106 -0.0802 -0.2497
  784TIP3    H1 2316   3.486   5.302   3.540 -0.0049  0.0341 -0.2145
  784TIP3    H2 2317   3.572   5.284   3.663 -0.5439 -0.7257  0.0543
  785TIP3   OH2 2318   5.882   4.971   0.992  0.4362  0.0955 -0.2004
  785TIP3    H1 2319   5.915   4.896   0.944  1.5545 -0.5309  1.4741
  785TIP3    H2 2320   5.928   5.046   0.955  0.6705 -0.2756 -0.6591
  786TIP3   OH2 2321   0.849   2.834   1.082  0.0042 -0.4770  0.1943
  786TIP3    H1 2322   0.781   2.899   1.066  0.8950  0.5220  0.3604
  786TIP3    H2 2323   0.918   2.882   1.128  1.0530 -1.3311 -0.4390
  787TIP3   OH2 2324   5.447   4.407   0.172 -0.3366  0.4847 -0.6788
  787TIP3    H1 2325   5.539   4.424   0.150 -0.4536  0.7089 -1.0000
  787TIP3    H2 2326   5.405   4.388   0.088 -0.6249  0.5849 -0.5598
  788TIP3   OH2 2327   6.432   5.751   2.986 -0.0041 -0.5713 -0.7500
  788TIP3    H1 2328   6.491   5.753   2.911  0.3644 -2.0752 -0.5474
  788TIP3    H2 2329   6.347   5.724   2.949  0.1481 -1.1909 -0.6704
  789TIP3   OH2 2330   5.857   3.165   5.447  0.1143  0.2223 -0.1490
  789TIP3    H1 2331   5.894   3.076   5.443  2.2751  0.9853  1.2369
  789TIP3    H2 2332   5.764   3.153   5.428  0.0951 -2.5117  1.1679
  790TIP3   OH2 2333   5.617   1.745   4.226  0.2578 -0.3717  0.7446
  790TIP3    H1 2334   5.712   1.755   4.233  0.3112  1.5468 -1.5971
  790TIP3    H2 2335   5.587   1.743   4.317  2.5426 -1.8890  1.5753
  791TIP3   OH2 2336   4.905   1.091   0.776 -0.4158  0.0467 -0.0879
  791TIP3    H1 2337   4.986   1.112   0.824 -1.5877  0.5655  1.8095
  791TIP3    H2 2338   4.899   0.996   0.780  0.5995 -0.0790 -1.1483
  792TIP3   OH2 2339   0.739   3.719   3.808 -0.2904 -0.7681 -0.2213
  792TIP3    H1 2340   0.776   3.803   3.780 -2.9417  0.6641  0.2276
  792TIP3    H2 2341   0.738   3.724   3.904 -3.3762  0.1924 -0.2005
  793TIP3   OH2 2342   1.083   4.126   0.738  0.5696 -0.3896 -0.1426
  793TIP3    H1 2343   1.148   4.056   0.730 -0.5340 -1.4346 -0.2158
  793TIP3    H2 2344   1.132   4.206   0.719  1.7636 -1.1785 -0.5101
  794TIP3   OH2 2345   6.254   5.180   2.002 -0.0323 -0.2563  0.0209
  794TIP3    H1 2346   6.178   5.167   2.059  1.6936  0.1322  2.5717
  794TIP3    H2 2347   6.271   5.094   1.964 -0.0785 -1.0576  1.6999
  795TIP3   OH2 2348   5.798   3.083   1.286  0.6760 -0.3432 -0.6727
  795TIP3    H1 2349   5.855   3.153   1.317  0.4074  0.3043 -1.5944
  795TIP3    H2 2350   5.846   3.042   1.214  0.8526 -1.1511 -0.1085
  796TIP3   OH2 2351   7.062   1.767   4.303  0.3329 -0.0497 -0.4752
  796TIP3    H1 2352   6.988   1.762   4.363 -0.7787  0.4723 -1.7677
  796TIP3    H2 2353   7.138   1.742   4.357 -0.3035  2.2239  1.6793
  797TIP3   OH2 2354   0.491   3.400   0.961 -0.2613  0.1806 -0.5151
  797TIP3    H1 2355   0.506   3.370   1.050  1.1360  0.3166 -0.6744
  797TIP3    H2 2356   0.432   3.475   0.970  1.6493  1.6536  0.5637
  798TIP3   OH2 2357   6.674   0.077   4.659 -0.0998 -0.1737  0.3503
  798TIP3    H1 2358   6.622   0.077   4.579 -1.1060  3.3450  0.8190
  798TIP3    H2 2359   6.764   0.092   4.628 -0.5315  1.5831 -0.2126
  799TIP3   OH2 2360   5.316   2.778   0.977  0.4613 -0.3584  0.0219
  799TIP3    H1 2361   5.344   2.864   0.946  1.5466 -0.5637  0.4039
  799TIP3    H2 2362   5.237   2.759   0.927 -0.7167  1.5436  1.0582
  800TIP3   OH2 2363   2.527   2.270   0.487  0.0280  0.5480 -0.9817
  800TIP3    H1 2364   2.530   2.234   0.398  0.9737  1.5797 -1.3816
  800TIP3    H2 2365   2.500   2.361   0.476 -1.2555  0.3134 -0.0685
  801TIP3   OH2 2366   6.201   5.493   0.713  0.2647 -0.7670  0.0974
  801TIP3    H1 2367   6.110   5.465   0.705  0.2475 -1.1336  1.4098
  801TIP3    H2 2368   6.201   5.583   0.679  0.0128 -1.6877 -2.6112
  802TIP3   OH2 2369   7.096   0.840   4.957 -0.2954  0.0623  0.0466
  802TIP3    H1 2370   7.191   0.834   4.943 -0.5747 -1.8932 -1.4404
  802TIP3    H2 2371   7.080   0.785   5.033 -0.2175  0.8316  0.6408
  803TIP3   OH2 2372   6.071   6.630   3.828  0.4309 -0.3208  0.5169
  803TIP3    H1 2373   6.055   6.647   3.921 -1.4673 -0.5530  0.2760
  803TIP3    H2 2374   6.024   6.548   3.811  0.4607 -0.0966 -0.7129
  804TIP3   OH2 2375   6.543   6.377   0.672 -0.4466  0.3063  0.1786
  804TIP3    H1 2376   6.495   6.306   0.629 -1.8579  1.1378  0.2992
  804TIP3    H2 2377   6.548   6.350   0.764  0.8806 -0.5842 -0.1328
  805TIP3   OH2 2378   3.407   6.408   4.370 -0.6390 -0.1107 -0.1127
  805TIP3    H1 2379   3.401   6.417   4.465 -2.1919  1.6332 -0.3242
  805TIP3    H2 2380   3.318   6.424   4.339 -0.2097 -0.8561 -1.8740
  806TIP3   OH2 2381   3.035   3.184   4.525  0.6448 -0.3438 -0.0713
  806TIP3    H1 2382   3.106   3.125   4.501  0.2253 -1.0077  0.2758
  806TIP3    H2 2383   3.032   3.248   4.455  0.5349 -1.2561 -0.9234
  807TIP3   OH2 2384   1.208   4.332   4.710 -0.3660  0.7634 -0.8162
  807TIP3    H1 2385   1.248   4.255   4.751 -2.1709 -0.5864 -1.4851
  807TIP3    H2 2386   1.283   4.388   4.688  0.9536 -0.5076  0.2236
  808TIP3   OH2 2387   3.387   0.710   5.133  0.5296 -0.0403  0.6137
  808TIP3    H1 2388   3.354   0.800   5.125 -0.2188 -0.2997  0.7107
  808TIP3    H2 2389   3.340   0.662   5.064 -0.0134 -0.6154  1.3656
  809TIP3   OH2 2390   4.150   5.179   1.844 -0.5106 -0.1838 -0.2299
  809TIP3    H1 2391   4.204   5.258   1.846 -0.5806 -0.1166 -0.8243
  809TIP3    H2 2392   4.160   5.140   1.931 -1.4630  1.1347  0.4969
  810TIP3   OH2 2393   0.144   4.693   0.313  0.3135  0.4007 -0.0833
  810TIP3    H1 2394   0.168   4.625   0.375 -1.2678 -1.4537 -1.3726
  810TIP3    H2 2395   0.156   4.653   0.227  1.6073  2.5936 -0.9975
  811TIP3   OH2 2396   0.448   1.140   3.101 -0.1992 -0.5103 -0.1630
  811TIP3    H1 2397   0.394   1.196   3.157 -0.3942 -0.1195 -0.7272
  811TIP3    H2 2398   0.393   1.121   3.025 -0.0131 -1.2067 -0.1251
  812TIP3   OH2 2399   2.457   1.054   5.241  0.3059 -0.3617 -0.4870
  812TIP3    H1 2400   2.541   1.081   5.278  0.9991 -1.0591 -1.5067
  812TIP3    H2 2401   2.415   1.135   5.213  0.2415  0.0738  0.8100
  813TIP3   OH2 2402   0.846   1.101   5.295  0.1102  0.0070  0.4646
  813TIP3    H1 2403   0.905   1.162   5.339  0.4694 -0.1468  0.1932
  813TIP3    H2 2404   0.848   1.022   5.348  0.1647 -0.0090  0.4375
  814TIP3   OH2 2405   5.825   0.639   0.287 -0.4196  0.7589  0.3785
  814TIP3    H1 2406   5.732   0.620   0.274 -0.8197  2.5705  0.2946
  814TIP3    H2 2407   5.852   0.680   0.205  0.4493  0.2969  0.4262
  815TIP3   OH2 2408   3.146   1.981   5.406  0.0218  0.3784 -0.3227
  815TIP3    H1 2409   3.205   2.054   5.389  0.5960 -0.0652 -0.2548
  815TIP3    H2 2410   3.093   2.009   5.481 -1.2242  1.5793 -1.5898
  816TIP3   OH2 2411   1.051   3.575   0.514 -0.2064  0.1782  0.1536
  816TIP3    H1 2412   1.048   3.497   0.571 -0.1675  0.3766  0.4279
  816TIP3    H2 2413   0.962   3.610   0.518  0.1246  0.9553  1.1642
  817TIP3   OH2 2414   1.718   0.815   2.323  0.0910  0.0405  0.1853
  817TIP3    H1 2415   1.702   0.873   2.249  1.9020  0.2936 -0.0505
  817TIP3    H2 2416   1.722   0.874   2.399  1.3521  0.2032  0.0231
  818TIP3   OH2 2417   2.113   5.035   2.517 -0.5557 -0.3297  0.3615
  818TIP3    H1 2418   2.110   4.940   2.525 -3.6151 -0.4269 -0.7034
  818TIP3    H2 2419   2.117   5.051   2.423 -0.5770  0.5954  0.5132
  819TIP3   OH2 2420   0.932   0.507   4.559 -0.0809 -0.1537 -0.5819
  819TIP3    H1 2421   1.027   0.494   4.553 -0.1962 -0.8477 -0.8916
  819TIP3    H2 2422   0.918   0.596   4.525  0.4423 -0.0840 -0.6221
  820TIP3   OH2 2423   1.340   2.809   3.258  0.6061 -0.2699  0.0215
  820TIP3    H1 2424   1.342   2.759   3.339 -1.2313  1.1541  1.0152
  820TIP3    H2 2425   1.262   2.779   3.212  1.8067 -1.3108 -1.4519
  821TIP3   OH2 2426   5.262   5.218   0.475  0.7936 -0.1545 -0.0087
  821TIP3    H1 2427   5.313   5.229   0.395 -1.0377 -0.0680 -1.2256
  821TIP3    H2 2428   5.173   5.201   0.444  0.0397 -0.1472  2.0267
  822TIP3   OH2 2429   6.477   1.137   3.109 -0.0961 -0.3730 -0.3514
  822TIP3    H1 2430   6.558   1.187   3.101  0.5183 -1.3772 -0.5031
  822TIP3    H2 2431   6.503   1.053   3.145 -0.9959 -0.9008 -0.8772
  823TIP3   OH2 2432   4.047   3.175   5.834  0.2230 -0.2523 -0.2072
  823TIP3    H1 2433   4.025   3.084   5.856  0.9501 -0.7015 -1.2278
  823TIP3    H2 2434   4.027   3.182   5.740  1.9849  0.0472 -0.6019
  824TIP3   OH2 2435   4.291   3.004   3.524  0.5222  0.1162  0.3649
  824TIP3    H1 2436   4.313   2.925   3.574  1.6919 -0.2601 -0.6777
  824TIP3    H2 2437   4.195   3.005   3.522  0.4822 -1.1968  0.5284
  825TIP3   OH2 2438   5.831   0.278   2.169 -0.3809  0.0210  0.0417
  825TIP3    H1 2439   5.787   0.360   2.190 -0.0474  0.2383 -0.1114
  825TIP3    H2 2440   5.922   0.302   2.154 -0.3307 -0.3386 -0.2556
  826TIP3   OH2 2441   1.807   6.784   5.453 -0.1424 -0.1683  0.7469
  826TIP3    H1 2442   1.891   6.812   5.491 -0.0941 -1.2056  1.4572
  826TIP3    H2 2443   1.742   6.806   5.520 -0.5065  0.9516  0.0534
  827TIP3   OH2 2444   3.513   5.321   0.131  0.5276 -0.3403  0.0339
  827TIP3    H1 2445   3.601   5.357   0.126  0.2039  0.5665  0.6516
  827TIP3    H2 2446   3.491   5.323   0.224 -0.3175 -0.1240 -0.1608
  828TIP3   OH2 2447   2.391   4.559   5.295 -0.7468 -0.4448 -0.0646
  828TIP3    H1 2448   2.305   4.596   5.273 -0.3848  0.7789  0.5073
  828TIP3    H2 2449   2.387   4.470   5.261 -1.7338  0.0285 -1.2963
  829TIP3   OH2 2450   2.327   5.860   5.751 -0.1694 -0.1270  0.1839
  829TIP3    H1 2451   2.416   5.830   5.766 -0.9973 -1.8341  2.1172
  829TIP3    H2 2452   2.302   5.820   5.668  0.0364 -1.8228  0.8934
  830TIP3   OH2 2453   1.807   4.719   1.098 -0.1847 -0.4645  0.2052
  830TIP3    H1 2454   1.766   4.805   1.115 -0.3818 -0.1838 -1.5308
  830TIP3    H2 2455   1.848   4.696   1.182  2.2338  2.5913  0.0713
  831TIP3   OH2 2456   5.074   4.567   1.614 -0.1502 -0.4810  0.4364
  831TIP3    H1 2457   5.159   4.606   1.592 -1.1726 -0.0257 -3.4227
  831TIP3    H2 2458   5.032   4.632   1.670  0.7876  0.8532 -0.3509
  832TIP3   OH2 2459   0.742   2.762   4.450 -0.2795 -0.2702  0.4256
  832TIP3    H1 2460   0.653   2.779   4.417 -0.6223 -2.6374 -0.1200
  832TIP3    H2 2461   0.738   2.671   4.480  2.2587 -0.8162 -0.6743
  833TIP3   OH2 2462   0.505   1.009   2.211  0.2370  0.1694  0.0187
  833TIP3    H1 2463   0.570   0.939   2.210  0.5737  0.4722  0.4616
  833TIP3    H2 2464   0.468   1.009   2.123  0.7776 -0.0602 -0.2106
  834TIP3   OH2 2465   3.559   2.070   3.758  0.7019 -0.3411 -0.0803
  834TIP3    H1 2466   3.502   2.002   3.794 -0.7022  0.1650 -1.2931
  834TIP3    H2 2467   3.531   2.080   3.668  0.4425  2.3128  0.2390
  835TIP3   OH2 2468   0.246   3.484   5.089  0.1237 -0.0380 -0.0676
  835TIP3    H1 2469   0.175   3.529   5.041  0.1216  1.3843  1.1798
  835TIP3    H2 2470   0.232   3.510   5.180  0.8459 -1.6976  0.5396
  836TIP3   OH2 2471   2.935   1.504   0.890 -0.2403 -0.4416 -0.1525
  836TIP3    H1 2472   3.015   1.509   0.838 -0.4827 -0.1430 -0.5081
  836TIP3    H2 2473   2.882   1.437   0.846 -0.2789 -0.4768 -0.0523
  837TIP3   OH2 2474   4.902   1.104   3.064 -0.1205  0.4101  0.5653
  837TIP3    H1 2475   4.997   1.115   3.069  0.0683 -0.0500 -1.3988
  837TIP3    H2 2476   4.876   1.080   3.153  1.7628 -0.6483  0.8784
  838TIP3   OH2 2477   2.468   2.946   1.354  0.3217 -0.4536 -0.6434
  838TIP3    H1 2478   2.520   2.901   1.421 -0.3664  0.6633  0.7025
  838TIP3    H2 2479   2.511   2.924   1.271  1.9337 -0.9205  0.2681
  839TIP3   OH2 2480   0.111   2.399   1.525 -0.2039 -0.3711 -0.3715
  839TIP3    H1 2481   0.142   2.361   1.443  0.6657  1.2440 -0.8418
  839TIP3    H2 2482   0.190   2.420   1.574 -0.5425  1.6673 -0.5779
  840TIP3   OH2 2483   0.719   0.140   5.279  0.2790  0.4423 -0.3625
  840TIP3    H1 2484   0.691   0.107   5.194 -1.4327  0.8584 -0.0003
  840TIP3    H2 2485   0.718   0.235   5.270 -2.4761  0.6208  0.7915
  841TIP3   OH2 2486   2.092   6.765   4.486 -0.5702  0.1773  0.1439
  841TIP3    H1 2487   2.051   6.689   4.445  1.3881 -1.8823  1.7446
  841TIP3    H2 2488   2.067   6.758   4.579  0.0046  1.2592  0.3950
  842TIP3   OH2 2489   2.180   6.035   2.653 -0.1401  0.5868  0.1027
  842TIP3    H1 2490   2.091   6.017   2.621 -0.9918  3.0310  0.8519
  842TIP3    H2 2491   2.221   6.083   2.582  0.9811 -1.3402 -0.6223
  843TIP3   OH2 2492   1.044   4.869   4.235 -0.1311  0.1576 -0.1147
  843TIP3    H1 2493   1.119   4.908   4.281 -0.0646  2.2325 -1.8600
  843TIP3    H2 2494   0.994   4.944   4.203 -0.6720 -1.1887 -2.6093
  844TIP3   OH2 2495   4.635   1.013   1.504 -0.0421  0.2543  0.5370
  844TIP3    H1 2496   4.724   1.041   1.523 -0.2613  0.6301  1.0487
  844TIP3    H2 2497   4.638   0.979   1.415  0.5779  0.4071  0.4986
  845TIP3   OH2 2498   5.745   2.091   3.737 -0.1690  0.3940 -0.2288
  845TIP3    H1 2499   5.668   2.035   3.745  0.0459  0.0817 -0.3479
  845TIP3    H2 2500   5.818   2.031   3.726 -0.1817  0.7133 -2.5401
  846TIP3   OH2 2501   3.992   6.191   2.768  0.6337 -0.1754 -0.0933
  846TIP3    H1 2502   4.024   6.233   2.688  0.6430  0.6697  0.3502
  846TIP3    H2 2503   3.979   6.262   2.830 -0.3623 -0.7072  0.3356
  847TIP3   OH2 2504   1.778   2.496   1.489  0.2643 -0.2135 -0.5120
  847TIP3    H1 2505   1.860   2.528   1.527 -0.0898  0.1767 -0.0564
  847TIP3    H2 2506   1.744   2.570   1.438 -0.2630 -0.0500  0.0609
  848TIP3   OH2 2507   2.913   0.412   0.378  0.0958 -0.3522 -0.0878
  848TIP3    H1 2508   2.959   0.330   0.398  1.6673  0.8048  1.2948
  848TIP3    H2 2509   2.920   0.464   0.458 -1.0630  1.0493 -0.8581
  849TIP3   OH2 2510   3.259   5.984   0.495  1.2481 -0.8357  0.2521
  849TIP3    H1 2511   3.299   6.068   0.473  0.3059 -0.0494  1.4524
  849TIP3    H2 2512   3.314   5.949   0.565  1.3053 -0.9580  0.1472
  850TIP3   OH2 2513   3.056   6.002   5.548 -0.1130  0.5790  0.1954
  850TIP3    H1 2514   3.042   5.949   5.627 -1.3565  0.4888 -0.0789
  850TIP3    H2 2515   2.995   5.967   5.484  2.1492 -0.5971 -1.4690
  851TIP3   OH2 2516   3.032   0.753   3.434 -0.0194 -0.5281 -1.0680
  851TIP3    H1 2517   3.108   0.809   3.426  0.0419 -0.6896 -1.6413
  851TIP3    H2 2518   2.959   0.813   3.448  0.4980 -0.4343  2.1072
  852TIP3   OH2 2519   0.072   4.924   3.737 -0.1736 -0.0968  0.3763
  852TIP3    H1 2520  -0.012   4.908   3.693 -0.2032 -0.3882  0.5397
  852TIP3    H2 2521   0.079   5.020   3.741  0.3496 -0.0232 -1.2908
  853TIP3   OH2 2522   2.233   1.518   4.482  0.2798 -0.5081  0.0781
  853TIP3    H1 2523   2.188   1.590   4.438 -0.1828 -2.4335 -2.9321
  853TIP3    H2 2524   2.322   1.549   4.495 -0.3130  1.1538  0.3776
  854TIP3   OH2 2525   2.542   1.524   4.477  0.1626  0.0205  0.1903
  854TIP3    H1 2526   2.497   1.573   4.546  0.6327  1.6867 -0.6371
  854TIP3    H2 2527   2.516   1.433   4.492 -0.6212  0.4709  1.8847
  855TIP3   OH2 2528   3.879   4.364   0.055 -0.0534 -0.2626 -0.5435
  855TIP3    H1 2529   3.947   4.311   0.096  0.7085  1.1586  0.1026
  855TIP3    H2 2530   3.844   4.308  -0.014  0.8364 -1.5264 -0.0198
  856TIP3   OH2 2531   7.019   0.937   0.151  0.2071 -0.1735  0.2098
  856TIP3    H1 2532   7.112   0.930   0.130  0.2507  0.1977  0.2735
  856TIP3    H2 2533   7.017   0.954   0.246  0.1484  1.4367 -0.0460
  857TIP3   OH2 2534   5.474   1.103   4.563  0.5297 -0.4915 -0.1524
  857TIP3    H1 2535   5.545   1.073   4.620  0.6659  0.5222  0.2404
  857TIP3    H2 2536   5.411   1.031   4.562  0.2857 -0.3461  1.6905
  858TIP3   OH2 2537   5.540   1.826   3.916 -0.3640 -0.1035 -1.0893
  858TIP3    H1 2538   5.461   1.878   3.930 -0.2224 -0.0238 -0.5738
  858TIP3    H2 2539   5.571   1.804   4.004 -0.1582 -0.6614 -1.2939
  859TIP3   OH2 2540   1.937   4.139   1.449  0.0504  0.0644  0.0949
  859TIP3    H1 2541   2.033   4.138   1.457  0.1398  1.1950 -0.7134
  859TIP3    H2 2542   1.920   4.101   1.363 -0.2235  0.2016  0.0905
  860TIP3   OH2 2543   3.684   0.318   3.368  0.5056 -0.3310  0.4071
  860TIP3    H1 2544   3.678   0.391   3.306 -0.3526 -2.0745 -1.6600
  860TIP3    H2 2545   3.664   0.240   3.316 -0.1436 -1.9070  2.8655
  861TIP3   OH2 2546   0.969   5.959   4.912 -0.3285  0.4428  0.1449
  861TIP3    H1 2547   0.979   5.962   5.007 -0.0014  0.2372  0.1187
  861TIP3    H2 2548   0.941   5.869   4.894  0.3388  0.2611 -0.0164
  862TIP3   OH2 2549   6.183   5.079   4.007 -0.3479  0.1297  0.3298
  862TIP3    H1 2550   6.130   5.096   3.929  0.5325 -0.3781 -0.4013
  862TIP3    H2 2551   6.271   5.061   3.973  0.1301  0.2180  1.4643
  863TIP3   OH2 2552   2.141   3.492   0.232  0.0089  0.4632  0.1693
  863TIP3    H1 2553   2.209   3.527   0.175  0.5728 -0.0612  0.5145
  863TIP3    H2 2554   2.146   3.397   0.220 -1.2376  0.4540 -0.4588
  864TIP3   OH2 2555   1.063   3.891   1.290 -0.2147  0.5487  0.0051
  864TIP3    H1 2556   1.096   3.872   1.378  3.1139  2.1556 -0.7573
  864TIP3    H2 2557   0.977   3.932   1.305  1.1681  2.7870  2.7279
  865TIP3   OH2 2558   2.006   2.238   5.348 -0.1375 -0.1115 -0.1590
  865TIP3    H1 2559   1.920   2.271   5.374 -0.6204  0.0752 -1.8589
  865TIP3    H2 2560   2.026   2.170   5.412 -0.6270  1.1957  1.4537
  866TIP3   OH2 2561   0.816   0.271   4.523  0.0732 -0.0504 -0.6055
  866TIP3    H1 2562   0.850   0.360   4.528 -1.7050  0.6153  0.6177
  866TIP3    H2 2563   0.724   0.281   4.499 -0.1951 -1.5473 -0.3208
  867TIP3   OH2 2564   6.866   1.942   3.113 -0.4227 -0.5146  0.0648
  867TIP3    H1 2565   6.829   2.016   3.065 -1.1903 -1.3109 -0.6051
  867TIP3    H2 2566   6.803   1.871   3.099  1.3457 -1.9326 -1.0911
  868TIP3   OH2 2567   4.711   6.400   4.247  0.3045  0.3808  0.3148
  868TIP3    H1 2568   4.691   6.484   4.289  0.3557 -0.2817  1.6963
  868TIP3    H2 2569   4.643   6.341   4.278  1.5346 -0.6476  1.1302
  869TIP3   OH2 2570   4.772   1.135   2.271 -0.1244  0.1697  0.4626
  869TIP3    H1 2571   4.820   1.208   2.232 -1.1023  0.1670 -0.8390
  869TIP3    H2 2572   4.717   1.103   2.200 -0.1214 -1.4887  1.1778
  870TIP3   OH2 2573   1.528   5.257   1.951 -0.4434 -0.1103 -0.4614
  870TIP3    H1 2574   1.610   5.207   1.956 -0.7935 -0.5909  0.8573
  870TIP3    H2 2575   1.479   5.230   2.029  0.2119  3.7723  1.5582
  871TIP3   OH2 2576   3.808   2.574   4.521 -0.3416 -0.5374  0.3796
  871TIP3    H1 2577   3.790   2.500   4.579 -1.8324  0.3863  1.1441
  871TIP3    H2 2578   3.884   2.617   4.561  0.9236 -1.9265 -0.3947
  872TIP3   OH2 2579   0.271   1.692   4.504  0.1280  0.1707  0.4807
  872TIP3    H1 2580   0.354   1.659   4.538  0.6730  2.2329  1.3335
  872TIP3    H2 2581   0.294   1.732   4.420 -0.3023 -0.5768 -0.0034
  873TIP3   OH2 2582   2.706   5.662   0.733 -0.0990 -0.1139 -0.2870
  873TIP3    H1 2583   2.617   5.627   0.738  0.0030 -0.6418 -1.7543
  873TIP3    H2 2584   2.695   5.756   0.723 -0.4119  0.1569  2.0541
  874TIP3   OH2 2585   1.484   5.180   1.045 -0.7137 -0.2813  0.2624
  874TIP3    H1 2586   1.539   5.244   1.000 -1.6273  0.1181 -0.3101
  874TIP3    H2 2587   1.466   5.113   0.979 -3.3104  1.0593 -0.5187
  875TIP3   OH2 2588   3.095   0.404   4.287  0.2738 -0.0994  0.1261
  875TIP3    H1 2589   3.001   0.417   4.300  0.8615  2.6206  2.4924
  875TIP3    H2 2590   3.101   0.357   4.204 -3.1088  0.8316 -0.7934
  876TIP3   OH2 2591   6.621   0.231   0.084 -0.2592 -0.1708 -0.9507
  876TIP3    H1 2592   6.645   0.139   0.072 -1.7061 -0.4049 -2.4654
  876TIP3    H2 2593   6.648   0.274   0.003  1.5818  1.0613  0.2463
  877TIP3   OH2 2594   3.409   3.617   0.838 -0.0899  0.5464 -0.2822
  877TIP3    H1 2595   3.445   3.564   0.909 -0.9635  3.1490  2.3240
  877TIP3    H2 2596   3.327   3.573   0.814  0.1167 -0.2721  0.4733
  878TIP3   OH2 2597   7.065   4.302   1.556  0.3748 -0.3174 -0.3379
  878TIP3    H1 2598   7.142   4.252   1.530  0.7492 -0.1774  0.4562
  878TIP3    H2 2599   7.033   4.258   1.635  0.5998  0.5762  0.2605
  879TIP3   OH2 2600   3.018   6.819   1.027  0.1410  0.4210  0.0720
  879TIP3    H1 2601   3.085   6.758   1.059  0.3093  1.0449  0.9761
  879TIP3    H2 2602   3.031   6.821   0.932  0.5005 -0.5101  0.0904
  880TIP3   OH2 2603   4.875   5.960   5.453  0.2534 -0.0604  0.5273
  880TIP3    H1 2604   4.794   5.976   5.502 -0.6094 -0.2467 -0.7892
  880TIP3    H2 2605   4.943   5.959   5.520 -0.9655 -1.0663  1.8207
  881TIP3   OH2 2606   1.578   4.918   1.539 -0.5869  0.2501  0.1099
  881TIP3    H1 2607   1.525   4.938   1.462 -2.4548 -1.7707  0.7782
  881TIP3    H2 2608   1.652   4.867   1.506 -0.2456  1.1260 -0.5335
  882TIP3   OH2 2609   6.242   4.978   1.229  0.0990  0.4672 -0.0977
  882TIP3    H1 2610   6.304   5.019   1.290 -0.1951  0.8280 -0.0408
  882TIP3    H2 2611   6.162   4.968   1.279 -0.2233  0.9980 -0.4958
  883TIP3   OH2 2612   4.119   3.523   5.579 -0.3912 -0.5379 -0.3412
  883TIP3    H1 2613   4.077   3.539   5.663 -2.0421 -4.2302 -0.2792
  883TIP3    H2 2614   4.059   3.559   5.514 -0.0698  0.5481 -0.0625
  884TIP3   OH2 2615   2.692   6.751   2.134 -0.7893 -0.4169 -0.0981
  884TIP3    H1 2616   2.619   6.689   2.129 -1.5938  0.5566 -0.7626
  884TIP3    H2 2617   2.670   6.819   2.070  0.7049 -0.1002 -0.3178
  885TIP3   OH2 2618   0.411   6.199   0.753 -0.7343 -0.5616  0.4154
  885TIP3    H1 2619   0.345   6.265   0.731 -0.4745 -0.0681  1.0959
  885TIP3    H2 2620   0.444   6.226   0.838  0.9905 -0.2753 -0.2993
  886TIP3   OH2 2621   5.681   0.436   4.053  0.7150  0.3353 -0.2832
  886TIP3    H1 2622   5.598   0.483   4.044 -0.0275 -0.7229  0.6712
  886TIP3    H2 2623   5.672   0.360   3.995 -0.1516 -1.2347  1.7265
  887TIP3   OH2 2624   1.648   5.839   2.451 -0.4958 -0.0321  0.0787
  887TIP3    H1 2625   1.567   5.806   2.412  0.1594 -0.5973 -0.8465
  887TIP3    H2 2626   1.651   5.932   2.425  0.1820 -0.5137 -1.7261
  888TIP3   OH2 2627   0.118   6.119   1.787  0.5948 -0.3385  0.3048
  888TIP3    H1 2628   0.153   6.070   1.861 -0.3165 -0.9419  0.3542
  888TIP3    H2 2629   0.041   6.164   1.822  0.1736 -0.6034 -0.2534
  889TIP3   OH2 2630   3.047   6.146   0.439  0.0299 -0.3545  0.4366
  889TIP3    H1 2631   3.104   6.069   0.444 -0.7275 -0.8873  1.0677
  889TIP3    H2 2632   2.968   6.120   0.486 -1.7986 -0.5483 -2.5057
  890TIP3   OH2 2633   2.686   6.454   0.198 -0.2670  0.0940 -0.2731
  890TIP3    H1 2634   2.688   6.455   0.103  0.1318 -1.4393 -0.3181
  890TIP3    H2 2635   2.593   6.443   0.220 -0.3700  0.5461 -0.4804
  891TIP3   OH2 2636   4.480   0.794   2.681 -0.0265 -0.4238  0.6037
  891TIP3    H1 2637   4.454   0.883   2.706  0.7326 -0.4657  1.6013
  891TIP3    H2 2638   4.407   0.763   2.627 -0.2495  0.8389  0.1369
  892TIP3   OH2 2639   0.073   4.930   4.599  0.1525  0.4953  0.3631
  892TIP3    H1 2640   0.124   4.852   4.618 -1.3421 -0.7085 -0.3054
  892TIP3    H2 2641   0.137   4.997   4.574  1.3244 -1.5394 -2.5723
  893TIP3   OH2 2642   3.413   3.895   0.264 -0.7220 -0.3274 -0.0686
  893TIP3    H1 2643   3.388   3.931   0.179 -0.3205 -0.0670 -0.0756
  893TIP3    H2 2644   3.503   3.867   0.253 -0.9109 -0.9992  0.0484
  894TIP3   OH2 2645   1.747   5.014   0.095  0.2074  0.6094 -0.1378
  894TIP3    H1 2646   1.698   5.087   0.057 -1.3010 -0.4918 -0.4180
  894TIP3    H2 2647   1.738   5.026   0.190 -0.2675  0.6380 -0.1850
  895TIP3   OH2 2648   0.585   4.064   2.825  0.1454 -0.1966 -0.5132
  895TIP3    H1 2649   0.521   4.135   2.823  0.1581 -0.1748 -0.1588
  895TIP3    H2 2650   0.670   4.108   2.819  0.2068 -0.0947  0.8942
  896TIP3   OH2 2651  -0.018   2.117   3.677  0.2110 -0.0014 -0.1938
  896TIP3    H1 2652   0.049   2.135   3.742  0.9650 -1.4415 -0.5333
  896TIP3    H2 2653   0.023   2.138   3.593  1.0860 -2.8746 -0.5984
  897TIP3   OH2 2654   5.587   3.787   1.128  0.0710 -0.3050  0.0195
  897TIP3    H1 2655   5.647   3.804   1.200 -1.8369  0.6644  1.4730
  897TIP3    H2 2656   5.520   3.856   1.135 -1.4291 -1.5389 -1.2555
  898TIP3   OH2 2657   6.052   4.071   4.036 -0.1282  0.2663  0.4367
  898TIP3    H1 2658   6.137   4.026   4.038 -0.2844 -0.0095  0.8826
  898TIP3    H2 2659   6.062   4.136   3.966  0.7572  0.8271  1.0658
  899TIP3   OH2 2660   1.649   5.687   4.706 -0.1849 -0.2258 -0.5197
  899TIP3    H1 2661   1.560   5.661   4.730 -0.2868  1.4064  1.1172
  899TIP3    H2 2662   1.658   5.776   4.739  1.5392  0.2594 -2.0907
  900TIP3   OH2 2663   1.550   2.167   1.172  0.0005 -0.6102  0.0518
  900TIP3    H1 2664   1.479   2.222   1.139  0.9365  1.1803  0.8293
  900TIP3    H2 2665   1.508   2.109   1.236 -0.7455  0.6840  0.7939
  901TIP3   OH2 2666   6.949   6.601   0.165  0.3039  0.1849  0.5298
  901TIP3    H1 2667   6.955   6.563   0.253 -0.6338 -0.7040  0.2338
  901TIP3    H2 2668   6.922   6.691   0.180  1.3016  0.3936  1.1959
  902TIP3   OH2 2669   6.859   1.476   2.848  0.6492 -0.1382  0.4620
  902TIP3    H1 2670   6.950   1.506   2.847  0.4519  0.5206 -1.4169
  902TIP3    H2 2671   6.807   1.555   2.835 -0.1790 -0.5482  1.2272
  903TIP3   OH2 2672   4.709   5.145   0.421 -0.2965  0.6249  0.1458
  903TIP3    H1 2673   4.681   5.137   0.330  1.0524  0.4358 -0.2764
  903TIP3    H2 2674   4.628   5.144   0.472 -1.0381  0.1737 -1.0136
  904TIP3   OH2 2675   0.611   0.144   3.143  0.4821 -0.0247  0.0519
  904TIP3    H1 2676   0.561   0.069   3.110  0.3288  0.1341 -0.0816
  904TIP3    H2 2677   0.548   0.217   3.142  0.6389  0.1132  0.1477
  905TIP3   OH2 2678   1.500   2.410   1.519 -1.2780 -1.0546  0.3191
  905TIP3    H1 2679   1.503   2.326   1.565 -0.5768 -0.2577  1.7834
  905TIP3    H2 2680   1.584   2.451   1.537 -1.0631 -0.5926 -1.5197
  906TIP3   OH2 2681   6.736   4.700   2.949 -0.7189 -0.2729 -0.0465
  906TIP3    H1 2682   6.699   4.784   2.922 -0.6579 -0.3941 -0.5213
  906TIP3    H2 2683   6.667   4.636   2.928 -0.5308 -0.4115 -0.2452
  907TIP3   OH2 2684   0.497   4.423   4.001 -0.1639  0.1286  0.2306
  907TIP3    H1 2685   0.550   4.372   3.941  0.1689 -0.0083  0.6418
  907TIP3    H2 2686   0.415   4.374   4.010 -0.8352  0.8996 -1.2845
  908TIP3   OH2 2687   0.380   1.717   0.628  0.1315 -0.3576 -0.1219
  908TIP3    H1 2688   0.330   1.798   0.632  0.1094 -0.3354 -0.7174
  908TIP3    H2 2689   0.460   1.735   0.678 -1.2462 -1.0075  2.5076
  909TIP3   OH2 2690   5.173   5.599   1.108  0.1760  0.0675 -0.4270
  909TIP3    H1 2691   5.268   5.589   1.122 -0.0073 -0.1794  0.7607
  909TIP3    H2 2692   5.144   5.512   1.079  0.2236 -0.0186 -0.2190
  910TIP3   OH2 2693   1.198   3.153   4.642 -0.2286  0.0609 -0.0676
  910TIP3    H1 2694   1.144   3.077   4.664 -0.4239  0.2585  0.1433
  910TIP3    H2 2695   1.266   3.156   4.709  0.5516 -0.6703 -0.8007
  911TIP3   OH2 2696   2.445   1.483   1.687 -0.0867 -0.4908  0.0775
  911TIP3    H1 2697   2.454   1.575   1.666  0.5798  0.0069  2.3275
  911TIP3    H2 2698   2.356   1.460   1.658 -0.9362  1.3327  1.1157
  912TIP3   OH2 2699   0.880   1.078   3.190  0.4726 -0.1171 -0.5036
  912TIP3    H1 2700   0.839   1.000   3.227  0.1497  0.5137  0.5290
  912TIP3    H2 2701   0.972   1.070   3.212  0.4962 -0.3951 -0.7178
  913TIP3   OH2 2702   7.098   4.564   4.025  0.2827  0.9944 -0.0900
  913TIP3    H1 2703   7.064   4.489   4.073 -2.0899  1.4170 -0.9800
  913TIP3    H2 2704   7.192   4.563   4.043  0.2882 -1.9597  0.1967
  914TIP3   OH2 2705   6.658   0.406   0.524  0.5309  0.3588  0.5240
  914TIP3    H1 2706   6.646   0.496   0.493  2.6103 -0.1585 -2.1092
  914TIP3    H2 2707   6.651   0.353   0.446  3.8069 -1.3149  1.2206
  915TIP3   OH2 2708   3.339   1.184   0.767  0.2693 -0.1554 -0.5482
  915TIP3    H1 2709   3.313   1.251   0.830 -1.8509 -0.6956 -0.7452
  915TIP3    H2 2710   3.274   1.114   0.779  1.2744 -1.3201 -1.6647
  916TIP3   OH2 2711   1.644   0.218   3.740 -0.2791 -0.3157 -0.3816
  916TIP3    H1 2712   1.717   0.190   3.685  0.5103 -2.9942  1.8081
  916TIP3    H2 2713   1.650   0.314   3.741  0.7591 -0.2529 -3.3416
  917TIP3   OH2 2714   6.251   6.054   4.274  0.1124  0.2047  0.1487
  917TIP3    H1 2715   6.177   5.994   4.275 -1.2348  1.7182 -1.3525
  917TIP3    H2 2716   6.325   6.001   4.245 -0.4687 -1.2284  1.1947
  918TIP3   OH2 2717   6.645   4.829   1.117  0.1847 -0.0469  0.2421
  918TIP3    H1 2718   6.733   4.797   1.135  0.4166 -1.0377 -2.3153
  918TIP3    H2 2719   6.647   4.860   1.027 -2.3849 -1.4409 -0.4246
  919TIP3   OH2 2720   6.146   4.490   0.608 -0.6954 -0.0520 -0.5975
  919TIP3    H1 2721   6.201   4.533   0.675 -0.6805 -1.6305  0.4511
  919TIP3    H2 2722   6.209   4.452   0.547 -0.5948 -1.1137  0.1300
  920TIP3   OH2 2723   4.001   4.847   4.028 -0.2546 -0.3573 -0.2957
  920TIP3    H1 2724   4.095   4.833   4.039 -0.1678  0.7045  0.4545
  920TIP3    H2 2725   3.991   4.870   3.936  0.2904 -0.0008 -0.2718
  921TIP3   OH2 2726   6.528   4.994   3.257 -0.0632 -0.6540  0.2645
  921TIP3    H1 2727   6.473   4.946   3.196 -1.6729  1.3873  0.0019
  921TIP3    H2 2728   6.589   5.043   3.202 -0.2099 -0.3313  0.3868
  922TIP3   OH2 2729   6.937   0.725   5.816  0.1519 -0.3805  0.3859
  922TIP3    H1 2730   6.980   0.798   5.772 -0.6016 -0.9336 -1.3239
  922TIP3    H2 2731   6.870   0.767   5.871  0.5076  0.2718  0.3379
  923TIP3   OH2 2732   2.210   2.029   2.216  0.0748 -0.5782  0.0951
  923TIP3    H1 2733   2.288   1.978   2.196  0.0588 -1.5616  2.2586
  923TIP3    H2 2734   2.138   1.978   2.179  0.0846 -2.0524  1.9869
  924TIP3   OH2 2735   3.478   5.594   0.651 -0.0983 -0.1726  0.5134
  924TIP3    H1 2736   3.470   5.686   0.678 -1.1830 -0.4031  1.0572
  924TIP3    H2 2737   3.442   5.592   0.562 -0.1180 -0.0819  0.5193
  925TIP3   OH2 2738   3.298   1.912   2.850 -0.3772 -0.3042 -0.9365
  925TIP3    H1 2739   3.229   1.977   2.864 -0.5040 -0.0018 -2.6448
  925TIP3    H2 2740   3.365   1.959   2.801  1.3584 -0.4486  1.1652
  926TIP3   OH2 2741   0.207   3.514   0.844  0.2053 -0.9027 -0.0115
  926TIP3    H1 2742   0.272   3.564   0.892 -1.2779  0.9175  0.2319
  926TIP3    H2 2743   0.127   3.566   0.851 -0.9809 -2.4375 -1.3250
  927TIP3   OH2 2744   5.441   5.655   0.514  0.9293 -0.7658  0.2548
  927TIP3    H1 2745   5.498   5.626   0.586  0.9915 -0.8270  0.1807
  927TIP3    H2 2746   5.424   5.747   0.533 -0.2786 -1.1578  1.1717
  928TIP3   OH2 2747   1.418   3.502   4.431  0.4161 -0.4078 -0.1972
  928TIP3    H1 2748   1.406   3.588   4.391 -0.5475 -0.4168  0.0499
  928TIP3    H2 2749   1.409   3.440   4.358  0.8465 -0.3171 -0.3294
  929TIP3   OH2 2750   5.901   6.063   1.814  0.1393 -0.1856 -0.1732
  929TIP3    H1 2751   5.835   6.109   1.763  0.6626 -1.7758 -2.4502
  929TIP3    H2 2752   5.977   6.122   1.813 -0.9434  1.3550  1.9004
  930TIP3   OH2 2753   5.502   6.063   2.591 -0.0051 -0.2914  0.6348
  930TIP3    H1 2754   5.565   5.996   2.617  1.2761  0.9589  0.8727
  930TIP3    H2 2755   5.468   6.097   2.673  0.3581  0.2569  0.5656
  931TIP3   OH2 2756   1.999   3.806   0.111  0.6401 -0.0080 -0.2643
  931TIP3    H1 2757   1.989   3.901   0.102 -3.0569 -0.3007 -1.1956
  931TIP3    H2 2758   1.982   3.771   0.024  2.7012 -1.5667 -0.1168
  932TIP3   OH2 2759   4.715   2.454   0.853  0.2732  0.3173 -0.0956
  932TIP3    H1 2760   4.680   2.505   0.781 -0.0632  0.6975  0.3364
  932TIP3    H2 2761   4.696   2.505   0.932  0.8370  0.0198  0.2475
  933TIP3   OH2 2762   2.125   4.648   0.660  0.6727  0.0755  0.2704
  933TIP3    H1 2763   2.079   4.587   0.717 -0.3138  1.5851  1.1296
  933TIP3    H2 2764   2.218   4.625   0.670  0.4481 -0.2238  1.8412
  934TIP3   OH2 2765   4.453   3.511   1.239  0.5326  0.0678 -0.4260
  934TIP3    H1 2766   4.461   3.597   1.199 -1.4437  0.9938  1.0205
  934TIP3    H2 2767   4.515   3.512   1.312  0.7136  0.1600 -0.5815
  935TIP3   OH2 2768   6.386   1.023   1.729 -0.0352 -0.5278 -0.1720
  935TIP3    H1 2769   6.384   1.017   1.633  2.0389  1.5921 -0.4361
  935TIP3    H2 2770   6.341   1.104   1.750 -0.0507 -0.7286  0.6227
  936TIP3   OH2 2771   4.308   2.528   1.773  0.3547 -0.2352  0.2456
  936TIP3    H1 2772   4.353   2.463   1.719  0.3683  0.2112 -0.2930
  936TIP3    H2 2773   4.225   2.486   1.796  0.3485 -0.4310 -0.1247
  937TIP3   OH2 2774   2.357   4.070   0.331 -0.1350 -0.7842 -0.2573
  937TIP3    H1 2775   2.403   3.999   0.288 -0.7359 -0.8839 -0.7481
  937TIP3    H2 2776   2.333   4.035   0.417 -1.4975 -1.6241 -0.9402
  938TIP3   OH2 2777   5.717   4.903   1.689 -0.1599  0.4099 -0.5894
  938TIP3    H1 2778   5.778   4.911   1.762  0.2275  0.7159 -0.9356
  938TIP3    H2 2779   5.654   4.974   1.702 -0.8326 -0.3122  0.1247
  939TIP3   OH2 2780   5.315   5.695   5.285  0.0429  0.5284 -0.2188
  939TIP3    H1 2781   5.220   5.690   5.286  0.0861 -1.7406 -0.7833
  939TIP3    H2 2782   5.342   5.626   5.223  1.9986  2.5952 -1.8772
  940TIP3   OH2 2783   2.439   2.715   0.129 -0.0071  0.4709  0.1553
  940TIP3    H1 2784   2.378   2.661   0.079  0.0219 -0.5561  1.1845
  940TIP3    H2 2785   2.466   2.784   0.068  1.5766 -1.8473 -1.9488
  941TIP3   OH2 2786   1.760   0.462   2.949  0.6080  0.4838 -0.3642
  941TIP3    H1 2787   1.704   0.526   2.992  0.3742  0.3203 -0.4226
  941TIP3    H2 2788   1.700   0.405   2.901  0.8390  0.4337 -0.5987
  942TIP3   OH2 2789   2.146   2.326   3.619 -0.1968  0.0214  0.0882
  942TIP3    H1 2790   2.069   2.282   3.655  0.0972  0.2235  1.0012
  942TIP3    H2 2791   2.111   2.393   3.561 -0.7256  0.2407  0.6484
  943TIP3   OH2 2792   5.699   3.242   3.629  0.4806  0.1233 -0.7167
  943TIP3    H1 2793   5.677   3.194   3.710 -0.2262  2.1890  0.3882
  943TIP3    H2 2794   5.795   3.239   3.625  0.4704 -1.0697 -0.5089
  944TIP3   OH2 2795   5.600   4.957   0.920  0.0237 -0.4341  0.0460
  944TIP3    H1 2796   5.599   4.861   0.914 -1.5822 -0.5029  0.8774
  944TIP3    H2 2797   5.693   4.980   0.922  0.4413 -2.0316  0.6729
  945TIP3   OH2 2798   1.673   3.317   0.620 -0.2853 -0.7345  0.4082
  945TIP3    H1 2799   1.650   3.316   0.713 -0.4681  0.4610  0.3985
  945TIP3    H2 2800   1.622   3.390   0.584  1.4612  0.2538 -0.1637
  946TIP3   OH2 2801   0.531   2.410   3.374 -0.2379  0.6332 -0.2305
  946TIP3    H1 2802   0.530   2.478   3.441  0.0210 -0.6874  1.1613
  946TIP3    H2 2803   0.610   2.358   3.393  0.0263  0.4193 -1.7680
  947TIP3   OH2 2804   4.381   2.010   1.495  0.0144  0.6436  0.1558
  947TIP3    H1 2805   4.348   2.093   1.530  0.2002  0.3540  1.0495
  947TIP3    H2 2806   4.394   1.955   1.572 -1.3361 -0.6806 -0.4946
  948TIP3   OH2 2807   1.400   4.287   3.800 -0.0726 -0.3324  0.3475
  948TIP3    H1 2808   1.475   4.243   3.842 -0.4517 -0.7550  0.5854
  948TIP3    H2 2809   1.369   4.349   3.866  0.1364 -0.0689  0.2035
  949TIP3   OH2 2810   2.136   4.942   2.984 -0.2925 -0.2150 -0.1502
  949TIP3    H1 2811   2.144   4.861   2.934 -1.0430  0.1466 -0.8765
  949TIP3    H2 2812   2.210   4.939   3.045  0.0151 -1.1781 -0.5414
  950TIP3   OH2 2813   4.083   2.143   5.260 -0.5915 -0.0247 -0.3934
  950TIP3    H1 2814   4.126   2.155   5.175  0.2492 -1.4448 -0.2033
  950TIP3    H2 2815   4.071   2.048   5.268 -1.6611  0.1704  0.6021
  951TIP3   OH2 2816   4.503   0.162   3.147  0.3057 -0.1107  0.5831
  951TIP3    H1 2817   4.484   0.106   3.223 -1.5116 -0.1656  0.1538
  951TIP3    H2 2818   4.473   0.249   3.174 -0.7017 -0.2058 -0.1734
  952TIP3   OH2 2819   6.942   3.946   5.028 -0.2081 -0.3099 -0.1479
  952TIP3    H1 2820   6.981   3.923   5.112  0.1299  1.0104  0.0782
  952TIP3    H2 2821   6.987   4.027   5.002 -2.2131  0.8270 -0.2768
  953TIP3   OH2 2822   2.760   2.034   5.287  0.3160 -0.1572  0.1356
  953TIP3    H1 2823   2.789   1.951   5.326  0.4104  0.0045  0.4130
  953TIP3    H2 2824   2.698   2.069   5.351 -0.1743 -0.2973 -0.2565
  954TIP3   OH2 2825   6.080   2.942   3.355 -0.4068 -0.4048  0.2123
  954TIP3    H1 2826   6.158   2.916   3.306  0.1168  1.2301  0.1122
  954TIP3    H2 2827   6.101   2.925   3.446 -0.0879 -0.3478  0.1488
  955TIP3   OH2 2828   6.359   1.305   1.760 -0.2846 -0.2784 -0.3338
  955TIP3    H1 2829   6.312   1.315   1.843 -0.0189  0.6815 -0.2923
  955TIP3    H2 2830   6.290   1.298   1.694 -0.4916  0.7092 -0.2297
  956TIP3   OH2 2831   4.394   6.768   3.525 -0.0752 -0.2988 -0.6542
  956TIP3    H1 2832   4.412   6.849   3.573  0.1042 -0.7960  0.1438
  956TIP3    H2 2833   4.305   6.779   3.492  0.2288  0.5436 -1.2293
  957TIP3   OH2 2834   1.228   5.422   1.076  0.6490  0.2457 -0.5327
  957TIP3    H1 2835   1.176   5.449   1.152  1.8139  1.1131 -0.0225
  957TIP3    H2 2836   1.173   5.358   1.032 -0.5670  0.6207  0.3710
  958TIP3   OH2 2837   1.460   0.624   0.109  0.1589 -0.6359  0.6360
  958TIP3    H1 2838   1.401   0.549   0.095  0.8699 -1.5872  2.3793
  958TIP3    H2 2839   1.436   0.657   0.196  0.0047  1.0672 -0.0164
  959TIP3   OH2 2840  -0.020   0.408   0.452 -0.3345  0.2191 -0.3390
  959TIP3    H1 2841  -0.013   0.499   0.424  0.0113  0.2474 -0.1754
  959TIP3    H2 2842   0.071   0.380   0.464 -0.4569  0.0573  0.2539
  960TIP3   OH2 2843   5.100   0.112   3.747  0.4003  0.1958 -0.6555
  960TIP3    H1 2844   5.172   0.065   3.705  0.7934  0.6342 -0.4777
  960TIP3    H2 2845   5.021   0.070   3.713  0.6939  0.7678 -2.1155
  961TIP3   OH2 2846   4.487   5.198   1.793 -0.8649 -0.2129  0.0954
  961TIP3    H1 2847   4.478   5.146   1.713 -0.2129 -0.0739 -0.0702
  961TIP3    H2 2848   4.431   5.274   1.779  0.1661  0.4206 -0.7381
  962TIP3   OH2 2849   4.654   4.805   0.783 -0.1369 -0.2030  0.5186
  962TIP3    H1 2850   4.738   4.851   0.773 -0.7323  1.3813  2.1006
  962TIP3    H2 2851   4.672   4.735   0.845  0.0844 -0.0900  0.5831
  963TIP3   OH2 2852   2.653   1.797   0.314  0.2674  0.7603  0.1299
  963TIP3    H1 2853   2.749   1.789   0.313  0.1992 -0.2241  0.2267
  963TIP3    H2 2854   2.631   1.827   0.226  0.6959  1.5060  0.2673
  964TIP3   OH2 2855   1.836   3.630   1.410  0.6209  0.1335 -0.0605
  964TIP3    H1 2856   1.927   3.601   1.412  0.7830  0.7025  0.9435
  964TIP3    H2 2857   1.832   3.705   1.468 -0.3410  0.5803 -0.6728
  965TIP3   OH2 2858   4.981   6.594   2.934  0.7984 -0.2307  0.4965
  965TIP3    H1 2859   5.009   6.602   3.025 -3.0713  1.5964  1.7092
  965TIP3    H2 2860   5.014   6.674   2.892 -0.4931  0.7507  1.2955
  966TIP3   OH2 2861   1.847   5.710   2.239  0.2909 -0.3975 -0.3106
  966TIP3    H1 2862   1.870   5.621   2.267  1.2921 -0.3030 -0.8173
  966TIP3    H2 2863   1.763   5.726   2.282  0.5085 -1.2626  0.4923
  967TIP3   OH2 2864   2.667   3.131   0.030 -0.4954 -0.1192 -0.3233
  967TIP3    H1 2865   2.637   3.102   0.116  0.9230 -0.8209 -0.0344
  967TIP3    H2 2866   2.625   3.216   0.017 -0.2057  0.3078  1.3518
  968TIP3   OH2 2867   2.454   0.263   2.107  0.0375  0.6833 -0.2840
  968TIP3    H1 2868   2.421   0.348   2.135  2.1434  2.1894 -2.0112
  968TIP3    H2 2869   2.527   0.246   2.166 -0.0831  0.3198 -0.2419
  969TIP3   OH2 2870   6.605   0.271   5.035 -0.3633 -0.1961 -0.8982
  969TIP3    H1 2871   6.590   0.186   4.993 -0.1233 -0.2413 -0.8909
  969TIP3    H2 2872   6.650   0.322   4.968 -0.0071 -0.2580 -0.7043
  970TIP3   OH2 2873   5.315   0.282   3.359  0.4756  0.4249  0.3575
  970TIP3    H1 2874   5.253   0.211   3.373  0.0830  0.0356 -2.7213
  970TIP3    H2 2875   5.372   0.252   3.288  0.9672  2.7265 -0.3265
  971TIP3   OH2 2876   6.686   2.748   0.720  0.4821  0.0134  0.0801
  971TIP3    H1 2877   6.670   2.788   0.805 -2.1454  0.7637 -0.6862
  971TIP3    H2 2878   6.625   2.792   0.661  2.0431 -0.6623 -2.1746
  972TIP3   OH2 2879   6.015   4.119   4.354 -0.1006 -0.2826 -0.3881
  972TIP3    H1 2880   5.964   4.073   4.288 -0.5932 -0.9091  0.4188
  972TIP3    H2 2881   6.052   4.050   4.409 -2.6413  0.2504  2.1790
  973TIP3   OH2 2882   6.012   3.712   3.361 -0.0576 -0.0881  0.3414
  973TIP3    H1 2883   6.003   3.788   3.417 -1.5827  1.1910 -1.5123
  973TIP3    H2 2884   5.922   3.680   3.349  0.3124 -0.8019 -0.6874
  974TIP3   OH2 2885   5.921   2.000   5.394 -0.1532  0.3567 -0.6268
  974TIP3    H1 2886   6.015   2.009   5.411 -0.0743  2.5558 -1.8981
  974TIP3    H2 2887   5.880   2.066   5.450 -1.0314 -0.8648  0.2297
  975TIP3   OH2 2888   2.980   0.021   4.518 -0.2775 -0.1873  0.4856
  975TIP3    H1 2889   3.034   0.051   4.445 -1.6185 -0.0849 -0.5074
  975TIP3    H2 2890   2.912  -0.032   4.477 -1.4211  0.3810  1.5833
  976TIP3   OH2 2891   2.217   0.076   5.201  0.2346  0.5395 -0.5710
  976TIP3    H1 2892   2.203   0.044   5.112  0.3703  1.1365 -0.8111
  976TIP3    H2 2893   2.220   0.171   5.192 -2.1375  0.7575  0.4085
  977TIP3   OH2 2894   2.312   0.920   0.561 -0.2908 -0.5997  0.4686
  977TIP3    H1 2895   2.287   0.844   0.612 -4.3364  0.9480  1.1497
  977TIP3    H2 2896   2.322   0.887   0.472  0.3259 -2.2427  1.1110
  978TIP3   OH2 2897   1.521   3.761   2.379 -0.6860 -0.2120 -0.2839
  978TIP3    H1 2898   1.611   3.784   2.400 -0.2258 -0.9181 -1.3871
  978TIP3    H2 2899   1.528   3.700   2.306 -2.0436 -0.6061 -0.1225
  979TIP3   OH2 2900   3.937   5.441   4.557  0.0867 -0.2587 -0.4216
  979TIP3    H1 2901   4.027   5.461   4.528  0.1025 -2.1175 -1.7832
  979TIP3    H2 2902   3.882   5.464   4.482 -0.7649  1.8232  0.7486
  980TIP3   OH2 2903   2.774   0.953   2.555 -0.2798  0.0229 -0.0271
  980TIP3    H1 2904   2.689   0.979   2.591 -0.2520  0.7224 -0.4507
  980TIP3    H2 2905   2.774   0.858   2.561 -1.2894 -0.0172 -0.4579
  981TIP3   OH2 2906   4.432   0.135   4.115  0.2615  0.0941  0.3488
  981TIP3    H1 2907   4.408   0.111   4.025  1.0693 -0.1972  0.2012
  981TIP3    H2 2908   4.355   0.181   4.149  0.5885  1.8086 -1.0835
  982TIP3   OH2 2909   1.325   2.220   4.873  0.0503  0.3274  0.6429
  982TIP3    H1 2910   1.391   2.259   4.931  1.7809 -1.0331 -0.3043
  982TIP3    H2 2911   1.241   2.245   4.912  1.0966  2.1205  1.9156
  983TIP3   OH2 2912   5.632   5.843   2.127  0.4041 -0.3348 -0.2953
  983TIP3    H1 2913   5.635   5.838   2.031  1.1557 -0.8710 -0.2525
  983TIP3    H2 2914   5.699   5.781   2.156 -0.5066 -0.9095  0.6058
  984TIP3   OH2 2915   3.790   5.178   4.250  0.1264 -0.4599 -0.2912
  984TIP3    H1 2916   3.776   5.237   4.324 -1.6735 -1.0946 -0.0757
  984TIP3    H2 2917   3.884   5.181   4.234  0.3829  0.6267  1.2364
  985TIP3   OH2 2918   3.979   6.439   4.499  0.3308 -0.0360 -0.4800
  985TIP3    H1 2919   4.061   6.471   4.537 -0.5361  0.7339  0.8156
  985TIP3    H2 2920   3.961   6.358   4.546 -0.3046  0.4699  0.1591
  986TIP3   OH2 2921   3.947   6.741   2.687 -0.3310 -0.1795  0.5123
  986TIP3    H1 2922   3.944   6.649   2.716  1.2623 -0.5277 -0.3321
  986TIP3    H2 2923   3.966   6.790   2.767  0.5129 -0.7695  0.6948
  987TIP3   OH2 2924   4.360   2.362   5.460  0.5270  0.3760  0.3175
  987TIP3    H1 2925   4.379   2.269   5.455  0.0392  0.1915  1.5459
  987TIP3    H2 2926   4.431   2.399   5.512  1.0712  0.8205 -0.7036
  988TIP3   OH2 2927   2.702   0.142   5.061  0.2816  0.1073  0.2663
  988TIP3    H1 2928   2.797   0.128   5.060  0.5512  1.6244 -1.5199
  988TIP3    H2 2929   2.688   0.206   5.131  1.0545  2.1708 -1.3319
  989TIP3   OH2 2930   0.810   2.351   0.511 -0.4459 -0.0045 -0.4543
  989TIP3    H1 2931   0.720   2.380   0.496 -0.3254  1.8109  1.8460
  989TIP3    H2 2932   0.864   2.424   0.483  0.2612 -0.4948 -0.3998
  990TIP3   OH2 2933   2.178   0.419   2.794 -0.6699  0.3309 -0.1537
  990TIP3    H1 2934   2.118   0.344   2.799 -1.7725  1.2065  0.4825
  990TIP3    H2 2935   2.148   0.469   2.718 -0.9983  0.9559  0.3722
  991TIP3   OH2 2936   6.340   6.352   4.709 -0.0609 -0.0348  0.1579
  991TIP3    H1 2937   6.273   6.363   4.776 -1.1403 -3.6100 -0.1375
  991TIP3    H2 2938   6.405   6.294   4.749 -0.0767 -1.1954 -1.3932
  992TIP3   OH2 2939   1.927   6.146   0.250  0.1131  0.0597 -0.5185
  992TIP3    H1 2940   2.000   6.149   0.313  0.5164  3.0089 -1.0062
  992TIP3    H2 2941   1.858   6.098   0.296  1.4501 -0.5231  0.9781
  993TIP3   OH2 2942   5.430   5.537   1.108 -0.0467  0.2205  0.3555
  993TIP3    H1 2943   5.524   5.550   1.118 -0.2198  1.4896  0.6397
  993TIP3    H2 2944   5.420   5.445   1.087  1.3599  0.3411 -1.0430
  994TIP3   OH2 2945   6.299   6.051   1.590  0.4436  0.2498  0.0234
  994TIP3    H1 2946   6.306   5.979   1.652 -0.1803  0.0182 -0.1667
  994TIP3    H2 2947   6.241   6.018   1.521  2.2102 -0.0241 -1.4176
  995TIP3   OH2 2948   5.710   1.661   1.031  0.0539 -0.5641 -0.0737
  995TIP3    H1 2949   5.665   1.733   0.987 -1.2168 -0.8503  0.7016
  995TIP3    H2 2950   5.704   1.683   1.124  1.2625 -0.7745  0.0673
  996TIP3   OH2 2951   6.533   0.933   1.957 -0.1001 -0.0236 -0.7205
  996TIP3    H1 2952   6.480   0.975   1.890  1.7183  2.1935 -0.8893
  996TIP3    H2 2953   6.511   0.978   2.038 -0.1988 -0.7223 -0.3493
  997TIP3   OH2 2954   3.061   1.095   2.815  0.1171 -0.8627 -0.1740
  997TIP3    H1 2955   3.064   1.068   2.907 -1.7423 -0.4036  0.0823
  997TIP3    H2 2956   3.123   1.168   2.809  0.8731 -1.4358  0.5048
  998TIP3   OH2 2957   1.641   0.922   3.225  0.3719 -0.5973  0.4876
  998TIP3    H1 2958   1.625   0.872   3.304 -2.7836 -1.3087 -0.4494
  998TIP3    H2 2959   1.728   0.959   3.236  1.6543 -3.8734  2.5094
  999TIP3   OH2 2960   1.625   0.115   0.407 -0.0800  0.0620 -0.1998
  999TIP3    H1 2961   1.563   0.148   0.341  0.1783 -1.2060 -1.1080
  999TIP3    H2 2962   1.684   0.059   0.358  0.6357 -0.2573  0.9939
 1000TIP3   OH2 2963   2.147   1.272   3.490 -0.4060  0.4112 -0.0441
 1000TIP3    H1 2964   2.073   1.229   3.533 -0.4066 -0.5688 -0.9931
 1000TIP3    H2 2965   2.183   1.206   3.432  0.4896  1.2539 -0.4805
 1001TIP3   OH2 2966   5.362   6.804   4.232 -0.1737 -0.2807 -0.3001
 1001TIP3    H1 2967   5.281   6.852   4.246 -1.0114 -1.1436 -1.9154
 1001TIP3    H2 2968   5.335   6.725   4.186  1.6116 -0.5240 -0.9941
 1002TIP3   OH2 2969   0.433   1.353   4.520  0.2921 -0.1770  0.5204
 1002TIP3    H1 2970   0.368   1.314   4.578  0.7245  0.1504  1.2357
 1002TIP3    H2 2971   0.473   1.423   4.571  0.9879 -0.1623 -0.0216
 1003TIP3   OH2 2972   0.158   4.586   4.070  0.6440 -0.7320  0.3141
 1003TIP3    H1 2973   0.194   4.556   3.987  2.5877 -0.4606  0.9884
 1003TIP3    H2 2974   0.213   4.542   4.136  0.4854  0.6388  1.3953
 1004TIP3   OH2 2975   5.617   0.926   0.324  0.4410 -0.0295  0.0299
 1004TIP3    H1 2976   5.550   0.936   0.256 -0.0648  1.0792  0.6560
 1004TIP3    H2 2977   5.567   0.921   0.405  1.1026  0.3937  0.4728
 1005TIP3   OH2 2978   0.561   0.119   0.549  0.1088  0.1394 -0.4815
 1005TIP3    H1 2979   0.593   0.036   0.512  2.1288  0.1203  1.1349
 1005TIP3    H2 2980   0.556   0.178   0.473 -1.2718 -1.3838 -1.6442
 1006TIP3   OH2 2981   5.531   1.540   0.382  0.0551 -0.4707 -0.2146
 1006TIP3    H1 2982   5.496   1.542   0.471 -1.3277 -0.3784 -0.7367
 1006TIP3    H2 2983   5.461   1.499   0.329  0.0664  1.1384 -1.5626
 1007TIP3   OH2 2984   2.118   1.229   2.839  0.5612  0.4083 -0.5074
 1007TIP3    H1 2985   2.182   1.247   2.907 -0.3528  2.1784 -0.0605
 1007TIP3    H2 2986   2.101   1.314   2.799 -1.0742 -0.1235 -1.0037
 1008TIP3   OH2 2987   5.183   3.818   2.011 -0.6061  0.0223  0.6739
 1008TIP3    H1 2988   5.236   3.895   1.989 -0.4654 -0.1216  0.5168
 1008TIP3    H2 2989   5.122   3.809   1.938  0.8357 -1.3464 -0.4211
 1009TIP3   OH2 2990   4.686   1.897   1.611 -0.2161 -0.3691  0.3378
 1009TIP3    H1 2991   4.672   1.935   1.698  1.7760 -0.2420  0.6675
 1009TIP3    H2 2992   4.773   1.857   1.617  0.3072  0.3190 -1.8311
 1010TIP3   OH2 2993   0.751   4.352   2.650  0.4293  0.2479  0.3709
 1010TIP3    H1 2994   0.820   4.341   2.715  0.5691  0.2096  0.2176
 1010TIP3    H2 2995   0.669   4.350   2.700  0.5158 -0.2226  0.4900
 1011TIP3   OH2 2996   2.912   0.938   0.923  0.1389 -0.8220  0.4655
 1011TIP3    H1 2997   2.836   0.986   0.956  1.8622  2.3589  0.2957
 1011TIP3    H2 2998   2.956   0.906   1.002 -0.3854 -1.0575  0.6688
 1012TIP3   OH2 2999   4.799   1.659   0.057 -0.5004  0.8096  0.4652
 1012TIP3    H1 3000   4.713   1.700   0.064 -2.2248 -2.2804 -0.5571
 1012TIP3    H2 3001   4.815   1.624   0.145 -0.6008  0.8015  0.4806
 1013TIP3   OH2 3002   5.623   0.333   1.869  0.3897 -0.1119 -0.0303
 1013TIP3    H1 3003   5.563   0.396   1.829  0.4564 -0.4081 -0.6048
 1013TIP3    H2 3004   5.569   0.257   1.889  0.0996  0.4599  1.5564
 1014TIP3   OH2 3005   3.780   4.041   4.168 -0.3703 -0.3095 -0.2535
 1014TIP3    H1 3006   3.868   4.078   4.168  0.1715 -1.3986  2.2668
 1014TIP3    H2 3007   3.729   4.099   4.111  1.4829  1.5638 -0.1007
 1015TIP3   OH2 3008   4.516   6.643   1.535 -0.2721  0.0768 -0.1501
 1015TIP3    H1 3009   4.572   6.600   1.471 -1.2304 -1.5166  0.0207
 1015TIP3    H2 3010   4.500   6.576   1.601  0.0060  1.4125  1.3477
 1016TIP3   OH2 3011   6.768   3.492   2.928 -0.0345  0.0208  0.3240
 1016TIP3    H1 3012   6.696   3.505   2.866  0.1537 -0.9935 -0.1297
 1016TIP3    H2 3013   6.734   3.525   3.011 -1.7346 -2.0398  0.5513
 1017TIP3   OH2 3014   4.545   1.095   1.141  0.5883  0.2462  0.2829
 1017TIP3    H1 3015   4.490   1.049   1.078 -0.4433 -3.4446  3.4580
 1017TIP3    H2 3016   4.485   1.155   1.186  0.1608 -0.4956  0.7341
 1018TIP3   OH2 3017   5.905   3.617   2.320 -0.4727  0.2354 -0.0643
 1018TIP3    H1 3018   5.933   3.536   2.364 -1.4638 -0.8944 -1.4248
 1018TIP3    H2 3019   5.985   3.650   2.278 -0.3412 -0.8270 -0.6856
 1019TIP3   OH2 3020   3.484   4.292   1.512  0.2404  0.1041  0.1593
 1019TIP3    H1 3021   3.477   4.251   1.426  1.6671  0.9476 -0.3923
 1019TIP3    H2 3022   3.399   4.277   1.553 -0.0011 -1.5037 -0.8457
 1020TIP3   OH2 3023   4.826   5.008   0.666 -0.2086  0.3757  0.0226
 1020TIP3    H1 3024   4.796   5.028   0.578  0.3970  0.6728 -0.1220
 1020TIP3    H2 3025   4.772   5.064   0.723 -0.3084  0.4936 -0.1882
 1021TIP3   OH2 3026   6.672   2.123   3.035 -0.1426 -0.4665 -0.0511
 1021TIP3    H1 3027   6.753   2.171   3.018 -0.3505  0.9610  2.5391
 1021TIP3    H2 3028   6.602   2.182   3.007 -0.3577 -1.0103 -0.7083
 1022TIP3   OH2 3029   5.648   1.998   1.173 -0.1466 -0.3445 -0.3300
 1022TIP3    H1 3030   5.621   1.939   1.243 -1.4584  0.1928 -0.3509
 1022TIP3    H2 3031   5.615   1.958   1.093  1.8654 -1.2621 -0.7434
 1023TIP3   OH2 3032   2.986   2.370   1.383 -0.5678  0.0371 -0.1263
 1023TIP3    H1 3033   2.994   2.278   1.408 -0.5813  0.1686  0.3730
 1023TIP3    H2 3034   2.908   2.401   1.428  0.1784  0.6396  0.8183
 1024TIP3   OH2 3035   2.853   3.793   1.525  0.2515 -0.1507  0.4183
 1024TIP3    H1 3036   2.843   3.739   1.604 -1.4709  1.1318  1.1461
 1024TIP3    H2 3037   2.764   3.806   1.493  0.8644 -0.0567 -1.3672
 1025TIP3   OH2 3038   3.569   2.182   4.831  0.3758 -0.4924 -0.1000
 1025TIP3    H1 3039   3.481   2.156   4.800  0.3342 -1.9472  1.1081
 1025TIP3    H2 3040   3.561   2.275   4.850 -1.1788 -0.7670  0.8008
 1026TIP3   OH2 3041   4.172   5.076   0.828 -0.0412  0.1697 -0.3111
 1026TIP3    H1 3042   4.216   5.158   0.850  0.1204 -0.0166  0.0732
 1026TIP3    H2 3043   4.229   5.008   0.864 -0.3358 -0.0987 -0.3458
 1027TIP3   OH2 3044   2.273   4.203   3.412  0.1552  0.1528 -0.8016
 1027TIP3    H1 3045   2.297   4.160   3.330 -0.5860 -0.8821 -0.4985
 1027TIP3    H2 3046   2.188   4.164   3.435  0.7418 -0.1948  0.8783
 1028TIP3   OH2 3047   3.622   1.173   2.981 -0.6451 -0.3564  0.3623
 1028TIP3    H1 3048   3.655   1.155   3.068  0.6277  0.3941  0.0641
 1028TIP3    H2 3049   3.689   1.228   2.941 -1.1551 -0.7616 -1.1212
 1029TIP3   OH2 3050   5.893   5.669   3.662  0.6644  0.0375 -0.7843
 1029TIP3    H1 3051   5.817   5.697   3.712  1.6334  1.2698  0.0681
 1029TIP3    H2 3052   5.862   5.665   3.571 -0.0208  2.1018 -0.6826
 1030TIP3   OH2 3053   1.488   5.247   5.734  0.1171  0.7522  0.7169
 1030TIP3    H1 3054   1.539   5.308   5.681 -1.9989  0.9044 -1.3080
 1030TIP3    H2 3055   1.412   5.298   5.763 -1.7674 -0.8134 -1.1370
 1031TIP3   OH2 3056   2.977   6.361   4.899 -0.0068  0.2734  0.2857
 1031TIP3    H1 3057   3.073   6.366   4.894  0.3937 -1.4156  3.6768
 1031TIP3    H2 3058   2.948   6.375   4.809  3.4676 -0.3529 -1.0898
 1032TIP3   OH2 3059   0.374   1.132   4.930 -0.4622  0.7147 -0.7300
 1032TIP3    H1 3060   0.413   1.045   4.918  0.5284  1.1129 -0.5669
 1032TIP3    H2 3061   0.283   1.116   4.954 -0.1917 -0.2794 -0.3495
 1033TIP3   OH2 3062   1.860   1.800   3.058  0.0481 -0.1394 -0.7574
 1033TIP3    H1 3063   1.828   1.711   3.074 -1.1795  0.7411  2.3952
 1033TIP3    H2 3064   1.929   1.813   3.123  0.3717  1.1622 -1.3238
 1034TIP3   OH2 3065   1.140   1.250   5.402  0.0302  0.0629 -0.0019
 1034TIP3    H1 3066   1.087   1.303   5.342 -0.5017 -0.7551 -0.2690
 1034TIP3    H2 3067   1.154   1.307   5.478 -0.8882  0.4440 -0.1035
 1035TIP3   OH2 3068   3.198   0.197   3.196 -0.3570  0.2457  0.0024
 1035TIP3    H1 3069   3.230   0.228   3.111 -0.0090  1.2036  0.4675
 1035TIP3    H2 3070   3.218   0.268   3.256 -3.0571  0.7812  0.3966
 1036TIP3   OH2 3071   2.968   1.823   5.005  0.3455  0.2285  0.5509
 1036TIP3    H1 3072   2.917   1.811   4.925  1.8376 -1.4306 -0.2058
 1036TIP3    H2 3073   3.011   1.739   5.019  2.2083  1.2946  1.6326
 1037TIP3   OH2 3074   4.904   4.628   5.849  0.7408  0.1202 -0.0740
 1037TIP3    H1 3075   4.945   4.571   5.783  0.0913 -2.6924  1.7722
 1037TIP3    H2 3076   4.955   4.613   5.929  0.3666  1.9915  0.5755
 1038TIP3   OH2 3077   3.196   1.431   1.729 -0.0684 -0.5669  0.2205
 1038TIP3    H1 3078   3.172   1.412   1.638  1.2586 -1.9511  0.1233
 1038TIP3    H2 3079   3.249   1.510   1.723  1.8615 -1.8482 -0.5367
 1039TIP3   OH2 3080   5.353   4.430   2.806 -0.0481 -0.1584  0.2078
 1039TIP3    H1 3081   5.384   4.345   2.774 -2.5666 -0.3982 -1.8735
 1039TIP3    H2 3082   5.312   4.471   2.730 -0.1105  2.3640  1.5085
 1040TIP3   OH2 3083   3.136   5.172   2.629 -0.3983 -0.2891 -0.7511
 1040TIP3    H1 3084   3.164   5.197   2.717 -0.0184 -2.1643 -0.2986
 1040TIP3    H2 3085   3.049   5.209   2.620 -1.7411 -2.5426  1.6156
 1041TIP3   OH2 3086   3.621   2.836   2.024  0.0007 -0.1289  0.8841
 1041TIP3    H1 3087   3.655   2.922   2.049 -0.4547 -0.2392  1.9158
 1041TIP3    H2 3088   3.635   2.832   1.929 -0.3640  1.2549  0.7493
 1042TIP3   OH2 3089   6.506   1.924   3.812 -0.3533  0.4706  0.3277
 1042TIP3    H1 3090   6.504   2.019   3.825 -0.3638  0.7908 -1.6989
 1042TIP3    H2 3091   6.597   1.899   3.831 -0.7382  0.5415  2.6126
 1043TIP3   OH2 3092   4.473   2.065   4.883 -0.1332 -0.4536 -0.1539
 1043TIP3    H1 3093   4.437   2.151   4.863  0.5163 -0.3343 -0.8128
 1043TIP3    H2 3094   4.517   2.076   4.967  3.0353  0.8080 -1.8411
 1044TIP3   OH2 3095   1.630   3.368   1.938  0.5474  0.7428 -0.5333
 1044TIP3    H1 3096   1.581   3.322   2.006 -0.2185 -1.4261 -2.4123
 1044TIP3    H2 3097   1.714   3.388   1.978 -0.9216  2.3776  2.0039
 1045TIP3   OH2 3098   2.857   6.246   1.304  0.0568  0.4101  0.6898
 1045TIP3    H1 3099   2.820   6.284   1.225 -0.3490 -2.9670 -0.9157
 1045TIP3    H2 3100   2.947   6.279   1.306  0.3354 -0.0014 -1.6852
 1046TIP3   OH2 3101   2.540   2.025   1.796  0.0516 -0.0357 -0.7653
 1046TIP3    H1 3102   2.583   2.011   1.712  0.1802  0.5526 -0.8014
 1046TIP3    H2 3103   2.450   2.047   1.774 -0.7008 -2.6634 -0.6501
 1047TIP3   OH2 3104   1.721   5.923   4.514 -0.0526 -0.2181  0.6239
 1047TIP3    H1 3105   1.651   5.889   4.458 -1.4002  2.6710  0.3796
 1047TIP3    H2 3106   1.678   5.989   4.569  2.4566  1.8161  0.3551
 1048TIP3   OH2 3107   5.405   3.101   3.056 -0.1631  0.3642  0.0386
 1048TIP3    H1 3108   5.458   3.022   3.053  2.5376  2.0262 -2.5018
 1048TIP3    H2 3109   5.361   3.104   2.971  0.6464  2.0437 -0.3706
 1049TIP3   OH2 3110   2.788   2.167   0.820  0.2694 -0.4094  0.0476
 1049TIP3    H1 3111   2.750   2.247   0.783  0.3464  0.2470  1.3130
 1049TIP3    H2 3112   2.726   2.099   0.796  0.7546 -0.2058 -2.0051
 1050TIP3   OH2 3113   4.373   2.019   0.365  0.4748  0.3081  0.6421
 1050TIP3    H1 3114   4.414   2.085   0.420  1.4172 -0.1563  0.5033
 1050TIP3    H2 3115   4.279   2.034   0.376  0.6564  0.6794  1.8097
 1051TIP3   OH2 3116   4.559   1.659   4.885 -0.3640 -0.5219  0.2922
 1051TIP3    H1 3117   4.472   1.698   4.870  0.3355  0.3527 -1.7955
 1051TIP3    H2 3118   4.617   1.705   4.824  1.5189 -1.3490  1.3827
 1052TIP3   OH2 3119   3.744   1.799   0.592  0.4412 -0.0722 -0.2850
 1052TIP3    H1 3120   3.706   1.880   0.558 -0.2747 -0.1574  0.2916
 1052TIP3    H2 3121   3.839   1.814   0.589  0.3192  0.8368 -0.0719
 1053TIP3   OH2 3122   3.577   5.050   4.765  0.2421 -0.4981  0.5064
 1053TIP3    H1 3123   3.541   5.113   4.827  0.1036 -0.4467  0.3764
 1053TIP3    H2 3124   3.623   5.104   4.700 -3.0354 -0.1599 -1.7584
 1054TIP3   OH2 3125   3.673   3.558   4.115 -0.3339  0.3387 -0.5622
 1054TIP3    H1 3126   3.626   3.490   4.067  1.0176 -2.1749  1.3929
 1054TIP3    H2 3127   3.612   3.585   4.184 -0.0212 -0.8633  0.2336
 1055TIP3   OH2 3128   3.845   1.226   4.367  0.3864 -0.6308  0.2712
 1055TIP3    H1 3129   3.842   1.286   4.442  1.5196  0.2825 -0.3761
 1055TIP3    H2 3130   3.904   1.156   4.394  2.7919  0.9259 -0.5366
 1056TIP3   OH2 3131   0.860   2.336   4.415 -0.2886 -0.5548  0.0995
 1056TIP3    H1 3132   0.856   2.378   4.501 -0.2673 -0.0644 -0.1363
 1056TIP3    H2 3133   0.812   2.254   4.426 -0.1127 -0.5853  0.6327
 1057TIP3   OH2 3134   6.788   0.116   2.341 -0.0863  0.0217 -0.0589
 1057TIP3    H1 3135   6.730   0.121   2.417 -0.1118  1.2314 -0.1463
 1057TIP3    H2 3136   6.754   0.180   2.280  0.9934  0.3387 -0.3539
 1058TIP3   OH2 3137   2.546   2.174   0.255 -0.1655  0.2522 -0.2717
 1058TIP3    H1 3138   2.577   2.090   0.220  1.1063  1.3655 -1.9498
 1058TIP3    H2 3139   2.575   2.239   0.191  1.2015  2.3183  2.2731
 1059TIP3   OH2 3140   6.535   4.985   4.874 -0.5107  0.8344 -0.1238
 1059TIP3    H1 3141   6.564   4.928   4.946  0.5971  1.6046  0.0696
 1059TIP3    H2 3142   6.440   4.981   4.878 -0.4881  1.0996  1.6133
 1060TIP3   OH2 3143   4.632   2.427   3.856  0.3542  0.3561 -0.0744
 1060TIP3    H1 3144   4.623   2.435   3.761  0.2219  0.1632 -0.0786
 1060TIP3    H2 3145   4.558   2.372   3.882  3.0703 -4.0279 -0.4796
 1061TIP3   OH2 3146   1.424   1.689   4.309  0.5587 -0.1803 -0.2571
 1061TIP3    H1 3147   1.443   1.672   4.217 -3.3668  1.5696 -1.6503
 1061TIP3    H2 3148   1.405   1.603   4.346 -0.9756 -0.6731 -2.0439
 1062TIP3   OH2 3149   2.087   5.776   5.336  0.6435 -0.5385  0.1810
 1062TIP3    H1 3150   2.081   5.871   5.327  0.3202 -0.4518  1.1467
 1062TIP3    H2 3151   2.029   5.756   5.409 -0.8404 -1.7102 -1.2441
 1063TIP3   OH2 3152   1.861   0.708   5.451 -0.1741  0.7298 -0.3290
 1063TIP3    H1 3153   1.840   0.801   5.454 -0.2578  0.7759 -1.7724
 1063TIP3    H2 3154   1.945   0.704   5.406  0.4415  0.1768  0.8292
 1064TIP3   OH2 3155   3.064   1.538   1.458 -0.4719 -0.8759 -0.5517
 1064TIP3    H1 3156   3.011   1.603   1.504  1.7645  0.8020 -0.1937
 1064TIP3    H2 3157   3.009   1.510   1.384 -1.9995  0.4212  0.0355
 1065TIP3   OH2 3158   0.255   5.919   1.993  0.0767 -0.3170  0.7118
 1065TIP3    H1 3159   0.280   5.967   2.071  0.2936  0.4267  0.2010
 1065TIP3    H2 3160   0.318   5.847   1.987  1.8551  1.2190 -0.2734
 1066TIP3   OH2 3161   5.829   1.290   4.295 -0.2010  0.0632  0.5438
 1066TIP3    H1 3162   5.796   1.350   4.361  0.0201 -0.0357  0.7412
 1066TIP3    H2 3163   5.860   1.346   4.224 -0.2308  0.1717  0.6181
 1067TIP3   OH2 3164   6.897   1.272   5.867  0.5000  0.5154 -0.5911
 1067TIP3    H1 3165   6.858   1.245   5.784 -2.3733  0.2771  0.7144
 1067TIP3    H2 3166   6.972   1.213   5.880  0.1928 -0.3096 -2.3457
 1068TIP3   OH2 3167   6.397   4.273   1.254  0.2684 -0.1343 -0.2531
 1068TIP3    H1 3168   6.454   4.208   1.215  1.4733  0.1566  0.9701
 1068TIP3    H2 3169   6.392   4.343   1.188  0.7277 -0.4841 -0.6655
 1069TIP3   OH2 3170   0.736   5.105   3.834 -0.0690 -0.1508 -0.1890
 1069TIP3    H1 3171   0.825   5.083   3.862 -0.1539 -0.7834 -0.3847
 1069TIP3    H2 3172   0.716   5.187   3.879  0.8733  0.3721 -0.7020
 1070TIP3   OH2 3173   5.096   5.673   2.240  0.2183 -0.7241  0.1969
 1070TIP3    H1 3174   5.093   5.578   2.230 -1.3021 -0.6477 -0.3943
 1070TIP3    H2 3175   5.118   5.707   2.153  0.6359 -0.5199  0.3765
 1071TIP3   OH2 3176   3.947   6.472   4.887  0.3970 -0.3154 -0.3193
 1071TIP3    H1 3177   3.913   6.554   4.852 -0.5660 -0.6814 -0.2685
 1071TIP3    H2 3178   3.947   6.412   4.812  0.5448 -0.4393 -0.2213
 1072TIP3   OH2 3179   3.151   2.725   2.279  0.7661 -0.1344 -0.1741
 1072TIP3    H1 3180   3.119   2.682   2.200 -0.9967  0.1193  0.3448
 1072TIP3    H2 3181   3.172   2.814   2.251 -1.8068  0.6036 -0.0491
 1073TIP3   OH2 3182   4.005   2.702   1.261 -0.4410  0.1181  0.7111
 1073TIP3    H1 3183   4.063   2.638   1.219 -0.1856  0.0459  1.1661
 1073TIP3    H2 3184   4.039   2.787   1.233 -0.3252  0.0697  0.7050
 1074TIP3   OH2 3185   5.309   0.835   5.606 -0.0997  0.5928  0.2436
 1074TIP3    H1 3186   5.390   0.872   5.570 -1.1153  2.0342 -0.6499
 1074TIP3    H2 3187   5.240   0.866   5.548 -1.6670  1.7929  2.5601
 1075TIP3   OH2 3188   5.789   1.866   1.773 -0.2825 -0.3604  0.0781
 1075TIP3    H1 3189   5.777   1.960   1.757 -0.8087 -0.0879  1.8385
 1075TIP3    H2 3190   5.825   1.862   1.862  1.3749 -1.7733 -0.6006
 1076TIP3   OH2 3191   4.258   5.072   3.009 -0.1847  0.3505 -0.2182
 1076TIP3    H1 3192   4.180   5.110   3.050  0.0139  0.2509  0.2525
 1076TIP3    H2 3193   4.299   5.020   3.078 -0.3947 -0.6470 -0.8235
 1077TIP3   OH2 3194   0.965   0.920   3.526 -0.2886 -0.5110 -0.5155
 1077TIP3    H1 3195   0.941   1.012   3.523 -0.4283 -0.4884  0.6949
 1077TIP3    H2 3196   0.945   0.886   3.438 -1.3746  0.3280 -0.6022
 1078TIP3   OH2 3197   1.098   0.966   2.002  0.1849  0.3260 -0.1013
 1078TIP3    H1 3198   1.038   1.040   1.999 -0.5571 -0.2387  0.3343
 1078TIP3    H2 3199   1.172   0.995   2.055  1.2337  1.6727 -2.1513
 1079TIP3   OH2 3200   4.533   6.430   2.674 -0.4419 -0.2144  0.1342
 1079TIP3    H1 3201   4.563   6.518   2.698  0.2352 -0.4533  0.1819
 1079TIP3    H2 3202   4.439   6.432   2.690 -0.4548  0.5378  0.0317
 1080TIP3   OH2 3203   2.003   4.691   1.328  0.4221 -0.2990  0.3380
 1080TIP3    H1 3204   2.062   4.646   1.389 -0.0406 -1.2159  0.1154
 1080TIP3    H2 3205   2.061   4.727   1.261  0.8334 -0.2101  0.7345
 1081TIP3   OH2 3206   6.433   2.471   4.317 -1.2181  0.0132 -0.0927
 1081TIP3    H1 3207   6.377   2.401   4.351 -0.8071 -0.1524  0.2420
 1081TIP3    H2 3208   6.498   2.426   4.264  0.1954 -0.0553  1.6304
 1082TIP3   OH2 3209   3.503   1.336   4.788  0.2242 -0.2484  0.7362
 1082TIP3    H1 3210   3.579   1.330   4.846 -0.0378  0.4395  1.1626
 1082TIP3    H2 3211   3.499   1.251   4.745  1.9288  0.0819 -0.1763
 1083TIP3   OH2 3212   2.597   4.189   5.553  0.0874  0.6137  0.2522
 1083TIP3    H1 3213   2.583   4.119   5.618 -2.1933  0.6315 -0.1061
 1083TIP3    H2 3214   2.611   4.268   5.605  1.4542  0.1169  0.6695
 1084TIP3   OH2 3215   2.442   2.287   4.728 -0.5958 -0.1070 -0.1577
 1084TIP3    H1 3216   2.394   2.205   4.724  1.3224 -1.2644 -0.5974
 1084TIP3    H2 3217   2.532   2.262   4.751 -0.5781  2.1484  2.9343
 1085TIP3   OH2 3218   3.886   3.587   5.775  0.3744 -0.8456 -0.0764
 1085TIP3    H1 3219   3.846   3.561   5.692 -0.1508 -0.9635  0.2090
 1085TIP3    H2 3220   3.945   3.659   5.752 -0.4107 -0.3017 -0.4325
 1086TIP3   OH2 3221   3.465   4.535   4.990 -0.1750  0.3246  0.1869
 1086TIP3    H1 3222   3.530   4.593   5.028 -1.9709  0.8714  2.7006
 1086TIP3    H2 3223   3.500   4.447   5.003  0.8691  0.6735 -0.2234
 1087TIP3   OH2 3224   5.335   3.124   1.229  0.2048  0.6048  0.5979
 1087TIP3    H1 3225   5.315   3.155   1.317 -2.0898  1.8287 -0.2656
 1087TIP3    H2 3226   5.263   3.156   1.175  1.3896 -0.3290 -1.7004
 1088TIP3   OH2 3227   5.653   3.852   5.492  0.0973  0.3347 -0.0489
 1088TIP3    H1 3228   5.736   3.813   5.463 -0.9825 -1.7584 -0.5576
 1088TIP3    H2 3229   5.612   3.882   5.411 -0.4235 -0.2923 -0.0223
 1089TIP3   OH2 3230   7.174   0.324   3.152  0.3091  0.2629  0.1756
 1089TIP3    H1 3231   7.154   0.364   3.067  3.2335 -0.1216 -0.7847
 1089TIP3    H2 3232   7.115   0.249   3.157 -0.1730  0.4905 -1.3637
 1090TIP3   OH2 3233   5.467   2.309   4.894 -0.3163 -0.0676  0.3330
 1090TIP3    H1 3234   5.497   2.383   4.946 -1.1586  0.3136  0.2860
 1090TIP3    H2 3235   5.384   2.283   4.934 -1.3688  0.7047 -1.2489
 1091TIP3   OH2 3236   6.946   3.552   0.391 -1.2443 -0.0335  0.0603
 1091TIP3    H1 3237   7.008   3.584   0.325 -2.4101  1.1384 -0.4926
 1091TIP3    H2 3238   6.860   3.575   0.357 -2.0250 -1.7881  0.7397
 1092TIP3   OH2 3239   1.120   6.429   2.672 -0.1155  0.1463  0.8143
 1092TIP3    H1 3240   1.187   6.495   2.686  1.1495 -0.7460 -0.6278
 1092TIP3    H2 3241   1.089   6.444   2.582 -1.8457  0.4998  1.4219
 1093TIP3   OH2 3242   3.136   4.352   1.045 -0.3997 -0.0003  0.0422
 1093TIP3    H1 3243   3.140   4.285   0.977  1.4653  1.3678 -1.2805
 1093TIP3    H2 3244   3.199   4.324   1.111  0.7495  0.6292 -0.7467
 1094TIP3   OH2 3245   5.985   3.000   3.846  0.2485  0.5547  0.2859
 1094TIP3    H1 3246   5.906   3.034   3.888 -0.1205 -0.6400  0.6064
 1094TIP3    H2 3247   5.976   2.904   3.852  0.4633  0.3334 -2.0073
 1095TIP3   OH2 3248   5.945   4.469   0.452 -0.1305  0.0677  0.1825
 1095TIP3    H1 3249   6.023   4.478   0.506 -0.8943  0.7252  1.1976
 1095TIP3    H2 3250   5.886   4.413   0.502 -0.0013 -1.1694 -0.9681
 1096TIP3   OH2 3251   5.867   2.962   2.996  0.1649 -0.0066  0.6238
 1096TIP3    H1 3252   5.892   3.001   3.080  0.6304 -0.7360  0.8361
 1096TIP3    H2 3253   5.910   2.877   2.996 -1.2921 -0.7872  0.4384
 1097TIP3   OH2 3254   6.165   3.861   3.053  0.5466  0.3428 -0.4320
 1097TIP3    H1 3255   6.117   3.944   3.053 -1.1491 -0.5828  0.0445
 1097TIP3    H2 3256   6.224   3.866   3.128 -0.1560  0.7885  0.0931
 1098TIP3   OH2 3257   4.529   1.724   5.666  0.3150 -0.0058 -0.2699
 1098TIP3    H1 3258   4.485   1.641   5.679 -1.3142  0.9349  0.5986
 1098TIP3    H2 3259   4.471   1.789   5.706  0.6221  1.7662 -2.4598
 1099TIP3   OH2 3260   4.666   4.746   0.382 -0.8977  0.0248 -0.3342
 1099TIP3    H1 3261   4.682   4.687   0.308 -0.5548  0.2880 -0.4769
 1099TIP3    H2 3262   4.752   4.786   0.399 -0.9485 -0.1354  0.2978
 1100TIP3   OH2 3263   2.751   6.309   4.146  0.2426  0.3409 -0.4917
 1100TIP3    H1 3264   2.666   6.294   4.186  0.1740  0.6712 -0.5144
 1100TIP3    H2 3265   2.755   6.246   4.074 -0.0217  0.3949 -0.5535
 1101TIP3   OH2 3266   2.758   4.922   4.399  0.5075  0.1366 -0.2046
 1101TIP3    H1 3267   2.719   5.000   4.359  1.0134 -0.2332 -1.4777
 1101TIP3    H2 3268   2.846   4.948   4.422  1.2664 -0.4785 -2.1803
 1102TIP3   OH2 3269   4.364   2.856   1.545  0.3618  0.0572 -0.2146
 1102TIP3    H1 3270   4.378   2.875   1.637  0.6241  2.6598 -0.7175
 1102TIP3    H2 3271   4.437   2.798   1.522  0.6366 -0.1332  1.0608
 1103TIP3   OH2 3272   3.961   4.268   1.302 -0.2731 -0.0060 -0.0069
 1103TIP3    H1 3273   4.019   4.327   1.254  1.9893 -1.7237  0.4347
 1103TIP3    H2 3274   3.968   4.296   1.393 -0.4218  0.0138 -0.0016
 1104TIP3   OH2 3275   7.215   1.908   5.865  0.3987 -0.6120 -0.4275
 1104TIP3    H1 3276   7.153   1.979   5.883  0.6329 -0.9581  2.0908
 1104TIP3    H2 3277   7.164   1.843   5.816 -0.4505  0.2866 -0.7655
 1105TIP3   OH2 3278   5.526   5.641   3.987 -0.0243  0.2976 -0.1798
 1105TIP3    H1 3279   5.480   5.723   4.007 -0.1416  0.1385  0.2048
 1105TIP3    H2 3280   5.550   5.606   4.073  1.5811  0.8138 -0.3744
 1106TIP3   OH2 3281   1.292   3.657   0.440  0.4354 -0.0527 -0.2017
 1106TIP3    H1 3282   1.213   3.634   0.488  0.0428  0.6600 -0.4984
 1106TIP3    H2 3283   1.293   3.753   0.439  1.0872 -0.0557 -0.5467
 1107TIP3   OH2 3284   7.006   3.654   1.432  0.1682 -0.2387 -0.1303
 1107TIP3    H1 3285   7.084   3.638   1.485 -0.0620  0.2132  0.3490
 1107TIP3    H2 3286   6.968   3.734   1.468 -2.3945 -2.2195  1.9162
 1108TIP3   OH2 3287   7.032   6.301   5.250 -0.2834 -0.1601  0.0832
 1108TIP3    H1 3288   7.072   6.347   5.323  0.1221  1.2543 -0.9739
 1108TIP3    H2 3289   7.094   6.233   5.227 -0.2433 -0.3744  0.8085
 1109TIP3   OH2 3290   0.355   0.437   1.376 -0.7428  0.0224  0.5186
 1109TIP3    H1 3291   0.318   0.367   1.322  0.9674  0.2206 -0.9981
 1109TIP3    H2 3292   0.309   0.516   1.348 -1.0592 -0.1359  0.5873
 1110TIP3   OH2 3293   7.095   4.959   2.866 -0.7668  1.3311  0.2019
 1110TIP3    H1 3294   7.051   5.025   2.813 -0.0713  2.0621  0.5097
 1110TIP3    H2 3295   7.148   5.010   2.928  0.9693  0.5007 -0.5410
 1111TIP3   OH2 3296   1.730   4.284   3.436  0.2753 -0.4689 -0.0428
 1111TIP3    H1 3297   1.675   4.352   3.474  2.7448  1.1583  0.8378
 1111TIP3    H2 3298   1.712   4.288   3.342 -0.2246  0.8634  0.0914
 1112TIP3   OH2 3299   7.119   3.104   5.921 -0.0396  0.3492 -0.4652
 1112TIP3    H1 3300   7.139   3.011   5.907  1.9405  0.4397  1.3623
 1112TIP3    H2 3301   7.145   3.147   5.840  1.2553 -0.4019 -0.4679
 1113TIP3   OH2 3302   3.950   4.309   4.574 -0.7553 -0.2466  0.2442
 1113TIP3    H1 3303   3.999   4.241   4.528 -0.4393  1.0229 -1.3697
 1113TIP3    H2 3304   3.911   4.362   4.505 -1.2729  1.0271  1.4603
 1114TIP3   OH2 3305   4.989   6.645   2.115  0.1798 -0.1197 -0.1081
 1114TIP3    H1 3306   4.919   6.709   2.101 -0.8923 -1.3250 -0.3984
 1114TIP3    H2 3307   5.040   6.681   2.189 -0.4194  1.0249 -0.2304
 1115TIP3   OH2 3308   2.374   0.361   3.988  0.7359  0.1993  0.0697
 1115TIP3    H1 3309   2.307   0.323   4.044  0.4606  0.3702 -0.1423
 1115TIP3    H2 3310   2.390   0.448   4.026  1.5337 -0.2015  0.6955
 1116TIP3   OH2 3311   7.030   0.920   3.624  0.3616  0.0894 -0.0204
 1116TIP3    H1 3312   6.982   0.980   3.682 -0.7957 -2.1505  1.4879
 1116TIP3    H2 3313   7.093   0.877   3.682 -1.2231 -2.6406 -0.1579
 1117TIP3   OH2 3314   4.721   1.405   2.916 -0.4744 -0.2432 -0.5580
 1117TIP3    H1 3315   4.737   1.312   2.900 -1.8237 -0.8584  1.3887
 1117TIP3    H2 3316   4.630   1.419   2.889 -0.0631  0.7136 -1.5312
 1118TIP3   OH2 3317   1.828   0.699   1.718 -0.0864 -0.6930  0.1351
 1118TIP3    H1 3318   1.874   0.623   1.682  1.8401  0.5883 -0.2094
 1118TIP3    H2 3319   1.787   0.740   1.642  3.1361  1.4327 -0.6274
 1119TIP3   OH2 3320   4.451   6.288   0.955 -0.8494 -0.2206  0.0001
 1119TIP3    H1 3321   4.412   6.363   0.998 -0.0180  0.1572  0.1200
 1119TIP3    H2 3322   4.510   6.326   0.890 -1.1099 -0.7762 -0.5672
 1120TIP3   OH2 3323   5.257   2.899   3.969 -0.6317 -0.4088  0.0597
 1120TIP3    H1 3324   5.332   2.839   3.970  1.2340  1.8173  0.1017
 1120TIP3    H2 3325   5.224   2.897   4.059  0.0906 -0.5417  0.3250
 1121TIP3   OH2 3326   1.038   5.375   2.032  0.1935  0.1325 -0.1944
 1121TIP3    H1 3327   1.106   5.361   2.098  0.4700 -0.5123 -0.6083
 1121TIP3    H2 3328   1.051   5.465   2.002 -0.8105  0.9414  1.6118
 1122TIP3   OH2 3329   7.095   5.269   0.445  0.1056  0.3875 -0.0012
 1122TIP3    H1 3330   7.161   5.317   0.395 -1.3110  0.8239 -1.5410
 1122TIP3    H2 3331   7.122   5.280   0.536  1.3358  1.8204 -0.4847
 1123TIP3   OH2 3332   3.809   4.087   0.791  0.6020 -0.6751 -0.0247
 1123TIP3    H1 3333   3.870   4.140   0.740 -2.3087  1.3913 -1.6409
 1123TIP3    H2 3334   3.793   4.138   0.870  0.7202 -1.0806  0.2657
 1124TIP3   OH2 3335   3.161   3.546   2.360  0.5759  0.6459  0.0034
 1124TIP3    H1 3336   3.100   3.619   2.372 -1.6881 -1.1013 -0.1110
 1124TIP3    H2 3337   3.197   3.531   2.448 -0.0993  0.9511  0.3411
 1125TIP3   OH2 3338   3.356   4.781   4.902  0.1293 -0.3168 -0.1266
 1125TIP3    H1 3339   3.395   4.693   4.901 -1.4087 -1.0264  0.2207
 1125TIP3    H2 3340   3.305   4.786   4.821 -0.3999 -0.0292  0.2174
 1126TIP3   OH2 3341   3.737   6.273   4.705  0.0285 -0.0705 -0.1045
 1126TIP3    H1 3342   3.730   6.236   4.793 -1.0250 -0.4184 -0.3215
 1126TIP3    H2 3343   3.690   6.356   4.710  1.0782  0.5405 -0.0206
 1127TIP3   OH2 3344   4.869   4.240   5.112 -0.0908  0.2899  0.1275
 1127TIP3    H1 3345   4.774   4.247   5.106  0.0218  2.4360 -0.2708
 1127TIP3    H2 3346   4.887   4.225   5.204 -0.8274 -0.4796  0.1496
 1128TIP3   OH2 3347   4.690   0.069   1.651 -0.1670  0.3454  0.1324
 1128TIP3    H1 3348   4.666   0.160   1.669 -1.3838  0.6563 -2.5615
 1128TIP3    H2 3349   4.617   0.018   1.687  0.8641  0.3231  2.2947
 1129TIP3   OH2 3350   4.272   4.546   5.575 -0.1407 -0.4199 -0.0408
 1129TIP3    H1 3351   4.267   4.470   5.633  0.2456 -1.5674 -1.4578
 1129TIP3    H2 3352   4.207   4.607   5.611 -0.0642 -1.1543  1.4605
 1130TIP3   OH2 3353   1.594   1.809   2.968 -0.1824  0.2280 -0.3014
 1130TIP3    H1 3354   1.690   1.815   2.974  0.0684 -2.7827  0.3357
 1130TIP3    H2 3355   1.564   1.899   2.974  2.6760  1.4707 -2.3648
 1131TIP3   OH2 3356   0.468   6.726   3.919  0.2737  0.1566  0.0028
 1131TIP3    H1 3357   0.439   6.710   4.009 -1.7063 -0.7393 -0.7536
 1131TIP3    H2 3358   0.405   6.789   3.885  1.6601  1.3565 -0.4697
 1132TIP3   OH2 3359   6.636   3.055   0.831 -0.3080 -0.2473 -0.2816
 1132TIP3    H1 3360   6.652   3.035   0.923 -0.6517 -0.0734 -0.1851
 1132TIP3    H2 3361   6.701   3.122   0.810 -0.6906  0.2295  0.0280
 1133TIP3   OH2 3362   7.151   2.768   0.175  0.3954 -0.0040 -0.3588
 1133TIP3    H1 3363   7.128   2.761   0.267  0.3346 -0.1255 -0.3827
 1133TIP3    H2 3364   7.101   2.843   0.143  0.3587 -0.0077 -0.3098
 1134TIP3   OH2 3365   1.046   1.080   1.473  0.5063 -0.5892  0.7007
 1134TIP3    H1 3366   1.036   1.114   1.562 -1.9535 -0.0836  0.3092
 1134TIP3    H2 3367   1.112   1.012   1.481 -0.1756 -1.0819  3.0877
 1135TIP3   OH2 3368   4.753   5.562   4.782 -0.4421 -0.4230  0.3586
 1135TIP3    H1 3369   4.744   5.468   4.772 -0.6649 -0.2443 -1.3495
 1135TIP3    H2 3370   4.693   5.599   4.718  0.4917  0.8764  0.1905
 1136TIP3   OH2 3371   2.000   0.287   0.743 -0.5138  0.1306  1.1297
 1136TIP3    H1 3372   2.034   0.285   0.832  0.5011 -0.1766  0.7463
 1136TIP3    H2 3373   2.054   0.225   0.695 -1.5093 -0.2424  0.4530
 1137TIP3   OH2 3374   3.828   3.216   3.425 -0.2383  0.0156 -0.0515
 1137TIP3    H1 3375   3.888   3.256   3.489  0.5663  0.2836 -0.9553
 1137TIP3    H2 3376   3.885   3.179   3.358 -1.0268 -1.3052 -0.0433
 1138TIP3   OH2 3377   1.398   2.614   0.205 -0.7413  0.2341  0.5473
 1138TIP3    H1 3378   1.335   2.547   0.177 -0.2055  0.4274 -1.2518
 1138TIP3    H2 3379   1.478   2.592   0.158  0.5010  0.1704  2.5578
 1139TIP3   OH2 3380   1.586   0.185   2.440 -0.5516  0.8510  0.4287
 1139TIP3    H1 3381   1.523   0.199   2.370  0.9254 -0.8804 -1.3582
 1139TIP3    H2 3382   1.560   0.247   2.509 -2.7416  1.8096 -1.1585
 1140TIP3   OH2 3383   5.459   6.270   4.141 -0.0309  0.0550  0.0229
 1140TIP3    H1 3384   5.537   6.233   4.184 -1.1215 -0.8903  1.2521
 1140TIP3    H2 3385   5.462   6.236   4.052  1.4049  0.7209 -0.2142
 1141TIP3   OH2 3386   1.999   5.355   4.457  0.4803  0.5389 -0.5492
 1141TIP3    H1 3387   1.919   5.400   4.481  0.0180 -0.6736  0.2832
 1141TIP3    H2 3388   2.028   5.312   4.538  0.8481 -0.7088 -1.3183
 1142TIP3   OH2 3389   2.585   6.153   5.454 -0.2807  0.3862  0.3705
 1142TIP3    H1 3390   2.647   6.214   5.413  0.1663  0.2978  0.9063
 1142TIP3    H2 3391   2.520   6.210   5.496 -0.0201  0.4882  0.6324
 1143TIP3   OH2 3392   4.061   0.526   4.098  0.1167 -0.3376  0.0538
 1143TIP3    H1 3393   3.974   0.559   4.075  0.9065  3.0470  1.2474
 1143TIP3    H2 3394   4.057   0.512   4.193  1.6479  3.1884  0.7881
 1144TIP3   OH2 3395   2.095   5.262   1.926  0.5235  0.0264  0.0188
 1144TIP3    H1 3396   2.101   5.209   1.846  0.4733 -0.2554  0.2019
 1144TIP3    H2 3397   2.184   5.265   1.960  0.6717  0.7147 -0.4122
 1145TIP3   OH2 3398   1.338   2.583   2.368  0.3387 -0.3724  0.1738
 1145TIP3    H1 3399   1.333   2.673   2.400  0.1779 -0.5569  0.6743
 1145TIP3    H2 3400   1.248   2.550   2.373  0.3026 -0.3923 -0.5114
 1146TIP3   OH2 3401   0.712   4.600   4.457  0.3835  0.0645 -0.1426
 1146TIP3    H1 3402   0.704   4.513   4.416  0.4475  0.8451 -1.8873
 1146TIP3    H2 3403   0.734   4.659   4.385  1.6388  1.3494  1.2235
 1147TIP3   OH2 3404   0.751   3.081   0.945 -0.4392 -0.3994 -0.0637
 1147TIP3    H1 3405   0.662   3.048   0.959 -0.6987 -0.0031 -0.7465
 1147TIP3    H2 3406   0.756   3.097   0.851  0.3235 -0.3131 -0.0135
 1148TIP3   OH2 3407   3.059   3.323   1.560  0.0622  0.0349 -0.5084
 1148TIP3    H1 3408   3.114   3.246   1.570  0.8949  0.8188  1.6790
 1148TIP3    H2 3409   3.017   3.334   1.646 -0.7046  1.5174 -1.0279
 1149TIP3   OH2 3410   1.923   2.553   1.194  0.3292 -0.6187 -0.1164
 1149TIP3    H1 3411   1.888   2.636   1.226 -0.4065 -0.6224 -0.8952
 1149TIP3    H2 3412   1.848   2.494   1.193  1.1124 -1.7314  1.7787
 1150TIP3   OH2 3413   4.507   4.112   0.470 -0.0206 -0.1297  0.2930
 1150TIP3    H1 3414   4.412   4.122   0.473 -0.1661 -1.1737 -0.4712
 1150TIP3    H2 3415   4.521   4.022   0.443  1.1992 -0.0582  0.6264
 1151TIP3   OH2 3416   1.597   5.934   4.832 -0.6032 -0.0257 -0.2227
 1151TIP3    H1 3417   1.592   6.013   4.778  2.2333  1.0185  0.8504
 1151TIP3    H2 3418   1.582   5.965   4.921  1.3866 -0.4579  0.3196
 1152TIP3   OH2 3419   5.796   0.212   3.088  0.0022  0.4315  0.2271
 1152TIP3    H1 3420   5.746   0.242   3.164  1.6573 -0.0049  1.5238
 1152TIP3    H2 3421   5.769   0.122   3.075 -0.3275  0.5252  0.2487
 1153TIP3   OH2 3422   6.792   0.017   1.290  0.0772 -0.4077 -0.0404
 1153TIP3    H1 3423   6.883   0.025   1.261  0.0605  1.1110  0.2165
 1153TIP3    H2 3424   6.799   0.003   1.384  0.0735 -2.8256 -0.3520
 1154TIP3   OH2 3425   0.485   2.228   1.326 -0.2039  0.2886 -0.2150
 1154TIP3    H1 3426   0.486   2.180   1.243  0.0411 -0.2545  0.0970
 1154TIP3    H2 3427   0.545   2.179   1.382 -1.8749 -0.5213  0.9317
 1155TIP3   OH2 3428   4.270   2.958   0.273  0.7186  0.1531 -0.4876
 1155TIP3    H1 3429   4.208   2.942   0.201  0.4541 -0.9296 -0.0287
 1155TIP3    H2 3430   4.253   2.888   0.335  1.2921  0.7978  0.4109
 1156TIP3   OH2 3431   4.069   4.367   2.712  0.4352  0.0065  0.4435
 1156TIP3    H1 3432   4.095   4.411   2.631 -1.5679 -0.3100 -0.4427
 1156TIP3    H2 3433   4.054   4.438   2.774 -1.1405  0.5480 -0.4746
 1157TIP3   OH2 3434   7.041   6.781   1.514  0.0926  0.1143 -0.2313
 1157TIP3    H1 3435   6.970   6.757   1.454 -0.7844  1.7771  0.0765
 1157TIP3    H2 3436   7.118   6.736   1.480 -1.0185 -1.4598 -0.7871
 1158TIP3   OH2 3437   0.696   2.986   4.741  0.0784 -0.2957  0.4855
 1158TIP3    H1 3438   0.767   3.045   4.765 -0.4002  0.3904  0.2397
 1158TIP3    H2 3439   0.619   3.043   4.735 -0.1954 -0.7775 -0.7449
 1159TIP3   OH2 3440   4.130   3.437   4.896 -0.2641  0.3059  0.6797
 1159TIP3    H1 3441   4.061   3.415   4.833  0.1679  1.6153 -0.2957
 1159TIP3    H2 3442   4.160   3.352   4.929 -0.3133 -0.4531 -1.0963
 1160TIP3   OH2 3443   4.339   6.704   4.117  0.4329  0.8683  0.3762
 1160TIP3    H1 3444   4.397   6.692   4.192  0.6494  2.0762  0.4121
 1160TIP3    H2 3445   4.254   6.726   4.155  0.2785  0.4472  0.2847
 1161TIP3   OH2 3446   3.445   4.152   1.297 -0.1292 -0.3417  0.1931
 1161TIP3    H1 3447   3.356   4.186   1.301  0.4153  1.3008 -0.9334
 1161TIP3    H2 3448   3.436   4.068   1.251 -1.2126 -0.7775  1.1436
 1162TIP3   OH2 3449   1.562   1.834   4.935  0.1820 -0.0233  0.2475
 1162TIP3    H1 3450   1.562   1.929   4.941  2.0585 -0.0787  2.5037
 1162TIP3    H2 3451   1.477   1.808   4.970 -0.0347  0.8057  0.3521
 1163TIP3   OH2 3452   1.571   2.993   1.257 -0.5928  0.2123  0.2718
 1163TIP3    H1 3453   1.653   3.014   1.302 -0.9105 -0.7077  1.3184
 1163TIP3    H2 3454   1.584   3.024   1.167  0.1103  1.9522  0.9413
 1164TIP3   OH2 3455   4.416   6.060   1.094  0.1121  0.0898 -0.5250
 1164TIP3    H1 3456   4.369   6.101   1.166 -0.1333  0.7266 -1.0384
 1164TIP3    H2 3457   4.453   6.133   1.044 -1.1098 -0.2249 -1.9793
 1165TIP3   OH2 3458   4.640   3.765   1.559  0.3847 -0.4166 -0.0413
 1165TIP3    H1 3459   4.551   3.800   1.566  0.9041  0.8592  0.7497
 1165TIP3    H2 3460   4.695   3.843   1.549  1.3624 -1.2283 -1.2456
 1166TIP3   OH2 3461   3.506   5.872   4.334  0.0380 -0.1577  0.2234
 1166TIP3    H1 3462   3.490   5.826   4.416  1.0227  2.1883  1.8382
 1166TIP3    H2 3463   3.468   5.959   4.347  1.4047  0.7175 -1.2671
 1167TIP3   OH2 3464   1.634   6.716   3.990 -0.2344 -0.2106  0.7189
 1167TIP3    H1 3465   1.605   6.626   3.980  0.8696 -0.6498  1.3430
 1167TIP3    H2 3466   1.665   6.721   4.080  1.7641  0.1866  0.0482
 1168TIP3   OH2 3467   5.899   6.371   5.652 -0.5995 -0.3213 -0.6204
 1168TIP3    H1 3468   5.990   6.382   5.623 -0.0639  0.6212  1.2551
 1168TIP3    H2 3469   5.897   6.410   5.739 -2.3839 -1.9352  0.1329
 1169TIP3   OH2 3470   2.917   0.507   2.144 -0.4713 -0.6135 -0.0589
 1169TIP3    H1 3471   3.008   0.514   2.113  0.1826 -0.2892  1.7690
 1169TIP3    H2 3472   2.921   0.440   2.213 -0.8516  1.7023  2.3878
 1170TIP3   OH2 3473   0.621   2.473   1.292 -0.4217  0.1594  0.6483
 1170TIP3    H1 3474   0.554   2.541   1.298 -0.0744  0.9394 -2.3901
 1170TIP3    H2 3475   0.572   2.391   1.288 -1.0929  0.5658  0.3336
 1171TIP3   OH2 3476   0.886   5.628   5.681  0.6044 -0.2111 -0.0277
 1171TIP3    H1 3477   0.951   5.574   5.727  0.0182 -2.2807 -1.4970
 1171TIP3    H2 3478   0.803   5.580   5.692 -0.6298  2.0106  1.2091
 1172TIP3   OH2 3479   1.183   0.422   2.040 -0.4914  0.6739  0.1673
 1172TIP3    H1 3480   1.158   0.333   2.015 -0.1009  1.1246 -2.0371
 1172TIP3    H2 3481   1.277   0.417   2.056 -0.6341  0.5121  0.9870
 1173TIP3   OH2 3482   0.191   0.419   3.971 -0.4954  0.2899 -0.3946
 1173TIP3    H1 3483   0.271   0.451   4.013 -0.3610 -1.3760  0.7157
 1173TIP3    H2 3484   0.125   0.420   4.041 -0.5348 -1.5329 -0.3473
 1174TIP3   OH2 3485   2.450   4.480   0.005 -0.3002 -0.4075  0.0365
 1174TIP3    H1 3486   2.386   4.436  -0.051 -0.1099 -1.4705  0.6427
 1174TIP3    H2 3487   2.471   4.417   0.073 -2.0361  1.5260  2.5388
 1175TIP3   OH2 3488   2.404   1.867   2.147 -0.2173 -0.0283  0.4085
 1175TIP3    H1 3489   2.439   1.809   2.080 -2.2798 -0.7769 -0.0711
 1175TIP3    H2 3490   2.381   1.809   2.220 -1.0673  0.3510  0.4488
 1176TIP3   OH2 3491   5.114   1.221   2.150 -0.2109  0.6189  0.4042
 1176TIP3    H1 3492   5.170   1.220   2.228  0.8884 -0.6036 -0.3504
 1176TIP3    H2 3493   5.049   1.288   2.168  0.0188  0.3746  2.3717
 1177TIP3   OH2 3494   0.739   3.948   4.270  0.1046 -0.2456  0.0209
 1177TIP3    H1 3495   0.648   3.917   4.275 -0.2019  0.4519 -0.9625
 1177TIP3    H2 3496   0.779   3.893   4.202  0.1904 -0.0083 -0.1211
 1178TIP3   OH2 3497   5.385   4.766   5.698  0.2194 -0.1540 -0.2181
 1178TIP3    H1 3498   5.373   4.845   5.752  1.8670  0.1698 -0.2733
 1178TIP3    H2 3499   5.467   4.728   5.730 -0.3360 -1.6316 -0.4872
 1179TIP3   OH2 3500   3.276   3.903   5.756  0.1639 -0.2618  0.0847
 1179TIP3    H1 3501   3.219   3.895   5.832 -1.2045  1.0230 -0.7688
 1179TIP3    H2 3502   3.216   3.906   5.681  1.4710 -1.5042 -1.0788
 1180TIP3   OH2 3503   6.348   4.216   4.669  0.2807 -0.1434 -0.6042
 1180TIP3    H1 3504   6.263   4.244   4.637  0.2449 -0.1655 -0.5277
 1180TIP3    H2 3505   6.360   4.261   4.752  1.2773  1.5454 -1.6077
 1181TIP3   OH2 3506   4.906   5.605   1.269 -0.5217 -0.4611 -0.2579
 1181TIP3    H1 3507   4.852   5.558   1.332 -0.6024 -2.8295 -1.9471
 1181TIP3    H2 3508   4.992   5.565   1.276 -0.6684 -1.1610 -1.9772
 1182TIP3   OH2 3509   0.584   6.202   2.693  0.6250  0.8230  1.1685
 1182TIP3    H1 3510   0.634   6.152   2.627  0.7282  0.8544  1.2228
 1182TIP3    H2 3511   0.620   6.290   2.688  1.8293  0.4517  2.4528
 1183TIP3   OH2 3512   7.022   2.817   4.566 -0.3008  0.8817  0.2211
 1183TIP3    H1 3513   7.094   2.877   4.545 -1.1993  1.5877 -1.0654
 1183TIP3    H2 3514   6.978   2.858   4.640  0.0122  0.9993  0.3440
 1184TIP3   OH2 3515   0.875   5.288   2.394  0.6056 -0.2690 -0.4538
 1184TIP3    H1 3516   0.831   5.205   2.413  1.1534 -0.2205  1.2673
 1184TIP3    H2 3517   0.804   5.353   2.392  0.4090 -0.4132  0.8038
 1185TIP3   OH2 3518   0.691   2.847   2.998 -0.2901  0.4205  0.6162
 1185TIP3    H1 3519   0.753   2.915   3.023  0.1060  0.6180 -0.7981
 1185TIP3    H2 3520   0.654   2.816   3.081  0.3558  1.5593  1.3584
 1186TIP3   OH2 3521   3.307   3.146   3.309 -0.5373  0.5322 -0.3732
 1186TIP3    H1 3522   3.227   3.115   3.352 -1.4627  0.3565 -2.1308
 1186TIP3    H2 3523   3.338   3.216   3.365 -2.0492  0.7509  0.2552
 1187TIP3   OH2 3524   0.795   6.087   3.027  0.2199  0.2922  0.0306
 1187TIP3    H1 3525   0.752   6.162   2.986  0.9967  0.9488  0.3896
 1187TIP3    H2 3526   0.729   6.052   3.087 -0.4407  0.1639 -0.7475
 1188TIP3   OH2 3527   3.078   4.199   2.070  0.1883 -0.0578  0.0367
 1188TIP3    H1 3528   3.156   4.249   2.092  0.2934 -0.6119  0.9430
 1188TIP3    H2 3529   3.013   4.225   2.136 -0.4677  0.5347 -0.8092
 1189TIP3   OH2 3530   6.558   2.850   0.345  0.2769  0.0338  0.0067
 1189TIP3    H1 3531   6.631   2.788   0.343 -1.0136 -1.5403 -0.0409
 1189TIP3    H2 3532   6.590   2.926   0.296  1.6109 -0.9107 -0.6509
 1190TIP3   OH2 3533   4.938   5.482   1.629  0.6113 -0.2682 -0.4535
 1190TIP3    H1 3534   5.031   5.492   1.650  0.3549  0.3518  0.4100
 1190TIP3    H2 3535   4.895   5.553   1.676 -0.2678 -0.3551 -1.1120
 1191TIP3   OH2 3536   1.881   2.792   2.219 -0.2851  0.1199  0.6662
 1191TIP3    H1 3537   1.942   2.828   2.154 -0.6931  0.0063  0.2118
 1191TIP3    H2 3538   1.920   2.709   2.246  0.4185  0.6643  1.3559
 1192TIP3   OH2 3539   1.961   6.271   4.648 -0.1005 -0.0109  0.0458
 1192TIP3    H1 3540   2.056   6.278   4.660 -0.0344 -1.6243  0.7844
 1192TIP3    H2 3541   1.950   6.254   4.554  0.0721  3.1644 -0.6625
 1193TIP3   OH2 3542   1.979   2.559   3.004 -0.4451 -0.3115  0.2233
 1193TIP3    H1 3543   1.918   2.549   3.077 -0.1171 -0.5395  0.4641
 1193TIP3    H2 3544   1.950   2.639   2.960 -2.3238 -1.5705 -0.9898
 1194TIP3   OH2 3545   3.147   0.099   0.665  0.4283 -0.1459  0.4796
 1194TIP3    H1 3546   3.133   0.143   0.749  0.7744  1.2746 -0.1821
 1194TIP3    H2 3547   3.226   0.047   0.678 -0.4011 -1.2254  1.5023
 1195TIP3   OH2 3548   1.023   4.371   4.918 -0.0169  0.2330 -0.4975
 1195TIP3    H1 3549   1.070   4.404   4.841 -1.5719 -1.0748 -2.0672
 1195TIP3    H2 3550   1.007   4.279   4.899 -1.2241  0.0946  1.0164
 1196TIP3   OH2 3551   3.333   0.133   4.124 -0.0813  0.6418  0.0173
 1196TIP3    H1 3552   3.378   0.057   4.159  0.7254  0.7340 -0.7801
 1196TIP3    H2 3553   3.326   0.194   4.198  1.1059  0.6201  0.1628
 1197TIP3   OH2 3554   3.139   6.241   1.022  0.5889  0.3683 -0.2191
 1197TIP3    H1 3555   3.086   6.320   1.029 -1.0847 -0.7825  0.9038
 1197TIP3    H2 3556   3.107   6.197   0.943 -0.7790 -0.7435  0.9185
 1198TIP3   OH2 3557   1.728   3.400   5.410  0.6994 -0.0269 -0.4893
 1198TIP3    H1 3558   1.777   3.464   5.463  1.3576 -0.2024 -0.8750
 1198TIP3    H2 3559   1.636   3.419   5.429  0.7911  2.1720 -1.8785
 1199TIP3   OH2 3560   3.120   3.926   5.506  0.2837 -0.2673  0.4581
 1199TIP3    H1 3561   3.056   3.856   5.496 -0.6389  0.6648 -0.4240
 1199TIP3    H2 3562   3.118   3.973   5.423 -0.1114  1.6034  1.4747
 1200TIP3   OH2 3563   2.661   5.185   4.332 -0.5537 -0.6206  0.6946
 1200TIP3    H1 3564   2.592   5.198   4.267 -1.1756  1.3445  1.6296
 1200TIP3    H2 3565   2.654   5.262   4.389  2.8569  0.0432  0.4520
 1201TIP3   OH2 3566   6.179   5.596   4.845 -0.1474  1.0245 -0.5168
 1201TIP3    H1 3567   6.151   5.632   4.929  0.2917  0.0133  0.0884
 1201TIP3    H2 3568   6.138   5.509   4.842  0.5698  0.6955 -0.9380
 1202TIP3   OH2 3569   5.473   2.433   2.554 -0.2108  0.3915 -0.3463
 1202TIP3    H1 3570   5.459   2.455   2.646  0.4790  2.0290 -0.5955
 1202TIP3    H2 3571   5.391   2.394   2.526 -1.3563  2.1637  0.3467
 1203TIP3   OH2 3572   5.905   1.417   1.803  0.2215 -0.1831 -0.0658
 1203TIP3    H1 3573   5.881   1.341   1.856 -1.2021  1.3190  1.5295
 1203TIP3    H2 3574   5.948   1.477   1.863  0.5421  0.6578 -1.0928
 1204TIP3   OH2 3575   6.033   1.465   5.572  0.7153  0.0743  0.4459
 1204TIP3    H1 3576   5.964   1.484   5.635  1.4321  1.4554  0.8632
 1204TIP3    H2 3577   5.987   1.442   5.491 -0.2263 -1.9090  1.4569
 1205TIP3   OH2 3578   6.823   6.320   4.583 -0.3947 -0.1633 -0.7218
 1205TIP3    H1 3579   6.909   6.280   4.568 -0.4398 -0.2295 -0.8058
 1205TIP3    H2 3580   6.797   6.353   4.497 -0.1754  0.4074 -0.5723
 1206TIP3   OH2 3581   1.814   3.935   3.146 -0.2949  0.0932  0.1171
 1206TIP3    H1 3582   1.745   3.962   3.207  0.0070  0.7772  0.1634
 1206TIP3    H2 3583   1.773   3.866   3.094 -1.3546  1.1326 -0.5021
 1207TIP3   OH2 3584   0.981   1.607   3.406  0.2448  0.4649  0.3643
 1207TIP3    H1 3585   0.921   1.534   3.422 -0.3933  1.2144  1.5650
 1207TIP3    H2 3586   1.038   1.576   3.336 -0.8149 -0.6999 -0.0270
 1208TIP3   OH2 3587   0.797   4.548   2.465  0.4776 -0.1751  0.0209
 1208TIP3    H1 3588   0.789   4.484   2.536  1.0503  0.4585  0.6788
 1208TIP3    H2 3589   0.716   4.598   2.469  0.5638 -0.0565  0.3158
 1209TIP3   OH2 3590   4.253   4.325   4.372 -0.3945 -0.1717  0.0211
 1209TIP3    H1 3591   4.243   4.327   4.467 -1.1717 -2.5734  0.0661
 1209TIP3    H2 3592   4.338   4.285   4.357  0.9762  2.6652 -0.3719
 1210TIP3   OH2 3593   1.076   5.447   5.187 -0.3702  0.2131 -0.6880
 1210TIP3    H1 3594   1.068   5.402   5.271 -0.7797 -1.3945 -1.5513
 1210TIP3    H2 3595   1.168   5.474   5.183 -0.5960  1.3071  0.7350
 1211TIP3   OH2 3596   4.043   3.621   3.901  0.1277 -0.0005 -0.0077
 1211TIP3    H1 3597   4.120   3.671   3.876 -0.8062  0.4127 -2.3306
 1211TIP3    H2 3598   4.002   3.672   3.971  1.7769 -0.1272  1.1037
 1212TIP3   OH2 3599   4.041   6.684   4.222 -0.8629 -0.9551  0.2026
 1212TIP3    H1 3600   3.961   6.634   4.206 -2.3701  0.1296  3.4171
 1212TIP3    H2 3601   4.088   6.633   4.288 -0.7600  0.1952  1.0382
 1213TIP3   OH2 3602   4.255   4.029   2.064  0.4475  0.3749  0.4610
 1213TIP3    H1 3603   4.202   4.085   2.121 -1.2313 -0.0368 -0.6381
 1213TIP3    H2 3604   4.277   4.085   1.990  0.4004  0.1527  0.2786
 1214TIP3   OH2 3605   1.237   1.017   4.067  0.3211  0.1200  0.8289
 1214TIP3    H1 3606   1.154   1.037   4.110 -0.0659  0.7127 -0.1634
 1214TIP3    H2 3607   1.276   0.949   4.122 -0.7265 -0.0329  1.4215
 1215TIP3   OH2 3608   2.307   0.516   4.696 -0.5746  0.2614  0.0556
 1215TIP3    H1 3609   2.253   0.438   4.696  0.8585 -0.7627 -0.4712
 1215TIP3    H2 3610   2.278   0.565   4.774 -0.7660 -1.2908  0.9918
 1216TIP3   OH2 3611   0.770   1.478   5.429  0.0237  0.3510  0.0605
 1216TIP3    H1 3612   0.742   1.388   5.440  0.3539  0.0945 -1.0766
 1216TIP3    H2 3613   0.690   1.530   5.439 -0.0594  0.0074  1.3644
 1217TIP3   OH2 3614   6.724   3.773   2.976 -0.5511 -0.1303 -0.2256
 1217TIP3    H1 3615   6.725   3.785   2.881 -3.0241  0.8904 -0.2012
 1217TIP3    H2 3616   6.760   3.855   3.011 -2.2609  0.6835 -0.2877
 1218TIP3   OH2 3617   4.597   2.960   3.631  0.0262  0.3184 -0.4987
 1218TIP3    H1 3618   4.517   2.919   3.664 -0.0220 -0.6117 -1.7124
 1218TIP3    H2 3619   4.668   2.909   3.669  0.0137  0.2897 -0.5140
 1219TIP3   OH2 3620   0.526   4.826   1.260 -0.3484 -0.4425  0.0359
 1219TIP3    H1 3621   0.452   4.772   1.288  1.7043 -2.7864  1.3788
 1219TIP3    H2 3622   0.595   4.763   1.239  0.4489  1.4754 -4.0992
 1220TIP3   OH2 3623   6.546   3.970   4.856  0.3814 -0.2159  0.5225
 1220TIP3    H1 3624   6.472   3.981   4.915  1.0118  2.3628  0.9637
 1220TIP3    H2 3625   6.607   3.913   4.903 -0.0859 -0.0012  1.4055
 1221TIP3   OH2 3626   3.132   2.112   0.803  0.3547 -0.3291  0.0080
 1221TIP3    H1 3627   3.082   2.124   0.883  0.5324 -0.3657  0.1236
 1221TIP3    H2 3628   3.119   2.019   0.781 -0.2331 -0.1668 -0.3659
 1222TIP3   OH2 3629   3.993   2.679   5.683 -0.1978  0.0649 -0.1539
 1222TIP3    H1 3630   3.961   2.591   5.664 -0.1085 -0.0991  0.4268
 1222TIP3    H2 3631   3.964   2.732   5.609  0.1809 -0.5538 -0.7628
 1223TIP3   OH2 3632   4.744   2.262   2.673  0.1390 -0.3330  0.1181
 1223TIP3    H1 3633   4.701   2.334   2.627 -0.2609 -0.7071 -0.1093
 1223TIP3    H2 3634   4.747   2.191   2.608  2.3843  0.1173 -0.3387
 1224TIP3   OH2 3635   5.780   4.737   3.541  0.3507  0.2282  0.2200
 1224TIP3    H1 3636   5.709   4.793   3.510  1.2212  1.5452  0.4971
 1224TIP3    H2 3637   5.854   4.797   3.552  1.0852 -0.8369  1.3573
 1225TIP3   OH2 3638   0.355   6.490   0.106  0.2483 -0.0436  0.3947
 1225TIP3    H1 3639   0.364   6.396   0.120 -0.0489 -0.1209  0.1000
 1225TIP3    H2 3640   0.396   6.530   0.182  0.6715 -0.4061  0.3606
 1226TIP3   OH2 3641   5.550   0.211   4.235  0.0895 -0.2934 -0.0740
 1226TIP3    H1 3642   5.599   0.289   4.261  0.4333 -0.2111 -0.9173
 1226TIP3    H2 3643   5.556   0.153   4.310  2.1074 -0.5727 -0.3822
 1227TIP3   OH2 3644   4.870   0.335   1.455  0.3213 -0.1117  0.0906
 1227TIP3    H1 3645   4.777   0.357   1.445 -0.1199 -1.3934  1.0888
 1227TIP3    H2 3646   4.903   0.326   1.366 -0.6108 -0.0070 -0.2733
 1228TIP3   OH2 3647   2.024   4.045   1.840 -0.0061 -0.2758  0.7974
 1228TIP3    H1 3648   2.074   4.040   1.921  1.6543 -0.0022 -0.1696
 1228TIP3    H2 3649   1.980   4.130   1.843  1.2834  0.4143  0.7439
 1229TIP3   OH2 3650   5.961   3.994   4.669 -0.3038 -0.3822  0.3765
 1229TIP3    H1 3651   5.886   4.011   4.612  0.8551 -0.9274 -1.4062
 1229TIP3    H2 3652   5.950   4.054   4.743 -1.9821  0.2005 -0.3060
 1230TIP3   OH2 3653   1.446   4.830   4.371 -0.5423  0.2016 -0.1183
 1230TIP3    H1 3654   1.478   4.813   4.282 -0.6080 -0.4387 -0.0230
 1230TIP3    H2 3655   1.521   4.814   4.427 -1.0089 -1.3313  0.1079
 1231TIP3   OH2 3656   1.991   0.121   1.103 -0.2593  0.2954  0.0428
 1231TIP3    H1 3657   1.993   0.205   1.057 -0.8523 -0.9318 -2.4335
 1231TIP3    H2 3658   1.899   0.106   1.121 -0.4698 -0.9293 -1.8460
 1232TIP3   OH2 3659   6.541   5.500   3.067  0.3432  0.1289  0.5729
 1232TIP3    H1 3660   6.502   5.583   3.094  1.0026  1.0737 -1.1585
 1232TIP3    H2 3661   6.486   5.470   2.994 -0.5943 -1.6283  1.9045
 1233TIP3   OH2 3662   1.337   1.110   1.818  0.0445 -0.8639  0.3378
 1233TIP3    H1 3663   1.351   1.097   1.912 -0.5499 -0.2921  0.5170
 1233TIP3    H2 3664   1.411   1.164   1.790  0.3632 -1.2555  0.4183
 1234TIP3   OH2 3665   5.610   4.470   3.418 -0.3297  0.0481  0.0662
 1234TIP3    H1 3666   5.644   4.503   3.335  2.1743  1.3738  1.4905
 1234TIP3    H2 3667   5.535   4.525   3.437 -2.0382 -1.3724 -2.0325
 1235TIP3   OH2 3668   6.698   4.175   3.665  0.0536  0.0998 -0.0414
 1235TIP3    H1 3669   6.642   4.149   3.739 -0.5960  0.8906 -0.2340
 1235TIP3    H2 3670   6.762   4.235   3.704 -0.6191  0.9369 -0.1986
 1236TIP3   OH2 3671   1.439   0.806   3.624 -0.0892  0.1968 -0.1324
 1236TIP3    H1 3672   1.452   0.742   3.694  0.1714 -0.4112 -0.7263
 1236TIP3    H2 3673   1.351   0.841   3.640 -0.3304 -0.4869  0.0529
 1237TIP3   OH2 3674   3.139   1.590   5.063 -0.4677 -0.4366  0.0904
 1237TIP3    H1 3675   3.212   1.565   5.006 -0.3778 -0.8273  0.3741
 1237TIP3    H2 3676   3.181   1.618   5.145 -0.5966  0.1387 -0.0320
 1238TIP3   OH2 3677   4.967   5.416   5.706 -0.2015  0.6134  0.9590
 1238TIP3    H1 3678   4.968   5.407   5.801  0.1671  0.5999  0.9533
 1238TIP3    H2 3679   4.993   5.330   5.674 -1.8333  0.1379  0.8141
 1239TIP3   OH2 3680   5.757   0.057   5.555 -0.3681  0.0546 -0.3898
 1239TIP3    H1 3681   5.774   0.150   5.563 -0.1504 -0.0284  0.1723
 1239TIP3    H2 3682   5.815   0.016   5.620 -0.8866 -0.4225 -0.2173
 1240TIP3   OH2 3683   0.903   2.386   1.225  0.1905  0.2750  0.3213
 1240TIP3    H1 3684   0.897   2.402   1.320  1.6595 -0.9297  0.6487
 1240TIP3    H2 3685   0.937   2.467   1.189 -0.1304  0.6562  0.8629
 1241TIP3   OH2 3686   2.944   1.491   1.174  0.5339 -0.5316 -0.0689
 1241TIP3    H1 3687   3.006   1.556   1.143 -1.8473  1.1307 -1.7531
 1241TIP3    H2 3688   2.909   1.451   1.094 -0.8384 -1.1095  0.7787
 1242TIP3   OH2 3689   0.845   4.037   0.395  0.0574  0.7198  0.3054
 1242TIP3    H1 3690   0.836   3.978   0.321 -0.3172  0.5586  0.4811
 1242TIP3    H2 3691   0.813   3.988   0.471  0.7580  0.7593  0.6375
 1243TIP3   OH2 3692   5.781   3.205   1.637  0.2096  0.4073 -0.1962
 1243TIP3    H1 3693   5.828   3.125   1.616 -0.5056  0.1283 -0.7810
 1243TIP3    H2 3694   5.804   3.223   1.728 -1.0337 -1.4726  0.5442
 1244TIP3   OH2 3695   0.325   1.286   5.256 -0.1796  0.0310  0.0454
 1244TIP3    H1 3696   0.256   1.314   5.196  0.4435  2.1002  0.2181
 1244TIP3    H2 3697   0.331   1.357   5.320  0.6039 -1.1497  1.3553
 1245TIP3   OH2 3698   5.865   4.254   1.614  0.5421 -0.1763 -0.0433
 1245TIP3    H1 3699   5.941   4.235   1.668  1.4230 -2.3827 -1.8622
 1245TIP3    H2 3700   5.891   4.328   1.559  1.5809 -1.1192 -0.8791
 1246TIP3   OH2 3701   6.338   4.517   1.056  0.1839 -0.0639  0.0699
 1246TIP3    H1 3702   6.432   4.533   1.061 -0.0290  0.7329  2.3410
 1246TIP3    H2 3703   6.297   4.598   1.086 -1.1725 -1.0420  0.9893
 1247TIP3   OH2 3704   1.716   3.121   5.747 -0.0059 -0.5943 -0.5423
 1247TIP3    H1 3705   1.649   3.189   5.752 -1.0700 -1.3639 -2.9253
 1247TIP3    H2 3706   1.776   3.141   5.819 -1.8117  1.1705  0.5687
 1248TIP3   OH2 3707   4.899   2.319   4.827  0.2126  0.1469 -0.2902
 1248TIP3    H1 3708   4.895   2.412   4.851  1.9492  0.4658 -1.0914
 1248TIP3    H2 3709   4.909   2.273   4.910  0.7284  0.8000  0.0189
 1249TIP3   OH2 3710   5.024   0.205   3.025 -0.0461 -0.1865 -0.3878
 1249TIP3    H1 3711   5.090   0.274   3.029  0.2220 -0.4664  0.4509
 1249TIP3    H2 3712   5.008   0.183   3.117  0.6533 -1.9510 -0.6405
 1250TIP3   OH2 3713   2.777   3.042   2.390 -0.0065 -0.1875 -0.3789
 1250TIP3    H1 3714   2.683   3.038   2.408  0.2927  2.6181  2.4954
 1250TIP3    H2 3715   2.815   2.979   2.452  0.1839  0.8256  0.5507
 1251TIP3   OH2 3716   2.184   5.102   3.716 -0.3334 -0.1399 -0.5277
 1251TIP3    H1 3717   2.226   5.020   3.692  0.2101  0.0907 -0.3831
 1251TIP3    H2 3718   2.107   5.075   3.766 -0.6972 -0.5778 -1.3047
 1252TIP3   OH2 3719   1.125   4.482   5.460 -0.5733 -0.5527 -0.0134
 1252TIP3    H1 3720   1.064   4.413   5.436 -0.0055 -0.7428 -0.9923
 1252TIP3    H2 3721   1.192   4.437   5.513 -0.5000 -0.6450 -0.1827
 1253TIP3   OH2 3722   3.706   2.516   3.165  0.3064  0.3665 -0.0620
 1253TIP3    H1 3723   3.750   2.600   3.156  2.1512 -0.7590 -2.9999
 1253TIP3    H2 3724   3.623   2.527   3.119  0.4993  0.6275 -0.3546
 1254TIP3   OH2 3725   1.246   6.491   0.287 -0.2373  0.6072 -0.2640
 1254TIP3    H1 3726   1.311   6.524   0.348  0.0268  1.1268 -0.8143
 1254TIP3    H2 3727   1.241   6.558   0.218 -0.4139 -0.0303 -0.8862
 1255TIP3   OH2 3728   1.821   3.505   3.265  0.1375 -0.1552  0.0358
 1255TIP3    H1 3729   1.726   3.492   3.258  0.2632 -0.9170 -0.4174
 1255TIP3    H2 3730   1.848   3.447   3.336  0.4017 -0.7420 -0.5318
 1256TIP3   OH2 3731   2.160   6.312   3.773 -0.0259  0.3815  0.4836
 1256TIP3    H1 3732   2.104   6.274   3.706 -0.5957 -1.7110  2.0272
 1256TIP3    H2 3733   2.165   6.405   3.752 -2.5794  0.3041 -0.7369
 1257TIP3   OH2 3734   5.024   4.440   5.635 -0.1868  0.0732  0.1656
 1257TIP3    H1 3735   5.033   4.364   5.691 -0.0015  1.5655  2.2733
 1257TIP3    H2 3736   5.101   4.494   5.654 -0.3818  0.8816 -1.1526
 1258TIP3   OH2 3737   4.437   3.424   2.790  0.3540  0.0815  0.4970
 1258TIP3    H1 3738   4.396   3.503   2.757  1.4911  1.1208  1.4824
 1258TIP3    H2 3739   4.407   3.416   2.880 -1.2944 -1.7399 -0.1362
 1259TIP3   OH2 3740   3.440   1.579   5.208  0.3451  0.0406  0.3319
 1259TIP3    H1 3741   3.499   1.550   5.137 -0.9082 -0.8497 -0.3823
 1259TIP3    H2 3742   3.462   1.671   5.220  1.6955 -0.1866 -0.1023
 1260TIP3   OH2 3743   6.320   5.585   0.979  0.6202 -0.0874  1.0415
 1260TIP3    H1 3744   6.324   5.516   1.045  2.3763 -0.2416  0.8194
 1260TIP3    H2 3745   6.258   5.552   0.914  1.6096 -1.6054  0.8075
 1261TIP3   OH2 3746   5.385   0.722   0.749  0.4925  0.2200  0.0650
 1261TIP3    H1 3747   5.448   0.671   0.800 -0.0273 -0.2205  0.2774
 1261TIP3    H2 3748   5.324   0.658   0.714 -1.0207  0.7838  1.5326
 1262TIP3   OH2 3749   4.756   6.167   3.395 -0.2004  0.3995 -0.0982
 1262TIP3    H1 3750   4.716   6.080   3.382  0.5149  0.0465  0.0262
 1262TIP3    H2 3751   4.696   6.211   3.456  0.9826 -1.1466  2.3448
 1263TIP3   OH2 3752   3.596   4.482   4.288 -0.0089 -0.0266 -0.5589
 1263TIP3    H1 3753   3.557   4.570   4.288  0.3198  0.1733  1.2570
 1263TIP3    H2 3754   3.522   4.423   4.298 -0.1744  0.0765 -1.1354
 1264TIP3   OH2 3755   3.474   2.612   0.182 -1.0363 -1.0280 -0.1541
 1264TIP3    H1 3756   3.498   2.606   0.275  0.0081  0.4861 -0.2796
 1264TIP3    H2 3757   3.410   2.683   0.178  0.6334  0.5150 -0.8261
 1265TIP3   OH2 3758   5.850   3.503   5.106  0.1234  0.5489 -1.0075
 1265TIP3    H1 3759   5.778   3.442   5.090 -0.0320  0.3848  0.2117
 1265TIP3    H2 3760   5.927   3.446   5.116  0.3255  0.6862 -1.7295
 1266TIP3   OH2 3761   2.664   5.641   5.277 -0.4608  0.1003 -0.3929
 1266TIP3    H1 3762   2.612   5.673   5.204 -2.7041  0.9893  1.4799
 1266TIP3    H2 3763   2.661   5.546   5.270 -0.2499  0.1683 -1.6601
 1267TIP3   OH2 3764   5.785   5.709   2.882 -0.3336 -0.2367  0.2632
 1267TIP3    H1 3765   5.818   5.651   2.813  1.7108  1.7929 -0.5782
 1267TIP3    H2 3766   5.848   5.700   2.953 -0.5071  0.2927  0.4898
 1268TIP3   OH2 3767   4.974   3.517   2.178 -0.4930 -0.3832  0.1668
 1268TIP3    H1 3768   5.043   3.453   2.193 -1.1299 -0.8791  1.0187
 1268TIP3    H2 3769   4.972   3.527   2.083  1.7399  0.7595  0.1627
 1269TIP3   OH2 3770   3.345   2.478   5.253 -0.1505 -0.1455  0.1398
 1269TIP3    H1 3771   3.362   2.384   5.254  2.9165  0.3008  0.0319
 1269TIP3    H2 3772   3.284   2.492   5.325  1.0539 -1.9893  1.6164
 1270TIP3   OH2 3773   4.347   1.919   3.332  0.0679  1.0600 -0.1656
 1270TIP3    H1 3774   4.299   1.843   3.366  0.1182  1.0551 -0.1048
 1270TIP3    H2 3775   4.279   1.975   3.296  0.2170 -0.1811 -2.5761
 1271TIP3   OH2 3776   3.886   3.944   3.374 -0.2303  0.6858  0.1136
 1271TIP3    H1 3777   3.898   3.860   3.419 -0.6072  0.6287  0.1085
 1271TIP3    H2 3778   3.820   3.926   3.307  0.0586  0.8638 -0.2231
 1272TIP3   OH2 3779   0.154   6.384   2.546  0.4939 -0.4088  0.0718
 1272TIP3    H1 3780   0.165   6.479   2.558 -0.7340 -0.2931  0.4928
 1272TIP3    H2 3781   0.079   6.362   2.602  0.5754 -1.5746 -0.2573
 1273TIP3   OH2 3782   3.735   2.818   3.994  0.3442 -0.0822 -0.3340
 1273TIP3    H1 3783   3.774   2.763   3.927 -3.0968 -0.1465 -2.5559
 1273TIP3    H2 3784   3.640   2.809   3.980 -0.4906  2.0510  2.8404
 1274TIP3   OH2 3785   0.862   5.235   0.283  0.4213 -0.6018 -0.1195
 1274TIP3    H1 3786   0.771   5.266   0.287  0.0737 -0.9428 -3.1287
 1274TIP3    H2 3787   0.887   5.224   0.374 -1.0021  3.8716  1.0620
 1275TIP3   OH2 3788   3.393   2.389   5.693 -0.4486 -0.5794 -0.4148
 1275TIP3    H1 3789   3.424   2.478   5.713 -1.3125 -0.3140 -0.2240
 1275TIP3    H2 3790   3.451   2.332   5.744  0.5944 -0.1751 -1.1178
 1276TIP3   OH2 3791   1.531   3.991   2.931  0.3422  0.3029  0.0914
 1276TIP3    H1 3792   1.535   3.943   2.848 -0.3714  0.7933 -0.2417
 1276TIP3    H2 3793   1.438   3.990   2.955  0.6582 -0.5403  1.3182
 1277TIP3   OH2 3794   3.158   5.958   0.167  0.4358  0.4103 -0.2722
 1277TIP3    H1 3795   3.111   6.041   0.159  2.0253  1.1959 -2.1869
 1277TIP3    H2 3796   3.250   5.983   0.167  0.9400 -1.2597  1.1218
 1278TIP3   OH2 3797   2.278   6.236   3.380  1.0202  0.0555  0.2026
 1278TIP3    H1 3798   2.241   6.325   3.374  0.1297 -0.2914  0.4167
 1278TIP3    H2 3799   2.351   6.237   3.318  0.3194  0.6005 -0.6521
 1279TIP3   OH2 3800   4.226   3.363   0.714  0.0134 -0.6356  0.0814
 1279TIP3    H1 3801   4.211   3.369   0.620 -0.7280  0.2517  0.2357
 1279TIP3    H2 3802   4.319   3.343   0.723  0.5158  1.0952 -0.8234
 1280TIP3   OH2 3803   2.779   4.301   4.810 -0.2405 -0.0079 -0.1257
 1280TIP3    H1 3804   2.861   4.261   4.781  0.2563 -0.2738  1.5076
 1280TIP3    H2 3805   2.751   4.247   4.884 -0.2892  1.8010  1.2549
 1281TIP3   OH2 3806   2.537   4.844   0.459  0.2155 -0.1471 -0.3564
 1281TIP3    H1 3807   2.449   4.807   0.448  0.2456 -0.2285 -0.3236
 1281TIP3    H2 3808   2.594   4.768   0.465  0.4102 -0.0935 -1.3369
 1282TIP3   OH2 3809   2.123   4.580   4.188  0.6815 -0.5543  0.3488
 1282TIP3    H1 3810   2.062   4.540   4.249 -1.1147 -0.4228 -1.2551
 1282TIP3    H2 3811   2.100   4.543   4.103  0.2252  2.3323 -0.9204
 1283TIP3   OH2 3812   5.444   3.386   1.957 -0.0806 -0.2432 -0.0721
 1283TIP3    H1 3813   5.476   3.398   1.867 -0.1610  0.3635 -0.0207
 1283TIP3    H2 3814   5.420   3.473   1.986  0.6383 -0.3242  0.8018
 1284TIP3   OH2 3815   4.701   6.515   5.879  0.4650 -0.3960  0.4987
 1284TIP3    H1 3816   4.765   6.538   5.946  0.0992  1.2787  0.3350
 1284TIP3    H2 3817   4.681   6.599   5.836 -2.6993 -0.5677  1.3432
 1285TIP3   OH2 3818   5.525   0.253   5.182  0.3593  0.2088 -0.7707
 1285TIP3    H1 3819   5.482   0.262   5.097 -0.3068  1.2411 -0.3449
 1285TIP3    H2 3820   5.486   0.176   5.222  0.9811 -0.5352 -1.5625
 1286TIP3   OH2 3821   5.965   4.462   1.952  0.8877  0.3996 -0.5383
 1286TIP3    H1 3822   5.936   4.374   1.927 -0.2417 -0.0271  1.9441
 1286TIP3    H2 3823   6.053   4.449   1.986  0.2756 -0.0433  0.9630
 1287TIP3   OH2 3824   4.580   1.133   3.944  0.6467  0.4437  0.3301
 1287TIP3    H1 3825   4.586   1.206   4.005  0.4660 -0.0228  0.9193
 1287TIP3    H2 3826   4.664   1.131   3.900  2.3189 -1.4991  3.2477
 1288TIP3   OH2 3827   5.884   5.774   2.265 -0.0126  0.0727  0.1691
 1288TIP3    H1 3828   5.916   5.841   2.205  0.4870  0.4157  0.7984
 1288TIP3    H2 3829   5.883   5.817   2.351  2.4347 -1.3206  0.9964
 1289TIP3   OH2 3830   5.315   1.840   1.016 -0.6230 -0.4513 -0.4368
 1289TIP3    H1 3831   5.265   1.914   1.051 -0.7088 -0.7468  0.0661
 1289TIP3    H2 3832   5.266   1.812   0.939 -0.0681  0.6422 -1.2392
 1290TIP3   OH2 3833   4.522   2.873   0.068 -0.2411 -0.1514  0.1409
 1290TIP3    H1 3834   4.466   2.907  -0.001 -0.8183 -0.5651  0.3946
 1290TIP3    H2 3835   4.533   2.946   0.129  0.0167  0.1199 -0.2288
 1291TIP3   OH2 3836   0.458   5.821   2.790  0.0537 -0.0295  0.1441
 1291TIP3    H1 3837   0.413   5.897   2.755  0.2614  0.8422  1.6679
 1291TIP3    H2 3838   0.507   5.855   2.865  3.3535 -0.8751 -1.4558
 1292TIP3   OH2 3839   3.444   2.017   3.501  0.0762  0.2104  0.3935
 1292TIP3    H1 3840   3.415   2.055   3.418 -0.8414  1.0901  1.0950
 1292TIP3    H2 3841   3.413   1.927   3.499 -0.7009  0.4750  0.1343
 1293TIP3   OH2 3842   4.363   0.492   0.463 -0.0768 -0.7287 -0.0894
 1293TIP3    H1 3843   4.307   0.437   0.517  1.3466 -0.9672  1.2170
 1293TIP3    H2 3844   4.408   0.549   0.525  2.6227 -1.9112 -0.7939
 1294TIP3   OH2 3845   0.272   3.573   5.367 -0.2605 -0.8906 -0.0584
 1294TIP3    H1 3846   0.314   3.491   5.391  0.4758 -0.6670 -0.5522
 1294TIP3    H2 3847   0.290   3.632   5.440  0.6988 -0.6534 -0.4800
 1295TIP3   OH2 3848   4.940   5.702   0.156 -0.0192 -0.0562 -0.3161
 1295TIP3    H1 3849   4.864   5.728   0.104 -0.2820 -1.6228 -0.7762
 1295TIP3    H2 3850   4.932   5.607   0.163  1.0299 -0.0658  1.0164
 1296TIP3   OH2 3851   4.902   3.046   0.877  0.0147 -0.2257 -0.1282
 1296TIP3    H1 3852   4.888   3.021   0.786 -1.6988  0.7978 -0.1907
 1296TIP3    H2 3853   4.886   3.141   0.879 -2.2832 -0.5667  1.6075
 1297TIP3   OH2 3854   1.651   4.900   0.913 -0.5834 -0.1016 -0.4938
 1297TIP3    H1 3855   1.692   4.960   0.975 -0.0852  1.0155 -1.8395
 1297TIP3    H2 3856   1.565   4.880   0.951 -0.4716  0.9080  0.3242
 1298TIP3   OH2 3857   4.298   4.164   0.244  0.1994 -0.2933  0.0907
 1298TIP3    H1 3858   4.209   4.197   0.233 -0.4725 -2.3091 -0.9435
 1298TIP3    H2 3859   4.316   4.114   0.164  1.1667 -2.2805  1.4676
 1299TIP3   OH2 3860   5.001   3.918   0.563  0.1355 -0.7242  0.1328
 1299TIP3    H1 3861   5.083   3.917   0.613  0.1162 -0.1573  0.1793
 1299TIP3    H2 3862   4.960   3.834   0.584 -0.1766 -0.2402  1.5811
 1300TIP3   OH2 3863   0.713   2.272   4.837 -0.1671  0.7017 -0.3137
 1300TIP3    H1 3864   0.791   2.253   4.784  1.6325  1.4307  1.8787
 1300TIP3    H2 3865   0.724   2.219   4.916 -2.7466 -0.3520 -0.5931
 1301TIP3   OH2 3866   3.883   5.543   2.306 -0.0656  0.6254  0.2727
 1301TIP3    H1 3867   3.956   5.521   2.362 -0.2011  0.4780  0.3892
 1301TIP3    H2 3868   3.805   5.527   2.359 -0.2942 -1.4000 -0.5759
 1302TIP3   OH2 3869   2.893   5.368   0.467 -0.2342  0.1086  0.1620
 1302TIP3    H1 3870   2.896   5.428   0.392 -1.2068 -0.0179  0.0154
 1302TIP3    H2 3871   2.849   5.290   0.434 -0.2046 -0.1532  0.7259
 1303TIP3   OH2 3872   0.161   5.301   2.297  0.3387  0.0970  0.4127
 1303TIP3    H1 3873   0.133   5.391   2.313 -1.5446 -0.6533  1.8045
 1303TIP3    H2 3874   0.158   5.260   2.384 -0.7023 -1.7541 -0.4333
 1304TIP3   OH2 3875   1.979   3.127   5.844 -0.4993  0.3757 -0.0442
 1304TIP3    H1 3876   1.948   3.037   5.843  0.1386  0.1183 -2.4004
 1304TIP3    H2 3877   2.074   3.121   5.846 -0.4620  1.0386  0.9580
 1305TIP3   OH2 3878   2.643   6.598   5.613  0.0873  0.5863  0.1361
 1305TIP3    H1 3879   2.716   6.536   5.615 -1.1775 -0.9825  1.3882
 1305TIP3    H2 3880   2.612   6.596   5.523 -0.3635 -1.2272  0.2838
 1306TIP3   OH2 3881   5.821   6.350   0.036 -0.7645  0.1175 -0.3038
 1306TIP3    H1 3882   5.872   6.342  -0.045  1.8433 -4.0778  1.4116
 1306TIP3    H2 3883   5.758   6.279   0.031 -0.0048 -0.7452  1.6142
 1307TIP3   OH2 3884   6.980   3.881   3.296 -0.1700  0.1398 -0.0068
 1307TIP3    H1 3885   6.988   3.829   3.375 -0.8406 -0.4073 -0.2848
 1307TIP3    H2 3886   6.887   3.876   3.273  0.0631  0.0135 -0.9970
 1308TIP3   OH2 3887   4.518   5.254   1.414  0.3929 -0.0984 -0.1628
 1308TIP3    H1 3888   4.591   5.252   1.352 -0.4821 -0.3473 -1.2162
 1308TIP3    H2 3889   4.523   5.170   1.460 -0.0677 -0.7401 -1.2502
 1309TIP3   OH2 3890   6.774   2.142   1.730 -0.6062 -0.0573  0.5003
 1309TIP3    H1 3891   6.750   2.230   1.701  0.0106 -0.1690 -0.3611
 1309TIP3    H2 3892   6.692   2.104   1.760 -0.9918  0.5861  0.2886
 1310TIP3   OH2 3893   1.069   1.342   4.673 -0.3776  0.1131 -0.8968
 1310TIP3    H1 3894   1.137   1.409   4.682  0.0124 -0.2080 -1.3938
 1310TIP3    H2 3895   1.109   1.263   4.711 -0.6017  0.0022 -0.8879
 1311TIP3   OH2 3896   1.221   2.160   2.309 -0.1092 -0.1207 -0.5358
 1311TIP3    H1 3897   1.157   2.182   2.241  0.6560  0.7994 -0.9714
 1311TIP3    H2 3898   1.175   2.097   2.365 -0.3181 -1.9475 -2.6357
 1312TIP3   OH2 3899   0.510   1.919   5.118 -0.3145  0.7093  0.0985
 1312TIP3    H1 3900   0.414   1.919   5.115 -0.2997  0.7644 -1.0545
 1312TIP3    H2 3901   0.532   1.887   5.205 -1.3863  0.2437  0.2111
 1313TIP3   OH2 3902   7.229   2.077   4.458 -0.3780 -0.0844 -0.0077
 1313TIP3    H1 3903   7.146   2.077   4.507 -2.1035  0.1667 -2.7228
 1313TIP3    H2 3904   7.242   1.985   4.434 -0.4632  0.0335 -0.5081
 1314TIP3   OH2 3905   2.748   4.701   1.703  0.0879 -0.0308 -0.8144
 1314TIP3    H1 3906   2.816   4.764   1.727 -1.7482  1.7775 -0.0950
 1314TIP3    H2 3907   2.717   4.731   1.617 -0.1013 -0.5801 -0.9422
 1315TIP3   OH2 3908   7.113   3.116   0.814 -0.0010  0.1725  0.2906
 1315TIP3    H1 3909   7.151   3.028   0.819  1.5886  0.8225  0.3105
 1315TIP3    H2 3910   7.187   3.172   0.791 -1.1545  1.4037 -0.5253
 1316TIP3   OH2 3911   3.656   5.204   0.755  0.3453 -0.3726  0.9950
 1316TIP3    H1 3912   3.586   5.155   0.796  0.5688 -1.7503 -0.1882
 1316TIP3    H2 3913   3.690   5.261   0.824 -2.8237  1.4347  1.2686
 1317TIP3   OH2 3914   6.071   2.713   3.896 -0.2982  0.7458 -0.1895
 1317TIP3    H1 3915   6.103   2.699   3.985  0.2882  0.0947 -0.4867
 1317TIP3    H2 3916   6.029   2.630   3.872  2.1468 -0.2160 -1.5488
 1318TIP3   OH2 3917   5.209   2.861   1.262  0.1025  0.2088 -0.1024
 1318TIP3    H1 3918   5.280   2.914   1.227  0.0758  0.2226 -0.1354
 1318TIP3    H2 3919   5.131   2.916   1.252  0.0536  0.1100 -0.2585
 1319TIP3   OH2 3920   4.730   1.257   1.884  0.0914 -0.1613 -0.3246
 1319TIP3    H1 3921   4.798   1.323   1.900 -0.3269  0.4850 -1.1231
 1319TIP3    H2 3922   4.678   1.293   1.812  0.4018 -1.7619 -1.4198
 1320TIP3   OH2 3923   0.845   5.934   1.498 -0.0824  0.0927  0.2479
 1320TIP3    H1 3924   0.921   5.909   1.445 -0.0545  3.0814 -1.3337
 1320TIP3    H2 3925   0.771   5.929   1.436 -0.1757  2.9026  0.0242
 1321TIP3   OH2 3926   6.142   3.703   2.222  0.2010  0.1756 -0.3689
 1321TIP3    H1 3927   6.234   3.717   2.200  0.5182 -0.6106  0.4001
 1321TIP3    H2 3928   6.131   3.747   2.307  0.1668 -0.6577  0.0751
 1322TIP3   OH2 3929   6.567   3.967   5.341  0.0561  0.4162 -0.2080
 1322TIP3    H1 3930   6.474   3.945   5.336  0.0692 -0.2132  1.7394
 1322TIP3    H2 3931   6.612   3.886   5.316  0.0796  0.3830 -0.0592
 1323TIP3   OH2 3932   4.912   0.851   0.919  0.3569  0.3614 -0.5011
 1323TIP3    H1 3933   4.957   0.790   0.977  0.6133 -0.6059 -1.6910
 1323TIP3    H2 3934   4.830   0.871   0.965  0.7936  0.0543  0.4369
 1324TIP3   OH2 3935   1.041   1.809   2.080  0.0715  0.3219 -0.1517
 1324TIP3    H1 3936   1.127   1.844   2.058  0.6565 -1.6907 -1.2990
 1324TIP3    H2 3937   0.999   1.792   1.996 -1.1517  0.5116  0.3902
 1325TIP3   OH2 3938   2.009   4.558   2.825  0.3397 -0.6393  0.0598
 1325TIP3    H1 3939   1.930   4.563   2.879 -1.0036  3.0619 -1.8802
 1325TIP3    H2 3940   2.081   4.576   2.885 -0.7667  0.2969  1.1525
 1326TIP3   OH2 3941   2.020   3.838   0.385  0.0603 -0.1924 -0.1361
 1326TIP3    H1 3942   1.965   3.915   0.369 -0.0341  0.1593  1.6016
 1326TIP3    H2 3943   2.010   3.784   0.307 -0.5567  1.1575 -1.0276
 1327TIP3   OH2 3944   5.051   3.756   0.169  0.2055 -0.2215 -0.3507
 1327TIP3    H1 3945   5.127   3.782   0.117 -0.6761  0.9523 -1.0949
 1327TIP3    H2 3946   4.995   3.709   0.108  0.3332 -1.1420  0.2131
 1328TIP3   OH2 3947   4.477   1.640   3.400 -0.1178  0.3124 -0.4127
 1328TIP3    H1 3948   4.392   1.612   3.366 -0.6987 -0.4638  1.5564
 1328TIP3    H2 3949   4.536   1.568   3.381 -0.5780 -0.3776  0.6614
 1329TIP3   OH2 3950   5.159   1.687   4.291  0.3538 -0.4729  0.4866
 1329TIP3    H1 3951   5.068   1.679   4.317 -0.1781 -1.2785 -1.4414
 1329TIP3    H2 3952   5.206   1.628   4.350 -0.0692  1.1614  2.5759
 1330TIP3   OH2 3953   5.845   3.036   2.718 -0.1947  0.2617 -0.1529
 1330TIP3    H1 3954   5.814   2.949   2.693 -0.6653  0.2220  0.5691
 1330TIP3    H2 3955   5.872   3.027   2.809  1.9038  0.3010 -0.7148
 1331TIP3   OH2 3956   2.771   3.791   3.149 -0.3231 -0.5791 -0.5449
 1331TIP3    H1 3957   2.856   3.769   3.186  0.1178  1.1554 -0.4518
 1331TIP3    H2 3958   2.707   3.754   3.210  0.3444 -1.6610 -0.4760
 1332TIP3   OH2 3959   4.560   4.230   2.862 -0.2121 -0.0180  0.5956
 1332TIP3    H1 3960   4.616   4.240   2.940  0.8191  1.6604 -0.3045
 1332TIP3    H2 3961   4.620   4.201   2.793 -0.9620 -0.6839  0.2046
 1333TIP3   OH2 3962   2.835   4.673   0.103  0.2038  0.4433 -0.0596
 1333TIP3    H1 3963   2.817   4.611   0.032  1.4544 -0.8296  0.6888
 1333TIP3    H2 3964   2.751   4.716   0.119 -0.1581  0.6409 -2.1593
 1334TIP3   OH2 3965   2.581   3.273   3.347 -0.1239  0.0120  0.7695
 1334TIP3    H1 3966   2.487   3.276   3.364 -0.4067  1.4908 -0.7529
 1334TIP3    H2 3967   2.588   3.232   3.261  0.4759  1.3403  0.1589
 1335TIP3   OH2 3968   0.461   6.567   0.346  0.0038  0.4138 -0.2285
 1335TIP3    H1 3969   0.434   6.508   0.417  0.7880 -0.6227 -0.7692
 1335TIP3    H2 3970   0.534   6.617   0.382  0.9052 -0.6500 -0.5172
 1336TIP3   OH2 3971   2.586   2.848   3.095  0.5636  0.5935 -0.2962
 1336TIP3    H1 3972   2.609   2.786   3.026 -1.3047  1.4972 -1.8186
 1336TIP3    H2 3973   2.613   2.805   3.176  0.3123 -1.7219 -1.3738
 1337TIP3   OH2 3974   5.128   6.602   2.583 -0.0400 -0.3999  0.0051
 1337TIP3    H1 3975   5.113   6.510   2.605 -0.6642 -0.8942 -2.2392
 1337TIP3    H2 3976   5.097   6.651   2.660 -2.2164 -1.9571  0.2037
 1338TIP3   OH2 3977   0.336   4.434   5.226  0.2642  0.0920 -0.4630
 1338TIP3    H1 3978   0.310   4.447   5.135 -0.5008  1.0467 -0.1325
 1338TIP3    H2 3979   0.260   4.464   5.277  0.4086 -1.0643  0.4819
 1339TIP3   OH2 3980   5.013   2.336   5.487 -0.2222  0.1116 -0.6114
 1339TIP3    H1 3981   5.061   2.414   5.458 -0.4153  0.0287 -1.1764
 1339TIP3    H2 3982   4.948   2.369   5.549  0.8931  0.1640  0.5626
 1340TIP3   OH2 3983   3.930   5.726   1.599  0.2785 -0.0374  0.0416
 1340TIP3    H1 3984   3.913   5.790   1.668  3.2332  2.7996 -1.6232
 1340TIP3    H2 3985   3.849   5.725   1.548 -0.2880  1.4217  0.8452
 1341TIP3   OH2 3986   0.513   2.856   0.308  0.3127  0.0879 -0.5621
 1341TIP3    H1 3987   0.528   2.854   0.214  2.2453  0.6846 -0.3036
 1341TIP3    H2 3988   0.571   2.925   0.341  0.2463 -0.6095  1.1382
 1342TIP3   OH2 3989   1.708   3.805   5.239 -0.1566  0.2861 -0.6148
 1342TIP3    H1 3990   1.613   3.797   5.230 -0.3425 -0.2354  1.4256
 1342TIP3    H2 3991   1.743   3.750   5.168 -1.4279 -2.2804  0.6053
 1343TIP3   OH2 3992   5.463   1.910   2.297 -0.1026 -0.1540 -0.0344
 1343TIP3    H1 3993   5.472   2.005   2.305 -0.2448 -0.3233  3.7919
 1343TIP3    H2 3994   5.513   1.875   2.370  1.1905 -3.2035 -2.1568
 1344TIP3   OH2 3995   5.352   3.715   4.558 -0.4405  0.2445  0.3284
 1344TIP3    H1 3996   5.300   3.755   4.628  1.9336  0.7490  1.8879
 1344TIP3    H2 3997   5.430   3.770   4.552  0.1096 -0.6721 -1.7367
 1345TIP3   OH2 3998   0.076   2.265   5.831 -0.0983  0.1964 -0.3421
 1345TIP3    H1 3999   0.077   2.343   5.886  0.8348 -0.5249  0.7067
 1345TIP3    H2 4000  -0.015   2.255   5.806 -0.4972  0.7264  0.8138
 1346TIP3   OH2 4001   1.064   2.533   4.091 -0.6267 -0.0019 -0.4296
 1346TIP3    H1 4002   1.042   2.581   4.170 -0.3266  0.2988 -0.5283
 1346TIP3    H2 4003   1.007   2.456   4.093 -0.5537 -0.0411  0.1211
 1347TIP3   OH2 4004   1.454   5.895   5.738 -0.1651 -0.1154 -0.0157
 1347TIP3    H1 4005   1.383   5.831   5.748 -0.0568 -0.3030 -0.4274
 1347TIP3    H2 4006   1.442   5.931   5.650 -0.5155  0.7895  0.3879
 1348TIP3   OH2 4007   6.680   5.741   5.904 -0.5494 -0.0234 -0.1674
 1348TIP3    H1 4008   6.701   5.782   5.820 -0.1795 -0.0099 -0.0694
 1348TIP3    H2 4009   6.751   5.678   5.918 -0.8474 -0.3394 -0.0762
 1349TIP3   OH2 4010   0.354   3.330   4.310 -0.2877  0.3742 -0.0267
 1349TIP3    H1 4011   0.356   3.419   4.276 -0.4507 -0.1439 -1.4504
 1349TIP3    H2 4012   0.436   3.321   4.358  0.6112  0.7065 -1.4470
 1350TIP3   OH2 4013   4.209   4.559   3.644  0.2411  0.0921  0.0336
 1350TIP3    H1 4014   4.118   4.573   3.618  0.5163  0.9491 -0.5423
 1350TIP3    H2 4015   4.222   4.465   3.638 -0.5144 -0.0031 -0.1967
 1351TIP3   OH2 4016   4.383   2.153   4.478 -0.3163  0.2877  0.5162
 1351TIP3    H1 4017   4.452   2.197   4.428 -0.5645 -0.4513 -0.5060
 1351TIP3    H2 4018   4.345   2.090   4.417 -1.4111  0.1606  1.2916
 1352TIP3   OH2 4019   1.242   5.907   4.568 -0.2174 -0.1287 -0.0119
 1352TIP3    H1 4020   1.151   5.929   4.585 -1.6842 -1.7369 -4.2494
 1352TIP3    H2 4021   1.269   5.969   4.500  0.6118 -1.7290 -1.2254
 1353TIP3   OH2 4022   4.152   0.263   1.869 -0.1520 -0.4917 -0.3101
 1353TIP3    H1 4023   4.117   0.350   1.850  0.1226  0.0813  1.5817
 1353TIP3    H2 4024   4.240   0.280   1.901  0.1787 -1.5493 -0.6334
 1354TIP3   OH2 4025   1.443   4.832   5.361  0.0281  0.2634  0.4202
 1354TIP3    H1 4026   1.433   4.746   5.320  0.3456 -0.0194  0.9255
 1354TIP3    H2 4027   1.356   4.871   5.356  0.0785  0.2734 -0.6068
 1355TIP3   OH2 4028   4.615   6.256   5.234  0.1990  0.2552 -0.2864
 1355TIP3    H1 4029   4.692   6.220   5.190  0.0083  0.4532 -0.7956
 1355TIP3    H2 4030   4.556   6.182   5.243  0.3440  0.1590 -0.1376
 1356TIP3   OH2 4031   1.600   1.971   2.627  0.4118 -0.3799  0.0067
 1356TIP3    H1 4032   1.646   2.035   2.682 -0.8477 -0.3347  1.0532
 1356TIP3    H2 4033   1.612   1.888   2.671  1.0596 -0.7027 -0.7389
 1357TIP3   OH2 4034   1.019   5.887   5.728 -0.2016 -0.5645  0.0675
 1357TIP3    H1 4035   0.969   5.806   5.720 -0.6170 -0.2338 -0.7411
 1357TIP3    H2 4036   1.016   5.927   5.641  0.2402  0.1781  0.3802
 1358TIP3   OH2 4037   3.774   3.080   5.724  0.3603  0.0294 -0.6840
 1358TIP3    H1 4038   3.784   3.152   5.786  0.1819 -0.2851 -0.2918
 1358TIP3    H2 4039   3.855   3.081   5.673  1.1478 -0.6260  0.5087
 1359TIP3   OH2 4040   5.915   0.672   1.834 -0.6971  0.2483  0.0242
 1359TIP3    H1 4041   5.975   0.712   1.897 -1.4180  0.0273  0.8508
 1359TIP3    H2 4042   5.932   0.719   1.752  0.9242 -0.1062  0.1229
 1360TIP3   OH2 4043   0.067   1.124   4.847  0.0042  0.6785 -0.2008
 1360TIP3    H1 4044  -0.002   1.126   4.781  0.2390  2.1743 -0.4390
 1360TIP3    H2 4045   0.094   1.033   4.850 -2.5563 -0.1319  0.5356
 1361TIP3   OH2 4046   4.768   4.398   0.422 -0.5486  0.3510  0.4900
 1361TIP3    H1 4047   4.801   4.437   0.503  0.6181  0.2314  0.0881
 1361TIP3    H2 4048   4.840   4.342   0.392 -0.8510  0.6358 -0.7901
 1362TIP3   OH2 4049   6.794   1.996   0.969 -0.1399  0.0269  0.1116
 1362TIP3    H1 4050   6.700   1.987   0.983 -0.0782 -0.5423  0.1780
 1362TIP3    H2 4051   6.833   1.962   1.049  0.1092  1.1407  0.4847
 1363TIP3   OH2 4052   0.207   1.221   1.980  0.0335 -0.1976  0.6549
 1363TIP3    H1 4053   0.235   1.169   1.904  1.2566  1.4152 -0.0435
 1363TIP3    H2 4054   0.111   1.216   1.978 -0.0849  1.2151 -2.0878
 1364TIP3   OH2 4055   1.577   2.899   5.650  0.2235  0.1508  0.2742
 1364TIP3    H1 4056   1.500   2.917   5.703 -0.1232  2.1595 -0.8407
 1364TIP3    H2 4057   1.644   2.958   5.684  0.9664 -0.8098  0.5236
 1365TIP3   OH2 4058   6.455   5.568   1.259  0.0804 -0.3727  0.5755
 1365TIP3    H1 4059   6.428   5.486   1.218 -0.0368 -0.3796  0.6659
 1365TIP3    H2 4060   6.537   5.591   1.215 -0.0848 -0.3394  0.2805
 1366TIP3   OH2 4061   0.326   5.664   2.371 -0.2884 -0.2880 -0.0667
 1366TIP3    H1 4062   0.404   5.652   2.425  1.0059  0.3003 -1.7306
 1366TIP3    H2 4063   0.262   5.604   2.409  0.9043 -0.6971  1.4285
 1367TIP3   OH2 4064   0.302   2.309   5.036  0.2691 -0.2411 -0.2009
 1367TIP3    H1 4065   0.272   2.399   5.023 -0.9117 -0.7320 -1.1257
 1367TIP3    H2 4066   0.327   2.304   5.128  0.3118  1.0112 -0.1326
 1368TIP3   OH2 4067   2.093   6.029   1.239 -0.1421  0.6398  0.4843
 1368TIP3    H1 4068   2.079   6.102   1.180  1.3152  0.7012  0.1741
 1368TIP3    H2 4069   2.187   6.013   1.236  0.0660  0.9022  3.0988
 1369TIP3   OH2 4070   3.125   1.217   0.393 -0.4012 -0.3170  0.2132
 1369TIP3    H1 4071   3.195   1.215   0.457 -0.6182  0.3152  0.4795
 1369TIP3    H2 4072   3.093   1.307   0.395 -1.0257 -0.5226 -0.1081
 1370TIP3   OH2 4073   3.819   4.171   2.957 -0.1459  0.3309 -0.2163
 1370TIP3    H1 4074   3.878   4.115   2.907 -0.0824  0.6069 -0.4510
 1370TIP3    H2 4075   3.731   4.143   2.931 -0.1274 -0.1884  0.2509
 1371TIP3   OH2 4076   7.027   3.828   4.113  0.4511 -0.3634  0.4812
 1371TIP3    H1 4077   6.983   3.833   4.198 -0.2242  0.0553  0.1137
 1371TIP3    H2 4078   7.119   3.845   4.133  0.2546  0.0196  1.0936
 1372TIP3   OH2 4079   4.518   2.586   5.034 -0.4579  0.0034  0.9437
 1372TIP3    H1 4080   4.580   2.659   5.028  1.6450 -1.7666 -1.1415
 1372TIP3    H2 4081   4.534   2.549   5.121  1.1574 -0.0926  0.6549
 1373TIP3   OH2 4082   6.471   6.633   0.584  0.8242  0.2752 -0.2940
 1373TIP3    H1 4083   6.500   6.543   0.603  0.4942  0.0123 -0.9789
 1373TIP3    H2 4084   6.549   6.675   0.546  0.7917  0.0705 -0.5943
 1374TIP3   OH2 4085   2.612   5.678   5.554 -0.1645  0.7836 -0.5184
 1374TIP3    H1 4086   2.568   5.762   5.568  0.0173  0.9261 -0.7921
 1374TIP3    H2 4087   2.585   5.650   5.467 -0.7730  0.2176 -0.1562
 1375TIP3   OH2 4088   6.109   1.729   5.498 -0.0022 -0.5666  0.3772
 1375TIP3    H1 4089   6.070   1.647   5.528  1.7638 -1.7631 -0.4622
 1375TIP3    H2 4090   6.149   1.707   5.413  2.0789  0.6790  0.9736
 1376TIP3   OH2 4091   4.017   2.551   0.833  0.1944 -0.4071  1.1047
 1376TIP3    H1 4092   3.935   2.501   0.830  0.2876 -0.5149  0.0354
 1376TIP3    H2 4093   3.989   2.643   0.825  0.1447 -0.3910  1.4145
 1377TIP3   OH2 4094   4.565   5.664   1.650 -0.0431  0.0147 -0.1835
 1377TIP3    H1 4095   4.488   5.623   1.612 -0.9687  1.9956 -0.5814
 1377TIP3    H2 4096   4.587   5.735   1.590  0.5894  1.0267  1.1823
 1378TIP3   OH2 4097   6.622   4.578   1.543 -0.1623 -0.0103  0.0165
 1378TIP3    H1 4098   6.682   4.529   1.486 -1.5380 -1.3042 -0.3592
 1378TIP3    H2 4099   6.650   4.557   1.632 -0.4379 -1.1101 -0.1480
 1379TIP3   OH2 4100   0.729   5.557   2.195 -0.3992 -0.1828 -0.2364
 1379TIP3    H1 4101   0.767   5.602   2.119  0.9094 -0.5757  0.1613
 1379TIP3    H2 4102   0.698   5.473   2.160  1.5777 -1.0157 -0.0808
 1380TIP3   OH2 4103   0.291   3.401   1.803 -0.1163  0.3574  0.8909
 1380TIP3    H1 4104   0.335   3.382   1.720 -0.7872  2.4851 -0.0031
 1380TIP3    H2 4105   0.248   3.318   1.826  1.5582 -0.8058  0.0830
 1381TIP3   OH2 4106   2.675   4.405   0.533 -0.4344  0.1939 -0.0753
 1381TIP3    H1 4107   2.605   4.395   0.468  0.5827  0.5065 -1.2470
 1381TIP3    H2 4108   2.725   4.325   0.527 -1.0515 -0.3204  1.2489
 1382TIP3   OH2 4109   5.231   3.890   5.361  0.2331  0.0787  0.1792
 1382TIP3    H1 4110   5.186   3.895   5.277 -0.1400  0.6431  0.4086
 1382TIP3    H2 4111   5.177   3.942   5.421 -0.0789 -1.1820  1.0295
 1383TIP3   OH2 4112   3.720   0.379   2.578 -1.2234 -0.0410 -0.1252
 1383TIP3    H1 4113   3.707   0.473   2.589 -0.8849 -0.0111  0.0122
 1383TIP3    H2 4114   3.631   0.342   2.584 -1.2411  0.1461  1.0012
 1384TIP3   OH2 4115   2.768   3.469   4.791 -0.2752  1.0755  0.2601
 1384TIP3    H1 4116   2.842   3.486   4.849 -0.3518 -0.2908  0.8030
 1384TIP3    H2 4117   2.697   3.442   4.849 -0.2802 -0.5523 -0.4483
 1385TIP3   OH2 4118   1.567   0.679   3.854  0.0653 -0.2693  0.1194
 1385TIP3    H1 4119   1.476   0.651   3.868  0.1097 -0.2784  0.3976
 1385TIP3    H2 4120   1.583   0.742   3.924  0.2812 -0.2796  0.0796
 1386TIP3   OH2 4121   3.706   2.181   0.433 -0.1012  0.0700  0.3392
 1386TIP3    H1 4122   3.645   2.117   0.469  1.8266 -2.2606 -0.2824
 1386TIP3    H2 4123   3.779   2.181   0.495  1.2121 -0.5545 -1.1552
 1387TIP3   OH2 4124   0.013   4.311   1.146  0.1083  0.3379  0.2161
 1387TIP3    H1 4125   0.055   4.250   1.086 -3.0579 -1.4494 -0.3711
 1387TIP3    H2 4126   0.064   4.392   1.138  1.0757 -0.4717 -3.2852
 1388TIP3   OH2 4127   4.603   2.005   3.251  0.2606  0.3600  0.3660
 1388TIP3    H1 4128   4.521   1.973   3.289  0.0424 -1.4437 -1.4620
 1388TIP3    H2 4129   4.670   1.943   3.283  0.8257  1.3972  1.2638
 1389TIP3   OH2 4130   3.437   2.209   5.110  0.1176  0.2077  0.4122
 1389TIP3    H1 4131   3.390   2.132   5.142 -1.0128  0.4877 -0.4905
 1389TIP3    H2 4132   3.440   2.197   5.015  2.7128 -0.2355  0.4892
 1390TIP3   OH2 4133   5.570   0.455   1.163 -1.0376 -0.4574  0.3280
 1390TIP3    H1 4134   5.660   0.424   1.175 -0.9987 -0.7431 -0.6125
 1390TIP3    H2 4135   5.516   0.384   1.196 -0.9289 -1.1474 -0.8925
 1391TIP3   OH2 4136   3.980   2.917   4.559  0.0185 -0.2125  0.1782
 1391TIP3    H1 4137   4.022   2.833   4.577 -0.5511 -0.5891 -0.1913
 1391TIP3    H2 4138   4.043   2.965   4.505  0.0025 -0.7531 -0.3408
 1392TIP3   OH2 4139   3.982   3.741   4.405  0.1570  0.2383 -0.1792
 1392TIP3    H1 4140   3.959   3.669   4.347  1.4749 -0.9403  0.6932
 1392TIP3    H2 4141   4.031   3.802   4.349 -0.5391  0.2285 -0.8090
 1393TIP3   OH2 4142   5.099   4.105   2.956 -0.2820  0.4894 -0.2501
 1393TIP3    H1 4143   5.186   4.091   2.919 -0.5741 -0.0036 -0.7705
 1393TIP3    H2 4144   5.111   4.174   3.021  1.0058 -1.2556  1.5102
 1394TIP3   OH2 4145   3.585   3.372   5.505 -0.0002  0.2421  0.3257
 1394TIP3    H1 4146   3.645   3.423   5.450 -1.0302  1.6334  0.4206
 1394TIP3    H2 4147   3.534   3.439   5.552 -0.9097 -0.9017  1.0101
 1395TIP3   OH2 4148   6.119   4.262   1.100  1.0708  0.4594  0.0497
 1395TIP3    H1 4149   6.094   4.287   1.188  1.8982  2.0808 -0.1403
 1395TIP3    H2 4150   6.145   4.344   1.058 -0.3347 -0.1035 -2.0607
 1396TIP3   OH2 4151   4.397   0.637   2.460 -0.5198 -0.5899 -0.2519
 1396TIP3    H1 4152   4.364   0.574   2.396  0.6395 -1.8329  0.3423
 1396TIP3    H2 4153   4.490   0.648   2.437 -0.5061  0.2575  0.1762
 1397TIP3   OH2 4154   6.125   4.946   4.267  0.5845  0.4843  0.2578
 1397TIP3    H1 4155   6.212   4.912   4.244  0.0511  0.1689 -1.4430
 1397TIP3    H2 4156   6.089   4.977   4.184 -0.3326  2.0479  1.1974
 1398TIP3   OH2 4157   2.852   2.374   4.015  0.0971 -0.1931  0.2692
 1398TIP3    H1 4158   2.837   2.385   4.109 -0.9054 -0.4632  0.1564
 1398TIP3    H2 4159   2.875   2.282   4.004  1.3570  0.0903  0.3696
 1399TIP3   OH2 4160   1.808   2.809   5.262  0.2747 -0.1326 -0.0695
 1399TIP3    H1 4161   1.882   2.791   5.320 -1.3731 -2.3499  1.5138
 1399TIP3    H2 4162   1.765   2.884   5.302  0.9887  0.4445 -0.3526
 1400TIP3   OH2 4163   4.440   0.546   1.653 -0.8221  0.1029  0.2898
 1400TIP3    H1 4164   4.408   0.503   1.573 -0.0801 -0.6161  0.3558
 1400TIP3    H2 4165   4.363   0.585   1.692 -1.1761  0.5941 -0.8603
 1401TIP3   OH2 4166   0.925   1.661   4.012  0.1135 -0.0911 -1.0474
 1401TIP3    H1 4167   0.974   1.680   4.092  0.3434 -3.2892 -0.3016
 1401TIP3    H2 4168   0.961   1.578   3.982 -3.8612 -1.9349 -1.2225
 1402TIP3   OH2 4169   0.544   1.603   5.420 -0.0414  0.2190 -0.5569
 1402TIP3    H1 4170   0.554   1.698   5.410  0.4591  0.6534  2.8991
 1402TIP3    H2 4171   0.507   1.592   5.508  1.9457 -2.8477  0.0385
 1403TIP3   OH2 4172   2.800   6.504   0.597 -0.2964 -0.3593  0.5638
 1403TIP3    H1 4173   2.845   6.442   0.539 -2.4267 -0.9946 -0.5092
 1403TIP3    H2 4174   2.773   6.575   0.539  0.0862  0.4678  1.3646
 1404TIP3   OH2 4175   0.720   0.646   3.745 -1.0693  0.0371 -0.0565
 1404TIP3    H1 4176   0.651   0.580   3.752 -0.6227 -0.7197 -1.9581
 1404TIP3    H2 4177   0.702   0.690   3.661  0.1699  0.4919 -0.1057
 1405TIP3   OH2 4178   1.076   2.778   3.216  0.2083 -0.3010  0.3206
 1405TIP3    H1 4179   1.016   2.834   3.266  0.6963 -0.0150  0.5895
 1405TIP3    H2 4180   1.018   2.723   3.163 -0.3274 -0.8441  1.4328
 1406TIP3   OH2 4181   2.131   0.623   2.624 -0.3086  0.1294  0.2001
 1406TIP3    H1 4182   2.093   0.580   2.548 -0.0037  0.5369 -0.1845
 1406TIP3    H2 4183   2.167   0.705   2.591  1.3792 -0.4646  0.4220
 1407TIP3   OH2 4184   1.264   0.894   3.065  0.4266 -0.5523 -0.0688
 1407TIP3    H1 4185   1.318   0.938   3.000 -0.0216  2.8055  1.6316
 1407TIP3    H2 4186   1.203   0.840   3.014 -0.0353  2.0563 -2.4746
 1408TIP3   OH2 4187   1.709   2.340   3.393  0.8411 -0.5219 -0.4606
 1408TIP3    H1 4188   1.657   2.265   3.420 -2.1085  1.1146 -1.1377
 1408TIP3    H2 4189   1.761   2.363   3.470 -1.1444 -0.9143  1.0576
 1409TIP3   OH2 4190   1.626   6.157   4.627 -0.1982 -0.3089 -0.2721
 1409TIP3    H1 4191   1.561   6.227   4.626 -0.2581 -0.3523  0.2688
 1409TIP3    H2 4192   1.688   6.180   4.558 -2.2696 -1.7001 -2.7441
 1410TIP3   OH2 4193   2.695   1.950   2.714 -0.2112  0.2841  0.2858
 1410TIP3    H1 4194   2.748   1.909   2.646  1.0363 -0.8846  1.8839
 1410TIP3    H2 4195   2.634   1.882   2.742 -0.8062  0.7963  0.2578
 1411TIP3   OH2 4196   3.293   6.473   3.973  0.1130 -0.2536 -0.3279
 1411TIP3    H1 4197   3.218   6.533   3.973  0.7831  0.5971 -0.4922
 1411TIP3    H2 4198   3.292   6.434   4.060 -1.4099 -1.4043 -0.8122
 1412TIP3   OH2 4199   3.302   4.948   3.704  0.2971  0.2702 -0.1337
 1412TIP3    H1 4200   3.395   4.970   3.703  0.4021  0.1926  2.5156
 1412TIP3    H2 4201   3.258   5.031   3.724  0.0048 -0.1225  0.9174
 1413TIP3   OH2 4202   0.611   3.718   2.692 -0.2679 -0.1783 -0.0746
 1413TIP3    H1 4203   0.562   3.773   2.753  1.7737  1.5784  0.0836
 1413TIP3    H2 4204   0.571   3.734   2.607 -0.7300  0.2730  0.2222
 1414TIP3   OH2 4205   2.114   2.810   4.235  0.8531 -0.2348  0.6406
 1414TIP3    H1 4206   2.080   2.846   4.317 -0.8782  0.1317 -0.1952
 1414TIP3    H2 4207   2.078   2.722   4.230 -0.1924  0.2117 -0.3280
 1415TIP3   OH2 4208   1.446   3.272   1.321 -0.7337  0.9363  0.0064
 1415TIP3    H1 4209   1.382   3.298   1.387  0.3642  1.0331  1.0732
 1415TIP3    H2 4210   1.523   3.247   1.371  1.1237  3.6038 -1.3132
 1416TIP3   OH2 4211   1.499   6.038   5.092  0.0440 -0.7325  0.3214
 1416TIP3    H1 4212   1.423   6.029   5.148 -0.4832 -0.0103 -0.2628
 1416TIP3    H2 4213   1.570   6.063   5.151 -0.3221 -0.7291  0.7636
 1417TIP3   OH2 4214   3.401   3.822   5.390 -0.3301 -0.1055  0.3850
 1417TIP3    H1 4215   3.382   3.773   5.311  1.0481  0.1490 -0.1437
 1417TIP3    H2 4216   3.330   3.801   5.450 -0.2037 -2.1207 -0.0985
 1418TIP3   OH2 4217   7.067   0.583   2.706  0.2381 -0.1644  0.2090
 1418TIP3    H1 4218   7.043   0.590   2.613 -0.4489 -1.5038  0.2636
 1418TIP3    H2 4219   7.046   0.670   2.742 -0.6630 -0.0054 -0.6296
 1419TIP3   OH2 4220   1.570   4.324   3.198 -0.0120  0.2823  0.4528
 1419TIP3    H1 4221   1.595   4.308   3.107 -0.1663  1.3208  0.2158
 1419TIP3    H2 4222   1.542   4.239   3.230 -1.0640  0.1009 -0.8385
 1420TIP3   OH2 4223   1.439   3.815   0.199 -0.2057  0.7471  0.5974
 1420TIP3    H1 4224   1.446   3.788   0.290  1.9480 -0.2477  0.2042
 1420TIP3    H2 4225   1.445   3.910   0.201 -1.3638  0.8261  1.5370
 1421TIP3   OH2 4226   0.136   4.522   3.379  0.5666 -0.1353 -0.5590
 1421TIP3    H1 4227   0.086   4.520   3.298  0.5418 -0.7277 -0.5313
 1421TIP3    H2 4228   0.221   4.561   3.355 -0.6608  3.1294 -0.1630
 1422TIP3   OH2 4229   0.738   2.479   2.996  0.4497 -0.6113  0.6728
 1422TIP3    H1 4230   0.697   2.562   2.972 -0.8272 -1.3784  0.1158
 1422TIP3    H2 4231   0.831   2.501   3.008  0.1847  0.8330  0.2742
 1423TIP3   OH2 4232   4.955   4.793   1.736  0.0759  0.1762 -0.3080
 1423TIP3    H1 4233   5.018   4.863   1.755  0.3179 -0.5644  2.0398
 1423TIP3    H2 4234   4.879   4.838   1.699 -0.1966  1.8851  2.0808
 1424TIP3   OH2 4235   2.027   1.533   4.661 -0.0850  0.4243  0.2067
 1424TIP3    H1 4236   2.095   1.510   4.598  0.3299  1.6869  0.1669
 1424TIP3    H2 4237   2.058   1.497   4.744  1.0385  1.6438  0.3466
 1425TIP3   OH2 4238   2.656   0.751   4.527  0.1055 -0.6082  0.8540
 1425TIP3    H1 4239   2.663   0.833   4.576  0.6562  0.5166 -1.0323
 1425TIP3    H2 4240   2.628   0.687   4.593  0.7937  0.8165  2.6319
 1426TIP3   OH2 4241   3.613   4.540   5.393  0.4060 -0.2893  0.0746
 1426TIP3    H1 4242   3.642   4.619   5.439 -1.7466  0.4269  0.3328
 1426TIP3    H2 4243   3.630   4.557   5.301 -0.7791  0.8737  0.0417
 1427TIP3   OH2 4244   4.364   0.444   5.038  0.3452 -0.0818  0.6513
 1427TIP3    H1 4245   4.428   0.497   5.086 -0.6214  0.6990  1.1151
 1427TIP3    H2 4246   4.408   0.360   5.025  2.3582  1.1408 -1.0879
 1428TIP3   OH2 4247   4.795   5.613   1.853 -0.0277 -0.1241  0.3036
 1428TIP3    H1 4248   4.723   5.618   1.790  0.1503  1.1485  0.1938
 1428TIP3    H2 4249   4.768   5.671   1.924  1.3332  1.1810 -0.2075
 1429TIP3   OH2 4250   3.872   1.205   1.415 -0.0204  0.1310 -0.8705
 1429TIP3    H1 4251   3.810   1.235   1.349 -1.6116 -0.3315  0.3778
 1429TIP3    H2 4252   3.821   1.195   1.495  1.7963  0.3777  0.3869
 1430TIP3   OH2 4253   0.813   4.179   0.727  0.1694  0.6240  0.2870
 1430TIP3    H1 4254   0.813   4.239   0.653  0.5233  0.2817  0.0017
 1430TIP3    H2 4255   0.902   4.142   0.727  0.0219  0.2649  0.5861
 1431TIP3   OH2 4256   4.490   0.694   1.143 -0.8174 -0.4607 -0.0396
 1431TIP3    H1 4257   4.521   0.613   1.104 -1.5933 -0.9942  0.4262
 1431TIP3    H2 4258   4.476   0.753   1.069  0.9931 -0.2940 -0.2861
 1432TIP3   OH2 4259   2.866   6.556   4.228 -0.0328  0.1263 -0.1132
 1432TIP3    H1 4260   2.826   6.476   4.196  1.0184 -0.1379 -0.8227
 1432TIP3    H2 4261   2.809   6.626   4.195 -0.1472 -0.2581 -0.7464
 1433TIP3   OH2 4262   7.099   4.114   0.951 -0.4369  0.2487  0.1642
 1433TIP3    H1 4263   7.030   4.096   1.014  0.2500  0.9758  1.1510
 1433TIP3    H2 4264   7.089   4.207   0.930  0.6269  0.5316  0.8195
 1434TIP3   OH2 4265   0.587   1.890   0.713 -0.2421 -0.4175  0.0090
 1434TIP3    H1 4266   0.674   1.927   0.730  1.1759 -3.3885 -0.1223
 1434TIP3    H2 4267   0.542   1.896   0.798  0.9462 -0.8560  0.7038
 1435TIP3   OH2 4268   4.723   5.685   3.752 -0.7260 -0.2818 -0.2249
 1435TIP3    H1 4269   4.642   5.736   3.750 -0.5400  0.1353  1.5385
 1435TIP3    H2 4270   4.694   5.594   3.758 -1.0455 -0.3483 -2.1309
 1436TIP3   OH2 4271   4.309   6.451   0.710 -0.0134  0.3337  0.1275
 1436TIP3    H1 4272   4.395   6.415   0.688 -0.6482  0.1920 -2.4606
 1436TIP3    H2 4273   4.255   6.374   0.729  0.2192  0.3761  0.9999
 1437TIP3   OH2 4274   2.745   5.158   0.952  0.3089 -0.1921  0.4977
 1437TIP3    H1 4275   2.766   5.249   0.974 -1.9380  0.5528 -0.1517
 1437TIP3    H2 4276   2.677   5.134   1.015 -0.2750 -0.8615 -0.3699
 1438TIP3   OH2 4277   2.116   2.589   4.865  0.5287 -0.7186 -0.1630
 1438TIP3    H1 4278   2.056   2.619   4.934  2.9532  1.6830  1.1170
 1438TIP3    H2 4279   2.086   2.501   4.843 -3.2776  0.2557  0.4879
 1439TIP3   OH2 4280   0.929   4.221   1.691  0.8492  0.6175 -0.5244
 1439TIP3    H1 4281   0.989   4.295   1.705  0.6822  0.5424  0.6817
 1439TIP3    H2 4282   0.846   4.262   1.669  0.7866  0.8009  0.0244
 1440TIP3   OH2 4283   3.085   1.437   3.357 -0.4495  0.4090  0.0076
 1440TIP3    H1 4284   3.177   1.447   3.335  0.0576  0.8393  2.0584
 1440TIP3    H2 4285   3.038   1.466   3.280  1.1159 -0.5919 -1.3908
 1441TIP3   OH2 4286   3.072   5.362   1.464  0.0649  0.7939 -0.1285
 1441TIP3    H1 4287   3.030   5.325   1.386 -0.6096  0.3032  0.4566
 1441TIP3    H2 4288   3.055   5.299   1.533 -0.0511  1.6109  0.6127
 1442TIP3   OH2 4289   1.105   4.200   5.594 -0.1423 -0.4137 -0.0013
 1442TIP3    H1 4290   1.016   4.167   5.586 -0.2190 -0.4951  1.1228
 1442TIP3    H2 4291   1.159   4.135   5.548 -0.7722  0.3054 -1.8487
 1443TIP3   OH2 4292   5.500   6.759   0.244  0.3105  0.1787  0.3127
 1443TIP3    H1 4293   5.548   6.694   0.193  3.3014  2.8700 -0.6414
 1443TIP3    H2 4294   5.483   6.716   0.328  2.5911 -1.7058 -0.0738
 1444TIP3   OH2 4295   1.662   5.294   0.652  0.3702 -0.0582 -0.0374
 1444TIP3    H1 4296   1.696   5.350   0.582  1.3579 -0.4908  0.0827
 1444TIP3    H2 4297   1.699   5.331   0.732  0.8603 -0.7490  0.0620
 1445TIP3   OH2 4298   0.593   0.827   2.497  0.4482  0.3334 -0.1410
 1445TIP3    H1 4299   0.646   0.750   2.516  1.2806  0.5883 -1.3128
 1445TIP3    H2 4300   0.525   0.795   2.437  0.8488  0.5200 -0.7000
 1446TIP3   OH2 4301   5.529   4.189   1.460 -0.3146  0.0678 -0.0116
 1446TIP3    H1 4302   5.614   4.190   1.503 -0.3488 -1.7603  0.1966
 1446TIP3    H2 4303   5.516   4.278   1.428  0.4422  1.0786  2.3311
 1447TIP3   OH2 4304   1.473   1.363   3.746  0.5465  0.1931  0.0757
 1447TIP3    H1 4305   1.401   1.328   3.798  1.0605  0.2907  0.8686
 1447TIP3    H2 4306   1.509   1.288   3.700 -0.9030  0.3508 -1.3929
 1448TIP3   OH2 4307   2.272   1.382   5.490 -0.4793 -0.3836  0.1755
 1448TIP3    H1 4308   2.359   1.356   5.521  0.4139  2.7363  0.6338
 1448TIP3    H2 4309   2.288   1.457   5.433 -2.8751  0.4335  0.4499
 1449TIP3   OH2 4310   3.325   3.492   1.530  0.2151  0.5787 -0.1717
 1449TIP3    H1 4311   3.249   3.507   1.587 -0.5231 -0.7260 -0.7659
 1449TIP3    H2 4312   3.398   3.481   1.591 -0.9460 -3.1765  0.7869
 1450TIP3   OH2 4313   6.530   5.402   4.133 -0.1867 -0.1093  0.7208
 1450TIP3    H1 4314   6.443   5.406   4.172  0.0350  0.7003  1.1567
 1450TIP3    H2 4315   6.554   5.309   4.138 -1.9644 -0.7851 -1.5715
 1451TIP3   OH2 4316   1.246   0.194   0.615 -0.4882 -0.0833  0.1618
 1451TIP3    H1 4317   1.261   0.256   0.544 -2.3170  0.2156  0.0044
 1451TIP3    H2 4318   1.309   0.123   0.597  2.3243  2.0397  0.8810
 1452TIP3   OH2 4319   0.568   0.621   0.890  0.2710 -0.1643  0.3709
 1452TIP3    H1 4320   0.582   0.535   0.850 -1.1094 -0.4024  0.3248
 1452TIP3    H2 4321   0.473   0.633   0.885  0.4127  1.1913  0.7474
 1453TIP3   OH2 4322   0.333   0.892   0.839 -0.2719  0.2127 -0.6725
 1453TIP3    H1 4323   0.351   0.957   0.771 -0.4597  0.7352 -0.2305
 1453TIP3    H2 4324   0.242   0.866   0.824  0.0135 -0.4759 -1.2793
 1454TIP3   OH2 4325   1.034   5.972   3.091  0.0625  0.0251 -0.5654
 1454TIP3    H1 4326   0.985   5.890   3.087 -0.3028 -0.1820  3.4101
 1454TIP3    H2 4327   0.968   6.040   3.090  0.4078  0.5458 -4.8747
 1455TIP3   OH2 4328   2.518   0.284   0.374 -0.4095 -0.2027 -0.0566
 1455TIP3    H1 4329   2.570   0.278   0.455  0.4547  0.6727 -0.5264
 1455TIP3    H2 4330   2.573   0.334   0.314 -1.4452 -0.0151 -0.8769
 1456TIP3   OH2 4331   3.030   3.364   3.587  0.2852 -0.1062 -0.8227
 1456TIP3    H1 4332   3.006   3.424   3.517  0.4676  1.0241  0.0484
 1456TIP3    H2 4333   3.126   3.372   3.593  0.5094 -1.7231 -1.7642
 1457TIP3   OH2 4334   2.925   4.823   4.104 -0.3666  0.3616  0.2399
 1457TIP3    H1 4335   2.864   4.872   4.049  0.4982  0.2378 -0.8587
 1457TIP3    H2 4336   2.998   4.884   4.119 -0.1168  0.0258  0.3923
 1458TIP3   OH2 4337   2.783   5.247   5.829 -0.0470  0.0977  1.0073
 1458TIP3    H1 4338   2.785   5.247   5.734 -1.3007  1.3478  0.9448
 1458TIP3    H2 4339   2.871   5.220   5.855  0.5216  0.4176 -0.4939
 1459TIP3   OH2 4340   1.271   2.958   5.121 -0.6791 -0.3492  0.2321
 1459TIP3    H1 4341   1.277   2.868   5.153 -0.1388 -0.2492  0.4124
 1459TIP3    H2 4342   1.293   3.012   5.197 -0.2448 -0.0863 -0.0762
 1460TIP3   OH2 4343   4.092   6.398   5.338 -0.4826  0.4205  0.5173
 1460TIP3    H1 4344   3.998   6.385   5.327 -0.2644 -1.2943  0.4466
 1460TIP3    H2 4345   4.101   6.435   5.426 -1.1886 -0.0807  0.8056
 1461TIP3   OH2 4346   3.916   3.097  -0.010 -0.1557  0.5501  0.0688
 1461TIP3    H1 4347   3.922   3.192  -0.015  0.1144  0.5729  0.7434
 1461TIP3    H2 4348   3.880   3.079   0.077  0.2904  0.0237  0.1562
 1462TIP3   OH2 4349   1.671   3.333   3.727 -0.5725 -0.0233 -0.2629
 1462TIP3    H1 4350   1.677   3.388   3.649  0.8259  0.9692  0.5197
 1462TIP3    H2 4351   1.747   3.275   3.722 -1.2000 -0.8702 -0.2902
 1463TIP3   OH2 4352   5.517   6.326   4.620 -0.2495  0.2421 -0.0600
 1463TIP3    H1 4353   5.457   6.362   4.685  1.0169 -0.5432  1.6437
 1463TIP3    H2 4354   5.543   6.401   4.567  0.9949  1.6093  2.3099
 1464TIP3   OH2 4355   4.832   3.409   1.873  0.1525 -0.0379 -0.2065
 1464TIP3    H1 4356   4.831   3.378   1.783 -0.0517 -0.8295  0.0583
 1464TIP3    H2 4357   4.921   3.441   1.887  0.0949  0.3854 -0.7760
 1465TIP3   OH2 4358   3.437   3.762   4.733  0.8654  0.4566  0.1930
 1465TIP3    H1 4359   3.388   3.833   4.693  3.4684  1.0013 -2.3654
 1465TIP3    H2 4360   3.523   3.801   4.753  1.5424 -1.3598  1.0359
 1466TIP3   OH2 4361   4.497   3.362   4.199 -0.1822  0.2115 -0.5845
 1466TIP3    H1 4362   4.531   3.298   4.138  1.3694 -0.0319  0.4879
 1466TIP3    H2 4363   4.491   3.315   4.282  1.6423  1.5768  0.3904
 1467TIP3   OH2 4364   4.119   1.590   0.112 -0.0248  0.5634  0.3818
 1467TIP3    H1 4365   4.024   1.581   0.118 -0.0992  0.2149 -0.9081
 1467TIP3    H2 4366   4.138   1.678   0.144 -1.2324  2.1586 -2.8818
 1468TIP3   OH2 4367   3.299   4.448   2.478  0.0781  0.3918 -0.1568
 1468TIP3    H1 4368   3.375   4.434   2.422 -1.2059 -3.9830 -1.1901
 1468TIP3    H2 4369   3.227   4.464   2.417 -0.5984 -0.1052  0.4934
 1469TIP3   OH2 4370   3.192   0.601   0.895  0.1932 -0.0527 -0.0328
 1469TIP3    H1 4371   3.252   0.549   0.842 -0.0642  0.9562 -1.3587
 1469TIP3    H2 4372   3.107   0.557   0.884  0.2538 -0.1877  0.0327
 1470TIP3   OH2 4373   1.466   3.186   4.421 -0.2700  0.5531 -0.0236
 1470TIP3    H1 4374   1.448   3.122   4.490 -0.1419 -1.3343 -1.6256
 1470TIP3    H2 4375   1.414   3.155   4.347 -0.5240  2.5925 -0.7467
 1471TIP3   OH2 4376   1.208   5.019   1.611  0.0746 -0.0405  0.1223
 1471TIP3    H1 4377   1.163   4.975   1.539  1.0005 -0.3290 -0.2955
 1471TIP3    H2 4378   1.138   5.064   1.660 -0.8665 -1.7373  0.4059
 1472TIP3   OH2 4379   6.326   1.721   0.242  0.2403  0.0746 -0.2288
 1472TIP3    H1 4380   6.302   1.810   0.267 -1.2509 -0.8182  1.7958
 1472TIP3    H2 4381   6.406   1.704   0.292  0.4900  0.2493 -0.5665
 1473TIP3   OH2 4382   6.665   1.054   1.370  0.3810  0.9919 -0.0177
 1473TIP3    H1 4383   6.634   1.084   1.456  2.0250 -0.0272  0.9774
 1473TIP3    H2 4384   6.585   1.033   1.323 -0.5643  1.3492  1.3454
 1474TIP3   OH2 4385   1.303   1.838   2.901  0.3852  0.1987 -0.2447
 1474TIP3    H1 4386   1.252   1.768   2.943 -1.6880  1.3166 -0.7754
 1474TIP3    H2 4387   1.389   1.835   2.944  0.0945 -2.1296  0.2951
 1475TIP3   OH2 4388   3.974   5.702   4.080 -0.5365 -0.4124 -0.5328
 1475TIP3    H1 4389   3.917   5.775   4.105 -0.0442  0.0603 -0.7661
 1475TIP3    H2 4390   3.927   5.624   4.109 -1.1997 -0.0179 -0.5211
 1476TIP3   OH2 4391   5.433   0.663   1.495  0.3262 -0.4469  0.6678
 1476TIP3    H1 4392   5.506   0.691   1.439 -0.9287 -1.4014 -1.5719
 1476TIP3    H2 4393   5.398   0.745   1.530  0.6740  0.2797 -0.6004
 1477TIP3   OH2 4394   6.760   6.379   5.457 -0.4631 -0.5398  0.1668
 1477TIP3    H1 4395   6.736   6.296   5.498  1.0195 -0.7086  0.7524
 1477TIP3    H2 4396   6.676   6.421   5.438 -1.2448 -2.2100 -0.2496
 1478TIP3   OH2 4397   1.846   3.724   2.304 -0.7099 -0.0063 -0.7501
 1478TIP3    H1 4398   1.885   3.742   2.218  0.7952  1.6502  0.2221
 1478TIP3    H2 4399   1.920   3.719   2.364 -1.6610 -1.9868  0.3842
 1479TIP3   OH2 4400   0.249   6.411   4.804 -0.1311 -0.0309  0.2368
 1479TIP3    H1 4401   0.288   6.368   4.728  1.0246 -1.9886  1.8402
 1479TIP3    H2 4402   0.256   6.504   4.785  0.6174 -0.4479 -1.7966
 1480TIP3   OH2 4403   2.606   6.584   4.624  0.1076 -0.2145  0.6856
 1480TIP3    H1 4404   2.523   6.633   4.617 -0.6799 -1.4911  0.7386
 1480TIP3    H2 4405   2.588   6.515   4.689  0.1260 -2.5646 -1.6565
 1481TIP3   OH2 4406   4.279   1.523   0.768 -0.3326 -0.1701 -0.5420
 1481TIP3    H1 4407   4.183   1.534   0.765 -0.5947 -0.4338  2.8399
 1481TIP3    H2 4408   4.292   1.428   0.766 -0.4802 -0.3276  2.0731
 1482TIP3   OH2 4409   5.906   6.587   1.841 -0.4348  0.6352 -0.2233
 1482TIP3    H1 4410   5.899   6.639   1.760 -1.6469 -0.3959 -0.8115
 1482TIP3    H2 4411   5.818   6.551   1.854 -0.4443  1.2817  1.9295
 1483TIP3   OH2 4412   6.433   5.485   5.762 -0.2039  0.4157  0.5791
 1483TIP3    H1 4413   6.513   5.435   5.745  1.2058  3.1129 -1.4137
 1483TIP3    H2 4414   6.437   5.505   5.856  0.8634 -0.4021  0.7341
 1484TIP3   OH2 4415   4.529   5.446   0.679  0.0813 -0.0437  0.2500
 1484TIP3    H1 4416   4.507   5.358   0.649 -0.4854 -0.0814  0.7588
 1484TIP3    H2 4417   4.621   5.440   0.706  0.9600  0.2520 -2.3945
 1485TIP3   OH2 4418   0.411   3.239   0.008 -0.0568  0.1557 -0.3339
 1485TIP3    H1 4419   0.338   3.181   0.027  0.1552 -0.5948 -1.6574
 1485TIP3    H2 4420   0.487   3.182   0.004  0.4542  0.7853  0.0401
 1486TIP3   OH2 4421   5.811   4.524   1.006  0.9655 -0.1457  0.3602
 1486TIP3    H1 4422   5.864   4.590   0.962 -0.1407  1.4930  1.4204
 1486TIP3    H2 4423   5.811   4.450   0.945  0.4785  1.5758 -1.8643
 1487TIP3   OH2 4424   0.699   2.993   3.974  0.0278 -0.1114  0.1685
 1487TIP3    H1 4425   0.751   3.034   3.905  1.1349  0.0567  1.0631
 1487TIP3    H2 4426   0.622   2.960   3.930  1.2268 -1.0008 -1.3554
 1488TIP3   OH2 4427   6.365   3.827   2.589 -0.5192  0.6936  0.2946
 1488TIP3    H1 4428   6.445   3.815   2.539 -0.9014  1.1340 -0.4344
 1488TIP3    H2 4429   6.383   3.901   2.648 -0.0226  0.0823  0.9220
 1489TIP3   OH2 4430   4.300   0.196   0.269 -0.6454 -0.2445  0.1358
 1489TIP3    H1 4431   4.227   0.218   0.210 -0.4679  2.6912  0.8777
 1489TIP3    H2 4432   4.378   0.225   0.222 -0.1637 -0.9951  0.4487
 1490TIP3   OH2 4433   4.312   5.824   3.646  0.3899  0.0060  0.5721
 1490TIP3    H1 4434   4.366   5.874   3.585  0.1720 -0.6617 -0.1775
 1490TIP3    H2 4435   4.222   5.850   3.627  0.3722  0.3643  1.1323
 1491TIP3   OH2 4436   6.417   0.872   4.316 -0.0564 -0.1920 -0.5161
 1491TIP3    H1 4437   6.439   0.964   4.298 -0.8023 -0.2202 -1.7873
 1491TIP3    H2 4438   6.339   0.877   4.372  0.6350 -0.0698  0.4500
 1492TIP3   OH2 4439   1.270   0.870   0.650 -0.9656 -0.0686 -0.3179
 1492TIP3    H1 4440   1.325   0.936   0.693 -0.5290 -0.3526 -0.4316
 1492TIP3    H2 4441   1.185   0.913   0.640 -0.8203  0.3116  0.0313
 1493TIP3   OH2 4442   4.112   4.910   3.521  0.3055  0.0245  0.6607
 1493TIP3    H1 4443   4.043   4.919   3.455 -0.8571 -2.0381  1.4746
 1493TIP3    H2 4444   4.179   4.858   3.478  1.1338  1.5502  0.0529
 1494TIP3   OH2 4445   5.147   1.483   4.971 -0.3538 -0.4824  0.2419
 1494TIP3    H1 4446   5.069   1.430   4.954 -0.9101  0.4790 -0.3290
 1494TIP3    H2 4447   5.171   1.519   4.886  0.3121 -0.2331  0.5289
 1495TIP3   OH2 4448   6.361   4.472   1.464  0.1769  0.3122  0.0668
 1495TIP3    H1 4449   6.360   4.402   1.398 -0.4720 -0.1007  0.4998
 1495TIP3    H2 4450   6.313   4.435   1.538  0.9098  0.7714  0.7742
 1496TIP3   OH2 4451   1.901   6.599   3.332 -0.1636 -0.0452 -0.0612
 1496TIP3    H1 4452   1.825   6.615   3.277 -0.7049  0.6506  0.8510
 1496TIP3    H2 4453   1.948   6.527   3.289 -1.6024 -0.8434 -0.3583
 1497TIP3   OH2 4454   1.254   0.566   5.107 -0.4480  0.4795 -0.2595
 1497TIP3    H1 4455   1.227   0.577   5.198  1.3925 -0.4505  0.4503
 1497TIP3    H2 4456   1.245   0.473   5.089  1.6586  0.2055 -0.1435
 1498TIP3   OH2 4457   2.405   2.144   5.726  0.7614  0.1429 -0.7570
 1498TIP3    H1 4458   2.409   2.224   5.777  1.1084 -0.1083 -0.3843
 1498TIP3    H2 4459   2.490   2.103   5.738  0.1829 -0.8764  0.0328
 1499TIP3   OH2 4460   0.481   2.316   1.651 -0.6449  0.4542  0.3607
 1499TIP3    H1 4461   0.415   2.252   1.624 -0.7939  0.5002  0.6088
 1499TIP3    H2 4462   0.563   2.283   1.614 -0.7961  0.3619  0.1055
 1500TIP3   OH2 4463   4.524   6.670   3.756  0.0380 -0.2488  0.4157
 1500TIP3    H1 4464   4.450   6.715   3.716  0.1359  0.1159  0.6399
 1500TIP3    H2 4465   4.503   6.667   3.850  0.7191  0.6673  0.6100
 1501TIP3   OH2 4466   5.427   1.576   4.149 -0.3742 -0.5300 -0.3385
 1501TIP3    H1 4467   5.359   1.640   4.171 -0.3985 -1.5416  3.2344
 1501TIP3    H2 4468   5.509   1.624   4.157 -0.5040 -0.0223 -1.7639
 1502TIP3   OH2 4469   1.000   0.992   2.620 -0.0073  0.0826  0.3797
 1502TIP3    H1 4470   0.956   1.056   2.676 -1.0970 -1.3399  1.2335
 1502TIP3    H2 4471   0.969   0.907   2.652  0.4828 -0.8462 -1.4427
 1503TIP3   OH2 4472   1.529   4.714   5.599  0.7514 -0.0440 -0.5647
 1503TIP3    H1 4473   1.501   4.763   5.522  0.5942  0.8152  0.0196
 1503TIP3    H2 4474   1.548   4.782   5.664  0.1547 -0.7684  0.3929
 1504TIP3   OH2 4475   4.839   3.541   3.233  0.0329  0.1041 -0.2518
 1504TIP3    H1 4476   4.826   3.447   3.248  0.9744  0.1265  0.8602
 1504TIP3    H2 4477   4.835   3.580   3.320  0.1398  1.0325 -0.6534
 1505TIP3   OH2 4478   4.818   5.525   3.382 -0.0318  0.1971  0.2687
 1505TIP3    H1 4479   4.872   5.561   3.312 -0.7819 -0.1587 -0.5137
 1505TIP3    H2 4480   4.860   5.442   3.405  0.0287  0.1506 -0.0051
 1506TIP3   OH2 4481   4.875   1.617   1.026  0.2811  0.1104 -0.0676
 1506TIP3    H1 4482   4.784   1.618   0.997 -0.4490  0.7772  2.0083
 1506TIP3    H2 4483   4.923   1.573   0.956 -1.7446 -0.9237 -0.8818
 1507TIP3   OH2 4484   2.916   6.237   4.351  0.3226 -0.2470  0.5649
 1507TIP3    H1 4485   2.867   6.299   4.405  1.9817  2.5707 -0.9689
 1507TIP3    H2 4486   2.877   6.246   4.263  0.9458 -1.0171  0.1966
 1508TIP3   OH2 4487   0.267   4.750   3.712  0.1141 -0.7637  0.1601
 1508TIP3    H1 4488   0.186   4.798   3.727 -0.1062 -0.5334 -1.5193
 1508TIP3    H2 4489   0.249   4.661   3.743 -0.1858 -0.2990  1.3556
 1509TIP3   OH2 4490   2.507   0.693   3.979  0.0421  0.0914  0.4898
 1509TIP3    H1 4491   2.455   0.691   4.060 -1.0478  1.3966 -0.1343
 1509TIP3    H2 4492   2.441   0.691   3.909  0.9432 -0.2984 -0.3596
 1510TIP3   OH2 4493   2.125   3.164   4.698  0.2088 -0.1936  0.7074
 1510TIP3    H1 4494   2.185   3.219   4.649  1.4344 -1.5418  0.6594
 1510TIP3    H2 4495   2.103   3.093   4.639  0.2835 -0.8685  1.4728
 1511TIP3   OH2 4496   2.195   5.138   4.084 -0.1348  0.2152  0.7187
 1511TIP3    H1 4497   2.162   5.140   4.174  0.6334 -0.3950  1.0256
 1511TIP3    H2 4498   2.206   5.045   4.065 -1.5596  0.2655 -0.4927
 1512TIP3   OH2 4499   6.932   5.508   0.622  0.3088  0.0837 -0.3392
 1512TIP3    H1 4500   7.001   5.450   0.654  0.7532  0.0651 -1.3146
 1512TIP3    H2 4501   6.863   5.449   0.593 -0.3393  0.1096  1.0757
 1513TIP3   OH2 4502   1.134   2.207   0.499 -0.0335 -0.1390 -0.5266
 1513TIP3    H1 4503   1.060   2.267   0.488 -0.8120 -1.0289 -0.3440
 1513TIP3    H2 4504   1.192   2.226   0.425 -0.0077  1.1794 -0.1790
 1514TIP3   OH2 4505   5.261   2.664   2.504  0.1043 -0.8604  0.4586
 1514TIP3    H1 4506   5.218   2.621   2.429 -0.5302  0.9950 -0.3073
 1514TIP3    H2 4507   5.354   2.666   2.480 -0.2420  0.9239 -0.9964
 1515TIP3   OH2 4508   1.951   2.238   3.264 -0.2351 -0.3126  0.3817
 1515TIP3    H1 4509   1.862   2.272   3.252 -0.5729 -0.5292  2.0157
 1515TIP3    H2 4510   1.938   2.147   3.291  0.5239 -0.5616 -0.0559
 1516TIP3   OH2 4511   1.100   6.191   5.863 -0.0686 -0.5171  0.2367
 1516TIP3    H1 4512   1.086   6.098   5.846 -1.0648  0.0570 -2.6659
 1516TIP3    H2 4513   1.190   6.197   5.895  0.3026 -2.3811 -0.3424
 1517TIP3   OH2 4514   1.257   3.273   3.528  0.2218 -0.2048  0.1981
 1517TIP3    H1 4515   1.188   3.338   3.544  0.7071  0.7528 -1.4073
 1517TIP3    H2 4516   1.320   3.318   3.473  1.5836 -1.4433  0.6804
 1518TIP3   OH2 4517   0.202   3.297   1.303 -0.1187  0.0468  0.2038
 1518TIP3    H1 4518   0.171   3.262   1.220  2.9792 -2.2975 -0.1585
 1518TIP3    H2 4519   0.139   3.265   1.368 -2.0799  1.1631 -1.0365
 1519TIP3   OH2 4520   2.572   3.875   0.000 -0.4892  0.0731  0.5159
 1519TIP3    H1 4521   2.564   3.836   0.087  1.0669 -0.4354  0.4629
 1519TIP3    H2 4522   2.648   3.933   0.007 -0.4730  0.1786 -0.4438
 1520TIP3   OH2 4523   7.165   2.071   5.463 -0.4441  1.0215  0.2393
 1520TIP3    H1 4524   7.109   1.994   5.466  0.3624  0.4475  1.0067
 1520TIP3    H2 4525   7.253   2.037   5.448 -0.0372  1.7570  0.8448
 1521TIP3   OH2 4526   0.661   5.049   4.927 -0.2690 -0.0435  0.0102
 1521TIP3    H1 4527   0.577   5.040   4.973  0.4087 -2.0600  1.0129
 1521TIP3    H2 4528   0.672   4.965   4.883  1.9574 -0.4873  1.2709
 1522TIP3   OH2 4529   2.736   2.597   2.595 -0.1572  0.4388  0.7304
 1522TIP3    H1 4530   2.729   2.509   2.558  0.6245  0.3420  0.7906
 1522TIP3    H2 4531   2.826   2.623   2.577  0.5468  0.0563  3.3149
 1523TIP3   OH2 4532   1.166   4.147   3.977 -0.2045 -0.1948  0.5429
 1523TIP3    H1 4533   1.134   4.217   3.920 -2.0965 -2.0883 -0.9082
 1523TIP3    H2 4534   1.259   4.140   3.957 -0.5043  0.2734 -1.1539
 1524TIP3   OH2 4535   6.378   3.586   0.874  0.3914  0.0704 -0.5181
 1524TIP3    H1 4536   6.444   3.653   0.893 -0.7834  1.1084  0.0524
 1524TIP3    H2 4537   6.400   3.513   0.931  0.9909  0.4400 -0.2755
 1525TIP3   OH2 4538   6.948   4.541   1.557  0.6995 -0.3770 -0.1455
 1525TIP3    H1 4539   6.981   4.454   1.578  0.0029 -0.8252 -0.8597
 1525TIP3    H2 4540   6.901   4.530   1.475 -1.0425  0.2748  0.7109
 1526TIP3   OH2 4541   1.978   3.385   1.646 -0.0747 -0.4252  0.3701
 1526TIP3    H1 4542   2.032   3.414   1.572 -0.4673  1.9434  0.9369
 1526TIP3    H2 4543   1.912   3.329   1.605  0.3445 -0.0139 -0.9500
 1527TIP3   OH2 4544   4.173   1.692   4.661  0.3986  0.1594 -0.6985
 1527TIP3    H1 4545   4.252   1.706   4.609 -0.8367  1.6550 -2.2676
 1527TIP3    H2 4546   4.119   1.768   4.644 -2.4995 -1.9538 -1.7041
 1528TIP3   OH2 4547   0.705   3.067   1.853 -0.9869  0.1033 -0.2465
 1528TIP3    H1 4548   0.771   3.136   1.844 -1.9116  1.3002  1.5913
 1528TIP3    H2 4549   0.628   3.102   1.808 -0.6459 -0.9625 -1.7223
 1529TIP3   OH2 4550   5.589   0.538   0.845 -0.0848  0.5194 -0.3889
 1529TIP3    H1 4551   5.614   0.446   0.842 -2.3505 -0.2590  1.5772
 1529TIP3    H2 4552   5.666   0.583   0.878 -0.1230 -1.2801  2.4676
 1530TIP3   OH2 4553   5.815   4.984   5.813  0.3551  0.2446 -0.3722
 1530TIP3    H1 4554   5.770   5.059   5.775  0.4652  1.0937  1.0848
 1530TIP3    H2 4555   5.904   4.989   5.779  0.4809  1.0469  0.0624
 1531TIP3   OH2 4556   1.212   0.639   2.392  0.2907  0.1704 -0.2144
 1531TIP3    H1 4557   1.234   0.707   2.456  0.3549 -0.2328  0.1939
 1531TIP3    H2 4558   1.273   0.567   2.412  1.2810  0.5766 -1.6315
 1532TIP3   OH2 4559   1.542   1.505   0.478  0.5921  0.1221  0.2300
 1532TIP3    H1 4560   1.458   1.551   0.467  0.6941  0.5034  0.9946
 1532TIP3    H2 4561   1.577   1.538   0.561  0.8618 -1.0446  0.5925
 1533TIP3   OH2 4562   1.783   4.095   0.742 -0.2468 -0.1480 -0.4039
 1533TIP3    H1 4563   1.732   4.148   0.681 -0.4845 -1.3586 -1.2945
 1533TIP3    H2 4564   1.780   4.007   0.705  1.2609 -0.5311  0.3227
 1534TIP3   OH2 4565   0.816   6.741   0.261 -0.0594  0.3875 -0.3020
 1534TIP3    H1 4566   0.877   6.814   0.250 -1.5801  1.8020  0.2426
 1534TIP3    H2 4567   0.735   6.771   0.221 -1.1611 -0.3979  1.2216
 1535TIP3   OH2 4568   1.076   1.618   0.231  0.3075 -0.8221 -0.4347
 1535TIP3    H1 4569   1.122   1.554   0.178  1.9133  0.3023 -0.4861
 1535TIP3    H2 4570   1.039   1.680   0.168  1.8772  0.2920 -0.3148
 1536TIP3   OH2 4571   3.926   0.024   2.626  0.1948 -0.2639 -0.3851
 1536TIP3    H1 4572   3.936   0.117   2.650 -0.0548 -0.4992  0.6860
 1536TIP3    H2 4573   3.872   0.025   2.547 -0.1950  0.4829 -0.1166
 1537TIP3   OH2 4574   6.094   1.816   4.746 -0.0894  0.3583 -0.5924
 1537TIP3    H1 4575   6.017   1.806   4.690 -0.7440 -1.3066  0.5248
 1537TIP3    H2 4576   6.065   1.786   4.832  1.5748  0.5466  0.0658
 1538TIP3   OH2 4577   3.807   4.401   5.033  0.1701 -0.5986  0.9520
 1538TIP3    H1 4578   3.885   4.403   4.978 -0.1806 -0.7515  0.4444
 1538TIP3    H2 4579   3.810   4.315   5.075  0.4312 -0.4862  1.1682
 1539TIP3   OH2 4580   5.002   5.202   1.702 -0.0141  0.2476 -0.0169
 1539TIP3    H1 4581   4.982   5.288   1.665  0.4766 -0.1621 -1.2904
 1539TIP3    H2 4582   5.092   5.184   1.674 -0.8086 -1.5893 -1.6078
 1540TIP3   OH2 4583   5.956   2.518   2.987  0.8266 -0.6182 -0.1892
 1540TIP3    H1 4584   5.948   2.571   2.907  0.6931 -0.2449  0.0708
 1540TIP3    H2 4585   5.951   2.581   3.058  2.1564 -0.8100  0.0990
 1541TIP3   OH2 4586   1.116   6.467   0.534  0.0091 -0.2235 -0.2264
 1541TIP3    H1 4587   1.032   6.504   0.506 -0.0229 -1.1820 -1.4237
 1541TIP3    H2 4588   1.173   6.474   0.457  0.8341 -0.1985  0.3685
 1542TIP3   OH2 4589   1.505   3.787   2.745  0.1809 -0.2384  0.4058
 1542TIP3    H1 4590   1.561   3.784   2.666 -1.0804 -2.8885 -0.4713
 1542TIP3    H2 4591   1.422   3.748   2.717 -0.5201 -0.6640  2.9125
 1543TIP3   OH2 4592   1.056   5.848   2.772 -0.3977 -0.2468  0.1899
 1543TIP3    H1 4593   1.053   5.944   2.776  0.9613 -0.2360  3.5270
 1543TIP3    H2 4594   0.970   5.824   2.737 -0.9192  2.1453 -0.3889
 1544TIP3   OH2 4595   6.689   3.682   0.285 -0.1178  0.0704 -0.2271
 1544TIP3    H1 4596   6.704   3.732   0.204  2.7324  2.5302  1.6043
 1544TIP3    H2 4597   6.654   3.746   0.346 -3.0799 -1.9493  0.3990
 1545TIP3   OH2 4598   3.660   6.572   4.017 -0.4109  0.5240  0.2558
 1545TIP3    H1 4599   3.655   6.668   4.019  1.4647  0.6752 -0.3505
 1545TIP3    H2 4600   3.627   6.545   4.103 -4.7527  1.3961 -0.8669
 1546TIP3   OH2 4601   4.399   0.322   5.495 -0.3331  0.4260 -0.0265
 1546TIP3    H1 4602   4.400   0.370   5.578  0.0550  0.6441 -0.1564
 1546TIP3    H2 4603   4.440   0.381   5.432 -0.2685  0.1082 -0.2874
 1547TIP3   OH2 4604   4.273   3.615   2.719 -0.3377 -0.2251  0.0972
 1547TIP3    H1 4605   4.178   3.617   2.725 -0.7122  1.3896 -3.5214
 1547TIP3    H2 4606   4.301   3.703   2.746 -0.0673 -0.1452 -0.4185
 1548TIP3   OH2 4607   1.394   0.070   4.845  0.1114  0.1546  0.3699
 1548TIP3    H1 4608   1.408   0.129   4.919  0.8117  0.4963 -0.0192
 1548TIP3    H2 4609   1.386   0.128   4.769  0.4793 -0.2227  0.0286
 1549TIP3   OH2 4610   0.208   4.699   4.967 -0.0309 -0.5977 -0.6168
 1549TIP3    H1 4611   0.220   4.787   5.002  0.5439 -0.8899 -0.0821
 1549TIP3    H2 4612   0.291   4.655   4.981  0.0390 -0.9026 -1.8512
 1550TIP3   OH2 4613   5.070   1.172   4.767 -0.2880 -0.3805 -0.2931
 1550TIP3    H1 4614   5.007   1.145   4.700  0.6993 -0.8271 -1.0567
 1550TIP3    H2 4615   5.152   1.186   4.719 -0.7251  4.4578 -0.1381
 1551TIP3   OH2 4616   3.893   5.467   5.595 -0.2168  0.3605  0.0913
 1551TIP3    H1 4617   3.870   5.519   5.672 -0.7217  0.2267  0.0352
 1551TIP3    H2 4618   3.859   5.517   5.521 -0.7788 -0.0802  0.0411
 1552TIP3   OH2 4619   6.804   3.941   4.633 -0.1002  0.1247  0.2327
 1552TIP3    H1 4620   6.730   3.967   4.687 -0.1500  0.6335 -0.0828
 1552TIP3    H2 4621   6.799   3.996   4.556  1.3955  1.1459  0.8119
 1553TIP3   OH2 4622   4.900   5.636   4.053  0.4442  0.4553 -0.0972
 1553TIP3    H1 4623   4.945   5.717   4.029  0.0480  0.5002 -0.7165
 1553TIP3    H2 4624   4.807   5.657   4.047  0.3348  0.1344  0.3794
 1554TIP3   OH2 4625   5.784   6.175   5.490 -0.0422  0.2092  0.5207
 1554TIP3    H1 4626   5.812   6.241   5.552 -1.9142  1.2882  0.2777
 1554TIP3    H2 4627   5.712   6.215   5.442 -0.0867 -1.3789 -0.8501
 1555TIP3   OH2 4628   6.334   4.429   5.606  0.0586  0.6294  0.6590
 1555TIP3    H1 4629   6.306   4.380   5.683  2.4472 -1.6605  0.1990
 1555TIP3    H2 4630   6.423   4.456   5.626  0.3312  0.9632 -0.8794
 1556TIP3   OH2 4631   5.364   2.771   0.623 -0.1086 -0.2081  0.3395
 1556TIP3    H1 4632   5.395   2.691   0.581  2.7287  1.0455 -0.2187
 1556TIP3    H2 4633   5.441   2.807   0.666 -1.5968  1.5978  1.6656
 1557TIP3   OH2 4634   3.241   2.351   2.854 -0.1302 -0.2246 -0.1931
 1557TIP3    H1 4635   3.154   2.377   2.886  0.7867  0.7426  1.6514
 1557TIP3    H2 4636   3.269   2.423   2.798 -0.5553 -0.6098 -0.9188
 1558TIP3   OH2 4637   1.302   5.483   5.541  0.0182 -0.6448 -0.0375
 1558TIP3    H1 4638   1.251   5.424   5.486 -2.6925 -0.5956  2.1792
 1558TIP3    H2 4639   1.292   5.448   5.629  1.8813  0.8093  0.8267
 1559TIP3   OH2 4640   3.787   2.018   1.846  0.2121 -0.2564 -0.4435
 1559TIP3    H1 4641   3.779   2.114   1.842 -1.9922 -0.3669 -0.0109
 1559TIP3    H2 4642   3.807   2.000   1.938 -1.5893 -0.2705 -0.0133
 1560TIP3   OH2 4643   1.331   0.785   2.153 -0.2894 -0.4208 -0.1278
 1560TIP3    H1 4644   1.342   0.866   2.202  2.0459 -1.8164  1.8788
 1560TIP3    H2 4645   1.272   0.732   2.207 -0.8188 -0.5222 -0.7977
 1561TIP3   OH2 4646   6.711   0.296   4.339 -0.2301  0.1949  0.6768
 1561TIP3    H1 4647   6.746   0.208   4.356 -0.7436 -0.2134 -0.3001
 1561TIP3    H2 4648   6.775   0.335   4.279 -1.0081 -0.2545 -0.4670
 1562TIP3   OH2 4649   6.469   2.094   0.053  0.1420 -0.4297  0.1706
 1562TIP3    H1 4650   6.489   2.025  -0.010  0.3392 -0.5378  0.3521
 1562TIP3    H2 4651   6.479   2.175   0.003  1.4936 -0.4500  0.3698
 1563TIP3   OH2 4652   4.373   5.933   4.905 -0.9475  0.2968 -0.1374
 1563TIP3    H1 4653   4.367   5.953   4.998 -1.7720  0.1104 -0.1426
 1563TIP3    H2 4654   4.329   5.848   4.895  3.6898 -2.5168  0.1324
 1564TIP3   OH2 4655   1.932   5.470   3.141  0.3998 -0.3325  0.5629
 1564TIP3    H1 4656   1.950   5.381   3.112  0.2007 -0.6198  1.3143
 1564TIP3    H2 4657   1.858   5.498   3.088 -1.5037 -1.7049  2.3715
 1565TIP3   OH2 4658   5.639   3.478   4.768 -0.1077  0.0084 -0.3121
 1565TIP3    H1 4659   5.672   3.423   4.839  1.6875 -0.3769 -1.4016
 1565TIP3    H2 4660   5.566   3.428   4.731 -0.7378 -0.0120  0.8899
 1566TIP3   OH2 4661   5.487   5.808   1.361 -0.1581 -0.6832  0.0639
 1566TIP3    H1 4662   5.456   5.891   1.397  0.0052 -0.4944 -0.2273
 1566TIP3    H2 4663   5.442   5.741   1.413  0.0176 -0.4141  0.5744
 1567TIP3   OH2 4664   6.034   3.555   3.798  0.0959  0.1106  0.6002
 1567TIP3    H1 4665   6.026   3.620   3.867 -0.6792  0.8154 -0.1327
 1567TIP3    H2 4666   5.944   3.530   3.777  0.0297  2.4017 -2.4407
 1568TIP3   OH2 4667   5.548   2.917   0.417  0.3775  0.0817  0.1525
 1568TIP3    H1 4668   5.609   2.963   0.359  2.5091 -2.0776  0.5038
 1568TIP3    H2 4669   5.527   2.836   0.370 -1.2599  0.2003  0.6190
 1569TIP3   OH2 4670   0.806   4.320   3.719  0.0669 -0.0463  0.4808
 1569TIP3    H1 4671   0.762   4.254   3.772 -0.6957 -0.3259 -0.4717
 1569TIP3    H2 4672   0.739   4.386   3.703  0.5679  0.5127  0.6677
 1570TIP3   OH2 4673   2.437   3.165   0.212  0.0357 -0.4254  0.4795
 1570TIP3    H1 4674   2.473   3.087   0.254 -1.0651 -1.1064  0.2107
 1570TIP3    H2 4675   2.411   3.222   0.284  0.8196 -0.3119  0.6784
 1571TIP3   OH2 4676   5.353   4.275   3.817 -0.1199  0.3870  0.3713
 1571TIP3    H1 4677   5.348   4.277   3.913 -0.7771  0.3701  0.3433
 1571TIP3    H2 4678   5.435   4.320   3.797  1.1065 -1.4548  1.0068
 1572TIP3   OH2 4679   5.199   2.004   1.274  0.1523 -0.8114 -0.6517
 1572TIP3    H1 4680   5.225   1.913   1.289  2.3438 -0.5593 -2.3402
 1572TIP3    H2 4681   5.277   2.055   1.297 -0.5660  0.5032 -1.0421
 1573TIP3   OH2 4682   5.190   1.778   0.331  0.6709 -0.1141 -0.8329
 1573TIP3    H1 4683   5.121   1.778   0.264 -1.3175 -2.0427  1.0357
 1573TIP3    H2 4684   5.153   1.828   0.403  1.1312 -1.2808  0.2500
 1574TIP3   OH2 4685   6.632   1.072   0.412 -0.2166  0.5153 -0.2642
 1574TIP3    H1 4686   6.551   1.105   0.451 -2.5151 -3.2191 -1.3590
 1574TIP3    H2 4687   6.690   1.059   0.487 -2.2640 -0.7197  1.2276
 1575TIP3   OH2 4688   5.714   5.753   5.724 -0.2100  0.4807 -0.5531
 1575TIP3    H1 4689   5.666   5.820   5.773  2.2359  1.4204  0.7699
 1575TIP3    H2 4690   5.756   5.699   5.791  0.2277 -0.5614 -1.6207
 1576TIP3   OH2 4691   2.067   5.513   1.293 -0.3186 -0.8234 -0.3926
 1576TIP3    H1 4692   2.106   5.494   1.208  1.8606 -0.6785  0.5120
 1576TIP3    H2 4693   2.089   5.437   1.347 -0.9989 -0.5610  0.2633
 1577TIP3   OH2 4694   3.320   6.086   5.480 -0.1144 -0.1035 -0.4816
 1577TIP3    H1 4695   3.279   6.167   5.449  0.5285 -0.0438 -1.2119
 1577TIP3    H2 4696   3.248   6.025   5.489 -0.4968  0.2831 -0.8234
 1578TIP3   OH2 4697   6.615   5.869   4.692 -0.0197 -0.6198  0.1393
 1578TIP3    H1 4698   6.545   5.934   4.691 -0.7506 -1.3929 -0.7064
 1578TIP3    H2 4699   6.576   5.791   4.731  1.0415 -0.3784  1.7631
 1579TIP3   OH2 4700   3.055   5.665   5.161 -0.5693 -0.1128 -0.3657
 1579TIP3    H1 4701   3.044   5.629   5.249  0.0035 -0.0621 -0.2676
 1579TIP3    H2 4702   3.071   5.589   5.105  1.2484  0.0081 -0.0594
 1580TIP3   OH2 4703   1.341   2.610   2.866  0.0244  0.8205 -0.3303
 1580TIP3    H1 4704   1.373   2.606   2.776 -0.3628  0.5075 -0.4523
 1580TIP3    H2 4705   1.317   2.702   2.879 -2.0456  0.4713 -1.2860
 1581TIP3   OH2 4706   2.203   4.494   0.347  0.5886  0.4471 -0.2127
 1581TIP3    H1 4707   2.164   4.436   0.412  0.6842  0.6718  0.0462
 1581TIP3    H2 4708   2.218   4.577   0.393  1.3271  0.3819 -0.3162
 1582TIP3   OH2 4709   0.694   4.910   5.715  0.2734 -0.2336  0.4187
 1582TIP3    H1 4710   0.632   4.980   5.739  0.1259 -0.3005  0.2278
 1582TIP3    H2 4711   0.769   4.956   5.679  0.6711 -0.0993  1.3692
 1583TIP3   OH2 4712   4.354   4.955   0.527  0.2163  0.2313 -0.0686
 1583TIP3    H1 4713   4.277   4.982   0.477 -0.6244 -1.0130  0.5190
 1583TIP3    H2 4714   4.378   4.870   0.490 -0.5933 -0.8570  1.7663
 1584TIP3   OH2 4715   2.732   5.219   2.705  0.0381  0.1127  0.2700
 1584TIP3    H1 4716   2.677   5.142   2.719 -0.5525  0.2534 -1.1591
 1584TIP3    H2 4717   2.697   5.285   2.765  0.0176 -0.4506  0.8949
 1585TIP3   OH2 4718   2.259   6.285   1.380 -0.0943  0.4303 -0.2929
 1585TIP3    H1 4719   2.335   6.334   1.411  0.5629 -0.3642 -0.6072
 1585TIP3    H2 4720   2.195   6.293   1.451  1.5405 -1.7281  1.5977
 1586TIP3   OH2 4721   4.948   0.936   2.345  0.1657  0.1746 -0.3050
 1586TIP3    H1 4722   4.900   1.007   2.302 -1.7177 -1.1124 -0.4169
 1586TIP3    H2 4723   4.901   0.856   2.321  0.8931 -0.9029  1.6106
 1587TIP3   OH2 4724   3.987   1.298   3.760  0.1633  0.5907 -0.0025
 1587TIP3    H1 4725   4.080   1.294   3.786  0.3613  0.7847 -0.6656
 1587TIP3    H2 4726   3.951   1.214   3.788  0.3807  0.7593  0.8357
 1588TIP3   OH2 4727   6.275   4.020   4.979  0.0291  0.1295  0.0315
 1588TIP3    H1 4728   6.264   4.112   5.001  4.4449  0.9717 -0.4822
 1588TIP3    H2 4729   6.279   3.975   5.064  1.0600  0.9566  0.4428
 1589TIP3   OH2 4730   2.033   4.852   0.358  0.1037  0.1506 -0.4483
 1589TIP3    H1 4731   1.993   4.800   0.427  1.9511 -0.9372 -0.1324
 1589TIP3    H2 4732   2.004   4.942   0.376 -0.7656 -0.3457  0.7382
 1590TIP3   OH2 4733   5.107   6.534   4.297  0.1694 -0.3867  0.2892
 1590TIP3    H1 4734   5.121   6.598   4.367  0.6747 -1.2357  0.9893
 1590TIP3    H2 4735   5.194   6.522   4.259  0.2805 -1.4542  0.8738
 1591TIP3   OH2 4736   5.456   3.428   4.500 -0.5097 -0.4029 -0.3194
 1591TIP3    H1 4737   5.474   3.514   4.538  0.7663 -0.7638 -0.0688
 1591TIP3    H2 4738   5.395   3.387   4.561 -0.5624  0.0456 -0.0638
 1592TIP3   OH2 4739   4.691   6.738   5.235 -0.2079  0.0597  0.2037
 1592TIP3    H1 4740   4.650   6.708   5.316 -0.0468 -0.3891  0.1237
 1592TIP3    H2 4741   4.620   6.778   5.185 -1.1335 -2.7598 -0.9531
 1593TIP3   OH2 4742   2.229   2.175   1.370 -0.1707 -0.4525 -0.3784
 1593TIP3    H1 4743   2.205   2.082   1.361 -0.1869 -0.4135 -0.7525
 1593TIP3    H2 4744   2.190   2.217   1.294 -3.8211  0.6244  1.8669
 1594TIP3   OH2 4745   4.057   1.410   4.937 -0.4775 -0.3705 -0.4195
 1594TIP3    H1 4746   3.990   1.451   4.882 -1.3160  0.6352  1.2861
 1594TIP3    H2 4747   4.065   1.468   5.013  0.6526 -1.6994  0.5221
 1595TIP3   OH2 4748   6.726   4.543   4.079  0.0033  0.3092 -0.2880
 1595TIP3    H1 4749   6.683   4.466   4.116  0.8434 -0.8651 -1.6265
 1595TIP3    H2 4750   6.663   4.576   4.014  0.7060 -0.8803 -1.6174
 1596TIP3   OH2 4751   1.809   2.389   3.653 -0.2534 -0.3686  0.3363
 1596TIP3    H1 4752   1.727   2.434   3.637  0.0108 -0.2457 -0.7470
 1596TIP3    H2 4753   1.867   2.455   3.691 -0.1138  0.0254 -0.5271
 1597TIP3   OH2 4754   5.849   3.121   4.271  0.1184 -1.0870  0.1848
 1597TIP3    H1 4755   5.917   3.181   4.240 -0.4439 -0.6077 -0.1580
 1597TIP3    H2 4756   5.781   3.179   4.305  0.4197 -1.5873  1.7005
 1598TIP3   OH2 4757   3.082   6.483   5.837 -0.7174 -0.3516  0.0240
 1598TIP3    H1 4758   3.065   6.434   5.756  1.0052  0.7004 -1.0452
 1598TIP3    H2 4759   3.176   6.472   5.852 -1.0075 -0.5209  1.9145
 1599TIP3   OH2 4760   0.054   0.484   3.565 -0.1796  0.3292 -0.2283
 1599TIP3    H1 4761   0.109   0.476   3.487  1.4629  0.6795  0.8535
 1599TIP3    H2 4762  -0.015   0.545   3.539 -0.8009 -1.0109 -1.9843
 1600TIP3   OH2 4763   6.128   5.173   4.447 -0.4746 -0.2102  0.0383
 1600TIP3    H1 4764   6.039   5.197   4.472 -1.1238 -1.4491 -0.9465
 1600TIP3    H2 4765   6.120   5.082   4.416  1.6019 -1.3489  2.4951
 1601TIP3   OH2 4766   4.129   2.203   2.817 -0.0404 -0.1170 -0.0801
 1601TIP3    H1 4767   4.120   2.284   2.766  0.8823  0.8109  1.1663
 1601TIP3    H2 4768   4.178   2.230   2.895  1.3265 -2.1001 -0.1976
 1602TIP3   OH2 4769   3.934   0.821   1.916  0.1113  0.0904 -0.1157
 1602TIP3    H1 4770   3.840   0.826   1.900  0.1765 -2.5695 -1.9295
 1602TIP3    H2 4771   3.940   0.780   2.003 -0.3653  0.7035  0.2219
 1603TIP3   OH2 4772   1.261   6.268   1.176  0.0377 -0.4974  0.5282
 1603TIP3    H1 4773   1.245   6.241   1.086  0.8485  1.7000 -0.3341
 1603TIP3    H2 4774   1.187   6.230   1.225 -0.0585 -2.3139 -0.8786
 1604TIP3   OH2 4775   3.842   0.033   3.851  0.2785 -0.3165 -0.4986
 1604TIP3    H1 4776   3.923   0.007   3.896  0.2641  0.7301  0.1826
 1604TIP3    H2 4777   3.849  -0.007   3.765  1.0672 -1.0546 -0.1144
 1605TIP3   OH2 4778   6.067   1.313   1.050  0.1137  0.1031 -0.2991
 1605TIP3    H1 4779   6.144   1.323   0.995  0.8547  1.9656  1.0007
 1605TIP3    H2 4780   5.994   1.309   0.989  1.0242  0.7923 -1.4567
 1606TIP3   OH2 4781   0.249   6.692   1.647  0.1748  0.5529  0.2132
 1606TIP3    H1 4782   0.189   6.623   1.674 -0.6640  1.7431  1.5077
 1606TIP3    H2 4783   0.320   6.645   1.603 -0.5774 -1.0804  0.6381
 1607TIP3   OH2 4784   6.258   3.364   0.072 -0.5257  0.1253 -0.1678
 1607TIP3    H1 4785   6.340   3.317   0.059  0.0923 -0.5258  4.4214
 1607TIP3    H2 4786   6.283   3.457   0.073 -0.0321 -0.0116  0.2414
 1608TIP3   OH2 4787   2.103   0.282   3.676 -0.0087 -0.0420 -0.1501
 1608TIP3    H1 4788   2.044   0.220   3.720  0.2805  0.3684  0.8524
 1608TIP3    H2 4789   2.055   0.365   3.677 -0.7836 -0.4016 -2.3040
 1609TIP3   OH2 4790   4.596   0.841   3.549 -0.2984  0.0745  0.3641
 1609TIP3    H1 4791   4.612   0.773   3.483  0.6361  1.1083 -0.5132
 1609TIP3    H2 4792   4.522   0.808   3.600  1.1187 -2.3548  1.0007
 1610TIP3   OH2 4793   0.089   3.243   3.561 -0.2517  0.0073  0.5747
 1610TIP3    H1 4794   0.005   3.221   3.600 -0.8264  2.4978  0.9173
 1610TIP3    H2 4795   0.067   3.287   3.479  0.7091  0.6725  0.6567
 1611TIP3   OH2 4796   6.313   5.045   1.598  0.4519 -0.0439  0.0499
 1611TIP3    H1 4797   6.220   5.066   1.608  0.6381  1.5177 -1.1020
 1611TIP3    H2 4798   6.357   5.129   1.611  1.2850  0.4998 -4.7427
 1612TIP3   OH2 4799   0.694   3.532   4.557  0.3557 -0.0309 -0.2182
 1612TIP3    H1 4800   0.775   3.481   4.561 -0.4806 -1.3876 -0.0362
 1612TIP3    H2 4801   0.625   3.470   4.579 -1.2171  0.0595 -4.1201
 1613TIP3   OH2 4802   3.747   6.438   0.866  0.4333  0.0818  0.4626
 1613TIP3    H1 4803   3.819   6.406   0.921  1.3480  1.3392  0.0303
 1613TIP3    H2 4804   3.789   6.495   0.802 -0.7583 -0.4667 -0.8599
 1614TIP3   OH2 4805   7.020   4.032   1.338 -0.9682  0.3188 -0.2190
 1614TIP3    H1 4806   7.103   4.078   1.356 -0.7185  0.5806 -1.8774
 1614TIP3    H2 4807   7.044   3.964   1.275 -2.0302  0.4750 -0.8092
 1615TIP3   OH2 4808   1.649   6.067   2.977  0.3291 -0.3665 -0.2952
 1615TIP3    H1 4809   1.573   6.124   2.965 -0.2518 -0.7052  1.5391
 1615TIP3    H2 4810   1.613   5.983   3.006  1.3608 -0.7840 -0.1610
 1616TIP3   OH2 4811   7.211   0.282   2.277  0.0023  0.0460 -0.2658
 1616TIP3    H1 4812   7.150   0.356   2.279 -0.1404 -0.0875  0.3838
 1616TIP3    H2 4813   7.272   0.304   2.206  1.8296  2.3039  1.8122
 1617TIP3   OH2 4814   5.121   1.990   3.428 -0.1770 -0.4929  0.0604
 1617TIP3    H1 4815   5.209   2.024   3.442  1.0861 -2.8227 -1.5918
 1617TIP3    H2 4816   5.081   2.050   3.364  0.7907 -0.2585 -0.3343
 1618TIP3   OH2 4817   1.864   4.518   0.326  0.2623 -0.7127  0.0969
 1618TIP3    H1 4818   1.842   4.606   0.356 -1.3259 -0.4067 -1.7777
 1618TIP3    H2 4819   1.959   4.521   0.310  0.3400  0.4344  0.6654
 1619TIP3   OH2 4820   3.977   5.884   5.241 -0.4717 -0.4693 -0.4515
 1619TIP3    H1 4821   3.888   5.903   5.271  0.4176  1.6970  1.0363
 1619TIP3    H2 4822   3.983   5.927   5.156  0.3979  3.3298  1.3394
 1620TIP3   OH2 4823   0.145   6.431   4.211  0.0319  0.1370  0.2133
 1620TIP3    H1 4824   0.065   6.383   4.231  1.3473 -2.0612  0.5453
 1620TIP3    H2 4825   0.202   6.415   4.285  0.5440  2.4034  0.4054
 1621TIP3   OH2 4826   6.538   1.246   0.619  0.0833 -0.0133 -0.3520
 1621TIP3    H1 4827   6.614   1.234   0.676  0.8985  0.5891 -1.2799
 1621TIP3    H2 4828   6.539   1.339   0.597 -0.4063 -0.1667 -1.0769
 1622TIP3   OH2 4829   1.729   2.592   0.780  0.1155  0.2829 -0.1959
 1622TIP3    H1 4830   1.730   2.503   0.816 -0.9102  0.5084  0.4362
 1622TIP3    H2 4831   1.704   2.647   0.855 -1.4950  0.8434 -1.1055
 1623TIP3   OH2 4832   1.385   3.024   4.214 -0.2263 -0.2017 -0.7558
 1623TIP3    H1 4833   1.336   3.079   4.152 -0.1897  0.5319 -0.1558
 1623TIP3    H2 4834   1.318   2.988   4.272 -0.1897 -0.2816 -0.7633
 1624TIP3   OH2 4835   0.534   4.632   4.659 -0.1189  0.3552 -0.4633
 1624TIP3    H1 4836   0.477   4.556   4.653 -1.0416  0.9224  0.7070
 1624TIP3    H2 4837   0.578   4.636   4.574 -1.0179 -0.7166 -1.0063
 1625TIP3   OH2 4838   0.109   0.039   3.220  0.5735  0.7435  0.3100
 1625TIP3    H1 4839   0.052   0.059   3.146  1.3103  0.3703 -0.3840
 1625TIP3    H2 4840   0.145  -0.047   3.200 -0.7137 -0.2617  2.0753
 1626TIP3   OH2 4841   2.228   5.388   4.850  0.3501  0.3071  0.5392
 1626TIP3    H1 4842   2.246   5.391   4.756 -0.1494  0.2752  0.4412
 1626TIP3    H2 4843   2.135   5.368   4.856  0.3579  0.4112  1.0424
 1627TIP3   OH2 4844   4.777   4.596   2.998 -0.1433 -0.2884 -0.1271
 1627TIP3    H1 4845   4.729   4.540   2.937  0.2391  0.3744 -1.0493
 1627TIP3    H2 4846   4.865   4.600   2.962 -0.1337  0.8070 -0.0059
 1628TIP3   OH2 4847   6.651   2.375   1.611 -0.2625 -0.2209 -0.5849
 1628TIP3    H1 4848   6.557   2.378   1.631 -0.6725 -1.0067 -2.2066
 1628TIP3    H2 4849   6.657   2.400   1.519  1.1537 -0.0104 -0.4604
 1629TIP3   OH2 4850   0.558   4.084   0.253 -0.3086  0.0394 -0.1718
 1629TIP3    H1 4851   0.573   4.179   0.257 -3.0671  0.5825 -0.5834
 1629TIP3    H2 4852   0.573   4.062   0.161  1.7318 -0.2691  0.1826
 1630TIP3   OH2 4853   1.318   5.638   4.646  0.2808 -0.1507 -0.6230
 1630TIP3    H1 4854   1.311   5.733   4.646 -1.9186 -0.2515 -0.0412
 1630TIP3    H2 4855   1.326   5.615   4.739  0.7162 -0.5364 -0.7560
 1631TIP3   OH2 4856   3.121   1.473   4.766  0.2690  0.2966  0.8258
 1631TIP3    H1 4857   3.042   1.459   4.818  1.0691  1.7144  2.5022
 1631TIP3    H2 4858   3.110   1.415   4.690 -0.3803 -2.8431  3.1164
 1632TIP3   OH2 4859   3.567   4.713   3.168  0.4754  0.1556  0.0677
 1632TIP3    H1 4860   3.617   4.760   3.101  0.5823  0.4023  0.3184
 1632TIP3    H2 4861   3.483   4.759   3.171  0.2410 -0.2394 -0.3314
 1633TIP3   OH2 4862   2.752   1.372   4.275 -0.0310 -0.5601  0.2484
 1633TIP3    H1 4863   2.687   1.434   4.244  1.1324 -0.0612 -1.2965
 1633TIP3    H2 4864   2.704   1.289   4.285 -1.0964  0.0334  0.1508
 1634TIP3   OH2 4865   5.461   0.354   2.493 -0.0751 -0.0388 -0.4406
 1634TIP3    H1 4866   5.433   0.440   2.525 -0.3896 -0.2163 -0.2316
 1634TIP3    H2 4867   5.554   0.349   2.518 -0.5989 -0.6609  1.5528
 1635TIP3   OH2 4868   2.287   3.975   4.535 -0.8250  0.5866 -0.7619
 1635TIP3    H1 4869   2.377   3.998   4.559 -1.3834  1.0932  0.9806
 1635TIP3    H2 4870   2.278   4.006   4.445  0.1937  2.2163 -0.3604
 1636TIP3   OH2 4871   1.733   3.753   0.093 -0.5126 -0.1684  0.1038
 1636TIP3    H1 4872   1.675   3.809   0.145  0.4133 -1.2037  2.4148
 1636TIP3    H2 4873   1.821   3.774   0.124  0.2799  0.4776 -2.4411
 1637TIP3   OH2 4874   5.583   2.183   2.428 -0.0230  0.2398 -0.1584
 1637TIP3    H1 4875   5.587   2.253   2.493 -0.5902 -0.1096  0.2637
 1637TIP3    H2 4876   5.596   2.102   2.478 -1.4898 -0.1174 -0.2915
 1638TIP3   OH2 4877   3.513   0.625   4.835 -0.3360  0.1914  0.2003
 1638TIP3    H1 4878   3.451   0.612   4.763 -1.7162  0.9367  1.2033
 1638TIP3    H2 4879   3.579   0.684   4.798  0.1371 -1.0813 -1.0678
 1639TIP3   OH2 4880   7.148   2.950   5.009 -0.1161  0.5178 -0.6933
 1639TIP3    H1 4881   7.201   2.947   5.088 -0.1221 -0.1012 -0.7077
 1639TIP3    H2 4882   7.086   3.021   5.024  0.3109  0.8354 -0.4179
 1640TIP3   OH2 4883   4.030   0.169   0.827  0.1953  0.4326  0.4669
 1640TIP3    H1 4884   4.045   0.264   0.827  0.6524  0.3603  0.4540
 1640TIP3    H2 4885   4.005   0.148   0.737  3.0319  0.0842 -0.3333
 1641TIP3   OH2 4886   2.946   6.099   4.071 -0.5617 -0.1399  0.1414
 1641TIP3    H1 4887   2.937   6.026   4.010  1.2721 -1.6090  1.5091
 1641TIP3    H2 4888   2.922   6.062   4.156  0.1200  0.9417  0.8270
 1642TIP3   OH2 4889   4.178   2.974   4.765 -0.1791 -0.0590  0.5106
 1642TIP3    H1 4890   4.093   2.946   4.730  0.0756 -0.0944 -0.0917
 1642TIP3    H2 4891   4.179   2.941   4.854 -0.9669  0.2872  0.6521
 1643TIP3   OH2 4892   6.422   2.856   3.583  0.4810  0.5101  0.3178
 1643TIP3    H1 4893   6.439   2.834   3.674  0.1415 -0.9031  0.0680
 1643TIP3    H2 4894   6.442   2.949   3.576  0.9632  0.5283  1.7186
 1644TIP3   OH2 4895   0.628   1.225   1.174 -0.1543  0.0406 -0.5703
 1644TIP3    H1 4896   0.557   1.160   1.181 -0.5174  0.3972 -0.8990
 1644TIP3    H2 4897   0.686   1.205   1.248 -0.0646 -0.8947 -0.8838
 1645TIP3   OH2 4898   6.365   3.566   0.378  0.9796  0.9763 -0.7449
 1645TIP3    H1 4899   6.421   3.595   0.450  3.0332 -0.4545 -1.6785
 1645TIP3    H2 4900   6.330   3.647   0.342 -1.2571  1.7133  2.6103
 1646TIP3   OH2 4901   1.888   6.488   5.808 -0.0508  0.1989  0.5137
 1646TIP3    H1 4902   1.926   6.490   5.720 -2.1507  0.4593 -0.4334
 1646TIP3    H2 4903   1.899   6.397   5.837 -0.3505 -0.1757 -0.4997
 1647TIP3   OH2 4904   3.408   0.269   3.537  0.3482  0.0015 -0.0240
 1647TIP3    H1 4905   3.449   0.355   3.544  1.1136 -0.3530 -0.1147
 1647TIP3    H2 4906   3.474   0.208   3.569 -0.6169 -0.4526  1.2122
 1648TIP3   OH2 4907   1.353   4.313   5.666  0.4274  0.8854 -0.6293
 1648TIP3    H1 4908   1.273   4.262   5.671  0.7420  0.3777 -0.7256
 1648TIP3    H2 4909   1.342   4.381   5.732  0.5051 -0.0180  0.3404
 1649TIP3   OH2 4910   0.500   6.712   2.743  0.3804  0.2469 -0.2765
 1649TIP3    H1 4911   0.573   6.727   2.803  1.8615  1.2627 -2.1873
 1649TIP3    H2 4912   0.424   6.698   2.799  1.9681 -0.5347  1.8052
 1650TIP3   OH2 4913   2.764   1.255   0.733  0.1473  0.1114 -0.4349
 1650TIP3    H1 4914   2.708   1.311   0.786  0.9422 -0.2690  0.8427
 1650TIP3    H2 4915   2.704   1.215   0.669 -0.5348  1.8824 -0.9680
 1651TIP3   OH2 4916   0.911   5.349   5.815  0.3049 -0.3178  0.2915
 1651TIP3    H1 4917   0.816   5.354   5.828 -0.1867  0.7915 -2.9112
 1651TIP3    H2 4918   0.929   5.256   5.807 -0.8718 -0.4769 -0.8624
 1652TIP3   OH2 4919   3.924   4.677   2.492 -0.4138 -0.0381 -0.2221
 1652TIP3    H1 4920   3.902   4.637   2.408 -0.0136 -1.8030  0.4825
 1652TIP3    H2 4921   3.839   4.695   2.533 -0.5984 -0.5762 -0.3623
 1653TIP3   OH2 4922   2.965   2.130   1.039  0.2516  0.7317 -0.2406
 1653TIP3    H1 4923   2.886   2.120   0.985  0.7396  0.4130 -0.8990
 1653TIP3    H2 4924   2.963   2.222   1.067  0.1167  0.9684 -1.0007
 1654TIP3   OH2 4925   7.200   6.112   0.050 -0.3004  0.2061  0.1736
 1654TIP3    H1 4926   7.128   6.049   0.048 -0.0373 -0.2836 -4.4096
 1654TIP3    H2 4927   7.167   6.189   0.004  1.5295  0.6222 -0.5526
 1655TIP3   OH2 4928   1.895   5.660   4.808  0.4760 -0.4490  0.2414
 1655TIP3    H1 4929   1.963   5.679   4.743  0.8045  1.4587  1.0632
 1655TIP3    H2 4930   1.813   5.679   4.763  0.6984  0.7913  0.3176
 1656TIP3   OH2 4931   6.382   3.947   5.615 -0.4517  0.6098 -0.1110
 1656TIP3    H1 4932   6.416   3.860   5.636 -1.6051 -0.1439 -1.2078
 1656TIP3    H2 4933   6.404   4.000   5.691  0.8257 -0.4756  0.3180
 1657TIP3   OH2 4934   6.678   1.636   0.144  0.2376 -0.1234  0.4687
 1657TIP3    H1 4935   6.634   1.682   0.073 -1.0732  0.9915  1.9196
 1657TIP3    H2 4936   6.616   1.568   0.170  0.8743 -0.7727  0.3104
 1658TIP3   OH2 4937   5.778   2.385   3.275 -0.1317 -0.6888 -0.3542
 1658TIP3    H1 4938   5.724   2.320   3.231 -2.9801  0.4312  1.2160
 1658TIP3    H2 4939   5.777   2.358   3.367  0.3716  0.4441 -0.0034
 1659TIP3   OH2 4940   4.862   3.697   2.988 -0.2161 -0.1797  1.3967
 1659TIP3    H1 4941   4.832   3.656   3.069  0.7600 -0.8950  1.4045
 1659TIP3    H2 4942   4.952   3.723   3.005  0.3011 -1.1574  0.2520
 1660TIP3   OH2 4943   6.768   2.441   2.278  0.4271  0.3612 -0.9383
 1660TIP3    H1 4944   6.863   2.446   2.291  0.4285  1.0565 -1.1627
 1660TIP3    H2 4945   6.732   2.440   2.367  0.6641 -0.4221 -0.8477
 1661TIP3   OH2 4946   6.981   3.536   5.747  0.3595 -0.2849  0.7455
 1661TIP3    H1 4947   7.066   3.530   5.790  1.6679 -0.7605 -1.7718
 1661TIP3    H2 4948   6.951   3.446   5.739  1.3352 -0.4732 -1.4988
 1662TIP3   OH2 4949   0.168   3.935   4.095 -0.2946  0.1149 -0.4229
 1662TIP3    H1 4950   0.154   3.853   4.048 -0.8910 -0.1287  0.1600
 1662TIP3    H2 4951   0.252   3.922   4.141  0.9877  0.8662 -2.4362
 1663TIP3   OH2 4952   3.682   0.845   2.796 -0.4172 -0.0348  0.7697
 1663TIP3    H1 4953   3.725   0.864   2.880 -0.0051  0.6764  0.4140
 1663TIP3    H2 4954   3.691   0.751   2.785  0.1315 -0.0415  1.2060
 1664TIP3   OH2 4955   0.612   1.791   1.394  0.8901 -0.2264  0.6396
 1664TIP3    H1 4956   0.652   1.712   1.358  0.6632  0.6515 -1.6973
 1664TIP3    H2 4957   0.680   1.858   1.386 -0.0603  0.6288 -0.7995
 1665TIP3   OH2 4958   4.641   0.944   4.891 -0.5827 -0.0986  0.2970
 1665TIP3    H1 4959   4.654   1.036   4.914 -1.8971  0.5300 -1.3023
 1665TIP3    H2 4960   4.724   0.917   4.851 -1.0683  1.1970 -1.6647
 1666TIP3   OH2 4961   1.764   0.157   4.913  0.4440  0.6439 -0.1369
 1666TIP3    H1 4962   1.678   0.156   4.872  0.9964 -1.7574 -1.4251
 1666TIP3    H2 4963   1.765   0.078   4.969  1.5603  1.0130  0.4018
 1667TIP3   OH2 4964   1.709   6.389   0.374 -0.5545 -0.2517 -0.2473
 1667TIP3    H1 4965   1.719   6.294   0.382 -2.8657 -0.5317 -0.0397
 1667TIP3    H2 4966   1.659   6.401   0.293  0.5762  0.8879 -0.8028
 1668TIP3   OH2 4967   5.307   6.612   3.385 -0.4314 -0.3496 -0.0129
 1668TIP3    H1 4968   5.239   6.579   3.444  0.5734 -0.0952  1.3405
 1668TIP3    H2 4969   5.287   6.705   3.375 -0.4797 -0.3483  0.0962
 1669TIP3   OH2 4970   3.607   0.089   3.249 -0.3914  0.0617 -0.8637
 1669TIP3    H1 4971   3.575   0.027   3.315 -0.0828 -0.8720 -1.5841
 1669TIP3    H2 4972   3.536   0.094   3.185 -0.8793  1.3070 -0.2713
 1670TIP3   OH2 4973   6.332   1.480   0.451  0.1203 -0.6082  0.2513
 1670TIP3    H1 4974   6.258   1.540   0.462 -0.2920 -0.8290 -1.1128
 1670TIP3    H2 4975   6.393   1.504   0.520  0.1243  1.6363 -0.4550
 1671TIP3   OH2 4976   3.073   6.186   2.595 -0.1005 -0.4814 -0.1934
 1671TIP3    H1 4977   2.996   6.137   2.566  0.6273 -3.2851  2.1660
 1671TIP3    H2 4978   3.139   6.119   2.613  0.9789  1.2757  3.2972
 1672TIP3   OH2 4979   5.230   3.227   4.009 -0.6333 -0.4987 -0.2825
 1672TIP3    H1 4980   5.231   3.138   3.974 -0.0646 -0.9481  0.8136
 1672TIP3    H2 4981   5.288   3.276   3.951  0.1185 -1.1688 -0.1197
 1673TIP3   OH2 4982   0.236   4.963   1.127 -0.2840  0.6221 -0.3027
 1673TIP3    H1 4983   0.215   5.028   1.060  2.7870 -0.0115 -2.1085
 1673TIP3    H2 4984   0.323   4.987   1.157 -0.7613 -0.3263  2.0563
 1674TIP3   OH2 4985   3.980   2.951   4.064  0.2044  0.3092  0.8035
 1674TIP3    H1 4986   3.891   2.921   4.076 -0.1832 -0.6951 -3.1129
 1674TIP3    H2 4987   4.035   2.875   4.086 -0.3464 -1.0027 -1.9494
 1675TIP3   OH2 4988   0.452   1.164   4.013 -0.1066  0.0102  0.4029
 1675TIP3    H1 4989   0.431   1.071   4.016  1.1327 -0.3146 -0.1577
 1675TIP3    H2 4990   0.449   1.193   4.104  1.7153 -1.1236  0.8640
 1676TIP3   OH2 4991   6.230   5.885   2.826  0.6265  0.7118  0.3342
 1676TIP3    H1 4992   6.195   5.797   2.815  1.5605  0.5066 -1.4058
 1676TIP3    H2 4993   6.155   5.939   2.849 -0.1658 -0.3271  0.2490
 1677TIP3   OH2 4994   1.830   4.297   0.476  0.3964 -0.2211 -0.7508
 1677TIP3    H1 4995   1.922   4.294   0.503  0.1092  1.0588  0.4833
 1677TIP3    H2 4996   1.828   4.365   0.408  0.0993  1.0466  0.4837
 1678TIP3   OH2 4997   4.998   6.037   4.752  0.3109 -0.4923 -0.0580
 1678TIP3    H1 4998   4.992   5.998   4.665 -0.4965 -1.5958  0.4703
 1678TIP3    H2 4999   4.917   6.012   4.796  0.1306  1.1144  0.6051
 1679TIP3   OH2 5000   4.745   4.744   2.074  0.7079  0.0430 -0.6838
 1679TIP3    H1 5001   4.788   4.665   2.105  0.1634  0.5765  1.5811
 1679TIP3    H2 5002   4.798   4.816   2.108 -1.7143  0.7127  2.0032
 1680TIP3   OH2 5003   3.724   3.836   0.559 -0.5253 -0.1976  0.2723
 1680TIP3    H1 5004   3.751   3.796   0.476 -1.0811  0.3984 -0.2051
 1680TIP3    H2 5005   3.801   3.828   0.616  0.6059  1.2302 -0.9716
 1681TIP3   OH2 5006   1.228   6.235   0.911 -0.7474 -0.1191  0.0225
 1681TIP3    H1 5007   1.277   6.305   0.870 -1.2453  0.6265  0.6650
 1681TIP3    H2 5008   1.164   6.208   0.845  0.1703 -0.7594 -0.6361
 1682TIP3   OH2 5009   1.510   1.495   2.726 -0.7074 -0.5908 -0.0384
 1682TIP3    H1 5010   1.518   1.541   2.810 -0.6923  1.2463 -0.9866
 1682TIP3    H2 5011   1.416   1.495   2.708 -0.8193 -1.9790  0.4853
 1683TIP3   OH2 5012   1.799   5.815   3.883 -0.1238 -0.4025 -0.6026
 1683TIP3    H1 5013   1.847   5.796   3.802 -0.5867 -1.5216 -0.6250
 1683TIP3    H2 5014   1.861   5.796   3.953  0.3201  0.6902 -0.6829
 1684TIP3   OH2 5015   1.339   1.492   2.326  0.1307  0.5489  0.0421
 1684TIP3    H1 5016   1.358   1.580   2.293  1.1062 -0.1717 -1.3835
 1684TIP3    H2 5017   1.246   1.480   2.311  0.1987  0.9436 -0.7385
 1685TIP3   OH2 5018   5.049   5.071   0.831  0.1950 -0.0580 -0.6063
 1685TIP3    H1 5019   4.968   5.065   0.780  1.0021 -1.5106 -1.7724
 1685TIP3    H2 5020   5.089   4.984   0.824  1.6877  0.5149  0.2678
 1686TIP3   OH2 5021   5.433   2.099   5.498  0.0193  0.1039 -0.5151
 1686TIP3    H1 5022   5.519   2.063   5.521  0.3132  0.7324 -0.5983
 1686TIP3    H2 5023   5.438   2.191   5.526 -1.3078 -0.3042  1.2889
 1687TIP3   OH2 5024   2.958   5.815   2.966 -0.6834  0.3653  0.6328
 1687TIP3    H1 5025   2.953   5.817   2.870  3.0951  2.7231  0.3095
 1687TIP3    H2 5026   2.892   5.878   2.995 -0.4994  1.1320 -0.5538
 1688TIP3   OH2 5027   3.563   0.334   4.084 -0.4355 -0.3437  0.3861
 1688TIP3    H1 5028   3.552   0.241   4.064  0.7592 -0.2912 -0.6232
 1688TIP3    H2 5029   3.509   0.348   4.162 -0.4881 -1.9199  0.6689
 1689TIP3   OH2 5030   6.783   5.570   4.358 -0.3242 -0.1519 -0.2925
 1689TIP3    H1 5031   6.730   5.502   4.400  1.0095 -0.8779  0.2641
 1689TIP3    H2 5032   6.856   5.523   4.318  1.5212  1.0361  1.4673
 1690TIP3   OH2 5033   3.586   1.779   4.712  0.1554  0.6249  0.5856
 1690TIP3    H1 5034   3.618   1.703   4.663 -0.0381 -0.2143  1.7315
 1690TIP3    H2 5035   3.491   1.777   4.702  0.1640  0.8356  0.4529
 1691TIP3   OH2 5036   0.172   5.181   0.988  0.3025  0.1242 -0.0529
 1691TIP3    H1 5037   0.079   5.173   1.006 -0.2075 -1.1253 -2.6693
 1691TIP3    H2 5038   0.193   5.272   1.008 -2.1211  1.1574 -1.6921
 1692TIP3   OH2 5039   3.597   5.508   3.875 -0.0403 -0.4165  0.5672
 1692TIP3    H1 5040   3.515   5.514   3.825  0.3735 -1.5425 -0.2736
 1692TIP3    H2 5041   3.656   5.569   3.832 -1.2966  2.9222  3.0877
 1693TIP3   OH2 5042   2.486   4.348   3.117  0.0466  0.3647 -0.3676
 1693TIP3    H1 5043   2.486   4.366   3.023  1.9300 -0.3216 -0.5326
 1693TIP3    H2 5044   2.431   4.270   3.126 -1.0868  1.0854 -0.7131
 1694TIP3   OH2 5045   1.855   6.550   1.483  0.2869 -0.1081  0.5664
 1694TIP3    H1 5046   1.904   6.486   1.431  0.5668 -1.3273  2.2370
 1694TIP3    H2 5047   1.890   6.634   1.456 -0.5185 -0.5508 -2.1424
 1695TIP3   OH2 5048   5.201   5.778   3.581 -0.1200 -0.4423  0.1590
 1695TIP3    H1 5049   5.128   5.717   3.571 -0.5067 -0.7174  3.4114
 1695TIP3    H2 5050   5.254   5.741   3.652  1.7343  1.1143 -0.3169
 1696TIP3   OH2 5051   3.018   4.053   4.289 -0.0377  0.5017  0.1548
 1696TIP3    H1 5052   3.074   4.096   4.224  3.0900 -0.4754  1.9614
 1696TIP3    H2 5053   3.044   3.961   4.284 -1.7392 -0.0446  0.9343
 1697TIP3   OH2 5054   4.824   4.928   5.804 -0.4231  0.0195 -0.2926
 1697TIP3    H1 5055   4.896   4.989   5.819 -1.0469  0.7156 -0.0355
 1697TIP3    H2 5056   4.862   4.841   5.816  0.4497  0.3660 -0.5290
 1698TIP3   OH2 5057   7.106   3.910   0.758 -0.2143 -0.2720  0.4222
 1698TIP3    H1 5058   7.042   3.938   0.694 -0.0276 -1.1863 -0.1794
 1698TIP3    H2 5059   7.112   3.983   0.820 -1.4028  0.0560  0.1737
 1699TIP3   OH2 5060   3.765   6.025   0.872 -0.1226  0.0975 -0.5587
 1699TIP3    H1 5061   3.840   5.965   0.865 -0.2131 -0.0716 -0.0959
 1699TIP3    H2 5062   3.800   6.101   0.917 -0.3852 -0.2571  0.2621
 1700TIP3   OH2 5063   4.882   2.443   3.262  0.2394 -0.0029 -0.2088
 1700TIP3    H1 5064   4.803   2.418   3.215  0.4394  2.2625 -1.9629
 1700TIP3    H2 5065   4.949   2.383   3.230 -1.0147 -3.4364  2.9320
 1701TIP3   OH2 5066   5.091   3.246   1.129 -0.4259  0.7029  0.4944
 1701TIP3    H1 5067   5.013   3.301   1.123 -1.2365 -0.2638  1.6713
 1701TIP3    H2 5068   5.058   3.158   1.148  0.9261  0.2182  0.7871
 1702TIP3   OH2 5069   6.540   0.026   3.415 -0.0898  0.1061 -0.4074
 1702TIP3    H1 5070   6.491   0.100   3.450  0.8680 -0.4676  2.3932
 1702TIP3    H2 5071   6.473  -0.035   3.384 -0.9411  1.2886 -0.9786
 1703TIP3   OH2 5072   6.068   5.342   4.886 -0.2618  0.0096 -0.4959
 1703TIP3    H1 5073   6.051   5.255   4.848 -0.9173  0.1019 -0.4307
 1703TIP3    H2 5074   6.001   5.351   4.954 -0.1565  0.5432 -0.4620
 1704TIP3   OH2 5075   6.420   5.717   0.070 -0.0919 -0.2399 -0.5072
 1704TIP3    H1 5076   6.336   5.754   0.044 -0.3649  0.3478  1.0788
 1704TIP3    H2 5077   6.481   5.742   0.000 -0.8028  1.1183 -0.6738
 1705TIP3   OH2 5078   1.849   0.593   2.427 -0.4256  0.3364  0.6236
 1705TIP3    H1 5079   1.818   0.611   2.516  1.7996  0.6118  1.4040
 1705TIP3    H2 5080   1.817   0.667   2.375 -1.6161  0.2545  1.1919
 1706TIP3   OH2 5081   5.123   4.568   0.956 -0.0221  0.1992  0.0213
 1706TIP3    H1 5082   5.161   4.651   0.926 -0.6458  0.1413 -0.9636
 1706TIP3    H2 5083   5.166   4.551   1.039  0.7254  1.0949 -0.1658
 1707TIP3   OH2 5084   6.982   4.227   2.266 -0.2352 -0.1529  0.0123
 1707TIP3    H1 5085   6.922   4.298   2.244  1.2238  1.7574  1.7895
 1707TIP3    H2 5086   6.925   4.154   2.289 -1.7947  0.3943 -1.8184
 1708TIP3   OH2 5087   5.619   1.513   1.796 -0.3691  0.7644 -0.4133
 1708TIP3    H1 5088   5.714   1.506   1.787 -0.4432  1.1011 -1.6682
 1708TIP3    H2 5089   5.602   1.497   1.889  0.8467  0.0667 -0.2992
 1709TIP3   OH2 5090   6.345   1.553   5.632 -0.4582 -0.2056 -0.5444
 1709TIP3    H1 5091   6.306   1.592   5.710  2.5580  1.3532  0.3412
 1709TIP3    H2 5092   6.332   1.618   5.563  0.2091  0.1428 -0.3460
 1710TIP3   OH2 5093   4.639   5.305   3.123 -0.2724  0.1783 -0.2929
 1710TIP3    H1 5094   4.686   5.378   3.084 -0.0956 -0.0506 -0.5116
 1710TIP3    H2 5095   4.613   5.251   3.048  0.3314 -0.4239 -0.0737
 1711TIP3   OH2 5096   5.491   1.667   5.836  0.3220  0.2423 -0.1339
 1711TIP3    H1 5097   5.569   1.639   5.884  0.1716 -0.5273 -0.3252
 1711TIP3    H2 5098   5.489   1.610   5.759 -0.4900  0.1700 -0.0668
 1712TIP3   OH2 5099   0.814   1.445   4.745  0.3924 -0.5623  0.1890
 1712TIP3    H1 5100   0.893   1.396   4.726  2.1843  1.2082  2.5190
 1712TIP3    H2 5101   0.796   1.493   4.664  0.6220 -2.2994 -0.9417
 1713TIP3   OH2 5102   2.893   0.360   0.696  0.3196  0.1187 -0.4551
 1713TIP3    H1 5103   2.926   0.308   0.769  2.0620  0.6356 -0.8428
 1713TIP3    H2 5104   2.967   0.413   0.668  0.1501 -1.0168 -3.4400
 1714TIP3   OH2 5105   4.623   5.658   4.567  0.3884  0.6973 -0.1550
 1714TIP3    H1 5106   4.548   5.630   4.514 -0.4913 -1.2213  1.9313
 1714TIP3    H2 5107   4.687   5.691   4.503 -0.5452 -1.5504 -2.4117
 1715TIP3   OH2 5108   5.697   0.094   2.316  0.2878 -0.5338  0.1828
 1715TIP3    H1 5109   5.758   0.150   2.269 -1.1426  2.6543  1.8414
 1715TIP3    H2 5110   5.621   0.088   2.259  1.2976 -2.9786 -1.0615
 1716TIP3   OH2 5111   2.476   5.169   3.012  0.5368 -0.0452  0.3366
 1716TIP3    H1 5112   2.553   5.113   3.019  0.5749 -0.0543 -0.1085
 1716TIP3    H2 5113   2.502   5.251   3.053 -0.1970 -0.9957  2.8645
 1717TIP3   OH2 5114   1.323   1.959   0.442  0.6932  0.0328 -0.2568
 1717TIP3    H1 5115   1.365   2.005   0.514  0.6637  1.7919 -1.3122
 1717TIP3    H2 5116   1.307   2.026   0.376 -2.5476 -0.7651 -0.4969
 1718TIP3   OH2 5117   5.470   2.138   2.064 -0.2387 -0.0349 -0.3616
 1718TIP3    H1 5118   5.561   2.129   2.093 -0.0806  1.4792 -0.3430
 1718TIP3    H2 5119   5.474   2.136   1.969 -0.2055 -0.0637 -0.3596
 1719TIP3   OH2 5120   3.955   3.388   4.706  1.4420 -0.2247 -0.0796
 1719TIP3    H1 5121   3.964   3.373   4.612  0.8678 -0.0203 -0.1697
 1719TIP3    H2 5122   3.891   3.323   4.735  0.3861  0.7597 -0.1308
 1720TIP3   OH2 5123   4.021   0.713   4.436  0.5055 -0.0292  0.0248
 1720TIP3    H1 5124   4.003   0.628   4.397 -0.6447  0.8149 -1.3672
 1720TIP3    H2 5125   4.099   0.699   4.490  0.2459 -1.9779 -0.0687
 1721TIP3   OH2 5126   1.467   3.103   3.010 -0.3923 -0.5665  0.1585
 1721TIP3    H1 5127   1.539   3.161   2.987 -0.8769 -0.2930 -0.7253
 1721TIP3    H2 5128   1.412   3.154   3.069 -0.5619 -0.2879 -0.2327
 1722TIP3   OH2 5129   4.914   1.747   4.408  0.2398  0.9145  0.1106
 1722TIP3    H1 5130   4.928   1.693   4.485  1.2670  0.0488 -0.6547
 1722TIP3    H2 5131   4.889   1.833   4.442 -0.7186  0.1648  1.3604
 1723TIP3   OH2 5132   5.086   6.743   2.351 -0.6196 -0.3454  0.0088
 1723TIP3    H1 5133   5.122   6.685   2.419  0.1525  0.0732 -0.0279
 1723TIP3    H2 5134   5.038   6.810   2.399  0.6502  0.4539  0.2298
 1724TIP3   OH2 5135   0.496   4.521   1.592 -0.0405  0.4574  0.1504
 1724TIP3    H1 5136   0.534   4.592   1.643  0.8662  1.2276 -1.5092
 1724TIP3    H2 5137   0.442   4.473   1.654  1.7489  0.7542  2.0551
 1725TIP3   OH2 5138   1.748   5.425   0.410 -0.1092 -0.3094 -0.3020
 1725TIP3    H1 5139   1.840   5.443   0.432 -0.4909 -0.5567  1.6518
 1725TIP3    H2 5140   1.725   5.495   0.349  1.8234 -1.2085 -2.2135
 1726TIP3   OH2 5141   4.530   0.613   0.267 -0.0993  0.2649 -0.3145
 1726TIP3    H1 5142   4.502   0.547   0.330  1.2583  0.2123  0.2713
 1726TIP3    H2 5143   4.478   0.691   0.289 -0.4109 -0.0727  0.1675
 1727TIP3   OH2 5144   2.044   4.137   5.672  0.1367 -0.3916  0.4622
 1727TIP3    H1 5145   2.007   4.128   5.584 -0.0466 -0.2296  0.5209
 1727TIP3    H2 5146   2.020   4.056   5.717 -0.2110 -0.2591  0.5213
 1728TIP3   OH2 5147   2.143   4.908   0.802  0.7547 -0.1087  0.0959
 1728TIP3    H1 5148   2.158   4.829   0.751  1.0454 -0.5535  0.8455
 1728TIP3    H2 5149   2.091   4.965   0.745 -0.0238 -1.1028 -0.2130
 1729TIP3   OH2 5150   2.169   3.642   2.910  0.3653  0.3912 -0.5607
 1729TIP3    H1 5151   2.173   3.620   2.817  1.4906 -3.7779  0.2563
 1729TIP3    H2 5152   2.087   3.604   2.941  1.5902 -1.4280  0.6750
 1730TIP3   OH2 5153   6.698   3.481   4.698 -0.1255 -0.5593  0.0105
 1730TIP3    H1 5154   6.776   3.512   4.653 -0.4708 -0.5170 -0.5775
 1730TIP3    H2 5155   6.700   3.386   4.688  1.1645 -0.8202  2.1974
 1731TIP3   OH2 5156   0.954   6.684   5.298  0.1047  0.4116  0.4530
 1731TIP3    H1 5157   0.949   6.641   5.384  2.4525  0.4959  0.7098
 1731TIP3    H2 5158   0.898   6.761   5.306  0.0398  0.2517  1.8096
 1732TIP3   OH2 5159   3.034   2.762   1.867  0.0724 -0.1703 -0.6365
 1732TIP3    H1 5160   3.041   2.710   1.787  0.2442 -1.0917 -0.0343
 1732TIP3    H2 5161   3.118   2.807   1.873 -0.2265  0.5169 -1.3750
 1733TIP3   OH2 5162   1.748   5.024   2.752 -0.1315  0.0975 -0.2239
 1733TIP3    H1 5163   1.823   5.024   2.693 -0.3540 -0.5481 -0.5181
 1733TIP3    H2 5164   1.672   5.036   2.695 -0.4275 -1.5077 -0.1927
 1734TIP3   OH2 5165   0.582   6.031   4.661 -0.0840 -0.4323  0.8645
 1734TIP3    H1 5166   0.597   5.942   4.692 -0.5139 -0.5292  0.8111
 1734TIP3    H2 5167   0.635   6.087   4.718  2.0532 -0.8963 -0.5576
 1735TIP3   OH2 5168   0.293   2.733   3.070 -0.3040  0.5090  0.4850
 1735TIP3    H1 5169   0.207   2.761   3.039 -0.3475 -1.6530 -1.6490
 1735TIP3    H2 5170   0.355   2.766   3.004  0.2130  0.0044  0.7068
 1736TIP3   OH2 5171   0.662   3.518   5.185 -0.5861 -0.3513 -1.1134
 1736TIP3    H1 5172   0.617   3.587   5.232 -0.3613 -0.8089 -0.1986
 1736TIP3    H2 5173   0.623   3.437   5.217  0.6620 -0.7445 -0.5101
 1737TIP3   OH2 5174   0.647   2.885   3.400 -0.0744 -0.3664 -0.1335
 1737TIP3    H1 5175   0.581   2.888   3.470 -1.4938 -1.3484 -1.3661
 1737TIP3    H2 5176   0.601   2.846   3.326  1.5941 -0.0072 -1.4088
 1738TIP3   OH2 5177   7.029   1.944   3.827 -0.3009 -0.1146 -0.8664
 1738TIP3    H1 5178   7.093   1.983   3.768 -0.6601  0.5402 -0.8327
 1738TIP3    H2 5179   7.081   1.909   3.899  0.1406 -0.9545 -1.5857
 1739TIP3   OH2 5180   1.364   2.826   2.022 -0.6154 -0.0470  0.3246
 1739TIP3    H1 5181   1.324   2.901   1.977 -0.5383 -0.7814 -1.0115
 1739TIP3    H2 5182   1.363   2.756   1.957  0.2119 -0.9251  1.2315
 1740TIP3   OH2 5183   4.553   5.004   1.539 -0.6256  0.3198 -0.4345
 1740TIP3    H1 5184   4.609   4.964   1.605  0.8631  1.7845 -0.7405
 1740TIP3    H2 5185   4.530   4.933   1.480 -0.2671 -0.5926  0.4997
 1741TIP3   OH2 5186   7.013   3.096   2.195  0.1258  0.2852  0.4055
 1741TIP3    H1 5187   7.075   3.118   2.264  1.1279 -0.2322 -0.2996
 1741TIP3    H2 5188   7.022   3.167   2.131  1.7584 -0.9329 -0.8189
 1742TIP3   OH2 5189   0.420   5.718   1.865 -0.1318 -0.3023 -0.0144
 1742TIP3    H1 5190   0.361   5.714   1.790 -1.5119 -0.8130  1.0453
 1742TIP3    H2 5191   0.393   5.645   1.921 -0.7007  1.4045  2.0662
 1743TIP3   OH2 5192   0.693   2.404   1.018 -0.0880  0.6778  0.0754
 1743TIP3    H1 5193   0.765   2.457   0.985 -1.5663  2.8604  0.1416
 1743TIP3    H2 5194   0.675   2.439   1.105  0.0826 -1.2226  0.9096
 1744TIP3   OH2 5195   7.207   0.128   1.765 -0.1871  0.3045  0.9410
 1744TIP3    H1 5196   7.236   0.066   1.698  0.5127  1.4087  0.1871
 1744TIP3    H2 5197   7.153   0.191   1.718 -0.5072  0.5408  1.6097
 1745TIP3   OH2 5198   3.404   1.752   0.877  0.0879  0.1075 -0.3930
 1745TIP3    H1 5199   3.372   1.713   0.958  0.6567  1.7121  0.6364
 1745TIP3    H2 5200   3.499   1.745   0.882  0.0975 -1.1323 -1.6486
 1746TIP3   OH2 5201   3.846   0.194   1.138  0.5664  0.6437 -0.5807
 1746TIP3    H1 5202   3.833   0.277   1.091 -0.5871  0.7003 -0.2005
 1746TIP3    H2 5203   3.763   0.180   1.183  0.1879 -1.4972 -1.8409
 1747TIP3   OH2 5204   2.149   5.967   2.918 -0.2726 -0.1698  0.1101
 1747TIP3    H1 5205   2.098   5.887   2.907 -1.2827  0.4068  0.4302
 1747TIP3    H2 5206   2.165   5.998   2.829  2.1041 -1.8845 -0.1587
 1748TIP3   OH2 5207   3.891   2.743   1.779  0.3781  0.0518  0.3185
 1748TIP3    H1 5208   3.928   2.819   1.734  1.9681  0.0124  1.4492
 1748TIP3    H2 5209   3.926   2.667   1.732  1.5520  0.0185  1.1937
 1749TIP3   OH2 5210   5.299   4.453   5.734 -0.1632 -0.3275  0.5743
 1749TIP3    H1 5211   5.334   4.522   5.791 -0.0497 -0.6144  0.8520
 1749TIP3    H2 5212   5.291   4.376   5.791 -3.0355  0.1969  1.0648
 1750TIP3   OH2 5213   5.094   0.699   4.178  0.4138 -0.2776  0.1465
 1750TIP3    H1 5214   5.077   0.615   4.136  0.8625  0.2621 -1.1788
 1750TIP3    H2 5215   5.021   0.712   4.239 -0.7739 -0.6636 -1.1619
 1751TIP3   OH2 5216   5.512   1.143   1.672 -0.0775  0.5349 -0.1186
 1751TIP3    H1 5217   5.571   1.096   1.612 -1.5416  0.6530 -1.7299
 1751TIP3    H2 5218   5.570   1.186   1.734  1.4592 -0.5876 -0.7111
 1752TIP3   OH2 5219   2.401   6.725   2.859 -0.6526  0.4680  0.2661
 1752TIP3    H1 5220   2.317   6.689   2.829 -0.1810 -1.7859  1.5012
 1752TIP3    H2 5221   2.465   6.695   2.795 -0.5977  1.3007 -0.0892
 1753TIP3   OH2 5222   4.490   2.034   2.436  0.0250 -0.0001 -0.3717
 1753TIP3    H1 5223   4.454   2.061   2.520 -0.4480 -2.1983  0.2059
 1753TIP3    H2 5224   4.569   2.087   2.425 -0.7059  1.3721  0.7191
 1754TIP3   OH2 5225   2.072   5.516   5.639 -0.4795 -0.1786 -0.0184
 1754TIP3    H1 5226   2.110   5.484   5.721 -3.1211  1.0262  1.8090
 1754TIP3    H2 5227   2.049   5.437   5.591 -2.1086 -1.0823  2.0640
 1755TIP3   OH2 5228   0.687   1.274   2.684 -0.1380 -0.5325 -0.0975
 1755TIP3    H1 5229   0.754   1.263   2.751 -0.3782 -0.8965  0.0939
 1755TIP3    H2 5230   0.640   1.190   2.684 -1.4159  0.1476  0.6860
 1756TIP3   OH2 5231   5.015   0.521   3.814  0.2813 -0.1246  0.3240
 1756TIP3    H1 5232   4.922   0.505   3.796  0.6612 -1.8227 -0.2393
 1756TIP3    H2 5233   5.045   0.443   3.860  1.4078  0.4659  0.6411
 1757TIP3   OH2 5234   6.767   1.315   3.148 -0.2533  0.0039  0.3610
 1757TIP3    H1 5235   6.842   1.375   3.151 -0.5643  0.3487  1.8471
 1757TIP3    H2 5236   6.771   1.267   3.231 -1.7088  0.0830  0.5022
 1758TIP3   OH2 5237   5.756   4.390   3.174  0.1887 -0.3468 -0.1758
 1758TIP3    H1 5238   5.747   4.421   3.084  5.5440 -0.2737 -0.9933
 1758TIP3    H2 5239   5.779   4.297   3.165  1.3137 -0.2132  1.0345
 1759TIP3   OH2 5240   3.508   6.693   0.957 -0.3824 -0.0830  0.3678
 1759TIP3    H1 5241   3.584   6.635   0.959 -0.7358 -0.5384  1.1240
 1759TIP3    H2 5242   3.467   6.678   0.872 -0.4151 -0.8713  0.5188
 1760TIP3   OH2 5243   5.246   1.536   2.808 -0.0124 -0.4860 -0.0077
 1760TIP3    H1 5244   5.320   1.587   2.774 -0.1908 -0.2211 -0.0024
 1760TIP3    H2 5245   5.170   1.569   2.759 -0.1474 -0.6656  0.0802
 1761TIP3   OH2 5246   1.785   1.902   0.695 -0.1293  0.7247  0.3559
 1761TIP3    H1 5247   1.822   1.940   0.616 -2.6871  0.4239 -1.0810
 1761TIP3    H2 5248   1.844   1.931   0.765  1.6561  1.8293 -1.4848
 1762TIP3   OH2 5249   1.776   0.550   0.864 -0.2912 -0.1390 -0.5321
 1762TIP3    H1 5250   1.762   0.456   0.855 -0.8019 -0.1300  0.1043
 1762TIP3    H2 5251   1.703   0.580   0.918  0.5993  0.4041  0.4009
 1763TIP3   OH2 5252   3.873   3.888   5.271  0.7369  0.0339 -0.5097
 1763TIP3    H1 5253   3.953   3.859   5.316  0.6137  0.0083 -0.3070
 1763TIP3    H2 5254   3.884   3.983   5.262 -0.2399  0.4280  1.6229
 1764TIP3   OH2 5255   0.170   3.534   3.957 -0.0733  0.0530 -0.3229
 1764TIP3    H1 5256   0.115   3.612   3.954 -0.1209  0.1050  1.0799
 1764TIP3    H2 5257   0.239   3.550   3.893  0.6035  1.7904  0.7786
 1765TIP3   OH2 5258   5.982   0.965   4.587  0.3670 -0.1144  0.1129
 1765TIP3    H1 5259   5.922   0.976   4.514  0.7473 -1.8703 -0.5139
 1765TIP3    H2 5260   5.980   1.049   4.633 -1.7650  0.2049 -0.4664
 1766TIP3   OH2 5261   4.664   5.233   0.065 -0.2856  0.7642 -0.0712
 1766TIP3    H1 5262   4.698   5.186  -0.011 -0.2013 -1.2283  1.1567
 1766TIP3    H2 5263   4.572   5.207   0.070 -0.1865  0.5611  0.7532
 1767TIP3   OH2 5264   4.551   5.464   3.395  0.4008  0.6212 -0.0044
 1767TIP3    H1 5265   4.639   5.489   3.367  0.2240  1.3686  0.1043
 1767TIP3    H2 5266   4.562   5.376   3.432  0.9982  0.4734 -0.5034
 1768TIP3   OH2 5267   1.039   3.918   1.781  0.1405  0.1933 -0.7687
 1768TIP3    H1 5268   1.082   3.991   1.825  1.5861 -0.5840 -0.8505
 1768TIP3    H2 5269   0.947   3.927   1.806  0.7001  0.4853  1.4299
 1769TIP3   OH2 5270   0.913   2.293   2.491 -0.1077  0.2395  0.4757
 1769TIP3    H1 5271   0.824   2.266   2.470 -0.7380  1.3188  1.6103
 1769TIP3    H2 5272   0.963   2.212   2.493 -1.0372 -0.3756 -0.2654
 1770TIP3   OH2 5273   2.963   3.368   0.213  0.5944 -0.4019  0.0565
 1770TIP3    H1 5274   2.908   3.385   0.137  0.4974  0.3480  0.2853
 1770TIP3    H2 5275   2.924   3.290   0.254 -1.0572  0.7862  0.8811
 1771TIP3   OH2 5276   5.796   2.646   1.058 -0.2676  0.2150 -0.0750
 1771TIP3    H1 5277   5.755   2.619   1.140  0.1572  0.0242  0.0735
 1771TIP3    H2 5278   5.743   2.720   1.029 -0.4386  0.2669  0.3560
 1772TIP3   OH2 5279   5.945   4.758   5.465 -0.5619 -0.1528  0.6373
 1772TIP3    H1 5280   5.946   4.692   5.533  1.1862 -0.0193  0.7819
 1772TIP3    H2 5281   5.884   4.825   5.497  0.4816  0.0726  2.2628
 1773TIP3   OH2 5282   4.762   3.650   1.982  0.1972 -0.2284  0.1805
 1773TIP3    H1 5283   4.766   3.563   1.943  0.3563 -0.8396  1.5284
 1773TIP3    H2 5284   4.687   3.647   2.040  0.1086  0.5933  0.1213
 1774TIP3   OH2 5285   6.267   3.062   4.374 -0.0490 -0.1683 -0.1916
 1774TIP3    H1 5286   6.343   3.066   4.433  0.3577  0.6840 -0.7400
 1774TIP3    H2 5287   6.230   3.151   4.378  1.2259  0.5782 -2.7595
 1775TIP3   OH2 5288   0.893   6.777   4.338 -0.2483  0.1434  0.3146
 1775TIP3    H1 5289   0.811   6.786   4.290  0.6051  1.0005 -1.0446
 1775TIP3    H2 5290   0.934   6.698   4.302 -0.2288 -0.0069  0.6513
 1776TIP3   OH2 5291   2.345   0.620   4.965 -0.1363  0.4908 -0.0528
 1776TIP3    H1 5292   2.401   0.696   4.950  2.2506 -0.6269  2.4053
 1776TIP3    H2 5293   2.274   0.653   5.020 -0.5794  1.4476 -1.1807
 1777TIP3   OH2 5294   5.664   2.935   0.059  0.0011 -0.5788 -0.1099
 1777TIP3    H1 5295   5.733   2.873   0.037  1.2922  0.7564 -0.0368
 1777TIP3    H2 5296   5.690   2.970   0.144 -0.5066  0.2891 -0.2941
 1778TIP3   OH2 5297   5.925   1.812   4.188  0.5539 -0.4598  0.7725
 1778TIP3    H1 5298   5.877   1.885   4.228 -1.0028 -0.1129 -1.5345
 1778TIP3    H2 5299   6.006   1.851   4.155 -0.0651  0.1700 -0.0538
 1779TIP3   OH2 5300   7.016   2.130   1.904 -0.3228  0.7442 -0.1985
 1779TIP3    H1 5301   7.073   2.185   1.850 -1.0154 -1.3217 -3.2182
 1779TIP3    H2 5302   6.936   2.120   1.854 -1.2315 -0.8988  1.4387
 1780TIP3   OH2 5303   0.069   0.427   1.680 -0.5685 -0.6334 -0.0087
 1780TIP3    H1 5304   0.133   0.359   1.657 -1.3899 -1.0857 -1.0377
 1780TIP3    H2 5305   0.120   0.492   1.729  0.2259 -2.0083  1.0661
 1781TIP3   OH2 5306   3.750   5.330   4.760 -0.0916  0.4229  1.0736
 1781TIP3    H1 5307   3.689   5.394   4.798 -1.5223 -0.5937  0.5831
 1781TIP3    H2 5308   3.802   5.381   4.698 -1.5319  1.0626  0.3393
 1782TIP3   OH2 5309   6.660   5.396   5.621 -0.1243  0.3488  0.0908
 1782TIP3    H1 5310   6.735   5.431   5.573 -0.1874  0.1520 -0.1533
 1782TIP3    H2 5311   6.654   5.305   5.593 -1.9098  0.9574 -1.7644
 1783TIP3   OH2 5312   4.085   5.278   5.714  0.4197  0.1031 -0.3364
 1783TIP3    H1 5313   4.015   5.344   5.712 -0.6238 -0.9690 -0.7022
 1783TIP3    H2 5314   4.162   5.325   5.743 -0.9930  0.8514  2.5136
 1784TIP3   OH2 5315   6.104   5.617   3.868 -0.0962  0.2893  0.0980
 1784TIP3    H1 5316   6.018   5.604   3.827  0.2364  0.3559 -0.6182
 1784TIP3    H2 5317   6.121   5.711   3.858 -0.1444  0.3609  0.6519
 1785TIP3   OH2 5318   3.049   2.610   0.172 -0.5990 -0.0383 -0.4678
 1785TIP3    H1 5319   2.960   2.578   0.185 -1.0018 -0.0977 -2.8421
 1785TIP3    H2 5320   3.098   2.580   0.249 -2.7936  0.7987  1.3501
 1786TIP3   OH2 5321   1.344   1.718   0.317  0.0388 -0.1432 -0.4231
 1786TIP3    H1 5322   1.308   1.803   0.341  0.4726  0.0094 -0.3181
 1786TIP3    H2 5323   1.267   1.667   0.289 -0.4957 -0.3603  1.3314
 1787TIP3   OH2 5324   1.449   3.069   3.651  0.1327 -0.4694  0.4052
 1787TIP3    H1 5325   1.422   2.985   3.614 -1.1788 -0.4957  1.3489
 1787TIP3    H2 5326   1.384   3.131   3.619 -1.4831 -0.6166  3.0945
 1788TIP3   OH2 5327   3.953   1.291   5.775  0.0806 -0.4064 -0.6893
 1788TIP3    H1 5328   3.876   1.343   5.801  0.4044 -0.7980  1.2151
 1788TIP3    H2 5329   3.916   1.214   5.732 -0.5781 -0.2735 -0.3820
 1789TIP3   OH2 5330   5.816   0.242   0.466 -0.2017 -0.3911 -0.4634
 1789TIP3    H1 5331   5.783   0.197   0.388 -1.2383  0.0329 -0.2828
 1789TIP3    H2 5332   5.744   0.298   0.493  0.5270  0.2273  0.2134
 1790TIP3   OH2 5333   1.040   0.112   1.307 -0.2183  0.2917  0.1292
 1790TIP3    H1 5334   1.007   0.067   1.385  1.7422  1.2374  1.6173
 1790TIP3    H2 5335   1.110   0.055   1.274 -1.5708 -0.5036 -1.4929
 1791TIP3   OH2 5336   3.232   4.547   1.602  0.0549  0.2389 -0.5389
 1791TIP3    H1 5337   3.152   4.496   1.600  0.9726 -1.3134  0.3465
 1791TIP3    H2 5338   3.206   4.632   1.639 -0.7298 -1.2208  2.6143
 1792TIP3   OH2 5339   2.593   5.335   5.170  0.1812  0.0225 -0.2449
 1792TIP3    H1 5340   2.596   5.344   5.074  1.2953  0.1547 -0.2099
 1792TIP3    H2 5341   2.638   5.252   5.187 -3.2598 -1.9842 -0.0461
 1793TIP3   OH2 5342   1.316   2.201   0.274 -0.3418  0.8510  0.4216
 1793TIP3    H1 5343   1.286   2.219   0.185 -0.5334  0.4194  0.3959
 1793TIP3    H2 5344   1.360   2.282   0.301  0.1550  0.8233 -0.2443
 1794TIP3   OH2 5345   4.698   3.344   5.838 -0.0445  0.0636  0.2370
 1794TIP3    H1 5346   4.657   3.288   5.905 -1.8965  1.3636  0.2899
 1794TIP3    H2 5347   4.655   3.429   5.849  0.0207  0.4908 -2.2358
 1795TIP3   OH2 5348   6.946   5.577   3.510 -0.1657 -0.5435  0.6401
 1795TIP3    H1 5349   7.031   5.621   3.508  0.0619 -0.9886  0.1024
 1795TIP3    H2 5350   6.966   5.486   3.530 -0.5008 -0.6772  0.3877
 1796TIP3   OH2 5351   6.649   5.086   5.746  0.2771 -0.3811 -0.3408
 1796TIP3    H1 5352   6.619   5.063   5.834  1.8557 -1.1788  0.0318
 1796TIP3    H2 5353   6.744   5.073   5.749  1.0343  3.5944 -0.9373
 1797TIP3   OH2 5354   6.336   1.191   3.942 -0.6301 -0.2385  0.4204
 1797TIP3    H1 5355   6.322   1.275   3.986  2.6834 -0.6536  2.6015
 1797TIP3    H2 5356   6.264   1.185   3.879 -1.0942  4.1430  0.2165
 1798TIP3   OH2 5357   3.196   4.800   3.461  0.4445  0.1021  0.5025
 1798TIP3    H1 5358   3.103   4.806   3.481  0.6277 -0.1265  1.4643
 1798TIP3    H2 5359   3.240   4.842   3.535  1.1015  0.3492 -0.0197
 1799TIP3   OH2 5360   5.365   1.349   3.932 -0.3535  0.0301  0.1125
 1799TIP3    H1 5361   5.399   1.426   3.887  1.2528 -1.3374 -1.1740
 1799TIP3    H2 5362   5.390   1.361   4.023  0.5335  0.6811 -0.2059
 1800TIP3   OH2 5363   1.654   4.332   0.179  0.7493 -0.3863  0.0913
 1800TIP3    H1 5364   1.660   4.420   0.217 -0.5707 -0.6100  0.8718
 1800TIP3    H2 5365   1.745   4.303   0.173  1.0916  0.0176  2.2919
 1801TIP3   OH2 5366   4.404   0.422   3.207 -0.3778 -0.0580 -0.2508
 1801TIP3    H1 5367   4.422   0.516   3.207  1.7668 -0.3761  1.8065
 1801TIP3    H2 5368   4.324   0.413   3.258 -0.6298  0.6231 -0.5072
 1802TIP3   OH2 5369   5.681   2.612   3.142 -0.1121  0.7874  0.5177
 1802TIP3    H1 5370   5.680   2.538   3.202 -0.7746  1.3766  1.2474
 1802TIP3    H2 5371   5.762   2.659   3.163 -0.3056  0.9496  0.9031
 1803TIP3   OH2 5372   5.131   3.638   4.765  0.2035 -0.1409 -0.1551
 1803TIP3    H1 5373   5.044   3.615   4.731  0.6547 -1.2132 -0.6163
 1803TIP3    H2 5374   5.143   3.729   4.740  0.0774 -0.5942 -1.9836
 1804TIP3   OH2 5375   3.513   3.406   3.008 -0.0545 -0.0874  0.3554
 1804TIP3    H1 5376   3.505   3.330   2.950 -2.0396  1.0422 -0.9615
 1804TIP3    H2 5377   3.577   3.462   2.964  1.2287 -0.8241  1.2061
 1805TIP3   OH2 5378   4.897   1.010   1.586  0.1468 -0.2270  0.1311
 1805TIP3    H1 5379   4.968   0.954   1.556  2.9282  2.5606  1.0096
 1805TIP3    H2 5380   4.911   1.017   1.681 -0.8447  0.9717  0.2144
 1806TIP3   OH2 5381   0.829   6.559   1.595  0.0990 -0.3003  0.4914
 1806TIP3    H1 5382   0.770   6.516   1.657 -1.1961  1.1449  0.3337
 1806TIP3    H2 5383   0.913   6.564   1.640 -0.9744  1.3636  2.4898
 1807TIP3   OH2 5384   5.759   2.755   4.988 -0.3058  0.2180 -0.3868
 1807TIP3    H1 5385   5.814   2.703   5.046 -1.4037 -0.6344 -0.0665
 1807TIP3    H2 5386   5.725   2.826   5.042 -0.0919  0.3286 -0.3979
 1808TIP3   OH2 5387   7.082   0.387   2.911  0.0062  0.4133  0.1260
 1808TIP3    H1 5388   7.005   0.426   2.953  0.1381 -0.4014  1.1762
 1808TIP3    H2 5389   7.107   0.450   2.843 -1.1362  1.0450  0.2594
 1809TIP3   OH2 5390   2.467   6.666   0.191 -0.0209 -0.4109  0.1674
 1809TIP3    H1 5391   2.415   6.588   0.172  1.6505 -1.0441 -2.2558
 1809TIP3    H2 5392   2.477   6.666   0.286 -2.0783 -1.7557  0.4615
 1810TIP3   OH2 5393   3.223   4.347   5.688 -0.4106  0.1010  0.3157
 1810TIP3    H1 5394   3.249   4.261   5.720 -1.0992 -0.0691  0.4295
 1810TIP3    H2 5395   3.282   4.364   5.614  0.3226 -0.0668  0.8482
 1811TIP3   OH2 5396   0.071   3.775   0.418  0.1172  0.0988  0.3138
 1811TIP3    H1 5397   0.132   3.701   0.416 -1.2215 -1.0632  0.9502
 1811TIP3    H2 5398   0.050   3.792   0.326 -0.8317 -1.4056  0.2374
 1812TIP3   OH2 5399   4.343   4.309   3.036  0.1395  0.6840 -0.0892
 1812TIP3    H1 5400   4.399   4.262   2.974  0.3150 -1.4959  1.5686
 1812TIP3    H2 5401   4.371   4.276   3.122 -2.3424  1.0152  0.9260
 1813TIP3   OH2 5402   0.428   5.048   1.958 -0.0144  0.6273  0.2533
 1813TIP3    H1 5403   0.394   4.985   1.894 -0.5906 -0.9899  2.0484
 1813TIP3    H2 5404   0.392   5.132   1.931  0.6833  0.2265 -2.1637
 1814TIP3   OH2 5405   1.675   0.476   1.138 -0.4755 -0.1858  0.4024
 1814TIP3    H1 5406   1.641   0.549   1.191  1.8551  1.4251 -0.1848
 1814TIP3    H2 5407   1.721   0.421   1.201 -0.2258  0.1406  0.5119
 1815TIP3   OH2 5408   1.113   4.446   3.513 -0.4821  0.3821  0.2821
 1815TIP3    H1 5409   1.087   4.507   3.582 -0.2784 -0.7236  1.3608
 1815TIP3    H2 5410   1.166   4.500   3.453 -2.1293  1.7759 -0.0019
 1816TIP3   OH2 5411   2.517   4.150   4.232  0.1066 -0.3151 -0.6742
 1816TIP3    H1 5412   2.611   4.168   4.226  0.5969 -2.8575 -2.0107
 1816TIP3    H2 5413   2.501   4.137   4.325  1.0956 -0.0471 -0.4468
 1817TIP3   OH2 5414   0.655   5.054   0.493  0.4104 -0.3669  0.1607
 1817TIP3    H1 5415   0.651   4.972   0.542  0.8990 -0.8770 -0.6277
 1817TIP3    H2 5416   0.719   5.107   0.539 -0.7219  0.0354  1.3330
 1818TIP3   OH2 5417   2.618   5.605   3.839 -0.3987 -0.5475 -0.2659
 1818TIP3    H1 5418   2.553   5.566   3.898 -0.3021  0.0975  0.2799
 1818TIP3    H2 5419   2.566   5.638   3.765 -0.4146 -2.3041 -1.0990
 1819TIP3   OH2 5420   0.037   6.019   3.901 -0.2275 -0.6310 -0.2544
 1819TIP3    H1 5421   0.065   5.998   3.812 -1.1547 -2.0077 -0.2543
 1819TIP3    H2 5422  -0.037   6.078   3.890  0.3108  0.0457 -0.3467
 1820TIP3   OH2 5423   6.312   2.362   0.124  0.6587 -0.3626  0.4459
 1820TIP3    H1 5424   6.379   2.386   0.188  2.3874  0.8758 -1.6871
 1820TIP3    H2 5425   6.263   2.443   0.110  0.8870 -0.3643 -0.4246
 1821TIP3   OH2 5426   3.219   2.994   2.927  0.3920  0.4879 -0.2859
 1821TIP3    H1 5427   3.220   2.906   2.965 -0.5068  0.6134  0.0463
 1821TIP3    H2 5428   3.253   2.983   2.839 -0.4376 -0.3217 -0.5128
 1822TIP3   OH2 5429   2.287   0.067   3.779 -0.0498 -0.1640 -0.3759
 1822TIP3    H1 5430   2.254   0.146   3.738  0.2530  0.2328  0.1381
 1822TIP3    H2 5431   2.369   0.048   3.733 -0.3514 -0.4383 -0.8039
 1823TIP3   OH2 5432   0.571   0.324   3.507 -0.3317  0.2454  0.3194
 1823TIP3    H1 5433   0.530   0.350   3.590  0.0784  1.6312  0.1184
 1823TIP3    H2 5434   0.663   0.346   3.518 -0.4040  1.2057 -0.7601
 1824TIP3   OH2 5435   0.802   4.770   2.680 -0.5982 -0.5505  0.2656
 1824TIP3    H1 5436   0.818   4.693   2.625 -0.5550 -0.6765  0.4520
 1824TIP3    H2 5437   0.834   4.744   2.766 -2.2766 -1.0085  0.7879
 1825TIP3   OH2 5438   3.612   6.637   5.288 -0.5507 -0.0299 -0.1245
 1825TIP3    H1 5439   3.591   6.651   5.381 -0.4136 -0.4733 -0.0220
 1825TIP3    H2 5440   3.649   6.720   5.259  1.2137 -0.4753  0.7368
 1826TIP3   OH2 5441   4.089   2.456   3.827  0.0624 -0.5084  0.4609
 1826TIP3    H1 5442   4.036   2.397   3.772  1.7258 -1.4795 -0.1818
 1826TIP3    H2 5443   4.106   2.405   3.906  0.4054 -0.3952  0.4618
 1827TIP3   OH2 5444   3.290   1.374   4.050  0.0802  0.1242 -0.2353
 1827TIP3    H1 5445   3.275   1.321   3.973  3.4439 -1.5442  0.0569
 1827TIP3    H2 5446   3.235   1.335   4.118 -0.0700 -0.8015 -0.8762
 1828TIP3   OH2 5447   6.595   4.314   4.229 -0.5163 -0.1867  0.1332
 1828TIP3    H1 5448   6.500   4.304   4.239 -0.6064  0.8462  0.4588
 1828TIP3    H2 5449   6.630   4.226   4.243 -1.3588 -0.4277  0.8038
 1829TIP3   OH2 5450   6.484   0.077   5.443  0.3816 -0.0817 -0.2409
 1829TIP3    H1 5451   6.411   0.041   5.493  0.7661  1.1998  1.3352
 1829TIP3    H2 5452   6.494   0.018   5.368 -2.3510 -0.1975 -0.6004
 1830TIP3   OH2 5453   2.378   1.679   2.352  0.1204  0.1740  0.4447
 1830TIP3    H1 5454   2.399   1.599   2.304 -0.3599 -0.4496  1.2560
 1830TIP3    H2 5455   2.463   1.721   2.367  0.2565  0.5685 -1.2376
 1831TIP3   OH2 5456   6.753   5.464   2.201  0.1578  0.0907 -0.1115
 1831TIP3    H1 5457   6.685   5.481   2.135  0.0767 -0.5608 -0.1989
 1831TIP3    H2 5458   6.740   5.533   2.267 -0.3484  0.1893 -0.3112
 1832TIP3   OH2 5459   0.418   6.231   0.188  0.3367  0.0099  0.1522
 1832TIP3    H1 5460   0.459   6.168   0.129 -0.4216  0.2347 -0.6402
 1832TIP3    H2 5461   0.407   6.184   0.270  0.3922 -0.6790 -0.2240
 1833TIP3   OH2 5462   4.265   5.197   2.758  0.1783  0.1311 -0.3500
 1833TIP3    H1 5463   4.235   5.163   2.842  0.3884  1.1788  0.1624
 1833TIP3    H2 5464   4.197   5.170   2.696  1.4398 -3.2962 -0.4826
 1834TIP3   OH2 5465   5.331   0.192   4.464  0.5679 -0.5270 -0.3939
 1834TIP3    H1 5466   5.245   0.176   4.502  1.1212 -2.2268  0.2621
 1834TIP3    H2 5467   5.363   0.270   4.509 -0.3204 -0.3190 -0.1017
 1835TIP3   OH2 5468   1.433   1.896   1.062  0.5201 -0.3525  0.7399
 1835TIP3    H1 5469   1.509   1.861   1.108  0.5419 -0.4912  0.5984
 1835TIP3    H2 5470   1.469   1.955   0.996  0.5062 -0.4272  0.6651
 1836TIP3   OH2 5471   1.935   3.600   4.196  0.8364  0.1634 -0.1076
 1836TIP3    H1 5472   1.903   3.679   4.240  3.3664  0.5698  1.2174
 1836TIP3    H2 5473   1.952   3.538   4.267  0.8443 -0.8253 -0.9452
 1837TIP3   OH2 5474   2.971   0.083   5.037 -0.0895  0.2304 -0.7101
 1837TIP3    H1 5475   3.004   0.050   5.120 -0.9127 -0.1706 -0.5331
 1837TIP3    H2 5476   3.008   0.024   4.971 -0.0243  0.1096 -0.5645
 1838TIP3   OH2 5477   6.916   5.503   5.007 -0.0118  0.2332 -0.3130
 1838TIP3    H1 5478   6.851   5.532   4.943  0.4335  1.4961 -0.2121
 1838TIP3    H2 5479   6.999   5.508   4.960  0.1174 -0.6633 -0.2082
 1839TIP3   OH2 5480   5.689   2.550   2.867  0.1136 -0.2914  0.1101
 1839TIP3    H1 5481   5.672   2.566   2.960 -2.0549 -2.7496  0.2484
 1839TIP3    H2 5482   5.604   2.526   2.831  0.7883  1.1961 -2.7120
 1840TIP3   OH2 5483   2.333   5.386   2.747 -0.1863  0.0767  0.6698
 1840TIP3    H1 5484   2.251   5.337   2.751 -0.0799 -0.3665 -1.5851
 1840TIP3    H2 5485   2.399   5.323   2.775 -0.2900 -0.5035 -0.3298
 1841TIP3   OH2 5486   4.851   4.239   2.763 -0.3005  0.5110  0.1103
 1841TIP3    H1 5487   4.890   4.238   2.851  2.7212  0.5017 -1.0902
 1841TIP3    H2 5488   4.922   4.211   2.706 -1.9882  1.1160 -2.4352
 1842TIP3   OH2 5489   3.325   4.630   2.213 -0.5778  0.1570  0.0502
 1842TIP3    H1 5490   3.359   4.680   2.288 -1.0686  1.3006 -0.4648
 1842TIP3    H2 5491   3.231   4.627   2.227 -0.7237  0.7485 -0.7147
 1843TIP3   OH2 5492   4.976   5.118   1.412  0.2828 -0.7504  0.0012
 1843TIP3    H1 5493   5.010   5.115   1.502  0.9577 -1.7407 -0.2656
 1843TIP3    H2 5494   4.919   5.042   1.405 -1.4954  0.5205  0.2226
 1844TIP3   OH2 5495   4.232   0.739   2.217 -0.5295  0.2538 -0.4964
 1844TIP3    H1 5496   4.181   0.660   2.197  0.4489 -0.3667 -0.6244
 1844TIP3    H2 5497   4.226   0.747   2.312  2.0765 -1.9573 -0.0096
 1845TIP3   OH2 5498   2.009   1.936   1.533  0.1743 -0.2112  0.2025
 1845TIP3    H1 5499   1.957   1.897   1.463 -0.2877 -0.2366  0.5511
 1845TIP3    H2 5500   2.002   2.030   1.519 -1.4171 -0.1332  1.2384
 1846TIP3   OH2 5501   2.828   2.791   2.210  0.1098 -0.6540 -0.0462
 1846TIP3    H1 5502   2.841   2.782   2.305 -0.6153  0.7182  0.2058
 1846TIP3    H2 5503   2.828   2.885   2.194 -1.7058 -0.7954 -1.1220
 1847TIP3   OH2 5504   6.640   4.751   2.558  0.0076  0.4013 -0.0041
 1847TIP3    H1 5505   6.566   4.691   2.567  0.1711  0.4782  2.2514
 1847TIP3    H2 5506   6.603   4.837   2.577  0.3993  0.6291 -0.2646
 1848TIP3   OH2 5507   7.012   3.321   0.534  0.3710  0.4161  0.5422
 1848TIP3    H1 5508   7.107   3.325   0.526  0.2528 -0.1124 -2.2455
 1848TIP3    H2 5509   6.982   3.400   0.487 -0.5767  0.5695  1.3865
 1849TIP3   OH2 5510   1.533   0.599   1.908  0.3397  0.0366 -0.4682
 1849TIP3    H1 5511   1.463   0.662   1.891 -0.4216 -0.3850  0.9552
 1849TIP3    H2 5512   1.553   0.610   2.001  1.0496 -0.9781 -0.4823
 1850TIP3   OH2 5513   4.069   5.878   3.508  0.4630  0.2303  0.4493
 1850TIP3    H1 5514   4.034   5.953   3.459  1.0566  0.5260  0.4718
 1850TIP3    H2 5515   4.000   5.856   3.570 -0.0826  0.1936 -0.1516
 1851TIP3   OH2 5516   6.070   1.250   2.245 -0.2011  0.6731 -0.0074
 1851TIP3    H1 5517   6.033   1.203   2.320  1.7489  0.3445  0.8104
 1851TIP3    H2 5518   6.017   1.329   2.236 -0.7585  0.4707  1.4307
 1852TIP3   OH2 5519   2.135   5.599   4.430  0.4760 -0.2762 -0.0575
 1852TIP3    H1 5520   2.053   5.640   4.402  0.7539  0.9751  0.8544
 1852TIP3    H2 5521   2.122   5.506   4.413 -1.4426 -0.2135  0.7372
 1853TIP3   OH2 5522   1.961   1.739   1.028 -0.1079  0.2572  0.0546
 1853TIP3    H1 5523   2.039   1.686   1.010 -0.5900 -0.9160  1.2335
 1853TIP3    H2 5524   1.966   1.812   0.966  0.9021 -0.8473 -1.2184
 1854TIP3   OH2 5525   4.012   1.007   5.088  0.0325  0.0835  0.3245
 1854TIP3    H1 5526   4.051   0.990   5.174  0.2630  0.9322  0.3928
 1854TIP3    H2 5527   4.049   0.939   5.032  1.0451  0.4074  0.5633
 1855TIP3   OH2 5528   6.101   4.778   0.546  0.0900 -0.5026 -0.0576
 1855TIP3    H1 5529   6.008   4.792   0.563  0.1427  0.8225 -0.7553
 1855TIP3    H2 5530   6.126   4.707   0.605 -1.2765 -0.6340  0.3889
 1856TIP3   OH2 5531   6.724   2.135   0.375 -0.0417 -0.2587 -0.2905
 1856TIP3    H1 5532   6.670   2.175   0.443  1.5650  1.0558  0.2869
 1856TIP3    H2 5533   6.795   2.092   0.424 -1.3082 -3.3838 -0.9100
 1857TIP3   OH2 5534   6.606   4.139   4.580 -0.0749 -0.4732  0.2448
 1857TIP3    H1 5535   6.658   4.219   4.568  0.8617 -1.3145 -1.9374
 1857TIP3    H2 5536   6.516   4.167   4.563  0.3164  0.0308 -1.1531
 1858TIP3   OH2 5537   4.545   4.561   2.619  0.2245  0.1516  0.1340
 1858TIP3    H1 5538   4.511   4.526   2.701 -0.5469 -0.5765 -0.4838
 1858TIP3    H2 5539   4.506   4.648   2.613 -0.7708 -0.2963 -0.0835
 1859TIP3   OH2 5540   2.019   1.347   1.790  0.0341  0.2211  0.1535
 1859TIP3    H1 5541   2.060   1.268   1.755  0.8826  0.0119  1.5393
 1859TIP3    H2 5542   2.055   1.419   1.739 -0.6238 -0.2531 -1.0141
 1860TIP3   OH2 5543   2.154   6.747   5.030 -0.2858 -0.0016 -0.0680
 1860TIP3    H1 5544   2.066   6.712   5.012 -0.1547 -0.4741  0.1987
 1860TIP3    H2 5545   2.190   6.688   5.096  0.0439  0.4861  0.1927
 1861TIP3   OH2 5546   2.916   4.973   3.535  0.2364  0.2296 -0.1109
 1861TIP3    H1 5547   2.859   4.904   3.501  1.0735 -1.0145  0.9107
 1861TIP3    H2 5548   2.882   4.992   3.622 -0.9818  2.3302 -0.9781
 1862TIP3   OH2 5549   2.594   0.776   1.076  0.5862 -0.3232  0.2604
 1862TIP3    H1 5550   2.594   0.867   1.047  1.0381 -0.4872 -0.2606
 1862TIP3    H2 5551   2.670   0.770   1.135 -0.9616  0.2974  2.4587
 1863TIP3   OH2 5552   1.386   4.181   1.277 -0.2258 -0.7298  0.0236
 1863TIP3    H1 5553   1.396   4.124   1.201 -0.5734  0.6782 -1.1329
 1863TIP3    H2 5554   1.311   4.237   1.255  0.0758  0.1402  1.1119
 1864TIP3   OH2 5555   3.725   1.964   4.011 -0.0283  0.7424  0.5381
 1864TIP3    H1 5556   3.810   2.008   4.011  0.4656 -0.1567  1.5222
 1864TIP3    H2 5557   3.744   1.873   3.989 -0.9677  0.8693 -0.9434
 1865TIP3   OH2 5558   6.320   5.930   4.812 -0.4577 -0.5157  0.9360
 1865TIP3    H1 5559   6.293   5.841   4.789  1.7826 -1.0045 -0.0120
 1865TIP3    H2 5560   6.394   5.919   4.871  2.1563  0.5605 -1.8658
 1866TIP3   OH2 5561   7.037   4.588   5.516 -0.2074  0.1615  0.2311
 1866TIP3    H1 5562   7.060   4.678   5.490  1.4198 -0.2240  0.2220
 1866TIP3    H2 5563   6.969   4.562   5.454  1.1075  0.5178 -1.4540
 1867TIP3   OH2 5564   6.625   0.625   5.253 -0.4296 -0.5584  0.4710
 1867TIP3    H1 5565   6.567   0.691   5.292  0.8081  0.1037  1.2449
 1867TIP3    H2 5566   6.571   0.582   5.187 -0.7090  2.6435 -1.6085
 1868TIP3   OH2 5567   5.313   0.336   3.846 -0.0385 -0.3263 -0.2051
 1868TIP3    H1 5568   5.261   0.255   3.842  1.3470 -1.2954  0.4601
 1868TIP3    H2 5569   5.380   0.318   3.913  0.8938  1.0198 -0.7387
 1869TIP3   OH2 5570   5.368   2.608   5.632  0.0180 -0.6498  0.1879
 1869TIP3    H1 5571   5.423   2.609   5.554 -0.3922  0.2721 -0.1136
 1869TIP3    H2 5572   5.419   2.657   5.697 -0.5486  0.4956 -0.1928
 1870TIP3   OH2 5573   4.694   0.742   3.134  0.2654  0.1942 -0.4319
 1870TIP3    H1 5574   4.782   0.716   3.106  0.3846 -1.1133  0.9820
 1870TIP3    H2 5575   4.656   0.662   3.171 -1.9770  0.4369 -2.0152
 1871TIP3   OH2 5576   2.465   3.134   0.867 -0.2603  0.5476 -0.1118
 1871TIP3    H1 5577   2.428   3.210   0.822  1.3243  1.8176  0.6431
 1871TIP3    H2 5578   2.543   3.112   0.816 -0.8359 -0.7620 -0.4667
 1872TIP3   OH2 5579   3.558   3.859   2.265  0.1441  0.3032  0.3840
 1872TIP3    H1 5580   3.604   3.775   2.265  1.1525  0.8065 -1.1339
 1872TIP3    H2 5581   3.476   3.842   2.312  0.6137 -1.3494  0.6611
 1873TIP3   OH2 5582   2.667   2.594   0.527 -0.5119 -0.4300  0.0375
 1873TIP3    H1 5583   2.639   2.568   0.440  2.9988 -1.4935 -0.9266
 1873TIP3    H2 5584   2.646   2.687   0.533 -3.3940 -0.9487 -0.7273
 1874TIP3   OH2 5585   3.704   4.020   5.055 -0.3766 -0.0376 -0.2418
 1874TIP3    H1 5586   3.672   4.064   5.133  0.7814  1.1299 -0.3803
 1874TIP3    H2 5587   3.626   3.978   5.017 -1.0941  0.0345  1.0957
 1875TIP3   OH2 5588   0.539   6.343   1.337 -0.9712  0.0194  0.2579
 1875TIP3    H1 5589   0.608   6.409   1.338 -1.0908  0.2561 -2.1122
 1875TIP3    H2 5590   0.582   6.262   1.312 -1.6163  0.3535 -2.1510
 1876TIP3   OH2 5591   4.033   2.850   3.316  0.5876  0.3778 -0.5109
 1876TIP3    H1 5592   3.989   2.772   3.350  1.7082  0.4020  1.1199
 1876TIP3    H2 5593   4.036   2.911   3.390  1.1721  1.3407 -1.2846
 1877TIP3   OH2 5594   1.645   4.923   4.917 -0.3290  0.5189  0.0723
 1877TIP3    H1 5595   1.578   4.867   4.957  0.3740  0.4639  1.2091
 1877TIP3    H2 5596   1.613   5.012   4.932 -0.2450  0.4879  0.4386
 1878TIP3   OH2 5597   0.510   3.615   1.855  0.1103  0.8032 -0.0144
 1878TIP3    H1 5598   0.428   3.567   1.842 -0.0788  1.3446 -0.9008
 1878TIP3    H2 5599   0.516   3.672   1.778 -0.1055  2.8186  1.3978
 1879TIP3   OH2 5600   6.282   2.760   5.679 -0.0554  0.0399  0.3078
 1879TIP3    H1 5601   6.236   2.699   5.737 -1.6195  0.8635 -0.0076
 1879TIP3    H2 5602   6.272   2.846   5.721  2.3228  0.1155  0.8776
 1880TIP3   OH2 5603   4.286   0.650   5.555  0.1683 -0.7689 -0.5119
 1880TIP3    H1 5604   4.198   0.620   5.533 -0.7490  2.1037 -1.2772
 1880TIP3    H2 5605   4.288   0.649   5.650 -0.6247 -1.1011 -0.4871
 1881TIP3   OH2 5606   0.943   5.674   4.071 -0.1441 -0.0816  0.1102
 1881TIP3    H1 5607   0.934   5.593   4.121 -1.6686 -1.1125 -1.6855
 1881TIP3    H2 5608   1.000   5.652   3.998  0.8133  0.9620  0.5179
 1882TIP3   OH2 5609   1.107   0.722   1.659  0.1055 -0.0180  0.0262
 1882TIP3    H1 5610   1.162   0.798   1.640  1.1449 -0.8888 -0.5606
 1882TIP3    H2 5611   1.086   0.731   1.751  0.3974  0.8665  0.0234
 1883TIP3   OH2 5612   4.639   2.520   4.536 -0.5336  0.0573  0.5041
 1883TIP3    H1 5613   4.576   2.501   4.606 -0.4908  1.4732  0.9470
 1883TIP3    H2 5614   4.591   2.500   4.456 -1.1854  0.0897  0.8754
 1884TIP3   OH2 5615   3.971   5.414   4.049 -0.1709  0.0812 -0.2175
 1884TIP3    H1 5616   4.042   5.414   4.113  0.0265  2.8827 -0.2916
 1884TIP3    H2 5617   4.014   5.422   3.964 -0.5234  0.6560 -0.3499
 1885TIP3   OH2 5618   1.147   3.264   4.975  0.8267 -0.4852  0.2514
 1885TIP3    H1 5619   1.056   3.259   4.944  0.5344 -0.9233  1.1483
 1885TIP3    H2 5620   1.181   3.175   4.966  1.3260 -0.2231 -0.5241
 1886TIP3   OH2 5621   4.046   4.874   1.845  0.8294  0.4966  0.3876
 1886TIP3    H1 5622   4.014   4.895   1.757 -0.2800 -0.9295  0.4135
 1886TIP3    H2 5623   4.139   4.857   1.833  0.7353  0.5567 -0.4647
 1887TIP3   OH2 5624   5.218   2.902   3.169 -0.0343 -0.3745 -0.2801
 1887TIP3    H1 5625   5.266   2.984   3.165  2.3727 -1.4304  2.9144
 1887TIP3    H2 5626   5.273   2.839   3.123 -0.0253 -0.9132  0.4422
 1888TIP3   OH2 5627   5.590   5.578   0.722  0.3758  0.3675 -0.0625
 1888TIP3    H1 5628   5.626   5.594   0.809 -1.0018 -0.0265  0.6105
 1888TIP3    H2 5629   5.586   5.483   0.714  0.1528  0.4018 -0.4043
 1889TIP3   OH2 5630   1.456   4.018   4.015 -0.3036 -0.6032  0.1970
 1889TIP3    H1 5631   1.451   4.016   4.111 -2.1087  0.3151  0.1712
 1889TIP3    H2 5632   1.525   4.081   3.996 -1.2952  0.7490  0.9285
 1890TIP3   OH2 5633   3.318   4.084   0.063  0.3922 -0.9328 -0.0009
 1890TIP3    H1 5634   3.357   4.132  -0.009 -1.5315  1.3384  0.3370
 1890TIP3    H2 5635   3.333   4.140   0.140 -1.7551 -0.8998  0.4519
 1891TIP3   OH2 5636   0.871   4.651   4.678  0.8118 -0.2512 -0.0213
 1891TIP3    H1 5637   0.811   4.591   4.633  0.8239 -0.7799  0.6644
 1891TIP3    H2 5638   0.886   4.720   4.614 -3.5697  2.0110  0.9438
 1892TIP3   OH2 5639   4.368   4.793   0.293 -0.6772 -0.1377  0.2241
 1892TIP3    H1 5640   4.325   4.735   0.230 -0.4275 -1.6129  1.3484
 1892TIP3    H2 5641   4.449   4.747   0.316  0.0628  1.1882  0.3521
 1893TIP3   OH2 5642   2.303   1.549   5.283  0.4242 -0.4303  0.7676
 1893TIP3    H1 5643   2.352   1.610   5.229  0.9021 -0.2038  1.4525
 1893TIP3    H2 5644   2.217   1.590   5.295 -0.1600 -1.0768 -0.8853
 1894TIP3   OH2 5645   4.923   4.501   2.018 -0.1636 -0.0280  0.0063
 1894TIP3    H1 5646   4.989   4.570   2.027  0.4805 -0.4928 -1.1134
 1894TIP3    H2 5647   4.957   4.428   2.069 -0.9101  0.4937  1.3054
 1895TIP3   OH2 5648   0.292   5.969   1.085  0.1539 -0.2578  0.2127
 1895TIP3    H1 5649   0.348   5.906   1.130  0.9544 -0.6888 -1.3015
 1895TIP3    H2 5650   0.354   6.025   1.038 -0.6436 -1.0168 -1.8614
 1896TIP3   OH2 5651   4.745   1.405   2.620  0.1886 -0.4098 -0.1265
 1896TIP3    H1 5652   4.762   1.343   2.691  1.7475  0.0312 -0.0735
 1896TIP3    H2 5653   4.759   1.354   2.540 -0.4388 -0.6109 -0.1128
 1897TIP3   OH2 5654   0.462   5.289   3.478  0.5010  0.4726 -0.3072
 1897TIP3    H1 5655   0.533   5.249   3.529 -0.1611 -0.4949 -0.1102
 1897TIP3    H2 5656   0.387   5.232   3.493 -0.7549  2.3110  0.6795
 1898TIP3   OH2 5657   3.130   1.718   4.531  0.4339  0.2943  0.4009
 1898TIP3    H1 5658   3.182   1.745   4.607  0.7836 -1.9647  1.0607
 1898TIP3    H2 5659   3.194   1.708   4.461 -0.0986  4.0306 -0.8173
 1899TIP3   OH2 5660   4.156   0.455   3.358  0.6048 -0.5185 -0.6357
 1899TIP3    H1 5661   4.196   0.442   3.443  0.4309  0.2049 -0.4347
 1899TIP3    H2 5662   4.084   0.517   3.374  0.1694 -0.8652 -1.1917
 1900TIP3   OH2 5663   6.624   2.041   3.302  0.0125  0.4168 -0.1625
 1900TIP3    H1 5664   6.530   2.050   3.286  0.1550  4.1974  0.0627
 1900TIP3    H2 5665   6.663   2.041   3.214 -0.1585 -1.8194 -0.2808
 1901TIP3   OH2 5666   6.951   4.124   5.481 -0.0623 -0.1188 -0.6539
 1901TIP3    H1 5667   6.908   4.151   5.399  0.0049  1.5255 -0.1931
 1901TIP3    H2 5668   6.882   4.080   5.531 -1.1460  2.0093 -0.1533
 1902TIP3   OH2 5669   0.814   4.680   4.227 -0.2299  0.3165  0.2468
 1902TIP3    H1 5670   0.865   4.759   4.208  0.0166  0.7272  2.4488
 1902TIP3    H2 5671   0.863   4.609   4.186  1.1861  0.9333  0.8180
 1903TIP3   OH2 5672   0.118   4.670   5.813  0.1724  0.8543 -0.1206
 1903TIP3    H1 5673   0.042   4.690   5.758 -2.6160 -1.4181  2.5225
 1903TIP3    H2 5674   0.180   4.628   5.754 -1.4726  0.9698 -2.0494
 1904TIP3   OH2 5675   2.021   6.365   2.686 -0.1129  0.1421  0.0932
 1904TIP3    H1 5676   2.077   6.404   2.753  0.4099  1.4848 -1.0881
 1904TIP3    H2 5677   1.932   6.389   2.714  0.1612  1.6644 -0.2569
 1905TIP3   OH2 5678   6.764   1.262   0.786  0.2375 -0.1955  0.2540
 1905TIP3    H1 5679   6.827   1.332   0.803  0.6004 -0.3577 -0.4051
 1905TIP3    H2 5680   6.756   1.216   0.870  0.2180  0.4513  0.6106
 1906TIP3   OH2 5681   6.781   3.013   1.742 -0.8506  0.1185  0.2021
 1906TIP3    H1 5682   6.784   2.927   1.784 -0.6619 -0.4673 -0.9404
 1906TIP3    H2 5683   6.751   3.073   1.810 -0.9828 -0.8549  1.0227
 1907TIP3   OH2 5684   1.736   6.072   3.829 -0.7989  0.2725 -0.0038
 1907TIP3    H1 5685   1.741   5.983   3.864  2.4546  1.0253  1.8718
 1907TIP3    H2 5686   1.733   6.060   3.734 -2.6658 -1.7921  0.2291
 1908TIP3   OH2 5687   5.558   2.237   4.144 -0.2134 -0.2992 -0.3732
 1908TIP3    H1 5688   5.473   2.274   4.122 -0.1362 -0.3149 -0.7105
 1908TIP3    H2 5689   5.543   2.184   4.221 -0.7290 -1.1860 -1.0663
 1909TIP3   OH2 5690   1.734   5.098   1.922  0.2514 -0.2821  0.1181
 1909TIP3    H1 5691   1.785   5.109   2.002 -0.6604  0.1408  0.6563
 1909TIP3    H2 5692   1.733   5.004   1.907  0.8147 -0.3276  0.3421
 1910TIP3   OH2 5693   0.317   0.712   5.631 -0.0330  0.4778  0.3185
 1910TIP3    H1 5694   0.324   0.690   5.724  0.6524  0.8849  0.3649
 1910TIP3    H2 5695   0.376   0.651   5.588 -0.6070  0.0609  0.1059
 1911TIP3   OH2 5696   3.204   0.389   2.086  0.0404  0.1599 -0.1134
 1911TIP3    H1 5697   3.228   0.300   2.111 -1.2885 -0.2294 -0.1750
 1911TIP3    H2 5698   3.130   0.379   2.026  0.6145  1.2591 -1.0651
 1912TIP3   OH2 5699   1.789   4.699   0.815 -0.1119 -0.1160 -0.2843
 1912TIP3    H1 5700   1.731   4.765   0.853  1.0051  1.2023 -0.7838
 1912TIP3    H2 5701   1.826   4.653   0.890 -1.1815 -0.4487  0.0553
 1913TIP3   OH2 5702   5.453   3.933   0.436  0.5155 -0.1704 -0.0003
 1913TIP3    H1 5703   5.495   3.944   0.350  0.5775 -0.7309 -0.0474
 1913TIP3    H2 5704   5.495   3.855   0.473  0.8047  0.3281  0.7308
 1914TIP3   OH2 5705   4.079   2.140   0.139  0.8481 -0.0489  0.2773
 1914TIP3    H1 5706   4.132   2.217   0.123  1.1648 -0.3020  0.1023
 1914TIP3    H2 5707   4.077   2.131   0.234  2.2641 -0.8230  0.2640
 1915TIP3   OH2 5708   5.025   6.097   2.138  0.2012  0.7714  0.0009
 1915TIP3    H1 5709   4.940   6.136   2.158 -0.4981 -0.3904 -0.5630
 1915TIP3    H2 5710   5.029   6.019   2.193  1.3424  1.3261  0.7361
 1916TIP3   OH2 5711   1.355   1.766   1.398 -0.9954  0.3182 -0.4992
 1916TIP3    H1 5712   1.417   1.695   1.381  0.5974  1.1858  1.2501
 1916TIP3    H2 5713   1.269   1.724   1.397 -0.1852 -1.4310 -0.5029
 1917TIP3   OH2 5714   6.584   0.993   3.307  0.2867 -0.0449  0.0203
 1917TIP3    H1 5715   6.528   0.937   3.361 -2.0831  2.0532 -0.0824
 1917TIP3    H2 5716   6.672   0.959   3.322 -0.9098 -3.4077  0.3598
 1918TIP3   OH2 5717   3.630   4.319   1.182  0.2487  0.1562 -0.2567
 1918TIP3    H1 5718   3.591   4.237   1.213  1.9298  0.0925  1.9804
 1918TIP3    H2 5719   3.603   4.384   1.246  2.0718  0.4993  0.2181
 1919TIP3   OH2 5720   0.810   6.463   0.122 -0.2952  0.1269 -0.4444
 1919TIP3    H1 5721   0.798   6.558   0.116  0.2498  0.2113 -0.2878
 1919TIP3    H2 5722   0.797   6.432   0.032  0.7647  0.5087 -0.7455
 1920TIP3   OH2 5723   2.948   6.460   0.997  0.0791 -0.3133  0.2665
 1920TIP3    H1 5724   2.901   6.537   1.031 -1.0348  0.2190 -2.2425
 1920TIP3    H2 5725   3.033   6.495   0.968  1.3044 -0.8904  2.9045
 1921TIP3   OH2 5726   1.709   5.729   5.439  0.1722  0.5049 -0.6731
 1921TIP3    H1 5727   1.638   5.783   5.477  0.0285 -1.2429  1.8129
 1921TIP3    H2 5728   1.785   5.749   5.494  1.1558  0.9887 -2.1697
 1922TIP3   OH2 5729   5.921   4.809   4.376 -0.3447 -0.4753 -0.4671
 1922TIP3    H1 5730   6.001   4.835   4.331  0.3695 -1.2078  0.3190
 1922TIP3    H2 5731   5.867   4.888   4.378  0.6232  0.2053 -0.4856
 1923TIP3   OH2 5732   0.396   3.413   3.398 -0.0514  0.0305  0.2756
 1923TIP3    H1 5733   0.434   3.350   3.459  0.9854 -0.2941 -0.6601
 1923TIP3    H2 5734   0.453   3.490   3.404 -1.3818  0.9661  1.5075
 1924TIP3   OH2 5735   6.929   5.624   5.879 -0.1703  0.4450  0.3667
 1924TIP3    H1 5736   7.014   5.585   5.860 -0.5094 -0.3053  0.3646
 1924TIP3    H2 5737   6.934   5.711   5.840  1.6060  1.5228  2.7250
 1925TIP3   OH2 5738   5.409   2.480   4.674  0.2817  0.2445 -0.2143
 1925TIP3    H1 5739   5.474   2.546   4.650 -1.2235  3.3229  3.1772
 1925TIP3    H2 5740   5.445   2.439   4.753 -0.8518  0.3321  0.3654
 1926TIP3   OH2 5741   2.210   0.202   3.427  0.4755  0.4828  0.8743
 1926TIP3    H1 5742   2.167   0.252   3.358  0.9841  0.5451  0.5962
 1926TIP3    H2 5743   2.153   0.212   3.503 -1.5893 -1.8113 -0.2024
 1927TIP3   OH2 5744   5.729   3.357   2.836 -0.3310 -0.2439 -0.3754
 1927TIP3    H1 5745   5.653   3.302   2.857  1.7652 -2.5889  1.6513
 1927TIP3    H2 5746   5.753   3.330   2.747 -0.2807 -1.4962 -0.0050
 1928TIP3   OH2 5747   2.367   2.776   2.647  0.6209 -0.0128 -0.0922
 1928TIP3    H1 5748   2.345   2.749   2.736  1.1104 -0.1235 -0.0039
 1928TIP3    H2 5749   2.296   2.835   2.622 -1.2560 -2.4118 -0.8168
 1929TIP3   OH2 5750   3.659   4.166   5.292  0.3720 -0.4625 -0.1592
 1929TIP3    H1 5751   3.592   4.217   5.247  1.1479 -0.0509 -0.8678
 1929TIP3    H2 5752   3.707   4.229   5.345  1.4704 -0.3896 -1.2032
 1930TIP3   OH2 5753   0.629   5.351   5.493  0.2155 -0.1932 -0.0594
 1930TIP3    H1 5754   0.710   5.344   5.443 -0.4496 -0.2156 -1.1687
 1930TIP3    H2 5755   0.647   5.417   5.560  1.2924 -0.5542  0.0173
 1931TIP3   OH2 5756   0.607   3.069   5.658  0.0395  0.2444 -0.0142
 1931TIP3    H1 5757   0.581   3.081   5.566  0.2547 -0.6775 -0.2051
 1931TIP3    H2 5758   0.661   3.146   5.678  0.6812  0.0453 -0.9192
 1932TIP3   OH2 5759   4.009   3.007   3.530 -0.0540 -0.4002 -0.2694
 1932TIP3    H1 5760   3.914   3.008   3.524 -0.1340  3.6210 -0.9571
 1932TIP3    H2 5761   4.027   2.999   3.624 -1.2162  0.9586  0.1076
 1933TIP3   OH2 5762   6.144   3.486   3.226 -0.1955  0.2631  0.2510
 1933TIP3    H1 5763   6.174   3.411   3.277  1.8579  1.5431  1.0281
 1933TIP3    H2 5764   6.080   3.529   3.282  0.4746  0.4673  0.8718
 1934TIP3   OH2 5765   4.016   1.475   2.194  0.0917  0.0870 -0.1853
 1934TIP3    H1 5766   4.059   1.418   2.257 -0.3682  1.3426  1.3259
 1934TIP3    H2 5767   3.923   1.452   2.199  0.0419  0.2453 -0.3461
 1935TIP3   OH2 5768   0.534   5.805   1.574 -0.3775 -0.2057  0.1546
 1935TIP3    H1 5769   0.458   5.774   1.524 -1.9411  1.5388  1.3508
 1935TIP3    H2 5770   0.533   5.900   1.564  1.7848 -0.1280  0.0781
 1936TIP3   OH2 5771   2.293   1.226   3.056 -0.2329 -1.0245 -0.1175
 1936TIP3    H1 5772   2.373   1.261   3.016 -0.2170 -2.2994 -1.2767
 1936TIP3    H2 5773   2.281   1.278   3.136  0.9419  0.1552 -0.6704
 1937TIP3   OH2 5774   7.026   6.645   1.027  0.4499 -0.2634  0.1376
 1937TIP3    H1 5775   6.938   6.626   0.996  0.6845 -2.6400  0.7557
 1937TIP3    H2 5776   7.083   6.605   0.961  1.0161 -0.6771  0.8667
 1938TIP3   OH2 5777   5.081   5.555   0.711 -0.3021  0.7235  0.2547
 1938TIP3    H1 5778   5.107   5.620   0.776 -0.2006 -0.7821  1.7955
 1938TIP3    H2 5779   5.153   5.492   0.710 -1.0799 -0.1926 -0.0171
 1939TIP3   OH2 5780   2.922   2.216   5.030 -0.6927  0.0469 -0.6647
 1939TIP3    H1 5781   2.948   2.135   5.073 -0.8988 -0.2272 -1.0519
 1939TIP3    H2 5782   2.903   2.276   5.102  0.8838  0.2266 -0.3731
 1940TIP3   OH2 5783   4.783   1.952   1.859 -0.6201  0.1415  0.0151
 1940TIP3    H1 5784   4.784   1.919   1.949  0.0796  3.5002  1.4046
 1940TIP3    H2 5785   4.875   1.956   1.834 -0.6640  1.0252 -0.0530
 1941TIP3   OH2 5786   0.913   0.774   1.436 -0.2349  0.2306 -0.4046
 1941TIP3    H1 5787   0.854   0.797   1.508 -0.9390  1.4942 -1.3617
 1941TIP3    H2 5788   1.001   0.783   1.474 -0.5575  2.3074 -0.0726
 1942TIP3   OH2 5789   3.991   0.613   3.151  0.5225  0.0859  0.5118
 1942TIP3    H1 5790   3.995   0.542   3.215  0.3348  0.1021  0.5432
 1942TIP3    H2 5791   3.965   0.689   3.202 -0.0384  0.0090  0.3472
 1943TIP3   OH2 5792   4.248   1.064   0.763  0.6681  0.3686  0.0694
 1943TIP3    H1 5793   4.181   1.103   0.819  0.1947  0.5199 -0.5937
 1943TIP3    H2 5794   4.204   0.990   0.721  0.9229  0.4602 -0.3620
 1944TIP3   OH2 5795   0.771   2.091   5.065 -0.2524  0.0808  0.0191
 1944TIP3    H1 5796   0.676   2.091   5.055 -0.1122 -0.2901 -1.4646
 1944TIP3    H2 5797   0.785   2.103   5.159 -1.7995 -2.4498  0.6745
 1945TIP3   OH2 5798   6.780   4.054   3.107  0.2871  0.4283  0.1595
 1945TIP3    H1 5799   6.705   4.112   3.119 -1.8634 -2.0681 -0.1670
 1945TIP3    H2 5800   6.842   4.080   3.174  0.2766  4.1601 -1.0503
 1946TIP3   OH2 5801   3.082   2.560   1.658 -0.0820  0.5450  0.5885
 1946TIP3    H1 5802   3.125   2.557   1.573 -0.6738  0.7486  0.2729
 1946TIP3    H2 5803   3.136   2.505   1.715 -1.5618 -2.6366 -0.8028
 1947TIP3   OH2 5804   0.055   1.965   4.196  0.1776  0.3779 -0.5003
 1947TIP3    H1 5805   0.115   1.901   4.158  1.2155  1.9303 -1.6257
 1947TIP3    H2 5806   0.112   2.025   4.246 -0.8215  0.1368  1.0123
 1948TIP3   OH2 5807   3.487   0.199   4.714 -0.5380  0.6280 -0.0434
 1948TIP3    H1 5808   3.438   0.219   4.635 -2.4467 -3.6817 -0.2455
 1948TIP3    H2 5809   3.561   0.146   4.683 -0.4830  0.1277  0.9137
 1949TIP3   OH2 5810   3.397   0.703   1.243 -0.1798  0.8063 -0.2028
 1949TIP3    H1 5811   3.315   0.654   1.243 -1.0838  2.1555  2.3797
 1949TIP3    H2 5812   3.464   0.638   1.262 -0.4937 -0.3897 -2.7498
 1950TIP3   OH2 5813   0.708   6.459   2.658 -0.3415 -0.4609  0.2880
 1950TIP3    H1 5814   0.742   6.547   2.675 -2.2375  0.0520  1.8806
 1950TIP3    H2 5815   0.624   6.456   2.705 -0.3245 -3.1380  0.3294
 1951TIP3   OH2 5816   5.731   3.073   4.612 -0.1023  0.1545 -0.4101
 1951TIP3    H1 5817   5.657   3.090   4.670 -1.1324 -0.3227 -1.5388
 1951TIP3    H2 5818   5.725   3.141   4.545 -0.4588 -0.7902 -1.3689
 1952TIP3   OH2 5819   4.334   1.101   3.783  0.0951 -0.0180  0.0245
 1952TIP3    H1 5820   4.402   1.072   3.843 -0.2531 -1.4322 -0.2363
 1952TIP3    H2 5821   4.373   1.093   3.696 -0.3128 -0.6319 -0.1099
 1953TIP3   OH2 5822   7.114   3.783   2.290 -0.1473  0.5530 -0.2648
 1953TIP3    H1 5823   7.043   3.810   2.233  0.2080  2.6862  0.2349
 1953TIP3    H2 5824   7.071   3.736   2.362 -1.0461  1.7206 -0.0200
 1954TIP3   OH2 5825   3.098   0.204   4.794 -0.7120  0.6144  0.0557
 1954TIP3    H1 5826   3.157   0.131   4.811 -0.4927  1.1639  1.8736
 1954TIP3    H2 5827   3.021   0.186   4.849 -1.8201  0.4443 -1.4736
 1955TIP3   OH2 5828   0.315   0.489   1.027  0.3171  0.4215  0.2347
 1955TIP3    H1 5829   0.405   0.506   1.051  0.3286 -0.2667  0.7167
 1955TIP3    H2 5830   0.269   0.571   1.045  0.9523  0.9817 -0.6167
 1956TIP3   OH2 5831   0.985   2.583   3.037 -0.0654 -0.1640  0.5560
 1956TIP3    H1 5832   1.052   2.517   3.058 -0.6229 -1.1752 -0.7009
 1956TIP3    H2 5833   1.010   2.616   2.951 -0.7280  0.0421  0.4390
 1957TIP3   OH2 5834   1.252   4.445   3.975  0.5581 -0.2243  0.0899
 1957TIP3    H1 5835   1.217   4.527   4.008  0.6852 -0.2892  0.3912
 1957TIP3    H2 5836   1.179   4.405   3.927 -0.1975 -0.9445  1.7484
 1958TIP3   OH2 5837   6.192   4.724   1.138  0.1212 -0.1537  0.1696
 1958TIP3    H1 5838   6.170   4.814   1.116 -0.4347 -0.5709 -1.1023
 1958TIP3    H2 5839   6.142   4.705   1.217 -2.0789 -0.2092 -1.1285
 1959TIP3   OH2 5840   6.713   5.171  -0.001  0.2016 -0.2191 -0.2866
 1959TIP3    H1 5841   6.773   5.113   0.045 -0.4137  0.9762  2.2253
 1959TIP3    H2 5842   6.634   5.118  -0.014  0.5525 -0.7273 -0.3640
 1960TIP3   OH2 5843   4.175   4.591   4.427  0.2110  0.2807 -0.0806
 1960TIP3    H1 5844   4.146   4.518   4.373  1.0069  1.0007 -1.5444
 1960TIP3    H2 5845   4.219   4.551   4.501 -0.1905 -0.7270 -0.3716
 1961TIP3   OH2 5846   3.008   3.863   0.423  0.4612  0.0235 -0.7657
 1961TIP3    H1 5847   3.079   3.927   0.419  0.4510  0.0476 -0.5292
 1961TIP3    H2 5848   3.044   3.784   0.383  0.5543  0.0991 -0.8307
 1962TIP3   OH2 5849   0.727   6.401   3.482 -0.6492  0.1601 -0.8634
 1962TIP3    H1 5850   0.641   6.388   3.523  0.4633 -0.5193  1.4299
 1962TIP3    H2 5851   0.777   6.323   3.507  0.7034  0.6279 -2.0114
 1963TIP3   OH2 5852   4.418   0.327   1.973 -0.1538 -0.9920 -0.0090
 1963TIP3    H1 5853   4.455   0.411   1.947 -0.7642 -0.4650  0.7890
 1963TIP3    H2 5854   4.448   0.314   2.063 -0.8172 -1.1849  0.1898
 1964TIP3   OH2 5855   1.666   5.979   0.734 -0.0078 -0.3266 -0.0540
 1964TIP3    H1 5856   1.622   6.009   0.814  1.1487 -1.7107  1.1452
 1964TIP3    H2 5857   1.658   6.053   0.673 -0.7530  0.8310  1.3956
 1965TIP3   OH2 5858   4.335   1.463   4.669  0.2129  0.1049 -0.4777
 1965TIP3    H1 5859   4.280   1.540   4.658  0.7493  0.3585 -1.5597
 1965TIP3    H2 5860   4.422   1.498   4.689 -0.0129 -0.2940  1.3404
 1966TIP3   OH2 5861   6.334   5.269   4.262  0.5573 -0.0371 -0.3149
 1966TIP3    H1 5862   6.326   5.200   4.195 -0.3552  0.1211 -0.3889
 1966TIP3    H2 5863   6.259   5.255   4.319  1.6522 -0.5358  1.0551
 1967TIP3   OH2 5864   6.841   6.509   0.412 -0.1935 -1.1413 -0.0871
 1967TIP3    H1 5865   6.763   6.515   0.358  0.5903 -1.8579 -1.3288
 1967TIP3    H2 5866   6.861   6.416   0.417 -0.1737 -1.0965  1.3699
 1968TIP3   OH2 5867   6.334   5.875   1.279 -0.4962 -0.2207  0.2420
 1968TIP3    H1 5868   6.297   5.804   1.331 -1.2171  1.2224  1.8077
 1968TIP3    H2 5869   6.268   5.944   1.282  0.7877  1.0689  0.0178
 1969TIP3   OH2 5870   4.749   6.000   2.966 -0.1831  0.5388  0.4226
 1969TIP3    H1 5871   4.770   6.019   2.874 -0.6719 -0.8936 -0.0144
 1969TIP3    H2 5872   4.795   5.918   2.984 -0.9279  0.2632  1.1297
 1970TIP3   OH2 5873   0.051   4.174   1.381  0.1108 -0.3607  0.0212
 1970TIP3    H1 5874   0.142   4.193   1.400 -0.2413 -0.7417  2.3956
 1970TIP3    H2 5875   0.030   4.228   1.304  2.2063 -0.0378 -0.3704
 1971TIP3   OH2 5876   3.838   0.407   0.007  0.5003 -0.6847  0.0066
 1971TIP3    H1 5877   3.906   0.412   0.074 -0.6456 -2.0812  1.3438
 1971TIP3    H2 5878   3.807   0.497  -0.003  1.8736 -0.1882  0.0477
 1972TIP3   OH2 5879   4.849   2.685   5.535 -0.0719 -0.2870 -0.0067
 1972TIP3    H1 5880   4.885   2.741   5.604 -0.1957 -0.0958 -0.0957
 1972TIP3    H2 5881   4.845   2.598   5.575  0.6280 -0.3439 -0.0480
 1973TIP3   OH2 5882   7.183   0.079   4.351  0.3363  0.6869 -0.2070
 1973TIP3    H1 5883   7.207  -0.007   4.385 -1.8082 -0.1334 -0.6026
 1973TIP3    H2 5884   7.222   0.141   4.412  0.9019 -0.6012  0.7770
 1974TIP3   OH2 5885   6.013   5.111   2.137 -0.1466 -0.0491  0.3690
 1974TIP3    H1 5886   5.955   5.139   2.066  0.8810 -0.9229 -0.8713
 1974TIP3    H2 5887   6.003   5.015   2.138  2.9788 -0.5382 -1.5446
 1975TIP3   OH2 5888   5.975   2.834   0.400  0.0258 -1.2304 -0.1056
 1975TIP3    H1 5889   6.028   2.873   0.330 -0.6369  0.2844  0.1861
 1975TIP3    H2 5890   5.909   2.901   0.420  0.1979 -1.6145  1.9665
 1976TIP3   OH2 5891   4.392   5.821   0.727  0.3660 -0.2160 -0.2789
 1976TIP3    H1 5892   4.399   5.778   0.642 -1.8464 -0.8299 -0.2190
 1976TIP3    H2 5893   4.409   5.752   0.790  0.1050 -0.2221 -0.2139
 1977TIP3   OH2 5894   0.147   1.104   4.462 -0.2971  0.4581 -0.0448
 1977TIP3    H1 5895   0.097   1.036   4.417  0.1738 -0.1674  0.3538
 1977TIP3    H2 5896   0.104   1.186   4.438 -0.4135  0.0914 -1.1479
 1978TIP3   OH2 5897   4.245   1.603   5.230  0.8469 -0.0139 -0.3182
 1978TIP3    H1 5898   4.183   1.632   5.164  0.8252 -0.1910 -0.3761
 1978TIP3    H2 5899   4.217   1.647   5.310  0.8066  0.1136 -0.4024
 1979TIP3   OH2 5900   2.360   3.597   0.102  0.8482 -0.4833 -0.5543
 1979TIP3    H1 5901   2.338   3.643   0.020  0.5024  1.3918  0.5423
 1979TIP3    H2 5902   2.417   3.658   0.149 -1.0191 -0.3873  1.7284
 1980TIP3   OH2 5903   4.401   2.459   4.408  0.1742 -0.7823  0.5952
 1980TIP3    H1 5904   4.388   2.448   4.314 -0.1579 -2.1754  0.7787
 1980TIP3    H2 5905   4.319   2.498   4.439  1.5322  3.1143 -0.1342
 1981TIP3   OH2 5906   1.137   5.665   3.216 -0.3497 -0.0277  0.8016
 1981TIP3    H1 5907   1.154   5.723   3.291  0.2813 -0.4552  1.0015
 1981TIP3    H2 5908   1.073   5.602   3.248 -0.5345  0.1560  0.7938
 1982TIP3   OH2 5909   0.287   5.683   3.538 -0.2604  0.6463 -0.3834
 1982TIP3    H1 5910   0.293   5.698   3.444 -0.1228  0.8275 -0.3462
 1982TIP3    H2 5911   0.345   5.748   3.576 -0.8117  1.0070 -0.1404
 1983TIP3   OH2 5912   4.799   0.026   5.375 -0.7128  0.4942 -0.1516
 1983TIP3    H1 5913   4.762   0.115   5.379 -2.5016 -0.2670  1.6633
 1983TIP3    H2 5914   4.731  -0.027   5.334 -0.2927 -0.3479  0.2175
 1984TIP3   OH2 5915   5.871   1.434   4.806  0.4622  0.2580  0.4207
 1984TIP3    H1 5916   5.938   1.475   4.859 -0.5388  2.0173  0.3959
 1984TIP3    H2 5917   5.919   1.384   4.740  1.7136 -0.6728  1.9573
 1985TIP3   OH2 5918   4.391   2.102   2.683  0.3820  0.3745  0.4678
 1985TIP3    H1 5919   4.360   2.048   2.756 -0.0166  0.8990  0.6986
 1985TIP3    H2 5920   4.388   2.192   2.718  0.7344  0.5709 -0.0072
 1986TIP3   OH2 5921   5.923   6.691   1.563 -0.1571 -0.5064  0.3007
 1986TIP3    H1 5922   5.921   6.611   1.510  0.7131  0.7686 -1.7704
 1986TIP3    H2 5923   5.839   6.732   1.547  0.3861  0.2401 -0.7153
 1987TIP3   OH2 5924   0.359   5.117   4.791 -0.2899 -0.2244  0.3563
 1987TIP3    H1 5925   0.388   5.207   4.785 -2.3338  0.4733 -0.0007
 1987TIP3    H2 5926   0.373   5.093   4.883 -0.1806  0.6306  0.5704
 1988TIP3   OH2 5927   6.099   5.803   3.544  0.2891  0.1243 -0.2231
 1988TIP3    H1 5928   6.131   5.714   3.529 -1.1764 -0.2534 -1.3495
 1988TIP3    H2 5929   6.023   5.792   3.600 -0.5051  0.5467 -1.1894
 1989TIP3   OH2 5930   0.982   4.936   1.500 -0.0550  0.2684 -0.2182
 1989TIP3    H1 5931   1.007   4.844   1.494 -0.8181 -0.1594  2.2383
 1989TIP3    H2 5932   0.887   4.935   1.513 -0.1817  1.4657 -0.8315
 1990TIP3   OH2 5933   3.233   4.515   4.349 -0.2899  0.5928  0.3734
 1990TIP3    H1 5934   3.156   4.566   4.374  0.1949  2.3361 -1.3712
 1990TIP3    H2 5935   3.297   4.581   4.321  1.0355 -0.9046 -0.3145
 1991TIP3   OH2 5936   0.395   6.489   1.549 -0.2697  0.3383  0.0591
 1991TIP3    H1 5937   0.399   6.447   1.635  1.7332 -0.9213 -0.5683
 1991TIP3    H2 5938   0.426   6.422   1.488 -1.9682  1.0934 -1.7167
 1992TIP3   OH2 5939   3.035   0.776   2.007 -0.0198  0.4946 -0.4185
 1992TIP3    H1 5940   2.977   0.814   2.073  1.0625  2.0647 -0.3276
 1992TIP3    H2 5941   3.123   0.796   2.037  0.5299 -0.2448 -1.4771
 1993TIP3   OH2 5942   4.727   0.496   3.868 -0.0884  0.4008 -0.2588
 1993TIP3    H1 5943   4.696   0.456   3.949 -1.7217  1.1895 -0.4513
 1993TIP3    H2 5944   4.722   0.591   3.884 -2.8859  0.6734 -2.0535
 1994TIP3   OH2 5945   0.064   3.565   5.659  0.4558  0.0407 -0.5763
 1994TIP3    H1 5946   0.043   3.650   5.697 -2.2000 -0.4862 -0.6583
 1994TIP3    H2 5947   0.052   3.577   5.565  1.0644 -0.1657 -0.6809
 1995TIP3   OH2 5948   6.659   3.539   1.784 -0.1079 -0.0604  0.0799
 1995TIP3    H1 5949   6.587   3.476   1.779 -1.0146  0.9235  0.1488
 1995TIP3    H2 5950   6.650   3.591   1.704  2.0599 -1.4547 -1.1501
 1996TIP3   OH2 5951   6.872   0.354   4.117 -0.0738  0.1701  0.0432
 1996TIP3    H1 5952   6.891   0.279   4.060  0.2862  0.5044 -0.2820
 1996TIP3    H2 5953   6.822   0.414   4.062 -0.6474  0.0358  0.4000
 1997TIP3   OH2 5954   5.225   4.539   4.486 -0.1630  0.1337 -0.2928
 1997TIP3    H1 5955   5.283   4.610   4.512 -0.1263  0.3045 -0.8282
 1997TIP3    H2 5956   5.191   4.505   4.569 -0.5646  1.0942 -0.0385
 1998TIP3   OH2 5957   7.119   0.396   1.906  0.0124  0.2199  0.6239
 1998TIP3    H1 5958   7.145   0.365   1.819  2.0906  0.3546  1.1417
 1998TIP3    H2 5959   7.025   0.413   1.898 -0.2256 -1.4840 -1.0658
 1999TIP3   OH2 5960   5.765   3.256   2.033 -0.1266  0.2916  0.1215
 1999TIP3    H1 5961   5.674   3.275   2.008 -0.7656  0.0916  2.0995
 1999TIP3    H2 5962   5.758   3.220   2.122  1.7741 -1.0850 -0.2242
 2000TIP3   OH2 5963   6.568   4.515   4.694 -0.2549  0.8385 -0.5127
 2000TIP3    H1 5964   6.520   4.570   4.755  1.3680  1.6650  0.0793
 2000TIP3    H2 5965   6.517   4.518   4.613 -2.1441  0.1789  0.5832
 2001TIP3   OH2 5966   2.026   0.589   2.951  0.2223  0.1446 -0.6622
 2001TIP3    H1 5967   2.077   0.580   2.871 -0.7283  0.9994 -1.3954
 2001TIP3    H2 5968   1.957   0.523   2.943  0.6994 -0.4300 -0.0796
 2002TIP3   OH2 5969   5.837   1.002   1.771  0.0204 -0.0469  1.0620
 2002TIP3    H1 5970   5.918   1.053   1.780 -1.6271  3.0644 -0.2891
 2002TIP3    H2 5971   5.797   1.005   1.857 -0.0380  0.9973  1.0106
 2003TIP3   OH2 5972   0.158   5.076   0.095  0.2222 -0.2019  0.3311
 2003TIP3    H1 5973   0.144   5.001   0.153  1.2152 -0.6440  0.0184
 2003TIP3    H2 5974   0.081   5.076   0.038  0.0468 -0.7838  0.5580
 2004TIP3   OH2 5975   2.148   4.489   5.501 -0.1370  0.6841 -0.4702
 2004TIP3    H1 5976   2.108   4.406   5.475 -0.8697  0.2634  1.8258
 2004TIP3    H2 5977   2.148   4.541   5.420 -2.1388 -0.5617 -1.3657
 2005TIP3   OH2 5978   4.153   5.541   4.219  0.2966 -0.0147  0.6356
 2005TIP3    H1 5979   4.101   5.597   4.162 -0.8391 -2.5834 -0.9945
 2005TIP3    H2 5980   4.145   5.581   4.306 -1.0018  1.9108 -0.3067
 2006TIP3   OH2 5981   3.645   0.282   3.774  0.0995  0.1279  0.3310
 2006TIP3    H1 5982   3.651   0.296   3.868  1.8779  0.6248  0.1875
 2006TIP3    H2 5983   3.703   0.208   3.757 -2.2859 -1.7828 -0.0777
 2007TIP3   OH2 5984   5.930   3.934   3.541 -0.2664 -0.5983  0.0094
 2007TIP3    H1 5985   5.947   4.020   3.578  1.6036 -1.8783  2.4451
 2007TIP3    H2 5986   5.845   3.908   3.577  0.5626 -0.9504  1.8019
 2008TIP3   OH2 5987   2.711   4.962   3.970  0.1592 -0.0217  0.1197
 2008TIP3    H1 5988   2.689   4.970   3.877 -0.7110  0.1387  0.3322
 2008TIP3    H2 5989   2.628   4.938   4.012  1.0057 -2.5298  0.5492
 2009TIP3   OH2 5990   5.240   4.268   2.474  0.3296  0.3517  0.5817
 2009TIP3    H1 5991   5.250   4.350   2.523  1.0956 -0.5088  1.9167
 2009TIP3    H2 5992   5.159   4.229   2.508 -1.3288  1.5817 -1.6793
 2010TIP3   OH2 5993   1.496   1.022   1.446  0.1323 -0.0949 -0.1235
 2010TIP3    H1 5994   1.524   1.113   1.435  1.4107 -0.5058 -0.4983
 2010TIP3    H2 5995   1.516   0.981   1.361  0.0925 -0.8467  0.2235
 2011TIP3   OH2 5996   3.646   0.181   0.590  0.2045 -0.1809  0.0938
 2011TIP3    H1 5997   3.632   0.090   0.615  0.6601 -0.0466  0.8812
 2011TIP3    H2 5998   3.654   0.228   0.674 -0.3044  0.6273 -0.2924
 2012TIP3   OH2 5999   3.603   6.552   1.204  0.0977  0.1435 -0.3095
 2012TIP3    H1 6000   3.520   6.595   1.225 -0.3057 -0.9084  0.3716
 2012TIP3    H2 6001   3.581   6.459   1.199  1.2687 -0.1725  0.0622
 2013TIP3   OH2 6002   6.933   5.072   5.696 -0.4064 -0.2585  0.1531
 2013TIP3    H1 6003   6.976   5.127   5.630 -1.6134  0.8477  0.2516
 2013TIP3    H2 6004   6.998   5.005   5.717  1.4419  1.5815  0.6183
 2014TIP3   OH2 6005   6.934   6.105   3.505 -0.4905 -0.2444  0.4806
 2014TIP3    H1 6006   6.878   6.049   3.559 -1.3350 -0.6828 -0.7851
 2014TIP3    H2 6007   6.954   6.051   3.429  0.3062  0.5011  0.1525
 2015TIP3   OH2 6008   5.730   5.409   1.459  0.0428 -0.5115  0.1657
 2015TIP3    H1 6009   5.667   5.377   1.524  0.0047 -0.3432  0.2108
 2015TIP3    H2 6010   5.701   5.368   1.377  0.3325 -1.0495  0.3269
 2016TIP3   OH2 6011   2.855   0.178   3.489  0.2461  0.2826  0.0237
 2016TIP3    H1 6012   2.842   0.273   3.492  0.0052  0.3011 -1.1911
 2016TIP3    H2 6013   2.795   0.148   3.420  0.4182 -0.7383  0.3027
 2017TIP3   OH2 6014   0.745   0.849   2.881  0.1555 -0.6933  0.4835
 2017TIP3    H1 6015   0.804   0.782   2.847 -0.1094 -1.2548  1.1025
 2017TIP3    H2 6016   0.689   0.802   2.942  0.1467  0.1427  1.1353
 2018TIP3   OH2 6017   6.233   2.261   2.613  0.0012  0.1593  0.0098
 2018TIP3    H1 6018   6.252   2.247   2.521 -1.3615  1.1446 -0.4523
 2018TIP3    H2 6019   6.274   2.345   2.634  1.0462 -0.4644  0.5569
 2019TIP3   OH2 6020   6.492   2.459   3.900 -0.1030  0.1318 -0.0211
 2019TIP3    H1 6021   6.566   2.460   3.961 -0.6290  0.3278  0.6387
 2019TIP3    H2 6022   6.525   2.503   3.822  0.3608  0.5914  0.4176
 2020TIP3   OH2 6023   3.474   0.889   3.615  0.1803  0.1797  0.1299
 2020TIP3    H1 6024   3.393   0.939   3.617  1.3238  2.1272 -0.1985
 2020TIP3    H2 6025   3.520   0.914   3.695  1.0973  0.2001 -0.3940
 2021TIP3   OH2 6026   0.902   1.730   2.960 -0.0453 -0.7212  0.2518
 2021TIP3    H1 6027   0.966   1.675   3.006  0.9677  1.9584  2.3479
 2021TIP3    H2 6028   0.817   1.702   2.994  0.5948  0.2692  2.9602
 2022TIP3   OH2 6029   2.779   0.204   5.657 -0.8759 -0.0217  0.0982
 2022TIP3    H1 6030   2.793   0.296   5.635  0.7795 -0.5231 -1.1401
 2022TIP3    H2 6031   2.867   0.168   5.666 -1.4926 -1.3600  1.2238
 2023TIP3   OH2 6032   6.424   2.903   2.435  0.0001  0.1346 -0.5348
 2023TIP3    H1 6033   6.518   2.887   2.441 -0.2097 -0.5993  2.0154
 2023TIP3    H2 6034   6.413   2.993   2.466 -0.2250 -0.2116  0.4225
 2024TIP3   OH2 6035   4.758   0.872   2.747  0.0989 -0.0754  0.0470
 2024TIP3    H1 6036   4.818   0.798   2.740 -1.0793 -1.0975  0.3377
 2024TIP3    H2 6037   4.693   0.857   2.679  0.8515  1.7227 -1.1598
 2025TIP3   OH2 6038   1.038   0.063   5.762 -0.6230 -0.0470  0.4647
 2025TIP3    H1 6039   0.984   0.026   5.692 -0.0030 -0.9927  0.4626
 2025TIP3    H2 6040   1.008   0.153   5.771 -0.2323  0.3415 -1.5358
 2026TIP3   OH2 6041   0.132   6.697   2.521 -0.2151  0.6270 -0.6973
 2026TIP3    H1 6042   0.037   6.689   2.508 -0.4609 -0.2989  1.2948
 2026TIP3    H2 6043   0.170   6.674   2.436 -1.7501 -0.2299 -1.1845
 2027TIP3   OH2 6044   1.705   1.404   5.873  0.3830  0.2219 -0.0168
 2027TIP3    H1 6045   1.785   1.448   5.846  0.5865 -1.5216 -2.7001
 2027TIP3    H2 6046   1.639   1.473   5.878  1.4970  1.3289 -0.2739
 2028TIP3   OH2 6047   5.014   5.399  -0.004 -0.0010  0.6359 -0.5595
 2028TIP3    H1 6048   4.947   5.396   0.065  1.4772 -1.4481  0.8974
 2028TIP3    H2 6049   5.094   5.425   0.042  1.0233 -0.7955 -1.4567
 2029TIP3   OH2 6050   0.879   0.142   2.159 -0.1039 -0.1085 -0.4368
 2029TIP3    H1 6051   0.929   0.081   2.104  0.1698  0.7696 -1.1895
 2029TIP3    H2 6052   0.801   0.163   2.107  0.3659  1.0673 -0.6997
 2030TIP3   OH2 6053   0.852   5.547   4.628 -0.3684  0.0878  0.2179
 2030TIP3    H1 6054   0.936   5.552   4.582  0.9164 -1.9884  2.1497
 2030TIP3    H2 6055   0.808   5.629   4.605  3.2148  2.5090  1.0666
 2031TIP3   OH2 6056   4.788   3.119   1.404 -0.3123 -0.3639  0.2343
 2031TIP3    H1 6057   4.780   3.082   1.316 -0.4154  0.5271 -0.1379
 2031TIP3    H2 6058   4.700   3.151   1.424 -0.5825 -1.6138  1.1481
 2032TIP3   OH2 6059   5.440   6.244   5.631 -0.4981 -0.0266  0.2602
 2032TIP3    H1 6060   5.490   6.295   5.568  0.4039 -1.4163 -0.2074
 2032TIP3    H2 6061   5.387   6.308   5.678  1.0952  1.4068  0.1890
 2033TIP3   OH2 6062   4.541   1.498   0.304  0.1501 -0.0367  0.2568
 2033TIP3    H1 6063   4.629   1.480   0.337  1.5585  1.6406 -2.2338
 2033TIP3    H2 6064   4.524   1.589   0.327 -1.3551 -0.5780  1.4498
 2034TIP3   OH2 6065   1.019   2.738   0.143 -0.6421 -0.3070  0.1178
 2034TIP3    H1 6066   1.012   2.830   0.168 -0.9291 -0.2129 -0.2942
 2034TIP3    H2 6067   0.929   2.707   0.140 -0.5929 -0.3937 -0.5009
 2035TIP3   OH2 6068   1.957   4.952   3.226 -0.0371 -0.0392  0.1350
 2035TIP3    H1 6069   2.016   4.891   3.270  0.1256 -0.4818 -0.6776
 2035TIP3    H2 6070   2.003   4.974   3.145 -0.5761  0.3414 -0.0674
 2036TIP3   OH2 6071   2.061   6.354   4.104  0.2235 -0.1777 -0.7735
 2036TIP3    H1 6072   2.103   6.268   4.104  0.6501 -0.0115 -2.4352
 2036TIP3    H2 6073   1.980   6.342   4.054  0.0273  0.2616 -0.5712
 2037TIP3   OH2 6074   5.153   4.553   3.580 -0.3022  0.3261  0.1312
 2037TIP3    H1 6075   5.142   4.461   3.557  1.0512  0.2309 -0.1980
 2037TIP3    H2 6076   5.167   4.553   3.675 -0.0025  0.1669  0.0863
 2038TIP3   OH2 6077   2.762   5.537   3.088  0.3443 -0.0485 -0.0669
 2038TIP3    H1 6078   2.843   5.574   3.055 -0.4437  1.2246 -0.6839
 2038TIP3    H2 6079   2.719   5.610   3.132  0.0190 -0.9765  1.2092
 2039TIP3   OH2 6080   2.561   0.809   4.856 -0.6706 -0.8104 -0.0280
 2039TIP3    H1 6081   2.591   0.731   4.808 -0.1700 -0.6093 -0.0433
 2039TIP3    H2 6082   2.637   0.837   4.905 -0.5998  0.1832 -0.6866
 2040TIP3   OH2 6083   0.186   1.983   2.287  0.2926 -0.0541 -0.1095
 2040TIP3    H1 6084   0.118   1.959   2.350 -0.0654  0.6516 -0.2165
 2040TIP3    H2 6085   0.187   1.911   2.224 -0.1956 -0.1827  0.0253
 2041TIP3   OH2 6086   2.171   3.345   5.699 -0.0592  0.6390 -0.2146
 2041TIP3    H1 6087   2.154   3.434   5.729  1.1583  1.1388 -0.9312
 2041TIP3    H2 6088   2.198   3.355   5.608  1.3048 -0.3178  0.0531
 2042TIP3   OH2 6089   5.286   1.528   0.267 -0.0825  0.0254 -0.1943
 2042TIP3    H1 6090   5.210   1.487   0.225  0.8526 -2.2796  0.2143
 2042TIP3    H2 6091   5.251   1.606   0.309 -2.0639 -0.5298 -0.7163
 2043TIP3   OH2 6092   3.194   2.632   2.722 -0.0477 -0.6401  0.8446
 2043TIP3    H1 6093   3.270   2.610   2.670 -0.0046 -1.2765  1.1638
 2043TIP3    H2 6094   3.121   2.586   2.680 -0.4050  0.5708  0.0940
 2044TIP3   OH2 6095   4.951   2.218   1.696  0.2730 -0.1005  0.4505
 2044TIP3    H1 6096   5.035   2.251   1.663 -0.2329  0.2898 -0.4760
 2044TIP3    H2 6097   4.960   2.123   1.692  1.2379 -0.0975  1.8480
 2045TIP3   OH2 6098   7.183   4.684   1.277 -0.1441  0.3394 -0.3198
 2045TIP3    H1 6099   7.215   4.671   1.188 -2.3843 -1.0741 -1.0105
 2045TIP3    H2 6100   7.222   4.613   1.328  1.7371  1.5776  0.0885
 2046TIP3   OH2 6101   1.604   2.235   2.727  0.0440  0.8156  0.0858
 2046TIP3    H1 6102   1.541   2.244   2.655 -0.5725  0.7203  0.6080
 2046TIP3    H2 6103   1.653   2.317   2.727 -0.0314  0.8635 -0.3614
 2047TIP3   OH2 6104   1.515   2.791   0.495  0.4299 -0.0301  0.5418
 2047TIP3    H1 6105   1.543   2.842   0.571  0.9699 -0.8377  0.8975
 2047TIP3    H2 6106   1.478   2.856   0.435 -0.5041  0.5425  1.7099
 2048TIP3   OH2 6107   3.936   0.105   1.928  0.4100 -0.2771  0.6490
 2048TIP3    H1 6108   3.952   0.048   2.004 -0.1442 -0.2839  0.7669
 2048TIP3    H2 6109   4.018   0.152   1.915  0.7005 -0.7200  0.8821
 2049TIP3   OH2 6110   3.330   6.203   5.741 -0.1692  0.4152 -0.2241
 2049TIP3    H1 6111   3.296   6.162   5.661  0.6956 -0.1482 -0.3155
 2049TIP3    H2 6112   3.342   6.130   5.802  0.7055  0.6237 -0.1402
 2050TIP3   OH2 6113   0.384   4.585   3.285 -0.1632  0.3182 -0.2724
 2050TIP3    H1 6114   0.383   4.586   3.190 -2.1002  0.3078 -0.2819
 2050TIP3    H2 6115   0.398   4.676   3.310  1.7418  0.1383 -0.5187
 2051TIP3   OH2 6116   7.150   5.231   1.145  0.2835  0.3600 -0.0155
 2051TIP3    H1 6117   7.097   5.154   1.124  1.1910 -0.4146  0.4746
 2051TIP3    H2 6118   7.183   5.215   1.233 -0.5033  1.8923  0.6071
 2052TIP3   OH2 6119   2.604   1.706   3.796  0.2140 -0.1385  0.0982
 2052TIP3    H1 6120   2.575   1.796   3.812  0.4713  0.0925 -0.7053
 2052TIP3    H2 6121   2.622   1.672   3.884 -3.0456 -0.5198  0.7645
 2053TIP3   OH2 6122   2.137   6.658   0.194  0.0008 -0.4439  0.0707
 2053TIP3    H1 6123   2.070   6.591   0.201  1.0659 -1.3762  1.9745
 2053TIP3    H2 6124   2.191   6.630   0.120 -1.6042  0.3015 -1.4623
 2054TIP3   OH2 6125   2.937   0.352   5.357 -0.0497  0.3362 -0.4262
 2054TIP3    H1 6126   2.889   0.387   5.282 -1.1115  0.6866  0.3769
 2054TIP3    H2 6127   2.876   0.363   5.431 -0.0870 -2.3194  0.0510
 2055TIP3   OH2 6128   2.699   3.482   1.170 -0.4316  0.5371 -0.3870
 2055TIP3    H1 6129   2.668   3.499   1.081 -0.5820 -0.8871 -0.6331
 2055TIP3    H2 6130   2.792   3.460   1.159 -0.1678  1.4311 -0.0499
 2056TIP3   OH2 6131   1.803   0.221   1.807 -0.2938 -0.5898  0.1959
 2056TIP3    H1 6132   1.763   0.140   1.775 -0.2035  0.0534 -1.6604
 2056TIP3    H2 6133   1.895   0.216   1.780 -0.5286  0.5857 -0.9517
 2057TIP3   OH2 6134   1.820   3.013   2.418 -0.2019 -0.4396  0.3965
 2057TIP3    H1 6135   1.879   2.954   2.372  0.3360 -0.1328  0.6820
 2057TIP3    H2 6136   1.852   3.101   2.398 -0.7304 -0.2574  0.3295
 2058TIP3   OH2 6137   4.140   4.825   2.182 -0.0746 -0.1216  0.1811
 2058TIP3    H1 6138   4.166   4.778   2.102 -1.8586 -1.0188  0.0745
 2058TIP3    H2 6139   4.053   4.860   2.162 -0.2713  0.1926  1.5143
 2059TIP3   OH2 6140   6.159   2.538   1.733 -1.0204  0.4719 -1.0017
 2059TIP3    H1 6141   6.224   2.569   1.797 -3.1733 -1.2145  2.2784
 2059TIP3    H2 6142   6.111   2.617   1.707 -1.9249  0.9643  1.8034
 2060TIP3   OH2 6143   0.268   1.427   2.837 -0.2067  0.3451  0.3031
 2060TIP3    H1 6144   0.216   1.425   2.917 -1.5566 -3.9363 -0.4040
 2060TIP3    H2 6145   0.208   1.458   2.770 -0.2786  0.2956  0.3438
 2061TIP3   OH2 6146   3.350   0.646   5.422 -0.2236  0.0616 -0.2730
 2061TIP3    H1 6147   3.383   0.660   5.334 -1.1564  0.5065 -0.5603
 2061TIP3    H2 6148   3.255   0.643   5.413 -0.3114 -0.4989  0.6300
 2062TIP3   OH2 6149   4.666   2.847   2.593 -0.4663  0.3030  0.0755
 2062TIP3    H1 6150   4.743   2.833   2.648 -1.0465 -0.6879  0.6794
 2062TIP3    H2 6151   4.635   2.934   2.617 -0.0312  0.3570  0.4645
 2063TIP3   OH2 6152   4.531   2.164   0.561 -0.3993 -0.0639  0.2379
 2063TIP3    H1 6153   4.570   2.180   0.647 -1.9849  2.1250  0.6497
 2063TIP3    H2 6154   4.514   2.251   0.526 -0.6559 -0.9235 -1.9121
 2064TIP3   OH2 6155   4.581   5.257   2.162  0.1276  0.0147  0.0961
 2064TIP3    H1 6156   4.644   5.327   2.147  0.1908 -0.4190 -1.9472
 2064TIP3    H2 6157   4.495   5.301   2.160 -0.0742 -0.1648 -4.0682
 2065TIP3   OH2 6158   2.404   6.279   3.985 -0.0330 -0.4193  0.3873
 2065TIP3    H1 6159   2.402   6.228   4.066 -0.5279  0.2786  0.8259
 2065TIP3    H2 6160   2.323   6.255   3.939 -0.1403 -0.2183  0.4727
 2066TIP3   OH2 6161   6.348   3.686   5.368 -0.1273  0.4104  0.3301
 2066TIP3    H1 6162   6.300   3.604   5.353 -1.1662  1.1180 -0.3437
 2066TIP3    H2 6163   6.318   3.716   5.454 -1.6052  1.2827 -0.4439
 2067TIP3   OH2 6164   2.831   1.147   5.133  0.1698  0.3697  0.4447
 2067TIP3    H1 6165   2.896   1.206   5.170 -1.3210  1.1113  2.0704
 2067TIP3    H2 6166   2.776   1.123   5.208 -1.1756 -0.5386 -0.7717
 2068TIP3   OH2 6167   5.126   6.247   5.860  0.0641  0.2935  0.6138
 2068TIP3    H1 6168   5.059   6.314   5.850  0.5090  0.7529  0.6402
 2068TIP3    H2 6169   5.208   6.296   5.867  0.4540 -0.2715  0.1489
 2069TIP3   OH2 6170   6.496   2.466   5.282 -0.0434 -0.2463 -0.1494
 2069TIP3    H1 6171   6.474   2.425   5.198 -0.9779  0.2781 -0.1738
 2069TIP3    H2 6172   6.566   2.411   5.318 -1.3807 -2.0024 -0.0997
 2070TIP3   OH2 6173   2.989   1.520   2.249  0.5769 -1.1368 -0.2363
 2070TIP3    H1 6174   2.959   1.430   2.236  0.6500 -0.9915 -1.6256
 2070TIP3    H2 6175   3.040   1.539   2.170 -0.8048  0.6864 -0.7538
 2071TIP3   OH2 6176   3.669   5.845   4.135 -0.0163 -0.4381 -0.1704
 2071TIP3    H1 6177   3.633   5.867   4.221  1.0637 -0.1622  0.2290
 2071TIP3    H2 6178   3.634   5.758   4.116 -2.1795  0.4415 -0.5473
 2072TIP3   OH2 6179   4.224   2.162   3.212 -0.6828  0.4580  0.4262
 2072TIP3    H1 6180   4.134   2.135   3.194 -0.0447 -0.7234 -1.2039
 2072TIP3    H2 6181   4.252   2.207   3.133  1.0302 -1.6032 -0.2063
 2073TIP3   OH2 6182   1.226   0.335   0.381  0.0325 -0.0240 -0.2876
 2073TIP3    H1 6183   1.165   0.408   0.390 -2.0243 -1.7861  1.3248
 2073TIP3    H2 6184   1.183   0.277   0.318  0.4131 -0.9365  0.2752
 2074TIP3   OH2 6185   1.378   5.243   1.345 -0.2060  0.0323 -0.0851
 2074TIP3    H1 6186   1.459   5.275   1.305 -0.9766  1.0919 -0.8486
 2074TIP3    H2 6187   1.340   5.186   1.279 -0.8988  0.8579 -0.4125
 2075TIP3   OH2 6188   5.122   3.787   3.069 -0.3835  0.1590 -0.0899
 2075TIP3    H1 6189   5.124   3.882   3.075 -0.8071  0.1250  0.6114
 2075TIP3    H2 6190   5.140   3.757   3.158  0.1816 -0.4220 -0.3928
 2076TIP3   OH2 6191   0.367   2.197   3.232 -0.4271  0.0583  0.4740
 2076TIP3    H1 6192   0.372   2.164   3.142 -1.5305 -0.7113  0.6684
 2076TIP3    H2 6193   0.422   2.138   3.283 -0.6508 -0.1559  0.4696
 2077TIP3   OH2 6194   5.748   5.952   4.986 -0.4296 -0.1998  0.3251
 2077TIP3    H1 6195   5.653   5.948   4.977 -0.2021 -2.1225 -2.3428
 2077TIP3    H2 6196   5.776   6.016   4.921  0.1676 -0.5486  0.2271
 2078TIP3   OH2 6197   5.540   3.097   4.815  0.2812  0.3373  0.5246
 2078TIP3    H1 6198   5.590   3.085   4.896 -0.0297 -0.4597  0.6126
 2078TIP3    H2 6199   5.500   3.011   4.799  0.7588  0.3358 -0.7595
 2079TIP3   OH2 6200   0.999   6.311   4.469  0.2985 -0.5293 -0.3085
 2079TIP3    H1 6201   0.947   6.277   4.396 -0.5768  1.5892 -0.7634
 2079TIP3    H2 6202   0.989   6.246   4.538 -1.4778 -1.0885 -1.0240
 2080TIP3   OH2 6203   6.339   5.952   0.475  0.3099  0.2620 -0.1427
 2080TIP3    H1 6204   6.318   6.014   0.545  0.3206  0.3935 -0.2561
 2080TIP3    H2 6205   6.263   5.953   0.418 -0.4502 -1.1259  0.7679
 2081TIP3   OH2 6206   6.588   0.296   3.176 -0.3375  0.0031 -0.0083
 2081TIP3    H1 6207   6.573   0.388   3.195 -0.3047 -0.3790  2.2172
 2081TIP3    H2 6208   6.520   0.272   3.113 -0.2201  1.5718 -0.7598
 2082TIP3   OH2 6209   6.111   6.146   2.292  0.1799 -0.0585  0.3802
 2082TIP3    H1 6210   6.127   6.099   2.373  2.3671 -0.8303 -0.4362
 2082TIP3    H2 6211   6.073   6.080   2.233 -0.2839  0.1940  0.3896
 2083TIP3   OH2 6212   0.884   5.653   1.941 -0.4149  0.1953  0.0339
 2083TIP3    H1 6213   0.979   5.669   1.935  0.1743 -1.8208  2.3816
 2083TIP3    H2 6214   0.849   5.690   1.860  2.4462  0.5249 -1.1960
 2084TIP3   OH2 6215   4.507   5.122   5.675  0.4977 -0.3615 -0.2745
 2084TIP3    H1 6216   4.470   5.210   5.676  1.4007  0.0326  0.9701
 2084TIP3    H2 6217   4.439   5.068   5.635 -0.6173  0.6594  0.1771
 2085TIP3   OH2 6218   4.450   3.039   5.518 -0.0221  0.2228  0.3161
 2085TIP3    H1 6219   4.373   3.093   5.534 -0.6268 -0.6445  0.4142
 2085TIP3    H2 6220   4.523   3.091   5.550 -0.4424  1.4996 -0.7537
 2086TIP3   OH2 6221   4.440   2.722   3.261  0.0764  0.1162  0.1661
 2086TIP3    H1 6222   4.530   2.691   3.255  0.1488  0.0446  1.3314
 2086TIP3    H2 6223   4.446   2.806   3.305 -0.3806  0.3836 -0.2710
 2087TIP3   OH2 6224   4.082   5.537  -0.015  0.1652  0.0285 -0.2561
 2087TIP3    H1 6225   4.075   5.443   0.004  0.8874  0.4135  2.2041
 2087TIP3    H2 6226   4.084   5.579   0.070 -3.7092  2.6536 -1.1817
 2088TIP3   OH2 6227   3.632   5.326   2.200 -0.3339 -0.1258  0.1525
 2088TIP3    H1 6228   3.717   5.296   2.231  0.2700  1.0644 -0.3005
 2088TIP3    H2 6229   3.648   5.358   2.112 -1.3829 -0.4751 -0.1759
 2089TIP3   OH2 6230   3.377   0.210   4.470  0.0378 -0.0986  0.1198
 2089TIP3    H1 6231   3.369   0.118   4.445  2.0877 -0.0602 -0.9176
 2089TIP3    H2 6232   3.402   0.255   4.390  0.1901  1.1763  0.8474
 2090TIP3   OH2 6233   1.766   5.513   4.519  0.1105  0.1367 -0.1247
 2090TIP3    H1 6234   1.816   5.573   4.464  0.6935 -0.0038  0.2409
 2090TIP3    H2 6235   1.704   5.569   4.566  0.2891  0.3871 -0.1860
 2091TIP3   OH2 6236   0.763   5.222   1.239  0.3624 -0.4725 -0.2681
 2091TIP3    H1 6237   0.727   5.239   1.326  0.7041 -0.5335 -0.1125
 2091TIP3    H2 6238   0.858   5.217   1.253  0.4222 -0.4202 -0.6541
 2092TIP3   OH2 6239   7.042   6.145   3.769  0.2057 -0.3382 -0.6807
 2092TIP3    H1 6240   7.030   6.145   3.674  2.1971  2.4866 -1.0438
 2092TIP3    H2 6241   7.013   6.231   3.797 -0.1068 -1.0321  1.2977
 2093TIP3   OH2 6242   6.000   0.524   3.717  0.3289  0.3150 -0.4782
 2093TIP3    H1 6243   5.975   0.519   3.810  1.6117 -0.6307 -0.1591
 2093TIP3    H2 6244   6.095   0.516   3.718  0.5130  1.8955 -1.7864
 2094TIP3   OH2 6245   0.426   2.416   2.220  0.3075  0.6277 -0.5226
 2094TIP3    H1 6246   0.412   2.469   2.141 -0.9259  1.1470  0.0189
 2094TIP3    H2 6247   0.345   2.365   2.229  0.1480  1.0891  0.7820
 2095TIP3   OH2 6248   6.421   5.241   5.058  0.6238 -0.6761 -0.2011
 2095TIP3    H1 6249   6.507   5.199   5.058  0.4827 -1.0042  0.7721
 2095TIP3    H2 6250   6.371   5.196   4.990  1.7326  0.6617 -1.9840
 2096TIP3   OH2 6251   3.628   6.089   2.345  0.1169  0.1662 -0.0474
 2096TIP3    H1 6252   3.659   6.114   2.259 -1.4323  0.8402 -0.4424
 2096TIP3    H2 6253   3.708   6.073   2.396  1.0619  0.7648 -1.2986
 2097TIP3   OH2 6254   5.626   5.387   3.844  0.5347 -0.6152 -0.2992
 2097TIP3    H1 6255   5.577   5.370   3.763 -2.0321 -1.3148  1.2772
 2097TIP3    H2 6256   5.684   5.459   3.822 -2.4108  1.4845 -1.9873
 2098TIP3   OH2 6257   1.434   6.697   3.616  0.5445  0.2882 -0.2639
 2098TIP3    H1 6258   1.445   6.602   3.608  1.7628  0.1286  2.3556
 2098TIP3    H2 6259   1.347   6.714   3.579  0.4334 -1.7704 -1.1117
 2099TIP3   OH2 6260   6.097   0.664   5.432 -0.8694 -0.2841 -0.3367
 2099TIP3    H1 6261   6.184   0.690   5.401 -0.3138 -0.3311  1.1015
 2099TIP3    H2 6262   6.084   0.716   5.512 -3.1192  1.3927 -1.6881
 2100TIP3   OH2 6263   0.734   0.766   2.182  0.0246  0.0236 -0.1311
 2100TIP3    H1 6264   0.759   0.694   2.241  0.3415 -1.1147 -1.5925
 2100TIP3    H2 6265   0.811   0.823   2.179  0.1361 -0.1055  0.2715
 2101TIP3   OH2 6266   2.838   1.386   2.492  0.2855  0.2352 -0.8153
 2101TIP3    H1 6267   2.910   1.370   2.431 -0.4461 -2.9872 -1.0145
 2101TIP3    H2 6268   2.862   1.335   2.570 -0.9185  0.5817 -0.2069
 2102TIP3   OH2 6269   1.150   0.187   0.875  0.0479  0.1497 -0.0745
 2102TIP3    H1 6270   1.205   0.190   0.797  1.3247 -0.9501  0.7462
 2102TIP3    H2 6271   1.064   0.161   0.842  0.3088  0.6559 -1.2220
 2103TIP3   OH2 6272   0.164   0.569   2.129 -0.1668  0.2597 -0.0852
 2103TIP3    H1 6273   0.127   0.579   2.217 -0.1245  0.3564 -0.0782
 2103TIP3    H2 6274   0.235   0.506   2.141  0.0864  0.5604  0.0234
 2104TIP3   OH2 6275   2.985   4.437   1.655  0.5155 -0.1736 -0.3184
 2104TIP3    H1 6276   3.026   4.367   1.706  2.0054  0.6967 -0.2630
 2104TIP3    H2 6277   2.893   4.411   1.648  0.7294 -1.3881  0.9618
 2105TIP3   OH2 6278   2.930   4.674   4.324  0.2626 -0.0884 -0.4146
 2105TIP3    H1 6279   2.932   4.722   4.242  1.0131  0.6858  0.0406
 2105TIP3    H2 6280   2.855   4.710   4.371  1.6448  1.7236  0.5262
 2106TIP3   OH2 6281   5.633   3.338   5.051  1.1278  0.2498  0.2314
 2106TIP3    H1 6282   5.571   3.376   5.113  0.4646  0.2116 -0.4003
 2106TIP3    H2 6283   5.611   3.245   5.049 -0.2564  0.5698 -1.6163
 2107TIP3   OH2 6284   4.237   1.349   3.387 -0.5766 -0.1507 -0.3844
 2107TIP3    H1 6285   4.245   1.309   3.300 -1.2762 -0.9364 -0.0985
 2107TIP3    H2 6286   4.147   1.331   3.414 -0.0404 -0.9813  0.9958
 2108TIP3   OH2 6287   0.568   2.238   2.897  0.0330 -0.0649 -0.0841
 2108TIP3    H1 6288   0.602   2.313   2.945 -0.7895 -0.1231  0.6040
 2108TIP3    H2 6289   0.620   2.164   2.928  0.4634  0.1169 -0.3519
 2109TIP3   OH2 6290   4.218   1.601   2.487  0.0592 -0.0305  0.5125
 2109TIP3    H1 6291   4.232   1.688   2.525  2.8614 -0.7399  1.3807
 2109TIP3    H2 6292   4.205   1.617   2.394  0.3269  1.3509  0.6947
 2110TIP3   OH2 6293   7.170   4.193   1.991  0.2665  0.4869 -0.2562
 2110TIP3    H1 6294   7.111   4.197   1.916  0.6794  0.4250 -0.5895
 2110TIP3    H2 6295   7.113   4.179   2.067 -0.0142 -1.2085 -0.7509
 2111TIP3   OH2 6296   4.789   6.524   1.731 -0.0827  0.7421 -0.3625
 2111TIP3    H1 6297   4.700   6.489   1.725 -0.0272  0.4282  0.4884
 2111TIP3    H2 6298   4.793   6.592   1.664 -0.5515 -0.1084 -1.2799
 2112TIP3   OH2 6299   2.038   2.360   2.818  0.3587  0.1451  0.1365
 2112TIP3    H1 6300   1.984   2.361   2.739 -0.6633 -1.4545  0.7628
 2112TIP3    H2 6301   2.014   2.440   2.865 -0.5703  0.0641 -0.1812
 2113TIP3   OH2 6302   1.054   4.452   2.097  0.2138  0.2199 -0.2008
 2113TIP3    H1 6303   0.982   4.408   2.142  0.3066 -1.4884 -1.6165
 2113TIP3    H2 6304   1.132   4.428   2.148  0.2171 -1.0077 -0.7608
 2114TIP3   OH2 6305   0.953   5.467   2.969 -0.3589  0.1611 -0.2434
 2114TIP3    H1 6306   1.024   5.522   3.001  0.4393  0.8126 -2.8530
 2114TIP3    H2 6307   0.892   5.528   2.928 -1.4545 -0.5760  0.2392
 2115TIP3   OH2 6308   1.117   1.126   2.317 -0.4759  0.3207  0.5029
 2115TIP3    H1 6309   1.043   1.066   2.315 -0.8213  0.6625  2.1131
 2115TIP3    H2 6310   1.169   1.099   2.392  0.7476  0.4476 -0.2640
 2116TIP3   OH2 6311   2.714   0.512   4.071 -0.1513  0.5348  0.1838
 2116TIP3    H1 6312   2.678   0.593   4.034 -2.2366  1.1712  3.2017
 2116TIP3    H2 6313   2.663   0.498   4.151  1.5189 -2.7005  0.8437
 2117TIP3   OH2 6314   5.495   3.125   2.012 -0.0903  0.1592  0.5986
 2117TIP3    H1 6315   5.457   3.211   1.993  1.9237  0.9668 -0.0289
 2117TIP3    H2 6316   5.523   3.092   1.926  1.5834  0.1148  1.1265
 2118TIP3   OH2 6317   3.501   6.373   0.737  0.5711 -0.3624 -0.4524
 2118TIP3    H1 6318   3.521   6.293   0.689  1.5722 -0.0907 -0.5139
 2118TIP3    H2 6319   3.587   6.410   0.759  0.1802 -0.6572  1.8448
 2119TIP3   OH2 6320   7.156   3.138   4.189  0.1285  0.3038 -0.0474
 2119TIP3    H1 6321   7.132   3.081   4.262  1.1344  1.9477  1.6873
 2119TIP3    H2 6322   7.078   3.141   4.134 -1.9699  1.5078  2.6992
 2120TIP3   OH2 6323   6.420   4.235   5.285 -0.1230 -0.1061 -0.0871
 2120TIP3    H1 6324   6.483   4.163   5.284  0.9974  0.8453 -0.9908
 2120TIP3    H2 6325   6.457   4.298   5.347 -0.3698  0.2962 -0.3438
 2121TIP3   OH2 6326   4.058   1.366   5.231  0.1066 -0.0222  0.2797
 2121TIP3    H1 6327   4.112   1.444   5.229 -1.1519  0.9048  1.2846
 2121TIP3    H2 6328   4.121   1.293   5.225  1.3198  1.0305 -0.1835
 2122TIP3   OH2 6329   0.376   0.843   3.915 -0.3200  0.1774 -0.4241
 2122TIP3    H1 6330   0.465   0.850   3.880 -0.0316 -1.2191 -0.0325
 2122TIP3    H2 6331   0.344   0.760   3.880 -1.7816  1.0360 -1.2057
 2123TIP3   OH2 6332   5.944   1.158   1.399 -0.0355  0.0585 -0.3166
 2123TIP3    H1 6333   5.996   1.109   1.335  0.7265 -1.5438  1.4220
 2123TIP3    H2 6334   6.008   1.188   1.464 -0.9342  0.4326  0.4175
 2124TIP3   OH2 6335   5.386   3.322   3.223 -0.1375 -0.2909 -0.4749
 2124TIP3    H1 6336   5.388   3.253   3.157  2.4432 -0.4276 -0.3550
 2124TIP3    H2 6337   5.426   3.283   3.301 -0.4583  0.7446  0.2384
 2125TIP3   OH2 6338   0.335   4.771   2.068  0.6470 -0.4596 -0.3683
 2125TIP3    H1 6339   0.270   4.733   2.008  0.2913  0.2151 -0.4291
 2125TIP3    H2 6340   0.418   4.735   2.039  0.2962 -1.3701 -0.2666
 2126TIP3   OH2 6341   1.923   4.518   3.227 -0.0148 -0.0483  0.0425
 2126TIP3    H1 6342   1.937   4.437   3.276  1.7190  0.2619  0.1322
 2126TIP3    H2 6343   2.011   4.552   3.210 -0.6215  0.8006 -1.7166
 2127TIP3   OH2 6344   2.935   0.619   4.935  0.0320  0.0634  0.2926
 2127TIP3    H1 6345   2.904   0.673   4.862 -1.8124 -1.4612 -0.1291
 2127TIP3    H2 6346   3.030   0.613   4.922  0.0492  1.7224 -0.6289
 2128TIP3   OH2 6347   0.692   4.560   0.788 -0.3623 -0.5603  0.0677
 2128TIP3    H1 6348   0.726   4.637   0.744 -0.8475 -0.6637 -0.5041
 2128TIP3    H2 6349   0.743   4.553   0.868  0.4859 -0.3258 -0.4488
 2129TIP3   OH2 6350   2.254   2.841   4.774 -0.1623 -0.1855  0.4744
 2129TIP3    H1 6351   2.274   2.749   4.754  1.2022  0.2892 -0.5403
 2129TIP3    H2 6352   2.186   2.864   4.711 -0.2378 -0.4084  0.4731
 2130TIP3   OH2 6353   5.610   4.265   4.369  0.0598  0.2110 -0.0259
 2130TIP3    H1 6354   5.621   4.255   4.463 -3.8216  1.4278  0.7307
 2130TIP3    H2 6355   5.602   4.360   4.356  0.3662  0.0503 -1.5890
 2131TIP3   OH2 6356   7.149   0.468   5.294 -0.2935  0.2066 -0.2142
 2131TIP3    H1 6357   7.117   0.390   5.338 -1.4033  0.0145 -1.2867
 2131TIP3    H2 6358   7.215   0.504   5.352 -0.1670 -1.2186  0.5536
 2132TIP3   OH2 6359   5.059   5.790   5.352  0.0656 -0.3329  0.2066
 2132TIP3    H1 6360   4.991   5.852   5.378 -0.0605 -0.3650 -0.0460
 2132TIP3    H2 6361   5.064   5.728   5.425 -0.6278 -0.7029 -0.0500
 2133TIP3   OH2 6362   6.270   1.783   1.101  0.2769 -0.6927 -0.0621
 2133TIP3    H1 6363   6.190   1.757   1.055 -0.2236  0.3466  0.2051
 2133TIP3    H2 6364   6.277   1.877   1.087  0.9005 -0.6011  0.7923
 2134TIP3   OH2 6365   5.370   4.165   5.373  0.0788  0.2400  0.2447
 2134TIP3    H1 6366   5.318   4.094   5.411  0.5402  0.1211  0.6650
 2134TIP3    H2 6367   5.379   4.229   5.443  1.1808 -0.1170  0.4555
 2135TIP3   OH2 6368   6.435   2.723   4.195  0.0971 -0.2930  0.8190
 2135TIP3    H1 6369   6.393   2.639   4.209 -0.3159 -0.0140  1.3091
 2135TIP3    H2 6370   6.363   2.786   4.190  0.3458 -0.1016 -0.6409
 2136TIP3   OH2 6371   2.983   2.878   2.783  0.3440 -0.4699  0.1948
 2136TIP3    H1 6372   3.066   2.879   2.735  0.6327  0.5733  0.6723
 2136TIP3    H2 6373   2.985   2.959   2.834 -0.2474 -1.2327  1.4618
 2137TIP3   OH2 6374   4.171   1.061   4.243 -0.7876 -0.1977  0.5119
 2137TIP3    H1 6375   4.125   0.978   4.227 -2.4228  0.7067  0.2448
 2137TIP3    H2 6376   4.126   1.099   4.318 -0.5727  0.7826  0.1609
 2138TIP3   OH2 6377   6.141   0.059   1.531  0.0459  0.2111 -0.0984
 2138TIP3    H1 6378   6.121   0.150   1.550 -2.4207 -0.0569 -0.9329
 2138TIP3    H2 6379   6.154   0.057   1.436 -1.1108 -0.4320 -0.2678
 2139TIP3   OH2 6380   6.363   1.200   2.376  0.2266  0.1658  0.3496
 2139TIP3    H1 6381   6.306   1.264   2.334  0.5507 -0.6122 -1.4081
 2139TIP3    H2 6382   6.425   1.252   2.427 -0.6116  1.1329  0.4171
 2140TIP3   OH2 6383   1.432   3.050   0.107 -0.4624  0.0439 -0.0656
 2140TIP3    H1 6384   1.399   2.992   0.176 -1.2579 -0.4568 -0.8290
 2140TIP3    H2 6385   1.509   3.092   0.144 -0.0200 -1.3198  0.6043
 2141TIP3   OH2 6386   3.939   5.732   2.851 -0.2839 -0.1039  0.0157
 2141TIP3    H1 6387   3.986   5.679   2.786  0.3768  0.6703 -0.1488
 2141TIP3    H2 6388   3.998   5.736   2.926 -0.9742 -0.8498  0.6159
 2142TIP3   OH2 6389   7.206   1.814   1.460 -0.0472 -0.7569 -0.1735
 2142TIP3    H1 6390   7.112   1.803   1.444  0.3006 -1.9566 -1.5732
 2142TIP3    H2 6391   7.222   1.767   1.542 -0.7593  0.0049  0.4232
 2143TIP3   OH2 6392   1.731   3.833   2.539  0.3577  0.3028 -0.6938
 2143TIP3    H1 6393   1.781   3.829   2.458 -0.4658 -0.4326 -1.1759
 2143TIP3    H2 6394   1.749   3.750   2.583 -0.3554  0.0796 -0.8207
 2144TIP3   OH2 6395   7.010   5.385   4.233  0.2747 -0.0622 -0.6125
 2144TIP3    H1 6396   6.941   5.320   4.249 -0.6512  1.0016 -0.1526
 2144TIP3    H2 6397   6.993   5.416   4.144 -1.0345  1.5422  0.1480
 2145TIP3   OH2 6398   5.861   6.736   2.490 -0.0781 -0.1131  0.0122
 2145TIP3    H1 6399   5.943   6.713   2.448  0.1331 -1.0822  0.9228
 2145TIP3    H2 6400   5.872   6.710   2.581 -0.6635  1.5778  0.6104
 2146TIP3   OH2 6401   6.965   1.518   2.529 -0.1910 -0.4626  0.2519
 2146TIP3    H1 6402   6.964   1.570   2.609  1.8288 -0.1983  0.1640
 2146TIP3    H2 6403   6.995   1.431   2.557  0.5499 -0.3618 -0.1914
 2147TIP3   OH2 6404   5.702   4.377   2.824  0.6352  0.0422 -0.3787
 2147TIP3    H1 6405   5.681   4.291   2.861 -0.2347  0.0398 -0.8420
 2147TIP3    H2 6406   5.662   4.376   2.737 -1.4771  1.7676  0.4829
 2148TIP3   OH2 6407   6.887   3.064   4.086  0.0461 -0.2177 -0.3947
 2148TIP3    H1 6408   6.900   3.108   4.002 -0.1975  0.3841 -0.1252
 2148TIP3    H2 6409   6.808   3.105   4.122  0.0067 -0.6482  0.0123
 2149TIP3   OH2 6410   6.928   2.819   1.389 -0.4357 -0.3244  0.2917
 2149TIP3    H1 6411   6.903   2.791   1.301  1.0272 -0.5719 -0.0674
 2149TIP3    H2 6412   6.982   2.897   1.375 -1.8332  0.8432  1.1102
 2150TIP3   OH2 6413   1.304   4.525   4.967  0.6566  0.4040 -0.4001
 2150TIP3    H1 6414   1.372   4.571   4.919 -1.4905  1.5227 -2.5619
 2150TIP3    H2 6415   1.222   4.553   4.927 -0.9757 -3.2880 -0.1076
 2151TIP3   OH2 6416   2.930   1.978   0.465  0.1283 -0.7180 -0.2626
 2151TIP3    H1 6417   3.018   1.964   0.500  0.8328  0.6238 -1.3851
 2151TIP3    H2 6418   2.913   2.071   0.479 -1.8614 -1.2646  1.4928
 2152TIP3   OH2 6419   4.702   1.067   0.489  0.0862 -0.1418  0.0421
 2152TIP3    H1 6420   4.614   1.041   0.518 -0.1405 -0.5489 -0.9764
 2152TIP3    H2 6421   4.747   1.092   0.570 -1.3178  1.1706  0.4621
 2153TIP3   OH2 6422   2.038   6.060   0.855  0.3791  0.3335 -0.3401
 2153TIP3    H1 6423   2.051   5.975   0.897 -0.6283  0.0481 -0.5864
 2153TIP3    H2 6424   1.989   6.111   0.920  3.4342  1.7772  1.0480
 2154TIP3   OH2 6425   4.230   0.159   3.596 -0.4082  0.3319  0.4092
 2154TIP3    H1 6426   4.199   0.110   3.672  1.6920 -2.0304 -0.0896
 2154TIP3    H2 6427   4.191   0.115   3.521 -0.0166  0.6422  0.0144
 2155TIP3   OH2 6428   1.756   2.072   0.054  0.6184 -0.2462  0.1340
 2155TIP3    H1 6429   1.661   2.061   0.043  0.7316  0.0839 -1.4148
 2155TIP3    H2 6430   1.786   1.987   0.085  0.2753 -1.6069 -2.9291
 2156TIP3   OH2 6431   3.096   0.780   4.604  0.4622 -0.1583 -0.2435
 2156TIP3    H1 6432   3.086   0.722   4.529 -0.8332  1.1805 -1.1400
 2156TIP3    H2 6433   3.007   0.807   4.626  1.0552  1.7799 -0.0980
 2157TIP3   OH2 6434   3.255   6.621   4.951 -0.1631  0.4008 -0.2806
 2157TIP3    H1 6435   3.325   6.680   4.980 -0.1049  0.9228 -1.4421
 2157TIP3    H2 6436   3.186   6.632   5.017 -0.5623  2.5425 -0.9776
 2158TIP3   OH2 6437   4.240   6.325   3.240  0.9082  0.0252  0.1639
 2158TIP3    H1 6438   4.206   6.400   3.191  1.0737 -0.1742 -0.2602
 2158TIP3    H2 6439   4.306   6.363   3.298 -0.3310  0.4801  1.3131
 2159TIP3   OH2 6440   5.799   0.330   5.593  0.0580  0.2481 -0.1734
 2159TIP3    H1 6441   5.885   0.358   5.625 -0.4810  0.8642  0.7954
 2159TIP3    H2 6442   5.741   0.403   5.613 -0.5089  0.2605 -1.7552
 2160TIP3   OH2 6443   0.520   2.409   0.506  0.5514 -0.2620  0.2383
 2160TIP3    H1 6444   0.530   2.379   0.596 -2.5469  1.5291  1.3614
 2160TIP3    H2 6445   0.514   2.504   0.513 -2.2074 -0.2034 -1.4465
 2161TIP3   OH2 6446   0.808   1.004   5.747  0.3024  0.3374  0.3373
 2161TIP3    H1 6447   0.786   1.086   5.793  0.4837  0.3370  0.4268
 2161TIP3    H2 6448   0.723   0.962   5.731  0.0908  1.1831 -0.9131
 2162TIP3   OH2 6449   0.843   0.879   3.894 -0.3391  0.0561  0.6196
 2162TIP3    H1 6450   0.843   0.801   3.839  2.3532  2.1537 -2.7511
 2162TIP3    H2 6451   0.922   0.871   3.947 -0.9622 -0.1977  1.5531
 2163TIP3   OH2 6452   4.577   4.065   1.699 -0.1115 -0.5575  0.2638
 2163TIP3    H1 6453   4.546   3.994   1.755  0.5763 -1.7698 -0.8515
 2163TIP3    H2 6454   4.668   4.077   1.723 -0.4495  0.5934  1.0686
 2164TIP3   OH2 6455   4.069   1.599   1.003 -0.1061  0.2270  0.5556
 2164TIP3    H1 6456   4.095   1.681   1.046  0.9721  0.2881 -0.1658
 2164TIP3    H2 6457   4.127   1.533   1.041  1.4769  0.4266 -1.3403
 2165TIP3   OH2 6458   6.376   0.549   2.807  0.2198  0.0942 -0.0197
 2165TIP3    H1 6459   6.470   0.560   2.816  0.2323 -0.1344  0.1403
 2165TIP3    H2 6460   6.339   0.575   2.891  0.0952  0.6710 -0.2499
 2166TIP3   OH2 6461   5.403   1.548   4.447 -0.1698 -0.2083  0.2511
 2166TIP3    H1 6462   5.484   1.504   4.471  0.0417 -0.1930 -0.4216
 2166TIP3    H2 6463   5.419   1.640   4.467  0.7066  0.1062 -1.6633
 2167TIP3   OH2 6464   1.696   3.686   0.489  0.0471  0.7922 -0.3562
 2167TIP3    H1 6465   1.731   3.745   0.555 -0.8535  0.5776  0.3343
 2167TIP3    H2 6466   1.773   3.648   0.447  0.6325  1.1701  0.3555
 2168TIP3   OH2 6467   4.546   4.554   1.604  0.7327 -0.2287  0.0711
 2168TIP3    H1 6468   4.621   4.574   1.660  0.7393  0.0721 -0.0432
 2168TIP3    H2 6469   4.477   4.614   1.633  1.2941  1.2133 -1.4251
 2169TIP3   OH2 6470   1.634   0.425   1.700 -0.5663  0.7527  0.0587
 2169TIP3    H1 6471   1.632   0.506   1.751  0.7044  0.8810 -0.0602
 2169TIP3    H2 6472   1.683   0.363   1.754  1.6257  1.1593 -1.3106
 2170TIP3   OH2 6473   4.604   3.664   4.522 -0.6015  0.0693  0.3944
 2170TIP3    H1 6474   4.643   3.622   4.445  0.0961  0.9970  0.2172
 2170TIP3    H2 6475   4.532   3.716   4.487  0.4740  1.4804  0.1477
 2171TIP3   OH2 6476   3.534   5.915   3.572  0.5893 -0.2573 -0.4002
 2171TIP3    H1 6477   3.463   5.950   3.625  0.6451  0.3888 -0.7451
 2171TIP3    H2 6478   3.505   5.925   3.482  0.8166 -0.6493 -0.5196
 2172TIP3   OH2 6479   3.375   2.339   1.411 -0.1587  0.2086 -0.4749
 2172TIP3    H1 6480   3.374   2.287   1.491 -1.8625  0.4599 -0.2914
 2172TIP3    H2 6481   3.360   2.276   1.341  1.2382  0.0021 -0.6132
 2173TIP3   OH2 6482   1.032   2.649   1.581 -0.2921 -0.0757 -0.1527
 2173TIP3    H1 6483   1.078   2.732   1.569 -0.6206  0.0589 -0.5148
 2173TIP3    H2 6484   1.094   2.583   1.548 -0.3355  0.0986 -0.5865
 2174TIP3   OH2 6485   5.808   1.361   2.140  0.3161  0.5231 -0.1148
 2174TIP3    H1 6486   5.754   1.304   2.194  0.0632  1.6025  0.7979
 2174TIP3    H2 6487   5.766   1.447   2.145  0.8832  0.8862 -1.1764
 2175TIP3   OH2 6488   3.993   3.055   2.435 -0.4363 -0.0457  0.3779
 2175TIP3    H1 6489   3.934   3.110   2.385 -1.2877 -0.1978  1.1892
 2175TIP3    H2 6490   3.997   2.973   2.386 -2.9655 -0.9963  1.5994
 2176TIP3   OH2 6491   1.733   1.559   3.107 -0.5195 -0.0654  0.0425
 2176TIP3    H1 6492   1.691   1.498   3.045 -2.0571  1.2775 -0.3132
 2176TIP3    H2 6493   1.752   1.505   3.183 -1.6231 -1.0734 -0.3504
 2177TIP3   OH2 6494   2.947   3.617   2.048 -0.1609 -0.4688  0.1467
 2177TIP3    H1 6495   2.898   3.540   2.075  1.2705 -1.2389  0.6585
 2177TIP3    H2 6496   2.906   3.690   2.095 -0.2655 -1.2123  1.2385
 2178TIP3   OH2 6497   1.606   4.280   2.904  0.7530  0.1924 -0.2472
 2178TIP3    H1 6498   1.699   4.275   2.924  0.4001 -2.2649  1.1290
 2178TIP3    H2 6499   1.575   4.190   2.908 -2.3874  1.1715  3.0181
 2179TIP3   OH2 6500   1.956   0.307   5.797 -0.4606 -0.0268  0.5704
 2179TIP3    H1 6501   2.003   0.227   5.774 -0.8490  0.1189 -0.8554
 2179TIP3    H2 6502   1.908   0.286   5.877 -2.7355 -2.1531 -1.2144
 2180TIP3   OH2 6503   0.293   6.022   3.041 -0.2479  0.2663  0.1246
 2180TIP3    H1 6504   0.241   5.942   3.033 -1.9670  1.3022  0.4249
 2180TIP3    H2 6505   0.229   6.091   3.058  0.9390  2.1126 -2.2330
 2181TIP3   OH2 6506   3.730   4.102   3.544  0.2287  0.0095 -0.1493
 2181TIP3    H1 6507   3.784   4.056   3.479  0.8756 -1.2834  1.2417
 2181TIP3    H2 6508   3.688   4.171   3.494  2.9577  0.9388 -1.3908
 2182TIP3   OH2 6509   0.970   5.972   1.941 -0.2717 -0.1578  0.0127
 2182TIP3    H1 6510   0.973   5.917   1.862 -0.6947 -1.1605  0.6741
 2182TIP3    H2 6511   0.933   6.055   1.910  1.2561  0.1110 -1.1928
 2183TIP3   OH2 6512   6.924   5.071   0.139  0.1804 -0.2746  0.5962
 2183TIP3    H1 6513   6.913   4.983   0.174 -0.6602 -0.5284 -0.2732
 2183TIP3    H2 6514   6.948   5.124   0.214 -1.1193 -0.8862  1.4625
 2184TIP3   OH2 6515   5.830   4.334   0.779  0.7268  0.7519 -0.4238
 2184TIP3    H1 6516   5.868   4.273   0.716  2.3330  0.7163  0.5044
 2184TIP3    H2 6517   5.762   4.283   0.824 -0.8765  0.9615 -2.4559
 2185TIP3   OH2 6518   7.051   6.596   5.272 -0.1694 -0.3720  0.2089
 2185TIP3    H1 6519   7.039   6.691   5.261  1.8692 -0.0505  0.4564
 2185TIP3    H2 6520   7.045   6.582   5.366 -1.3354 -0.6524  0.1103
 2186TIP3   OH2 6521   5.021   2.269  -0.028 -0.4319  0.0408 -0.2661
 2186TIP3    H1 6522   5.029   2.364  -0.026 -2.7045  0.2897  0.4147
 2186TIP3    H2 6523   5.034   2.242   0.062 -1.5626 -0.0570 -0.1123
 2187TIP3   OH2 6524   2.277   3.739   0.441 -0.6184  0.3528 -0.6612
 2187TIP3    H1 6525   2.262   3.731   0.535 -0.2111  1.0112 -0.5251
 2187TIP3    H2 6526   2.195   3.772   0.405 -0.7735  0.0999 -0.5364
 2188TIP3   OH2 6527   4.122   4.221   2.208 -0.4081 -0.0027 -0.1335
 2188TIP3    H1 6528   4.115   4.262   2.122  1.5401  2.1118  0.6011
 2188TIP3    H2 6529   4.042   4.245   2.254 -1.1398 -0.5579 -1.0887
 2189TIP3   OH2 6530   4.477   3.118   5.121 -0.6481 -0.2815  0.1126
 2189TIP3    H1 6531   4.487   3.097   5.028 -1.6851  1.5578 -0.4665
 2189TIP3    H2 6532   4.384   3.139   5.131 -0.4394  0.0779  1.4543
 2190TIP3   OH2 6533   4.309   6.190   3.556 -0.6731  0.3805  0.1638
 2190TIP3    H1 6534   4.403   6.202   3.573 -1.0427  1.0187  1.9378
 2190TIP3    H2 6535   4.295   6.228   3.469  0.6421  0.5642  0.0133
 2191TIP3   OH2 6536   2.730   4.587   1.049  0.9438  0.3757  0.7397
 2191TIP3    H1 6537   2.767   4.673   1.029  2.6055 -0.7522 -1.5425
 2191TIP3    H2 6538   2.649   4.583   0.999  0.4541  0.8701  1.4737
 2192TIP3   OH2 6539   2.550   2.114   3.336  0.0442  0.7303 -0.6649
 2192TIP3    H1 6540   2.477   2.162   3.374  0.0794  1.1677 -1.1470
 2192TIP3    H2 6541   2.519   2.023   3.332  1.2538 -0.0969  3.6093
 2193TIP3   OH2 6542   4.902   1.631   2.018  0.7191 -0.0258  0.3631
 2193TIP3    H1 6543   4.953   1.712   2.019  0.1167  0.3612  0.8973
 2193TIP3    H2 6544   4.812   1.660   2.001  0.9324 -0.8593 -2.6562
 2194TIP3   OH2 6545   1.322   1.287   3.051 -0.0792 -0.0516 -1.0588
 2194TIP3    H1 6546   1.414   1.301   3.029  0.2639 -0.0674  0.2869
 2194TIP3    H2 6547   1.274   1.323   2.976  1.0137 -0.0218 -1.7637
 2195TIP3   OH2 6548   5.725   0.587   1.618  0.0538  0.0526 -0.1861
 2195TIP3    H1 6549   5.721   0.641   1.696  1.7048  0.6915 -0.5038
 2195TIP3    H2 6550   5.696   0.645   1.547 -0.6070 -0.2629 -0.1808
 2196TIP3   OH2 6551   2.104   3.802   1.107 -0.2391  0.0382 -0.0770
 2196TIP3    H1 6552   2.080   3.776   1.017 -0.7179 -0.4541  0.1840
 2196TIP3    H2 6553   2.022   3.835   1.145  0.1595  1.0896 -0.0974
 2197TIP3   OH2 6554   5.729   5.132   0.093  0.2176 -0.3420  0.2720
 2197TIP3    H1 6555   5.668   5.173   0.155 -0.5757 -0.7709 -0.2139
 2197TIP3    H2 6556   5.812   5.127   0.141 -0.1013  0.3444  0.9052
 2198TIP3   OH2 6557   2.757   1.437   5.433 -0.1938 -0.8145  0.1013
 2198TIP3    H1 6558   2.695   1.442   5.360 -0.4229 -0.4669  0.3172
 2198TIP3    H2 6559   2.754   1.523   5.474 -0.4958 -1.1759  0.8692
 2199TIP3   OH2 6560   3.849   5.911   1.803  0.0812  0.2593 -0.2544
 2199TIP3    H1 6561   3.859   5.927   1.897 -1.3308 -0.4773  0.0617
 2199TIP3    H2 6562   3.837   5.998   1.765  1.9665  0.6854  0.0284
 2200TIP3   OH2 6563   1.585   5.503   2.408  0.9766  0.1597  0.3184
 2200TIP3    H1 6564   1.584   5.420   2.361 -1.4637  0.2810 -0.0078
 2200TIP3    H2 6565   1.599   5.479   2.500  0.5543 -0.5885  0.1887
 2201TIP3   OH2 6566   7.198   4.067   4.946 -0.2460  0.0373 -0.0808
 2201TIP3    H1 6567   7.196   4.082   5.040 -1.6149  1.1648 -0.2591
 2201TIP3    H2 6568   7.225   3.976   4.937  0.2846  0.0239  1.3768
 2202TIP3   OH2 6569   5.128   4.577   3.079 -0.3101  0.1557  0.0296
 2202TIP3    H1 6570   5.196   4.571   3.012 -0.7558  0.5532 -0.4666
 2202TIP3    H2 6571   5.135   4.665   3.114 -1.4625  0.7000 -1.0149
 2203TIP3   OH2 6572   3.745   2.070   3.324  0.0906 -0.6140  0.3091
 2203TIP3    H1 6573   3.694   2.095   3.401 -2.0614 -1.0165 -0.8997
 2203TIP3    H2 6574   3.716   1.982   3.302  0.2146 -0.3002 -1.2884
 2204TIP3   OH2 6575   5.816   2.710   2.280  0.0421 -0.1043  0.0713
 2204TIP3    H1 6576   5.807   2.624   2.321 -1.0830  0.5309  1.2001
 2204TIP3    H2 6577   5.906   2.711   2.247  0.2502 -1.4917  0.5312
 2205TIP3   OH2 6578   4.730   6.025   5.761  0.1575 -0.7184 -0.1016
 2205TIP3    H1 6579   4.670   5.975   5.706 -0.2003  0.2170 -0.5774
 2205TIP3    H2 6580   4.711   6.117   5.741 -0.4390 -0.3085  2.0308
 2206TIP3   OH2 6581   6.207   2.411   2.925  0.0601  0.1920  0.5091
 2206TIP3    H1 6582   6.114   2.433   2.916 -0.0923 -0.1163  1.2609
 2206TIP3    H2 6583   6.253   2.492   2.903 -0.3009 -0.1188 -1.6295
 2207TIP3   OH2 6584   4.151   1.748   3.458 -0.3208 -0.1581 -0.2572
 2207TIP3    H1 6585   4.192   1.695   3.527 -0.0878  1.3271  0.7837
 2207TIP3    H2 6586   4.078   1.792   3.501  0.1684  1.2333 -0.7852
 2208TIP3   OH2 6587   1.012   2.804   3.961 -0.6363  0.1150 -0.2929
 2208TIP3    H1 6588   0.924   2.832   3.936 -0.6084  1.0558  0.6115
 2208TIP3    H2 6589   1.000   2.714   3.993 -1.4049  0.4817  0.4999
 2209TIP3   OH2 6590   3.528   0.420   5.402 -0.7934 -0.7057  0.4692
 2209TIP3    H1 6591   3.612   0.448   5.437 -0.3757 -2.6492  1.1036
 2209TIP3    H2 6592   3.468   0.492   5.422  0.3503 -0.0037  1.4531
 2210TIP3   OH2 6593   0.499   4.237   5.353  0.1569 -0.0936 -0.4759
 2210TIP3    H1 6594   0.439   4.312   5.352  0.2779  0.0349  0.6700
 2210TIP3    H2 6595   0.530   4.230   5.262  1.1202  2.0312 -0.3761
 2211TIP3   OH2 6596   2.221   3.831   1.392  0.7435 -0.0625  0.4036
 2211TIP3    H1 6597   2.212   3.872   1.478  1.5657 -0.5566  0.7363
 2211TIP3    H2 6598   2.209   3.738   1.409 -0.8125 -0.0168 -0.2990
 2212TIP3   OH2 6599   0.177   6.815   3.575 -0.0811  0.2543  0.0135
 2212TIP3    H1 6600   0.123   6.737   3.580 -1.1285  0.6357 -3.3959
 2212TIP3    H2 6601   0.208   6.828   3.665 -2.3238 -2.2855  1.2886
 2213TIP3   OH2 6602   2.727   2.877   4.161  0.6712 -0.6288  0.2470
 2213TIP3    H1 6603   2.690   2.911   4.243  2.0998  1.9533 -0.0563
 2213TIP3    H2 6604   2.721   2.951   4.100  2.5882 -1.4320 -0.9953
 2214TIP3   OH2 6605   5.274   3.135   5.203  0.2651  0.0020  0.0322
 2214TIP3    H1 6606   5.186   3.106   5.179 -0.0162  1.1745 -0.3928
 2214TIP3    H2 6607   5.260   3.214   5.255  0.9755 -1.0999  2.0272
 2215TIP3   OH2 6608   2.723   0.258   0.913  0.5427  0.6386 -0.2502
 2215TIP3    H1 6609   2.799   0.200   0.909 -1.3392 -2.0007 -0.7655
 2215TIP3    H2 6610   2.721   0.301   0.827  2.5593  2.4013  0.5106
 2216TIP3   OH2 6611   6.958   1.505   1.735 -0.0978  0.4249  0.0046
 2216TIP3    H1 6612   6.882   1.448   1.723 -0.5004  1.0080 -0.2122
 2216TIP3    H2 6613   6.984   1.491   1.826 -0.7569  0.5804  0.2228
 2217TIP3   OH2 6614   5.800   0.881   3.122  0.1952  0.3078 -0.4501
 2217TIP3    H1 6615   5.709   0.895   3.147  0.5664  1.1790  0.4440
 2217TIP3    H2 6616   5.795   0.812   3.055 -1.0538 -0.1652  0.0833
 2218TIP3   OH2 6617   6.318   6.004   2.592 -0.2425 -0.1774 -0.2452
 2218TIP3    H1 6618   6.407   6.009   2.557  0.2191  1.4805  1.0168
 2218TIP3    H2 6619   6.325   5.943   2.665  0.2736  1.0954  0.8239
 2219TIP3   OH2 6620   7.120   6.395   0.642 -0.3470  0.4202 -0.3729
 2219TIP3    H1 6621   7.084   6.358   0.722  0.8415  0.3549  0.1530
 2219TIP3    H2 6622   7.065   6.358   0.572 -0.2033 -1.0780  0.2603
 2220TIP3   OH2 6623   3.559   1.818   1.162  0.4551 -0.3562  0.1796
 2220TIP3    H1 6624   3.480   1.870   1.143  0.1961 -0.4938  0.8176
 2220TIP3    H2 6625   3.540   1.777   1.247  0.8914 -1.0322 -0.0398
 2221TIP3   OH2 6626   3.144   3.226   2.769 -0.4008 -0.3223  0.2933
 2221TIP3    H1 6627   3.155   3.150   2.712  2.3636  0.2459 -0.0677
 2221TIP3    H2 6628   3.121   3.189   2.854  2.0788 -1.7646  0.4475
 2222TIP3   OH2 6629   2.519   5.021   1.949 -0.5797  0.3620 -0.2747
 2222TIP3    H1 6630   2.508   4.943   1.896 -0.4468 -0.2529  0.5815
 2222TIP3    H2 6631   2.572   5.080   1.896 -1.9775  0.5062 -1.5692
 2223TIP3   OH2 6632   2.431   2.908   1.049  0.3311 -0.2887  0.0409
 2223TIP3    H1 6633   2.425   2.991   1.003 -0.6155 -0.1713  0.3527
 2223TIP3    H2 6634   2.524   2.900   1.073  0.0877  1.7829  1.9963
 2224TIP3   OH2 6635   4.211   1.714   2.211 -0.4962  0.6716 -0.1782
 2224TIP3    H1 6636   4.187   1.667   2.131 -0.2458  0.5601 -0.1872
 2224TIP3    H2 6637   4.284   1.771   2.185 -0.4548  0.6807 -0.0432
 2225TIP3   OH2 6638   5.919   2.043   2.553 -0.0334 -0.0677  0.0601
 2225TIP3    H1 6639   5.950   1.993   2.629  0.2973  0.8324  0.5336
 2225TIP3    H2 6640   5.826   2.024   2.549 -0.3719  1.0480  1.6328
 2226TIP3   OH2 6641   6.960   0.364   4.978  0.6216  0.9691  0.0263
 2226TIP3    H1 6642   6.974   0.437   5.038  1.6131 -0.2496  1.3409
 2226TIP3    H2 6643   6.888   0.393   4.922  1.3639  3.1806  0.0973
 2227TIP3   OH2 6644   2.136   2.911   2.327 -0.4761 -0.4123  0.2469
 2227TIP3    H1 6645   2.094   2.936   2.245  0.7472  2.0297  0.2737
 2227TIP3    H2 6646   2.169   2.823   2.311 -1.9804 -0.7723 -1.1614
 2228TIP3   OH2 6647   3.907   4.641   0.220  0.2853 -0.1742 -0.0080
 2228TIP3    H1 6648   3.851   4.565   0.207  0.6807 -0.3456 -0.7884
 2228TIP3    H2 6649   3.993   4.604   0.239  0.4004  0.0786 -0.0288
 2229TIP3   OH2 6650   5.958   4.843   2.168  0.6480 -0.1251 -0.2026
 2229TIP3    H1 6651   5.892   4.805   2.225  0.4409 -0.6097 -0.7591
 2229TIP3    H2 6652   6.035   4.787   2.180  0.4008 -0.6227 -0.8814
 2230TIP3   OH2 6653   0.255   4.743   4.712  0.2195  0.2261  0.3259
 2230TIP3    H1 6654   0.211   4.714   4.792 -2.1019  2.1322 -0.1619
 2230TIP3    H2 6655   0.300   4.664   4.680 -1.4037 -1.4001  1.8208
 2231TIP3   OH2 6656   3.546   1.979   5.492 -0.2102 -0.0765  0.2202
 2231TIP3    H1 6657   3.560   2.055   5.549 -0.1377  0.4689 -0.5119
 2231TIP3    H2 6658   3.569   2.011   5.405 -0.8666 -0.7409 -0.1988
 2232TIP3   OH2 6659   5.483   2.818   1.619  0.1045 -0.4360  0.1028
 2232TIP3    H1 6660   5.389   2.802   1.608 -0.4275  1.1671  1.8208
 2232TIP3    H2 6661   5.507   2.871   1.544 -0.7488  0.4635  0.4467
 2233TIP3   OH2 6662   0.321   6.708   4.826  0.0145  0.5317  0.1624
 2233TIP3    H1 6663   0.416   6.713   4.819 -0.0490  2.1034  0.0774
 2233TIP3    H2 6664   0.289   6.788   4.784 -1.3835 -0.2464 -0.3389
 2234TIP3   OH2 6665   6.836   6.264   3.288 -0.9342  0.4686  0.2264
 2234TIP3    H1 6666   6.851   6.328   3.357 -1.0510  0.9912 -0.2234
 2234TIP3    H2 6667   6.853   6.180   3.329  0.6881  0.8693  0.4175
 2235TIP3   OH2 6668   0.096   3.941   1.983 -0.1865  0.0775 -0.4688
 2235TIP3    H1 6669   0.068   4.032   1.983 -0.3715  0.0185 -0.0234
 2235TIP3    H2 6670   0.190   3.945   1.966  0.2904  0.4963  1.9997
 2236TIP3   OH2 6671   6.506   4.793   5.481 -0.0966 -0.6291 -0.1246
 2236TIP3    H1 6672   6.529   4.700   5.494  0.9986 -0.3636 -0.0542
 2236TIP3    H2 6673   6.589   4.839   5.490 -0.1457  0.1150 -2.8196
 2237TIP3   OH2 6674   5.269   4.945   4.648  0.1074 -0.0773  0.9109
 2237TIP3    H1 6675   5.352   4.972   4.688  0.4760 -1.6920  1.3258
 2237TIP3    H2 6676   5.236   5.023   4.604  1.5502  0.7526  1.2575
 2238TIP3   OH2 6677   6.294   2.576   5.413  0.3585 -0.1720  0.9641
 2238TIP3    H1 6678   6.369   2.536   5.369  0.0888  0.3167  0.0228
 2238TIP3    H2 6679   6.331   2.645   5.468  0.6502 -0.3549  0.9955
 2239TIP3   OH2 6680   6.925   0.783   4.722  0.2126 -0.2047 -0.4581
 2239TIP3    H1 6681   6.983   0.814   4.792 -0.2171 -0.5762  0.0755
 2239TIP3    H2 6682   6.955   0.694   4.704 -0.5673 -0.6302  0.2589
 2240TIP3   OH2 6683   6.813   1.593   5.548 -0.2198  0.2233  0.0791
 2240TIP3    H1 6684   6.745   1.526   5.556 -0.2486  0.3444  1.0128
 2240TIP3    H2 6685   6.783   1.664   5.605  0.6498  0.3115  0.4358
 2241TIP3   OH2 6686   3.207   5.549   4.708  0.3373 -0.1478 -0.1490
 2241TIP3    H1 6687   3.216   5.563   4.802  1.2300 -0.6585 -0.1447
 2241TIP3    H2 6688   3.221   5.636   4.669 -0.5325  0.1628  0.2001
 2242TIP3   OH2 6689   0.489   3.477   0.127  0.1710  0.1314 -0.0139
 2242TIP3    H1 6690   0.484   3.456   0.220  0.8928  0.4272  0.0939
 2242TIP3    H2 6691   0.530   3.400   0.087  1.0398  0.5244  0.1031
 2243TIP3   OH2 6692   0.795   2.059   4.355  0.0702 -0.1012  0.0493
 2243TIP3    H1 6693   0.755   1.985   4.402 -0.0320  0.1901  0.4287
 2243TIP3    H2 6694   0.722   2.119   4.340  0.4213  0.6252  1.1192
 2244TIP3   OH2 6695   6.874   3.186   0.733  0.4470 -0.4473  0.1288
 2244TIP3    H1 6696   6.910   3.244   0.665 -1.1847 -0.1660 -0.5501
 2244TIP3    H2 6697   6.949   3.137   0.765  1.0683 -1.8255 -3.0602
 2245TIP3   OH2 6698   3.129   6.400   0.693 -0.6013  0.0796 -0.3999
 2245TIP3    H1 6699   3.102   6.313   0.723  1.1343 -0.3768 -0.0241
 2245TIP3    H2 6700   3.136   6.391   0.598 -0.4292 -0.2052 -0.3632
 2246TIP3   OH2 6701   3.725   5.169   5.085 -0.3171  0.2424 -0.6996
 2246TIP3    H1 6702   3.640   5.202   5.055 -0.6112  0.6842  0.5651
 2246TIP3    H2 6703   3.789   5.229   5.045 -0.6991  0.8388 -0.4320
 2247TIP3   OH2 6704   6.135   0.128   2.880 -1.0686 -0.5377 -0.8897
 2247TIP3    H1 6705   6.088   0.078   2.813 -1.1917 -1.7442  0.0494
 2247TIP3    H2 6706   6.128   0.074   2.959  0.8281 -0.1418 -0.4002
 2248TIP3   OH2 6707   0.169   0.857   4.856 -0.3776  0.0384 -0.4527
 2248TIP3    H1 6708   0.227   0.806   4.912  0.4852 -0.4543 -1.7567
 2248TIP3    H2 6709   0.135   0.795   4.792  1.0185  1.1196 -2.3367
 2249TIP3   OH2 6710   3.278   5.216   3.804  0.1152 -0.5719  0.9359
 2249TIP3    H1 6711   3.309   5.245   3.889  2.9288 -1.8263  0.4357
 2249TIP3    H2 6712   3.354   5.224   3.746 -1.7231  0.4299 -1.5695
 2250TIP3   OH2 6713   1.596   1.782   3.267  0.2699 -0.1352 -0.7246
 2250TIP3    H1 6714   1.620   1.798   3.176  0.5562 -0.4442 -0.7065
 2250TIP3    H2 6715   1.607   1.867   3.310  0.9590 -0.1751 -0.8050
 2251TIP3   OH2 6716   2.414   5.564   0.821 -0.3342  0.6568  0.2147
 2251TIP3    H1 6717   2.397   5.557   0.727 -0.4617 -1.0619  0.3341
 2251TIP3    H2 6718   2.379   5.649   0.846 -2.3100  0.2129 -0.8859
 2252TIP3   OH2 6719   5.129   4.902   2.296 -0.0052 -0.1685  0.2651
 2252TIP3    H1 6720   5.054   4.853   2.331 -0.2131 -0.3144 -0.3633
 2252TIP3    H2 6721   5.188   4.912   2.370  0.3652 -1.9808  0.2623
 2253TIP3   OH2 6722   0.627   2.554   2.503 -0.2177  0.7515 -0.3533
 2253TIP3    H1 6723   0.620   2.470   2.548 -1.3240  0.6921 -0.5974
 2253TIP3    H2 6724   0.704   2.596   2.541  0.4269 -0.4324 -0.3327
 2254TIP3   OH2 6725   3.706   1.413   5.826  0.0417 -0.3337  0.1493
 2254TIP3    H1 6726   3.682   1.469   5.899  2.7779 -0.4501  1.2301
 2254TIP3    H2 6727   3.686   1.466   5.748 -3.2445 -0.3498  0.8313
 2255TIP3   OH2 6728   1.417   5.599   0.440 -0.3237  0.0250  0.1218
 2255TIP3    H1 6729   1.408   5.516   0.486 -2.5420 -0.2589 -0.6925
 2255TIP3    H2 6730   1.451   5.660   0.505 -2.6369 -0.5326  1.9814
 2256TIP3   OH2 6731   3.140   3.702   2.711 -0.2906  0.6328  0.0074
 2256TIP3    H1 6732   3.164   3.738   2.796 -1.8343 -0.8583  1.1606
 2256TIP3    H2 6733   3.079   3.766   2.674 -1.2257  0.3378  0.9919
 2257TIP3   OH2 6734   2.580   0.407   3.612 -0.1400 -0.0479  0.0077
 2257TIP3    H1 6735   2.493   0.431   3.643  0.0419  1.4802 -0.5805
 2257TIP3    H2 6736   2.623   0.369   3.688 -1.1509 -0.3675  0.4381
 2258TIP3   OH2 6737   7.136   1.549   1.159 -0.4641  0.1565  0.5002
 2258TIP3    H1 6738   7.191   1.516   1.088  1.7631  0.3922  1.9806
 2258TIP3    H2 6739   7.109   1.470   1.207  0.3320  0.1302  0.9292
 2259TIP3   OH2 6740   2.332   5.820   0.916 -0.1983 -0.2538 -0.0791
 2259TIP3    H1 6741   2.243   5.787   0.927 -1.3770  2.5937 -0.0992
 2259TIP3    H2 6742   2.350   5.868   0.997  0.5079  0.8463 -0.8468
 2260TIP3   OH2 6743   1.985   5.130   0.361  0.0746  0.3296  0.5687
 2260TIP3    H1 6744   2.027   5.181   0.292 -1.4820  2.6824  1.2466
 2260TIP3    H2 6745   1.894   5.122   0.333 -0.1176 -0.4696  1.3703
 2261TIP3   OH2 6746   1.386   2.585   4.621  0.4590  0.1596 -0.2317
 2261TIP3    H1 6747   1.435   2.638   4.558 -1.0015  1.1486 -0.5894
 2261TIP3    H2 6748   1.358   2.508   4.571  0.6832  0.1424 -0.3338
 2262TIP3   OH2 6749   5.559   4.349   2.581 -0.4880 -0.0967 -0.5748
 2262TIP3    H1 6750   5.545   4.287   2.509 -1.6203  0.8236 -1.1915
 2262TIP3    H2 6751   5.573   4.433   2.538 -1.0704  0.4509  0.2744
 2263TIP3   OH2 6752   3.026   3.510   0.570 -0.9315  0.0289 -0.3853
 2263TIP3    H1 6753   2.991   3.421   0.574  0.9516 -0.9219 -2.6888
 2263TIP3    H2 6754   3.020   3.533   0.477 -0.2557  1.8291 -0.0037
 2264TIP3   OH2 6755   4.807   4.576   5.557  0.1088 -0.1909  0.1208
 2264TIP3    H1 6756   4.803   4.656   5.506 -1.2891 -0.3560 -0.0894
 2264TIP3    H2 6757   4.900   4.556   5.564  0.4326  0.9760 -0.5525
 2265TIP3   OH2 6758   1.956   1.714   2.748 -0.7993  0.1362  0.2744
 2265TIP3    H1 6759   2.007   1.679   2.675 -1.5777  2.5889 -1.6002
 2265TIP3    H2 6760   1.865   1.709   2.718 -1.2027  0.4856  1.4058
 2266TIP3   OH2 6761   2.563   1.805   5.343  0.4871  0.0800 -0.0360
 2266TIP3    H1 6762   2.529   1.776   5.259  1.1892 -1.3344  0.1407
 2266TIP3    H2 6763   2.485   1.817   5.398  0.0974  0.0315 -0.5716
 2267TIP3   OH2 6764   3.634   3.007   1.722 -0.2492  0.4002 -0.1772
 2267TIP3    H1 6765   3.548   3.030   1.686 -0.4446 -0.2905 -0.1671
 2267TIP3    H2 6766   3.677   2.958   1.651  0.3229  1.1375 -0.3530
 2268TIP3   OH2 6767   5.984   6.113   3.585  0.1492 -0.1913  0.3865
 2268TIP3    H1 6768   6.009   6.198   3.551  0.4257  0.1204  1.3313
 2268TIP3    H2 6769   5.974   6.058   3.507 -0.0081  0.6880 -0.2284
 2269TIP3   OH2 6770   2.788   2.944   5.369  0.2362  0.0900 -0.0159
 2269TIP3    H1 6771   2.721   2.918   5.305 -1.2668  1.3901  0.9514
 2269TIP3    H2 6772   2.871   2.931   5.324 -0.7412  0.3501 -1.9959
 2270TIP3   OH2 6773   4.639   6.496   4.815 -0.0703  0.0141  0.0144
 2270TIP3    H1 6774   4.652   6.401   4.815 -0.0382 -0.0594  2.4769
 2270TIP3    H2 6775   4.591   6.513   4.897 -0.9404  2.0296 -0.8506
 2271TIP3   OH2 6776   1.525   3.560   2.170  0.3555 -0.2006  0.0543
 2271TIP3    H1 6777   1.579   3.591   2.097 -1.2994 -0.6189 -1.4101
 2271TIP3    H2 6778   1.448   3.521   2.128 -1.2620  0.6512  2.0486
 2272TIP3   OH2 6779   6.297   0.458   3.092  0.2883  0.2571  0.0271
 2272TIP3    H1 6780   6.291   0.524   3.161 -1.6458 -0.3073  0.4581
 2272TIP3    H2 6781   6.207   0.428   3.080  1.0662 -2.0544 -0.3981
 2273TIP3   OH2 6782   5.030   1.304   4.277 -0.0229 -0.4090  0.3087
 2273TIP3    H1 6783   5.103   1.332   4.333  0.2217 -0.5609  0.0671
 2273TIP3    H2 6784   5.069   1.292   4.190 -0.3430 -0.4545  0.1695
 2274TIP3   OH2 6785   1.319   0.593   3.906 -0.2474 -0.1524 -0.2468
 2274TIP3    H1 6786   1.243   0.564   3.856 -0.2374 -2.8072  1.0884
 2274TIP3    H2 6787   1.307   0.553   3.993  1.1283  1.9353  1.0081
 2275TIP3   OH2 6788   0.248   2.198   2.467  0.0028  0.2462  0.3849
 2275TIP3    H1 6789   0.239   2.134   2.396 -1.2408 -0.5457  1.2346
 2275TIP3    H2 6790   0.281   2.147   2.541  1.0826  1.0294  0.4802
 2276TIP3   OH2 6791   3.121   3.203   4.159  0.2144  0.8426  0.5432
 2276TIP3    H1 6792   3.157   3.288   4.186  0.0546  0.6706  1.3258
 2276TIP3    H2 6793   3.033   3.202   4.196 -1.6484  2.2710 -3.2848
 2277TIP3   OH2 6794   6.332   1.452   3.822 -0.2682 -0.0849  0.3004
 2277TIP3    H1 6795   6.394   1.452   3.748 -0.9874 -1.6660 -0.3278
 2277TIP3    H2 6796   6.247   1.432   3.783 -1.2937  2.2655  1.1231
 2278TIP3   OH2 6797   4.383   3.254   2.008  0.3461 -0.8632  0.0191
 2278TIP3    H1 6798   4.377   3.179   2.067  1.6655 -0.3441  0.8632
 2278TIP3    H2 6799   4.456   3.306   2.043  0.5173 -0.0326 -1.4985
 2279TIP3   OH2 6800   2.834   4.599   2.645 -0.0406 -0.8729 -0.2161
 2279TIP3    H1 6801   2.869   4.635   2.726  0.5253 -0.8003 -0.4843
 2279TIP3    H2 6802   2.754   4.649   2.628  0.2840 -0.3158 -0.1399
 2280TIP3   OH2 6803   6.894   5.387   5.263 -0.2333 -0.3296 -0.8047
 2280TIP3    H1 6804   6.889   5.440   5.184 -0.9163 -0.2087 -0.6870
 2280TIP3    H2 6805   6.922   5.301   5.232  0.6270  0.0172 -1.0279
 2281TIP3   OH2 6806   5.296   5.383   1.437  0.4617  0.6107 -0.3980
 2281TIP3    H1 6807   5.270   5.474   1.450  0.1588  0.5085 -0.2683
 2281TIP3    H2 6808   5.291   5.369   1.343 -0.1423  0.5399 -0.3589
 2282TIP3   OH2 6809   1.113   4.684   4.809  0.0659  0.0866  0.3498
 2282TIP3    H1 6810   1.176   4.717   4.746  1.0402 -0.0690  1.2164
 2282TIP3    H2 6811   1.031   4.675   4.759  0.1670  2.2402 -0.2841
 2283TIP3   OH2 6812   1.470   4.591   0.265 -0.5696 -0.0287 -0.1003
 2283TIP3    H1 6813   1.473   4.587   0.361  1.3910 -0.0031 -0.1230
 2283TIP3    H2 6814   1.394   4.538   0.242  0.5621 -2.4896  1.3732
 2284TIP3   OH2 6815   3.229   5.697   0.067  0.1093  0.2455  0.2041
 2284TIP3    H1 6816   3.196   5.782   0.094 -0.5770  0.2216 -0.5271
 2284TIP3    H2 6817   3.249   5.706  -0.026 -0.1958 -0.4526  0.0590
 2285TIP3   OH2 6818   2.978   6.597   5.068 -0.2381  0.1076  0.2644
 2285TIP3    H1 6819   2.964   6.525   5.007 -0.9970  0.6557 -0.2333
 2285TIP3    H2 6820   2.891   6.638   5.078  0.1734  0.9507  0.5288
 2286TIP3   OH2 6821   1.702   3.259   1.598 -0.4244 -0.4327 -0.7395
 2286TIP3    H1 6822   1.709   3.235   1.690  1.6847  1.9720 -0.1747
 2286TIP3    H2 6823   1.728   3.180   1.550  1.8008 -0.7476  0.8571
 2287TIP3   OH2 6824   5.302   2.203   3.322  1.2026  0.1422  0.2110
 2287TIP3    H1 6825   5.341   2.142   3.258 -0.0158  0.1956 -0.6107
 2287TIP3    H2 6826   5.230   2.245   3.275  0.4486  0.3976  1.5366
 2288TIP3   OH2 6827   0.416   6.487   5.754  0.0085  0.0990  0.2962
 2288TIP3    H1 6828   0.420   6.566   5.807 -1.2205 -0.3530  1.1035
 2288TIP3    H2 6829   0.361   6.511   5.679  3.4742  1.4112 -2.1027
 2289TIP3   OH2 6830   6.073   1.037   1.003  0.1673 -0.1335 -0.0966
 2289TIP3    H1 6831   6.071   1.133   1.001 -1.4587 -0.1421 -0.0789
 2289TIP3    H2 6832   5.988   1.011   0.967  0.7936 -1.5876 -0.5812
 2290TIP3   OH2 6833   3.685   3.576   2.876  0.2363  0.2475 -0.5600
 2290TIP3    H1 6834   3.760   3.623   2.913 -0.4981  0.9758  0.0535
 2290TIP3    H2 6835   3.723   3.505   2.824  1.3632 -1.1247  1.9577
 2291TIP3   OH2 6836   1.160   2.891   5.526 -0.2871  0.5279  0.1954
 2291TIP3    H1 6837   1.121   2.858   5.607 -1.1052  2.3807  0.5945
 2291TIP3    H2 6838   1.115   2.844   5.456  0.7570 -1.4450  0.7576
 2292TIP3   OH2 6839   5.750   5.187   0.656  0.1138  0.8291  0.0144
 2292TIP3    H1 6840   5.694   5.170   0.580  0.2925 -0.0816  0.0688
 2292TIP3    H2 6841   5.689   5.201   0.728 -0.0536  1.1419 -0.1889
 2293TIP3   OH2 6842   1.649   6.058   1.299  0.0922  0.1945  0.1795
 2293TIP3    H1 6843   1.728   6.072   1.351 -0.9872  3.0537  1.2817
 2293TIP3    H2 6844   1.581   6.041   1.363 -0.5221 -0.5136 -0.6346
 2294TIP3   OH2 6845   1.503   3.586   5.838  0.1391  0.1396 -0.2838
 2294TIP3    H1 6846   1.409   3.600   5.853  0.3021  1.0990 -0.1424
 2294TIP3    H2 6847   1.543   3.672   5.848  1.4219 -0.6550  2.4049
 2295TIP3   OH2 6848   2.207   0.123   3.068  0.5246  0.0458 -0.5428
 2295TIP3    H1 6849   2.301   0.136   3.069  0.4565  0.7295 -1.3942
 2295TIP3    H2 6850   2.171   0.201   3.111  0.2744  0.8317 -2.1112
 2296TIP3   OH2 6851   0.172   3.516   3.272 -0.9103  0.4893 -0.2490
 2296TIP3    H1 6852   0.255   3.475   3.295 -0.6683  0.8756 -0.4131
 2296TIP3    H2 6853   0.141   3.555   3.353  0.4996  2.8326 -0.7368
 2297TIP3   OH2 6854   4.722   1.347   5.859 -0.1494  0.5312 -0.0112
 2297TIP3    H1 6855   4.803   1.298   5.876 -0.0797  0.0323 -1.5982
 2297TIP3    H2 6856   4.751   1.435   5.837 -0.0623  0.4800 -0.1035
 2298TIP3   OH2 6857   1.127   2.270   1.359 -0.1796  0.6923 -0.2392
 2298TIP3    H1 6858   1.135   2.177   1.335 -0.2782  0.8678 -0.9846
 2298TIP3    H2 6859   1.095   2.312   1.280 -2.4512  1.0145  0.7876
 2299TIP3   OH2 6860   6.591   5.758   3.276  0.0484 -0.3905  0.4052
 2299TIP3    H1 6861   6.567   5.811   3.352  2.4790  1.2226  0.1816
 2299TIP3    H2 6862   6.553   5.805   3.201 -1.4462 -1.3989  0.4943
 2300TIP3   OH2 6863   3.249   5.011   0.388  0.1005 -0.0227  0.1395
 2300TIP3    H1 6864   3.273   5.035   0.298  2.4942  1.0160  0.9681
 2300TIP3    H2 6865   3.226   5.094   0.429 -0.5341 -0.4280  0.6144
 2301TIP3   OH2 6866   6.447   4.700   0.140 -0.3616 -0.6071 -0.3058
 2301TIP3    H1 6867   6.383   4.747   0.194  0.5221  0.2312  0.0378
 2301TIP3    H2 6868   6.409   4.702   0.052 -0.2361  1.0127 -0.3572
 2302TIP3   OH2 6869   4.281   1.287   4.853 -0.2769 -0.4274 -0.2310
 2302TIP3    H1 6870   4.193   1.311   4.881  0.5398  0.8188  1.4752
 2302TIP3    H2 6871   4.309   1.361   4.799  0.2482 -0.0633  0.5108
 2303TIP3   OH2 6872   1.575   3.809   4.404 -0.0076  0.1760 -0.3020
 2303TIP3    H1 6873   1.662   3.777   4.427  0.3241  2.0009  1.2923
 2303TIP3    H2 6874   1.565   3.788   4.311  1.5758 -1.2454 -0.1978
 2304TIP3   OH2 6875   3.749   5.589   0.295  0.1184  0.2742 -0.3835
 2304TIP3    H1 6876   3.746   5.514   0.355 -2.3502 -0.7555 -1.6518
 2304TIP3    H2 6877   3.792   5.556   0.217  1.2396  0.9378 -0.0655
 2305TIP3   OH2 6878   3.278   6.805   4.712  0.2596  0.2519  0.2327
 2305TIP3    H1 6879   3.357   6.756   4.689  0.9912  0.6222  1.8064
 2305TIP3    H2 6880   3.232   6.748   4.774  0.2921  0.8610  0.8264
 2306TIP3   OH2 6881   4.589   2.534   2.538  0.1017 -0.2694  0.8387
 2306TIP3    H1 6882   4.663   2.522   2.479  0.5670 -0.6221  1.4795
 2306TIP3    H2 6883   4.629   2.563   2.620 -0.5132 -0.0164  1.0550
 2307TIP3   OH2 6884   0.652   5.834   5.101  0.3063 -0.2471 -0.3106
 2307TIP3    H1 6885   0.710   5.763   5.074  0.4011  0.4100 -1.9275
 2307TIP3    H2 6886   0.599   5.797   5.172 -0.2990 -2.2379 -1.7357
 2308TIP3   OH2 6887   6.927   2.953   4.790  0.4992  0.2748 -0.1472
 2308TIP3    H1 6888   6.842   2.921   4.820  0.9435 -1.7437 -0.8941
 2308TIP3    H2 6889   6.907   3.034   4.743 -0.9420  0.0848  0.0913
 2309TIP3   OH2 6890   1.547   1.495   0.196  0.1945  0.4302  0.3672
 2309TIP3    H1 6891   1.594   1.458   0.271 -1.6211 -1.3977  0.7332
 2309TIP3    H2 6892   1.521   1.583   0.225 -0.6820 -0.3190  2.0576
 2310TIP3   OH2 6893   6.640   4.978   0.335 -0.1004  0.2666 -0.2525
 2310TIP3    H1 6894   6.589   4.986   0.416 -0.5650 -1.2470 -0.3512
 2310TIP3    H2 6895   6.730   4.997   0.361  0.1759 -2.4944  1.2297
 2311TIP3   OH2 6896   0.200   0.190   5.214 -0.3418  0.2204 -0.6758
 2311TIP3    H1 6897   0.177   0.098   5.200 -0.4338  0.0234  0.6839
 2311TIP3    H2 6898   0.285   0.199   5.171 -1.1862  0.0090 -2.4870
 2312TIP3   OH2 6899   6.404   0.538   0.357 -0.0988  0.0106 -0.7223
 2312TIP3    H1 6900   6.483   0.585   0.329 -0.5032  0.6908 -0.7469
 2312TIP3    H2 6901   6.428   0.446   0.352  0.1096  0.1328 -2.5397
 2313TIP3   OH2 6902   2.640   0.091   3.159 -0.1138 -0.1943  0.3546
 2313TIP3    H1 6903   2.733   0.108   3.145 -0.0668  0.0619  0.9511
 2313TIP3    H2 6904   2.613   0.156   3.225 -0.9766  0.4850 -0.6304
 2314TIP3   OH2 6905   2.514   5.674   4.764  0.5501 -0.2245 -0.4263
 2314TIP3    H1 6906   2.583   5.699   4.702  0.0985  2.5293  0.0636
 2314TIP3    H2 6907   2.434   5.669   4.712  0.3704  0.9562 -0.2762
 2315TIP3   OH2 6908   4.391   5.750   1.419  0.0452 -0.3508 -0.2900
 2315TIP3    H1 6909   4.378   5.756   1.325  1.0330 -1.1046 -0.4856
 2315TIP3    H2 6910   4.382   5.657   1.439 -0.5460 -0.1531  0.4260
 2316TIP3   OH2 6911   1.232   0.068   2.734 -0.4603 -0.0083  0.2802
 2316TIP3    H1 6912   1.309   0.086   2.786 -0.4246 -0.4681  0.3878
 2316TIP3    H2 6913   1.235  -0.026   2.717 -0.8659  0.0100  0.0824
 2317TIP3   OH2 6914   5.933   5.541   4.642 -0.1435 -0.6198 -0.8258
 2317TIP3    H1 6915   5.852   5.498   4.669  0.7027 -2.1733 -0.6186
 2317TIP3    H2 6916   6.001   5.499   4.696  0.6918  1.3382 -0.2794
 2318TIP3   OH2 6917   1.703   6.447   4.496  0.0649 -0.2780 -0.3693
 2318TIP3    H1 6918   1.729   6.453   4.588 -0.7691 -1.6641 -0.0093
 2318TIP3    H2 6919   1.718   6.534   4.461  0.9329  0.1228  0.9405
 2319TIP3   OH2 6920   4.803   2.737   0.730  0.3692 -0.1303  0.0583
 2319TIP3    H1 6921   4.748   2.697   0.663 -0.2761  2.0865 -0.8223
 2319TIP3    H2 6922   4.885   2.757   0.685  0.0099  1.1758 -0.0664
 2320TIP3   OH2 6923   5.479   3.802   2.704 -0.0693  0.6247 -0.2602
 2320TIP3    H1 6924   5.480   3.897   2.699 -1.8855  0.6309 -1.1620
 2320TIP3    H2 6925   5.406   3.775   2.649  0.0532 -1.2665  0.4124
 2321TIP3   OH2 6926   6.665   2.030   4.075 -0.0818 -0.4914  1.3218
 2321TIP3    H1 6927   6.731   1.977   4.120 -0.2520 -2.6244 -0.6991
 2321TIP3    H2 6928   6.694   2.030   3.983 -1.6415  0.5547  0.7924
 2322TIP3   OH2 6929   3.536   2.772   5.428 -0.5158  0.3885  0.4946
 2322TIP3    H1 6930   3.565   2.690   5.389  0.4360  0.9710 -0.0627
 2322TIP3    H2 6931   3.485   2.815   5.359 -1.1964  0.1834  0.8581
 2323TIP3   OH2 6932   2.624   3.334   1.703 -0.0061  0.5736 -0.5575
 2323TIP3    H1 6933   2.533   3.337   1.673 -0.1836  1.3119  0.0028
 2323TIP3    H2 6934   2.620   3.289   1.788  0.0896  0.9083 -0.3691
 2324TIP3   OH2 6935   3.528   6.356   0.013  0.0373  0.0429  0.2908
 2324TIP3    H1 6936   3.539   6.438   0.061  1.4578  0.6358 -0.9831
 2324TIP3    H2 6937   3.585   6.294   0.058 -1.4671 -0.4661  1.6089
 2325TIP3   OH2 6938   6.987   0.844   3.991 -0.3588 -0.3523 -0.2899
 2325TIP3    H1 6939   6.984   0.938   3.973 -2.0898 -0.2842  0.1555
 2325TIP3    H2 6940   7.066   0.832   4.044 -2.4327  1.6664  3.7185
 2326TIP3   OH2 6941   3.563   2.296   4.177  0.4308 -0.4329 -0.1853
 2326TIP3    H1 6942   3.530   2.385   4.169 -0.2538 -0.7448 -0.9592
 2326TIP3    H2 6943   3.614   2.282   4.097  0.7170 -0.6698  0.0346
 2327TIP3   OH2 6944   4.686   3.199   4.593  0.0475  0.0652  0.6306
 2327TIP3    H1 6945   4.628   3.196   4.517  0.4241 -0.0622  0.3457
 2327TIP3    H2 6946   4.774   3.208   4.556  0.1299  1.3835  1.0841
 2328TIP3   OH2 6947   2.648   6.732   3.083  0.2519 -0.2483 -0.3065
 2328TIP3    H1 6948   2.574   6.790   3.066  0.1439 -0.6466 -1.2637
 2328TIP3    H2 6949   2.675   6.753   3.172 -1.1585 -0.2648  0.1386
 2329TIP3   OH2 6950   6.722   2.559   4.755 -0.3478  0.4129 -0.3931
 2329TIP3    H1 6951   6.645   2.520   4.713 -0.2475  0.5064 -0.6669
 2329TIP3    H2 6952   6.780   2.583   4.682 -0.0842  0.3954 -0.1931
 2330TIP3   OH2 6953   0.294   0.959   3.253 -0.2377 -0.0870  0.0708
 2330TIP3    H1 6954   0.337   1.033   3.211 -1.8187  0.5239 -0.5670
 2330TIP3    H2 6955   0.237   0.999   3.319  0.6099 -0.9010  1.3322
 2331TIP3   OH2 6956   5.293   1.157   5.485  0.7375  0.2226  0.3632
 2331TIP3    H1 6957   5.262   1.237   5.442 -0.6611 -0.9826 -1.0139
 2331TIP3    H2 6958   5.323   1.186   5.571  1.2843  2.3710 -0.4889
 2332TIP3   OH2 6959   2.045   4.380   4.350 -0.9000  0.0446 -0.2065
 2332TIP3    H1 6960   2.020   4.313   4.287  0.5814 -0.0918 -0.6884
 2332TIP3    H2 6961   2.008   4.350   4.433 -0.5824 -1.1781 -0.4901
 2333TIP3   OH2 6962   0.736   2.245   1.586  0.0585  0.0056 -0.2515
 2333TIP3    H1 6963   0.791   2.256   1.663  1.2029 -0.3801 -0.9894
 2333TIP3    H2 6964   0.782   2.294   1.517  0.3501 -1.6388 -1.2807
 2334TIP3   OH2 6965   0.463   6.632   2.314  0.8659  0.3392  0.2096
 2334TIP3    H1 6966   0.424   6.719   2.312  0.6995  0.3914  2.4521
 2334TIP3    H2 6967   0.554   6.647   2.338  0.3349 -0.1239  2.8714
 2335TIP3   OH2 6968   1.589   5.569   3.955 -0.0861 -0.3995  0.1291
 2335TIP3    H1 6969   1.629   5.632   4.014 -1.9508  2.9466 -1.8945
 2335TIP3    H2 6970   1.495   5.577   3.970 -0.4122 -2.7528 -0.2450
 2336TIP3   OH2 6971   1.246   1.608   0.798  0.2251 -0.1651 -0.2964
 2336TIP3    H1 6972   1.303   1.583   0.870 -0.9214 -0.7827  0.4399
 2336TIP3    H2 6973   1.237   1.528   0.746 -1.3825 -0.6125  0.6091
 2337TIP3   OH2 6974   3.683   0.357   0.798 -0.1548  0.3293 -0.2315
 2337TIP3    H1 6975   3.634   0.439   0.803  0.4778  0.7746 -1.0853
 2337TIP3    H2 6976   3.734   0.355   0.880 -1.2846  0.0338  0.4922
 2338TIP3   OH2 6977   5.224   2.520   0.337  0.1343  0.1284  0.5488
 2338TIP3    H1 6978   5.262   2.504   0.250 -0.6701  1.0858  0.0111
 2338TIP3    H2 6979   5.299   2.513   0.397  1.2591  2.2952 -0.5106
 2339TIP3   OH2 6980   5.107   2.631   2.285  0.2715  0.1747 -0.4456
 2339TIP3    H1 6981   5.187   2.633   2.231  0.3327  2.1010 -0.3664
 2339TIP3    H2 6982   5.036   2.616   2.223  0.5284  0.4202 -0.8029
 2340TIP3   OH2 6983   2.924   4.818   3.248 -0.3307 -0.2659  0.1998
 2340TIP3    H1 6984   2.941   4.736   3.201 -1.6337  0.5728 -1.9103
 2340TIP3    H2 6985   2.857   4.795   3.312 -1.5169 -0.6854 -1.1334
 2341TIP3   OH2 6986   3.311   4.341   2.088 -0.4066  0.5745 -0.2270
 2341TIP3    H1 6987   3.352   4.381   2.011  3.0435 -2.1519 -0.0157
 2341TIP3    H2 6988   3.323   4.405   2.158 -1.3091  2.0101 -1.3289
 2342TIP3   OH2 6989   6.002   5.004   5.079  0.0334  0.2082  0.0671
 2342TIP3    H1 6990   6.019   4.968   4.992 -0.3538 -1.5351  0.6570
 2342TIP3    H2 6991   5.966   5.091   5.063  1.5049  0.5796 -1.4418
 2343TIP3   OH2 6992   5.120   6.048   4.293  0.2525  0.4995  0.3551
 2343TIP3    H1 6993   5.175   6.028   4.369  0.6248 -2.5184 -0.5591
 2343TIP3    H2 6994   5.115   6.143   4.290  3.6882  0.8436  1.7206
 2344TIP3   OH2 6995   6.912   5.867   5.166  0.3766  0.1904  0.3292
 2344TIP3    H1 6996   6.915   5.808   5.091  1.4215 -0.4791  0.8642
 2344TIP3    H2 6997   6.991   5.920   5.158 -0.0107  0.7860  0.4313
 2345TIP3   OH2 6998   2.001   0.553   2.156 -0.3874  0.1513 -0.3553
 2345TIP3    H1 6999   2.095   0.566   2.173 -0.5616  1.4707 -0.3192
 2345TIP3    H2 7000   1.979   0.617   2.089 -1.0869 -0.7812 -1.0492
 2346TIP3   OH2 7001   6.473   1.849   4.319 -0.2348  0.0652 -0.0075
 2346TIP3    H1 7002   6.384   1.873   4.347 -0.5895 -1.0184 -0.1538
 2346TIP3    H2 7003   6.464   1.834   4.225  0.1279  0.0581 -0.0400
 2347TIP3   OH2 7004   3.972   2.736   2.640 -0.2506  0.3486  0.0943
 2347TIP3    H1 7005   4.015   2.789   2.708  1.0629 -1.0238  0.4048
 2347TIP3    H2 7006   4.005   2.771   2.558  1.2255 -0.4116  0.3205
 2348TIP3   OH2 7007   6.656   4.162   1.619 -0.0443  0.5266  0.0804
 2348TIP3    H1 7008   6.736   4.138   1.666 -1.0827 -0.5386  1.3769
 2348TIP3    H2 7009   6.682   4.162   1.526  1.1488 -1.1287  0.3642
 2349TIP3   OH2 7010   0.557   3.698   4.910  0.6080  0.2165 -0.2891
 2349TIP3    H1 7011   0.559   3.605   4.933  2.5959  0.4452  0.6920
 2349TIP3    H2 7012   0.498   3.738   4.974  1.4241 -0.0641  0.6575
 2350TIP3   OH2 7013   4.241   4.275   1.063 -0.0817 -0.1386 -0.2106
 2350TIP3    H1 7014   4.244   4.266   0.968  1.6952 -0.9579 -0.0980
 2350TIP3    H2 7015   4.297   4.350   1.082  2.1438 -1.8432  0.3636
 2351TIP3   OH2 7016   7.021   1.484   0.363 -0.6291  0.1951 -0.1169
 2351TIP3    H1 7017   6.961   1.496   0.289 -1.2673  2.0457  0.6415
 2351TIP3    H2 7018   7.081   1.558   0.358  1.0324 -1.0897 -0.2807
 2352TIP3   OH2 7019   4.340   4.770   5.210  0.7717  0.1324 -0.7166
 2352TIP3    H1 7020   4.251   4.767   5.246  1.0645  2.5611  0.4182
 2352TIP3    H2 7021   4.396   4.746   5.284  1.0887 -1.7934 -1.5356
 2353TIP3   OH2 7022   6.935   2.607   1.175  0.2272  0.2860  0.2639
 2353TIP3    H1 7023   6.979   2.558   1.106  0.6059  2.8762 -1.4763
 2353TIP3    H2 7024   6.958   2.561   1.255  0.4546 -2.3750 -1.2092
 2354TIP3   OH2 7025   1.789   1.678   2.368 -0.1769  0.3968  0.0558
 2354TIP3    H1 7026   1.802   1.612   2.300  1.1500  1.2920 -0.5989
 2354TIP3    H2 7027   1.732   1.743   2.328  2.5456  2.1773 -1.1754
 2355TIP3   OH2 7028   3.624   4.173   0.014 -0.1008 -0.0532 -0.1671
 2355TIP3    H1 7029   3.630   4.205   0.104  0.8669 -2.5817  0.7688
 2355TIP3    H2 7030   3.676   4.092   0.014 -0.6013 -0.4709 -2.8551
 2356TIP3   OH2 7031   6.859   1.077   5.659  0.0595 -0.5094  0.2928
 2356TIP3    H1 7032   6.939   1.028   5.641 -0.5283 -1.1971 -0.4700
 2356TIP3    H2 7033   6.807   1.069   5.579  0.4643  2.4150 -0.3755
 2357TIP3   OH2 7034   4.801   1.810   3.368  0.4636 -0.4044 -0.0176
 2357TIP3    H1 7035   4.729   1.766   3.414  0.7884 -1.4881 -0.5128
 2357TIP3    H2 7036   4.871   1.816   3.433  0.3951 -0.5842  0.0749
 2358TIP3   OH2 7037   5.414   5.356   4.367  0.0968  0.2841  0.1857
 2358TIP3    H1 7038   5.418   5.395   4.280  1.6805  0.4016  0.2914
 2358TIP3    H2 7039   5.351   5.284   4.358 -1.4486  1.6447 -0.4744
 2359TIP3   OH2 7040   6.443   4.095   3.850 -0.2606  0.4401  0.8289
 2359TIP3    H1 7041   6.466   4.039   3.775 -3.7235 -0.6724  0.4115
 2359TIP3    H2 7042   6.440   4.184   3.813 -0.6754  0.0745 -0.0555
 2360TIP3   OH2 7043   5.517   0.607   2.569  0.5803  0.9420  0.4830
 2360TIP3    H1 7044   5.498   0.684   2.514 -1.1396 -1.4722 -2.6582
 2360TIP3    H2 7045   5.611   0.592   2.556  0.2295  0.4066 -2.0906
 2361TIP3   OH2 7046   4.728   0.442   3.204  0.1249 -0.2651  0.4636
 2361TIP3    H1 7047   4.675   0.362   3.201 -0.1160 -0.1108  0.5128
 2361TIP3    H2 7048   4.704   0.483   3.287 -0.4582  0.3278  0.0067
 2362TIP3   OH2 7049   2.922   0.122   3.104 -0.1298 -0.0227  0.0387
 2362TIP3    H1 7050   2.996   0.146   3.160 -2.1310  2.9706  1.7237
 2362TIP3    H2 7051   2.926   0.182   3.030 -1.2560  0.7277  0.5588
 2363TIP3   OH2 7052   2.578   2.852   3.934 -0.7906  0.4798 -0.7441
 2363TIP3    H1 7053   2.501   2.826   3.986 -0.3910 -1.3549 -0.9765
 2363TIP3    H2 7054   2.652   2.835   3.992 -0.2962 -2.1127 -1.9937
 2364TIP3   OH2 7055   3.231   4.178   1.588 -0.1179  0.0966 -1.0250
 2364TIP3    H1 7056   3.167   4.213   1.649  0.1200  0.7562 -1.1394
 2364TIP3    H2 7057   3.252   4.091   1.621 -1.1583 -0.1803 -1.0605
 2365TIP3   OH2 7058  -0.018   3.934   4.402  0.8982  0.0107 -0.2801
 2365TIP3    H1 7059   0.043   4.006   4.383 -0.1556  0.6411 -1.4418
 2365TIP3    H2 7060   0.038   3.857   4.411  1.9227  0.6788 -0.6739
 2366TIP3   OH2 7061   6.742   2.612   2.805 -0.0642 -0.4858  0.9584
 2366TIP3    H1 7062   6.699   2.693   2.833  1.3381  0.0438  1.6631
 2366TIP3    H2 7063   6.754   2.563   2.887 -1.0628 -1.5179  0.5191
 2367TIP3   OH2 7064   2.538   5.150   1.412  0.2812  0.1905 -0.1488
 2367TIP3    H1 7065   2.603   5.188   1.352  0.3097  0.1857 -0.1212
 2367TIP3    H2 7066   2.456   5.152   1.363  0.4954 -0.7310 -0.5616
 2368TIP3   OH2 7067   0.583   1.193   0.861 -0.0610  0.1637  0.6176
 2368TIP3    H1 7068   0.640   1.148   0.800 -0.3132 -0.6279  0.9589
 2368TIP3    H2 7069   0.595   1.147   0.944 -1.0705  0.0866  0.7353
 2369TIP3   OH2 7070   0.729   4.809   3.760 -0.3858 -0.0198 -0.3771
 2369TIP3    H1 7071   0.788   4.839   3.691  0.2306  1.3996  0.7250
 2369TIP3    H2 7072   0.704   4.889   3.807 -1.4310 -0.8567  0.5474
 2370TIP3   OH2 7073   6.248   5.436   3.978  0.0460 -0.0962  0.0076
 2370TIP3    H1 7074   6.193   5.513   3.958  0.6517  0.8935  1.9085
 2370TIP3    H2 7075   6.333   5.458   3.941 -0.6472 -1.5165 -2.7015
 2371TIP3   OH2 7076   5.980   0.769   4.816 -0.1223 -0.3596 -0.1826
 2371TIP3    H1 7077   6.059   0.718   4.836 -0.4888 -2.0029 -2.5916
 2371TIP3    H2 7078   6.006   0.829   4.746 -0.1212  1.8035  1.5488
 2372TIP3   OH2 7079   1.748   4.728   1.425  0.4781 -0.3870  0.0846
 2372TIP3    H1 7080   1.841   4.712   1.406  0.9128  0.6829  1.1897
 2372TIP3    H2 7081   1.702   4.660   1.376  1.7758 -0.3363 -1.2768
 2373TIP3   OH2 7082   5.063   2.328   0.484  0.2063 -0.0158  0.2785
 2373TIP3    H1 7083   5.118   2.296   0.555  0.1514 -0.5059  0.1077
 2373TIP3    H2 7084   5.123   2.371   0.424  0.8829 -2.7734 -1.2223
 2374TIP3   OH2 7085   3.455   5.763   4.608  0.0444 -0.1396 -0.0613
 2374TIP3    H1 7086   3.485   5.843   4.650 -0.4933  0.4600 -0.7904
 2374TIP3    H2 7087   3.359   5.769   4.610  0.0042 -0.4058 -0.7856
 2375TIP3   OH2 7088   5.703   5.865   0.486  0.0485  0.1395 -0.0799
 2375TIP3    H1 7089   5.798   5.872   0.496 -0.1079  0.0607  1.6622
 2375TIP3    H2 7090   5.675   5.805   0.555 -1.3796  0.8892  0.0443
 2376TIP3   OH2 7091   1.896   0.177   2.065 -0.0255  0.0943  0.1899
 2376TIP3    H1 7092   1.841   0.193   1.988 -1.0876  1.9582  1.2502
 2376TIP3    H2 7093   1.858   0.233   2.133  0.4751 -1.9619  2.2770
 2377TIP3   OH2 7094   0.560   0.161   2.759  0.1855 -0.5626 -0.0977
 2377TIP3    H1 7095   0.534   0.121   2.843  0.2042  0.6133  0.4919
 2377TIP3    H2 7096   0.478   0.166   2.709  0.2114 -1.4646 -0.2505
 2378TIP3   OH2 7097   4.438   5.631   2.331 -0.2521 -0.0769 -0.4698
 2378TIP3    H1 7098   4.364   5.691   2.336  0.8454  1.6212 -2.5908
 2378TIP3    H2 7099   4.477   5.649   2.245  2.5563 -0.9380  0.5232
 2379TIP3   OH2 7100   2.559   3.300   4.050 -0.4334 -0.5667 -0.4220
 2379TIP3    H1 7101   2.647   3.337   4.036 -1.0870  1.5149  0.4724
 2379TIP3    H2 7102   2.564   3.259   4.137 -0.2944 -0.6272 -0.4588
 2380TIP3   OH2 7103   6.946   0.995   4.540 -0.0385 -0.2439  0.4999
 2380TIP3    H1 7104   6.957   0.906   4.575  0.7365 -0.0121  0.8769
 2380TIP3    H2 7105   6.874   1.032   4.590  0.6159 -0.1513  1.3933
 2381TIP3   OH2 7106   0.892   1.912   2.288 -0.3476  0.0641 -0.1417
 2381TIP3    H1 7107   0.803   1.883   2.268 -0.0546 -1.3992  0.5964
 2381TIP3    H2 7108   0.944   1.883   2.212 -0.4212  0.5879 -0.3983
 2382TIP3   OH2 7109   0.212   0.815   1.451  0.3050 -0.1664  0.8938
 2382TIP3    H1 7110   0.234   0.907   1.437  2.9659 -0.7788  0.6156
 2382TIP3    H2 7111   0.122   0.818   1.485  0.8573  2.6470  2.5236
 2383TIP3   OH2 7112   4.720   1.843   2.723  0.2911 -0.1784  0.0802
 2383TIP3    H1 7113   4.780   1.794   2.779  0.7719  0.3323  0.0173
 2383TIP3    H2 7114   4.655   1.879   2.783 -0.5924 -1.6265  0.0271
 2384TIP3   OH2 7115   0.919   2.424   4.669  0.1239  0.2872 -0.5356
 2384TIP3    H1 7116   0.961   2.507   4.694  1.2105 -0.2159 -0.6307
 2384TIP3    H2 7117   0.992   2.363   4.657 -0.6657 -0.7161 -0.3751
 2385TIP3   OH2 7118   1.967   6.536   4.383 -0.1724 -0.1226 -0.0686
 2385TIP3    H1 7119   1.940   6.449   4.411  1.7547 -1.3858 -1.7961
 2385TIP3    H2 7120   1.893   6.570   4.333 -0.4291 -1.3706 -0.5586
 2386TIP3   OH2 7121   1.903   2.317   0.679  0.6571  0.2300 -0.1788
 2386TIP3    H1 7122   1.875   2.408   0.675 -0.1726  0.0395  0.7839
 2386TIP3    H2 7123   1.923   2.294   0.588 -0.0228  1.0946 -0.5645
 2387TIP3   OH2 7124   6.324   5.829   1.757  0.0962  0.0161  0.3122
 2387TIP3    H1 7125   6.282   5.885   1.822  2.0754  0.1449  1.5528
 2387TIP3    H2 7126   6.358   5.755   1.807  1.0329 -0.2555 -0.6839
 2388TIP3   OH2 7127   2.709   0.083   1.425  0.1856 -0.4129 -0.1827
 2388TIP3    H1 7128   2.642   0.063   1.490 -0.3834  1.6910 -0.0390
 2388TIP3    H2 7129   2.781   0.023   1.445 -0.5603 -0.8085  1.4606
 2389TIP3   OH2 7130   2.673   6.027   4.451  0.3775 -0.2382 -0.1427
 2389TIP3    H1 7131   2.693   5.952   4.507 -0.4106 -0.5825 -0.3065
 2389TIP3    H2 7132   2.756   6.049   4.409  0.8731 -0.2669  0.7988
 2390TIP3   OH2 7133   7.242   3.829   0.059  0.3119 -0.2022 -0.0962
 2390TIP3    H1 7134   7.215   3.816  -0.032 -0.2794 -2.4374  0.3486
 2390TIP3    H2 7135   7.166   3.805   0.111  0.2885  2.0652  1.0254
 2391TIP3   OH2 7136   3.621   1.786   2.107  0.1112 -0.5683  0.6104
 2391TIP3    H1 7137   3.585   1.736   2.033 -1.3308 -0.4792  1.2212
 2391TIP3    H2 7138   3.611   1.728   2.183  0.7258 -0.2943  0.9123
 2392TIP3   OH2 7139   6.020   5.193   5.472 -0.2184 -0.1356 -0.0063
 2392TIP3    H1 7140   6.052   5.175   5.383  1.0928  0.5385  0.3014
 2392TIP3    H2 7141   6.082   5.147   5.529 -0.8134 -0.2199  0.5834
 2393TIP3   OH2 7142   6.582   0.945   5.218  0.4807  0.4467 -0.4934
 2393TIP3    H1 7143   6.563   0.928   5.126  0.1325  0.5551 -0.4443
 2393TIP3    H2 7144   6.620   1.033   5.219  0.4210  0.4731 -0.5261
 2394TIP3   OH2 7145   3.297   1.529   1.308 -0.0046 -0.3195  0.3750
 2394TIP3    H1 7146   3.233   1.531   1.379  2.3045  0.5449  2.5768
 2394TIP3    H2 7147   3.351   1.452   1.328  0.7010 -0.0424 -0.4378
 2395TIP3   OH2 7148   3.602   4.945   2.048 -0.1822 -0.4668 -0.1176
 2395TIP3    H1 7149   3.640   4.876   2.101 -1.3336 -0.8342  0.2668
 2395TIP3    H2 7150   3.631   4.926   1.959  0.1976 -0.9602  0.1087
 2396TIP3   OH2 7151   1.835   4.086   4.506 -1.0380  0.3759 -0.3071
 2396TIP3    H1 7152   1.763   4.094   4.568 -0.8471  0.3480 -0.0844
 2396TIP3    H2 7153   1.898   4.153   4.533 -0.6788 -0.0380 -0.1026
 2397TIP3   OH2 7154   4.742   2.103   3.546  0.2900 -0.0818 -0.5536
 2397TIP3    H1 7155   4.670   2.156   3.512 -0.2913  0.0539  0.8572
 2397TIP3    H2 7156   4.705   2.016   3.559 -0.1490  0.4004  1.8110
 2398TIP3   OH2 7157   5.347   0.080   4.006 -0.1455 -0.3993 -0.0697
 2398TIP3    H1 7158   5.299   0.132   4.069  1.1612 -0.7188  1.2535
 2398TIP3    H2 7159   5.281   0.024   3.964 -1.1324  0.3428  0.4791
 2399TIP3   OH2 7160   3.402   6.690   1.313  0.3393  0.0962  0.4017
 2399TIP3    H1 7161   3.319   6.737   1.305  0.4303  0.4214  1.2884
 2399TIP3    H2 7162   3.416   6.682   1.407  0.7925 -0.8877  0.2655
 2400TIP3   OH2 7163   4.043   6.427   2.008  0.1867 -0.2411 -0.5114
 2400TIP3    H1 7164   3.974   6.447   1.944 -1.0755 -2.5029  0.0125
 2400TIP3    H2 7165   4.052   6.507   2.060  1.4160  1.7760 -3.5479
 2401TIP3   OH2 7166   0.179   3.560   3.586 -0.1811 -0.0745  0.2811
 2401TIP3    H1 7167   0.229   3.494   3.538  0.5835  0.7252 -0.0566
 2401TIP3    H2 7168   0.243   3.600   3.645 -1.0921 -1.0207  2.0008
 2402TIP3   OH2 7169   1.475   5.776   0.641  0.1337  0.0195 -0.3197
 2402TIP3    H1 7170   1.502   5.737   0.724  0.0754 -0.8753 -0.7124
 2402TIP3    H2 7171   1.515   5.863   0.642  1.9285 -0.7649 -0.2909
 2403TIP3   OH2 7172   6.761   4.501   1.343 -0.2612 -0.1074 -0.1237
 2403TIP3    H1 7173   6.758   4.550   1.261  1.1973 -0.2466 -0.2747
 2403TIP3    H2 7174   6.764   4.409   1.316 -3.2086 -0.3847  0.1587
 2404TIP3   OH2 7175   4.549   0.996   4.447  0.1129 -0.2908  0.2066
 2404TIP3    H1 7176   4.556   0.918   4.392 -1.3732  0.1200 -0.6241
 2404TIP3    H2 7177   4.632   1.041   4.435  0.0809 -0.5628 -1.1933
 2405TIP3   OH2 7178   4.238   4.530   1.233 -0.3659  0.3936 -0.1144
 2405TIP3    H1 7179   4.328   4.563   1.231 -0.5383  0.9667  0.7578
 2405TIP3    H2 7180   4.212   4.540   1.325 -0.3014 -2.5334  0.3186
 2406TIP3   OH2 7181   3.385   0.577   1.969  0.2056  0.1542 -0.4083
 2406TIP3    H1 7182   3.348   0.494   1.999  1.2164 -0.1923 -0.0612
 2406TIP3    H2 7183   3.388   0.632   2.047  0.1024  0.2994 -0.5066
 2407TIP3   OH2 7184   3.351   6.361   1.834  0.3680 -0.8078 -0.2233
 2407TIP3    H1 7185   3.304   6.438   1.867  0.7481 -1.2151  1.3752
 2407TIP3    H2 7186   3.330   6.358   1.741  0.4424  1.3099 -0.3657
 2408TIP3   OH2 7187   1.474   2.159   1.696 -0.6868 -0.6336  0.6229
 2408TIP3    H1 7188   1.477   2.116   1.610 -1.8032  0.2471  0.1223
 2408TIP3    H2 7189   1.381   2.181   1.709 -0.6051 -1.1037  2.2387
 2409TIP3   OH2 7190   5.377   2.920   5.092  0.1336  0.1724  0.2401
 2409TIP3    H1 7191   5.355   3.007   5.124 -0.1781  0.1239  0.1585
 2409TIP3    H2 7192   5.352   2.860   5.162 -2.5003 -0.1328 -0.8577
 2410TIP3   OH2 7193   6.011   6.342   2.777  0.1138  0.2237 -0.5884
 2410TIP3    H1 7194   6.082   6.326   2.838 -0.8217 -1.7020  0.0548
 2410TIP3    H2 7195   6.045   6.312   2.692  0.2863 -0.1182 -0.4008
 2411TIP3   OH2 7196   6.063   3.538   5.518 -0.1760  0.1824  0.0717
 2411TIP3    H1 7197   6.130   3.584   5.567 -1.1646 -0.3472  2.0646
 2411TIP3    H2 7198   6.073   3.446   5.545 -1.1219 -0.0312 -0.2669
 2412TIP3   OH2 7199   5.387   5.272   0.236 -0.4757  0.3027 -0.1562
 2412TIP3    H1 7200   5.396   5.345   0.175  0.3272 -0.2346 -0.7017
 2412TIP3    H2 7201   5.400   5.194   0.182 -1.3755 -0.2494  0.4070
 2413TIP3   OH2 7202   4.746   6.607   2.640  0.7186 -0.5306  0.3876
 2413TIP3    H1 7203   4.777   6.521   2.671  0.3342 -1.1200 -0.8007
 2413TIP3    H2 7204   4.755   6.602   2.545  0.1296  0.5397  0.2668
 2414TIP3   OH2 7205   3.803   5.848   3.213  0.9926  0.2133  0.6453
 2414TIP3    H1 7206   3.883   5.796   3.219 -0.4351 -2.0813  0.9660
 2414TIP3    H2 7207   3.732   5.783   3.213 -0.8742  2.1503  0.3014
 2415TIP3   OH2 7208   2.039   6.396   3.204  0.4644  0.7149  0.0403
 2415TIP3    H1 7209   1.970   6.380   3.139  1.5280  1.7408 -1.4110
 2415TIP3    H2 7210   2.078   6.310   3.219  1.2835  0.6780 -1.9980
 2416TIP3   OH2 7211   1.200   4.783   4.546 -0.1757 -0.2113 -0.1286
 2416TIP3    H1 7212   1.121   4.836   4.557 -1.1841 -0.9328 -2.9340
 2416TIP3    H2 7213   1.254   4.834   4.486  0.5765 -0.6673  0.1467
 2417TIP3   OH2 7214   5.677   6.455   3.558  0.1199  0.8863  0.6045
 2417TIP3    H1 7215   5.627   6.390   3.508  2.0728  0.5035 -0.9543
 2417TIP3    H2 7216   5.636   6.538   3.536  0.9202  0.7310 -1.7375
 2418TIP3   OH2 7217   1.543   0.651   1.336 -0.2296 -0.1873  0.4428
 2418TIP3    H1 7218   1.528   0.675   1.428 -0.6111 -1.0303  0.6096
 2418TIP3    H2 7219   1.465   0.602   1.311  0.3589 -0.9261  0.0117
 2419TIP3   OH2 7220   0.717   4.774   3.096  0.3816  0.2375 -0.5447
 2419TIP3    H1 7221   0.792   4.811   3.049  0.0632  1.0882 -0.4161
 2419TIP3    H2 7222   0.753   4.741   3.178  0.6289  0.5677 -0.5193
 2420TIP3   OH2 7223   6.510   3.488   5.714  0.1576  0.2487 -0.0079
 2420TIP3    H1 7224   6.560   3.472   5.634 -0.0176  0.7176 -0.2134
 2420TIP3    H2 7225   6.465   3.406   5.731 -1.3702  0.7090 -1.4983
 2421TIP3   OH2 7226   0.628   5.598   1.206 -0.2130  0.1086 -0.2129
 2421TIP3    H1 7227   0.590   5.569   1.289  1.4362 -1.7235 -0.0006
 2421TIP3    H2 7228   0.589   5.540   1.140  0.7737 -0.5700 -0.2333
 2422TIP3   OH2 7229   1.015   3.651   2.820 -0.0125 -0.7216  0.1811
 2422TIP3    H1 7230   0.940   3.608   2.861 -1.4428  0.3450 -1.1689
 2422TIP3    H2 7231   1.068   3.683   2.893 -0.7085 -1.7466  1.1622
 2423TIP3   OH2 7232   4.593   0.211   0.569  0.2869 -0.6364 -0.6058
 2423TIP3    H1 7233   4.578   0.133   0.623 -1.4239  0.6117  0.8524
 2423TIP3    H2 7234   4.546   0.193   0.488  1.0890 -1.6640 -0.8667
 2424TIP3   OH2 7235   4.177   1.865   1.923  0.3156 -0.4911  0.4515
 2424TIP3    H1 7236   4.236   1.884   1.850  0.5446 -0.1004  0.7364
 2424TIP3    H2 7237   4.208   1.782   1.958  1.6440  0.4173  1.5355
 2425TIP3   OH2 7238   3.788   0.504   5.516 -0.1437 -0.4471  0.4712
 2425TIP3    H1 7239   3.795   0.599   5.504 -2.4614 -0.0211  1.8154
 2425TIP3    H2 7240   3.802   0.491   5.610 -1.3955 -1.2142  0.5735
 2426TIP3   OH2 7241   2.725   6.291   4.983 -0.3819  0.1091  0.2604
 2426TIP3    H1 7242   2.813   6.303   4.950 -0.9240 -0.1207 -1.3578
 2426TIP3    H2 7243   2.720   6.199   5.009 -0.6750 -0.3727 -1.4079
 2427TIP3   OH2 7244   6.005   5.439   0.957 -0.1293 -0.3843 -0.3905
 2427TIP3    H1 7245   6.010   5.534   0.955  1.2911 -0.4127  0.4555
 2427TIP3    H2 7246   6.021   5.416   1.049 -1.5878 -1.4053 -0.3519
 2428TIP3   OH2 7247   0.601   0.665   3.034  0.2094  0.6722 -0.1717
 2428TIP3    H1 7248   0.507   0.665   3.020  0.0843  0.6332  0.5968
 2428TIP3    H2 7249   0.616   0.593   3.096  0.7203  0.7768 -0.1669
 2429TIP3   OH2 7250   5.303   4.248   1.632 -0.3595  0.1528  0.7845
 2429TIP3    H1 7251   5.330   4.184   1.566  0.8772  0.8358  0.6091
 2429TIP3    H2 7252   5.245   4.308   1.584 -2.7601 -1.6115  1.2850
 2430TIP3   OH2 7253   2.481   6.672   0.467  0.4404  0.2856  0.1963
 2430TIP3    H1 7254   2.475   6.576   0.467  0.0073  0.3129  0.6197
 2430TIP3    H2 7255   2.434   6.699   0.546  0.1631  0.8705 -0.1636
 2431TIP3   OH2 7256   2.316   4.569   1.242  0.0915  0.1385 -0.0603
 2431TIP3    H1 7257   2.389   4.507   1.247  0.3288  0.3496 -0.8174
 2431TIP3    H2 7258   2.264   4.551   1.321  1.7893  1.0529  1.3255
 2432TIP3   OH2 7259   6.747   1.251   3.565  0.5524  0.1588  0.2629
 2432TIP3    H1 7260   6.703   1.327   3.603  1.2069 -0.6152  2.7152
 2432TIP3    H2 7261   6.688   1.222   3.495 -0.9090  1.4687  0.8958
 2433TIP3   OH2 7262   1.835   4.096   0.058 -0.2216  0.4729 -0.2725
 2433TIP3    H1 7263   1.803   4.033  -0.007 -1.6111 -0.4518  1.2166
 2433TIP3    H2 7264   1.852   4.176   0.008  0.3738 -0.6902 -2.0199
 2434TIP3   OH2 7265   0.246   0.211   5.471 -0.0159  0.1985 -0.3409
 2434TIP3    H1 7266   0.178   0.152   5.502  0.3576 -0.1273 -0.1288
 2434TIP3    H2 7267   0.237   0.211   5.376  0.8605 -1.3133 -0.4695
 2435TIP3   OH2 7268   4.196   1.761   1.538  0.3807 -0.3897 -0.0093
 2435TIP3    H1 7269   4.230   1.707   1.467  1.5122  0.0859  0.1499
 2435TIP3    H2 7270   4.114   1.718   1.564  0.3839 -1.0360 -1.0313
 2436TIP3   OH2 7271   6.928   0.770   5.408 -0.2118 -1.1456  0.3142
 2436TIP3    H1 7272   6.970   0.816   5.481  0.6681 -1.4228 -0.0116
 2436TIP3    H2 7273   6.836   0.798   5.412  0.7716  3.1109 -1.7440
 2437TIP3   OH2 7274   5.459   1.381   5.695 -0.3211  0.1217  0.1894
 2437TIP3    H1 7275   5.509   1.334   5.762  0.2823  1.1092  0.4572
 2437TIP3    H2 7276   5.522   1.399   5.626 -0.9372 -0.8723 -0.6627
 2438TIP3   OH2 7277   0.623   3.695   0.020  0.2257  0.2241 -0.0490
 2438TIP3    H1 7278   0.561   3.628   0.047  0.2056  1.0871  2.2738
 2438TIP3    H2 7279   0.708   3.652   0.022  0.0848 -0.0345  0.2625
 2439TIP3   OH2 7280   4.702   0.420   0.361 -0.3187  0.3871  0.2334
 2439TIP3    H1 7281   4.664   0.377   0.437 -1.9130  1.2542 -0.0362
 2439TIP3    H2 7282   4.633   0.419   0.294  0.7901  0.3004 -0.9590
 2440TIP3   OH2 7283   0.297   5.240   4.430 -0.0390  0.9127  0.2980
 2440TIP3    H1 7284   0.203   5.259   4.422  0.2080  1.4831 -1.9517
 2440TIP3    H2 7285   0.336   5.324   4.454 -0.0056  0.8721  0.3860
 2441TIP3   OH2 7286   1.015   4.257   4.474  0.6175 -0.2526  0.8758
 2441TIP3    H1 7287   1.065   4.245   4.393  1.1539  0.7189  1.0484
 2441TIP3    H2 7288   1.080   4.288   4.537  0.0670 -0.3511  1.4984
 2442TIP3   OH2 7289   2.511   5.706   5.054 -0.4098 -0.5086  0.5601
 2442TIP3    H1 7290   2.518   5.711   4.959  0.2892 -0.1470  0.6196
 2442TIP3    H2 7291   2.474   5.790   5.080 -0.1085 -0.3995  0.6427
 2443TIP3   OH2 7292   3.265   6.730   2.976 -0.1108 -0.1240 -0.2307
 2443TIP3    H1 7293   3.218   6.791   2.920 -0.5461  1.0259  1.3408
 2443TIP3    H2 7294   3.317   6.677   2.915 -0.4350  1.1834 -1.6931
 2444TIP3   OH2 7295   3.150   3.561   5.741  0.2542 -0.1747 -0.1326
 2444TIP3    H1 7296   3.197   3.576   5.823  0.3109  0.0491 -0.2052
 2444TIP3    H2 7297   3.083   3.629   5.739 -0.9361 -1.2732  0.6009
 2445TIP3   OH2 7298   0.476   2.828   4.421  0.7340 -0.2430 -0.5301
 2445TIP3    H1 7299   0.470   2.923   4.431  1.6555  0.1772 -3.1532
 2445TIP3    H2 7300   0.395   2.794   4.459  0.1759  1.6293  0.0495
 2446TIP3   OH2 7301   3.491   4.490   0.178  0.2290 -0.0631  0.7066
 2446TIP3    H1 7302   3.440   4.534   0.110  1.5306 -1.1038 -1.0334
 2446TIP3    H2 7303   3.516   4.560   0.239  0.5393  1.2596 -0.8835
 2447TIP3   OH2 7304   3.992   4.304   1.583  0.4727 -0.2645 -0.3905
 2447TIP3    H1 7305   3.900   4.325   1.597  0.6725  1.7937 -1.7363
 2447TIP3    H2 7306   4.007   4.225   1.636 -1.8406 -0.2075  0.4626
 2448TIP3   OH2 7307   3.007   5.779   3.875  0.0039  0.0009  0.3449
 2448TIP3    H1 7308   2.931   5.833   3.852  0.4074  1.0795  1.4570
 2448TIP3    H2 7309   2.986   5.743   3.962  1.6604  2.1446  1.7173
 2449TIP3   OH2 7310   3.780   6.376   5.692  0.4495  0.0142 -0.0317
 2449TIP3    H1 7311   3.731   6.308   5.740 -0.0669  0.6806  0.3992
 2449TIP3    H2 7312   3.837   6.416   5.758 -1.3388  1.9507  0.4405
 2450TIP3   OH2 7313   5.803   1.745   5.448 -0.3558  0.1048 -0.1420
 2450TIP3    H1 7314   5.761   1.765   5.364  0.5518  3.5740  0.1015
 2450TIP3    H2 7315   5.877   1.804   5.453 -0.3066 -0.0494  3.0967
 2451TIP3   OH2 7316   2.946   0.329   3.756  0.1992 -0.2625  0.1062
 2451TIP3    H1 7317   2.929   0.276   3.834  0.2285  0.8135  0.8563
 2451TIP3    H2 7318   3.041   0.339   3.753  0.2989 -1.2505 -0.7287
 2452TIP3   OH2 7319   4.341   5.807   4.148 -0.5308  0.7489  0.3105
 2452TIP3    H1 7320   4.413   5.801   4.211  0.0965  1.4002 -0.3250
 2452TIP3    H2 7321   4.262   5.807   4.202 -0.1387 -1.3175  0.9504
 2453TIP3   OH2 7322   4.623   4.188   5.237 -0.0449  0.2295  0.1505
 2453TIP3    H1 7323   4.645   4.247   5.309 -1.3367  0.1422  0.6364
 2453TIP3    H2 7324   4.545   4.226   5.198  0.7229  0.3543 -1.3145
 2454TIP3   OH2 7325   5.093   6.330   2.626  0.9151  0.9842  0.4068
 2454TIP3    H1 7326   5.064   6.271   2.696  0.3424  1.2246  0.3748
 2454TIP3    H2 7327   5.108   6.272   2.551 -2.2246  1.0992 -0.4651
 2455TIP3   OH2 7328   4.879   3.676   0.564  0.2431 -0.4029  0.2174
 2455TIP3    H1 7329   4.859   3.677   0.657 -2.4976  2.2525 -0.2310
 2455TIP3    H2 7330   4.812   3.620   0.525 -0.0779  0.3605 -0.3545
 2456TIP3   OH2 7331   5.086   5.859   1.133  0.0753 -0.5041  0.3692
 2456TIP3    H1 7332   5.071   5.774   1.173  1.4036 -0.1691  1.6520
 2456TIP3    H2 7333   5.022   5.917   1.174  1.1041 -0.2712  1.6956
 2457TIP3   OH2 7334   3.563   3.142   1.230 -0.9286 -0.1853 -0.0219
 2457TIP3    H1 7335   3.514   3.187   1.298 -1.2402 -0.9052  0.2333
 2457TIP3    H2 7336   3.536   3.186   1.149 -0.7299  0.5183  0.2881
 2458TIP3   OH2 7337   2.195   6.532   3.586 -0.7186  0.3297  0.0413
 2458TIP3    H1 7338   2.199   6.566   3.496 -0.0006 -0.3597 -0.1986
 2458TIP3    H2 7339   2.102   6.537   3.609 -1.0207 -0.1281 -1.0001
 2459TIP3   OH2 7340   0.185   2.050   3.458 -0.3391  0.0777 -0.1480
 2459TIP3    H1 7341   0.129   2.037   3.381 -0.7737  0.2663  0.1306
 2459TIP3    H2 7342   0.183   2.144   3.473  0.3339  0.1262 -0.3375
 2460TIP3   OH2 7343   3.794   2.398   0.726 -0.4331 -0.0047  0.1302
 2460TIP3    H1 7344   3.767   2.488   0.707 -0.6726  0.2176  1.4604
 2460TIP3    H2 7345   3.752   2.377   0.809 -0.7440 -1.5158 -0.3704
 2461TIP3   OH2 7346   6.983   0.332   3.528  0.1686 -0.1170  0.2397
 2461TIP3    H1 7347   6.940   0.251   3.555 -0.6302  0.7315  1.7026
 2461TIP3    H2 7348   7.072   0.306   3.505  0.2958 -1.2551  1.8495
 2462TIP3   OH2 7349   7.019   3.021   5.315  0.3920 -0.1887 -0.0541
 2462TIP3    H1 7350   7.103   3.003   5.358  0.9510  1.3953 -0.4252
 2462TIP3    H2 7351   6.954   3.016   5.386  1.0787  0.6345  0.6585
 2463TIP3   OH2 7352   4.540   4.726   3.044 -0.1567 -0.1272  0.2406
 2463TIP3    H1 7353   4.634   4.722   3.028  0.2342  0.5111  2.1520
 2463TIP3    H2 7354   4.518   4.640   3.081  0.1290  0.4629  1.8486
 2464TIP3   OH2 7355   3.532   0.029   1.761 -0.0282  0.1221 -0.2144
 2464TIP3    H1 7356   3.441   0.013   1.786  0.3661  0.3368  1.5218
 2464TIP3    H2 7357   3.540  -0.005   1.672 -1.9203  0.5373 -0.5800
 2465TIP3   OH2 7358   2.844   2.757   4.619 -0.0623 -0.5184  0.2710
 2465TIP3    H1 7359   2.770   2.751   4.559  1.3446 -1.1250 -1.4755
 2465TIP3    H2 7360   2.898   2.828   4.585  1.0812 -1.2890  0.4247
 2466TIP3   OH2 7361   7.151   3.385   1.045  0.3241 -0.0494  0.3552
 2466TIP3    H1 7362   7.220   3.319   1.041  0.0408 -0.2957 -0.8367
 2466TIP3    H2 7363   7.120   3.393   0.955  0.5281  1.9139  0.4136
 2467TIP3   OH2 7364   2.855   5.694   1.508  0.0281 -0.2012 -0.0666
 2467TIP3    H1 7365   2.946   5.702   1.477  0.4957 -3.5246  0.0189
 2467TIP3    H2 7366   2.863   5.645   1.590 -1.7277  1.8281  1.3991
 2468TIP3   OH2 7367   5.161   0.940   0.427  0.5902  0.4559 -0.5422
 2468TIP3    H1 7368   5.137   1.023   0.468 -1.9648  0.5933 -2.0465
 2468TIP3    H2 7369   5.143   0.955   0.334 -0.3388 -1.8783 -0.7947
 2469TIP3   OH2 7370   0.343   2.523   2.460 -0.2227 -0.6853 -0.5980
 2469TIP3    H1 7371   0.361   2.434   2.429  0.3551 -1.1783  1.0419
 2469TIP3    H2 7372   0.423   2.549   2.506 -1.0838 -0.1076  0.6519
 2470TIP3   OH2 7373   3.120   5.116   2.353  0.2284 -0.0508 -0.5550
 2470TIP3    H1 7374   3.105   5.125   2.447  0.1087 -0.1379 -0.5652
 2470TIP3    H2 7375   3.105   5.204   2.318 -0.7150 -0.2332 -0.6233
 2471TIP3   OH2 7376   6.178   0.952   4.398  0.3593 -0.0081 -0.2943
 2471TIP3    H1 7377   6.099   0.949   4.452  0.1004  1.3218 -0.5563
 2471TIP3    H2 7378   6.166   1.030   4.343  1.9691  0.3813 -0.1375
 2472TIP3   OH2 7379   6.905   0.374   1.415  0.0319 -0.4908  0.3617
 2472TIP3    H1 7380   6.842   0.350   1.348 -0.8944 -0.8155  1.3123
 2472TIP3    H2 7381   6.983   0.402   1.367 -0.9213  0.1727 -0.8565
 2473TIP3   OH2 7382   6.477   1.642   1.305 -0.3476 -0.0852 -0.0609
 2473TIP3    H1 7383   6.448   1.603   1.387  0.1557 -1.1108 -0.3496
 2473TIP3    H2 7384   6.414   1.712   1.288 -1.2434 -0.7298  0.5095
 2474TIP3   OH2 7385   0.939   4.026   4.607  0.0434 -0.2466 -0.0482
 2474TIP3    H1 7386   0.853   3.992   4.633 -0.4827 -0.1938 -1.6068
 2474TIP3    H2 7387   0.924   4.119   4.590  0.8076  0.1441  1.2778
 2475TIP3   OH2 7388   4.690   3.175   4.045  0.6373  0.1743 -0.6295
 2475TIP3    H1 7389   4.725   3.209   3.963  1.4815 -1.6315 -1.0860
 2475TIP3    H2 7390   4.733   3.227   4.113  1.1412  0.6390 -1.2933
 2476TIP3   OH2 7391   5.928   1.905   3.678 -0.1692 -0.0296  0.2829
 2476TIP3    H1 7392   5.901   1.814   3.666 -0.5770  0.0985  0.2304
 2476TIP3    H2 7393   5.998   1.901   3.744 -0.3643 -0.3521  0.4690
 2477TIP3   OH2 7394   3.889   5.045   3.310 -0.3070 -0.3116  0.1185
 2477TIP3    H1 7395   3.832   5.019   3.383 -0.8212  0.1921 -0.0954
 2477TIP3    H2 7396   3.831   5.046   3.234 -0.0535  0.3858 -0.0667
 2478TIP3   OH2 7397   2.490   6.702   2.378 -0.1907  0.0261 -0.3397
 2478TIP3    H1 7398   2.495   6.668   2.289 -1.5714  0.1023 -0.4757
 2478TIP3    H2 7399   2.577   6.736   2.396  0.6417 -1.6720 -0.9635
 2479TIP3   OH2 7400   1.474   4.017   5.361  0.4093 -0.6535 -0.1430
 2479TIP3    H1 7401   1.486   4.036   5.454 -0.3101 -2.8703  0.4705
 2479TIP3    H2 7402   1.470   4.103   5.319 -0.3996  0.4416  2.0117
 2480TIP3   OH2 7403   4.001   4.911   0.273  0.2450 -0.5922 -0.9374
 2480TIP3    H1 7404   3.984   4.817   0.275  3.6076 -1.3251 -1.5824
 2480TIP3    H2 7405   3.940   4.944   0.207 -2.3653 -1.8713  0.6351
 2481TIP3   OH2 7406   3.663   4.987   3.505 -0.2225 -0.1398 -0.1356
 2481TIP3    H1 7407   3.649   4.893   3.515  0.9222 -0.2973  0.1990
 2481TIP3    H2 7408   3.673   5.019   3.595 -4.0695  0.9600  0.0850
 2482TIP3   OH2 7409   6.813   4.210   0.451  0.8629  0.2621 -0.4997
 2482TIP3    H1 7410   6.782   4.242   0.535 -1.4737 -0.5125 -0.9605
 2482TIP3    H2 7411   6.799   4.283   0.390 -0.5040 -0.1903 -0.7689
 2483TIP3   OH2 7412   4.172   3.835   0.389  0.1271 -0.1569  0.4643
 2483TIP3    H1 7413   4.256   3.851   0.345  0.4297 -0.7610  0.8163
 2483TIP3    H2 7414   4.147   3.921   0.424 -1.3886  0.9961 -2.9926
 2484TIP3   OH2 7415   2.825   0.892   3.729 -0.6838 -0.2732 -0.4172
 2484TIP3    H1 7416   2.833   0.882   3.634  1.0163 -0.3345 -0.2984
 2484TIP3    H2 7417   2.909   0.929   3.756 -1.2730  0.0464  1.0257
 2485TIP3   OH2 7418   6.878   2.241   2.488  0.0236 -0.2674 -0.3704
 2485TIP3    H1 7419   6.940   2.302   2.449  0.1850  0.0166  0.3242
 2485TIP3    H2 7420   6.832   2.202   2.413 -0.6911  1.3408 -0.7940
 2486TIP3   OH2 7421   0.826   1.252   0.030  0.1047  0.6207 -0.3218
 2486TIP3    H1 7422   0.835   1.289  -0.058 -2.1877 -1.0428 -1.3504
 2486TIP3    H2 7423   0.906   1.202   0.043  0.7854  1.4414 -1.1646
 2487TIP3   OH2 7424   1.190   6.144   5.500 -0.6068  0.5667 -0.6352
 2487TIP3    H1 7425   1.220   6.089   5.428 -1.3476  1.0132 -1.2993
 2487TIP3    H2 7426   1.270   6.171   5.544 -0.0193  1.6357 -2.2839
 2488TIP3   OH2 7427   0.300   5.564   2.040 -0.1970  0.9198  0.3135
 2488TIP3    H1 7428   0.210   5.579   2.012 -1.7300 -2.8086  2.4689
 2488TIP3    H2 7429   0.294   5.558   2.136  2.9827  3.5932  0.8332
 2489TIP3   OH2 7430   1.431   5.574   2.903  0.2091  0.0490  0.2831
 2489TIP3    H1 7431   1.335   5.583   2.903  0.0422 -1.4502  0.6048
 2489TIP3    H2 7432   1.451   5.536   2.817  0.4262 -0.3724  0.5164
 2490TIP3   OH2 7433   2.794   5.605   4.983  0.3179 -0.4902  0.4762
 2490TIP3    H1 7434   2.741   5.615   5.062 -0.1487 -0.3471  0.1505
 2490TIP3    H2 7435   2.730   5.604   4.911  0.6739 -1.4760  0.1605
 2491TIP3   OH2 7436   2.691   0.342   3.858 -0.4509  0.6867  0.1251
 2491TIP3    H1 7437   2.692   0.400   3.934 -2.1018  0.9317 -0.0151
 2491TIP3    H2 7438   2.775   0.357   3.816  0.2016  1.0669  1.5015
 2492TIP3   OH2 7439   4.981   2.168   2.366 -0.5466  0.0239 -0.5212
 2492TIP3    H1 7440   5.025   2.218   2.297  0.7457 -1.1915 -0.6258
 2492TIP3    H2 7441   5.053   2.129   2.416 -1.5047 -0.7228  0.2983
 2493TIP3   OH2 7442   7.039   0.862   2.724  0.4272  0.3099  0.4078
 2493TIP3    H1 7443   7.081   0.904   2.649  0.2891 -0.3994 -0.0757
 2493TIP3    H2 7444   7.035   0.930   2.791 -0.5266  1.3065 -0.6263
 2494TIP3   OH2 7445   4.114   2.857   5.890  0.4606 -0.0138 -0.1344
 2494TIP3    H1 7446   4.112   2.812   5.806 -0.1564 -1.6174  0.7032
 2494TIP3    H2 7447   4.083   2.792   5.953  0.5213  1.2766  1.2819
 2495TIP3   OH2 7448   5.663   5.796   0.108 -0.7252  0.6172 -0.9702
 2495TIP3    H1 7449   5.651   5.872   0.166  1.7530 -0.0233  0.5334
 2495TIP3    H2 7450   5.679   5.834   0.022  0.7608  1.8756 -0.1929
 2496TIP3   OH2 7451   2.445   3.399   5.757  1.2311  0.0571  0.6367
 2496TIP3    H1 7452   2.482   3.317   5.725 -1.7132 -1.1901  0.0577
 2496TIP3    H2 7453   2.377   3.372   5.819 -0.2807  1.9740 -0.0565
 2497TIP3   OH2 7454   5.295   5.755   5.641  0.3957 -0.1978 -0.4010
 2497TIP3    H1 7455   5.303   5.742   5.736 -1.2044 -2.9745 -0.5704
 2497TIP3    H2 7456   5.333   5.842   5.627  1.3150  0.0410  2.6690
 2498TIP3   OH2 7457   2.981   5.943   1.048 -0.5663 -0.2098 -0.1908
 2498TIP3    H1 7458   2.904   5.888   1.040 -0.7128 -0.1239  0.5807
 2498TIP3    H2 7459   2.978   5.977   1.137 -0.4352  0.9887 -0.6198
 2499TIP3   OH2 7460   5.935   3.347   0.656 -0.3330  0.5571 -0.2134
 2499TIP3    H1 7461   5.988   3.367   0.579 -0.5928  0.2113 -0.4854
 2499TIP3    H2 7462   5.890   3.429   0.676  0.1909  0.8091 -0.0685
 2500TIP3   OH2 7463   6.614   3.788   5.705  0.0649  0.6121  0.5200
 2500TIP3    H1 7464   6.578   3.705   5.737 -0.0198  0.6391  0.4942
 2500TIP3    H2 7465   6.703   3.766   5.676  0.3889  0.7179  1.3921
 2501TIP3   OH2 7466   5.980   4.338   5.398  0.2423 -0.6865  0.6678
 2501TIP3    H1 7467   5.963   4.259   5.348  1.8193  0.0861 -1.2264
 2501TIP3    H2 7468   5.895   4.363   5.434 -0.8576 -1.6455 -1.1350
 2502TIP3   OH2 7469   1.614   2.859   4.149  0.2943  0.1246  0.3176
 2502TIP3    H1 7470   1.648   2.887   4.233 -0.9787  0.2595  0.7974
 2502TIP3    H2 7471   1.533   2.909   4.137  0.0767 -0.4293 -0.6377
 2503TIP3   OH2 7472   3.197   5.228   0.579 -0.4768  0.1966  0.2964
 2503TIP3    H1 7473   3.104   5.252   0.583 -0.5717 -0.2213  0.7341
 2503TIP3    H2 7474   3.229   5.243   0.669 -0.3848 -0.6935  0.4149
 2504TIP3   OH2 7475   0.474   3.393   0.526 -0.4705  0.0739 -0.0760
 2504TIP3    H1 7476   0.529   3.393   0.604 -1.2582 -0.6777  0.4964
 2504TIP3    H2 7477   0.525   3.346   0.460 -0.6135 -1.0371  0.5958
 2505TIP3   OH2 7478   5.371   3.265   5.483  0.0749 -0.1693 -0.4259
 2505TIP3    H1 7479   5.390   3.273   5.577 -0.8299 -0.3778 -0.2078
 2505TIP3    H2 7480   5.276   3.281   5.477 -0.3089 -2.3089 -0.9946
 2506TIP3   OH2 7481   2.357   1.178   2.443  0.2795  0.5863  0.4011
 2506TIP3    H1 7482   2.287   1.210   2.387 -0.7855 -0.9688  0.7773
 2506TIP3    H2 7483   2.436   1.218   2.408 -0.1945 -1.0194 -2.8755
 2507TIP3   OH2 7484   2.911   6.713   0.028 -0.0057 -0.4330 -0.0916
 2507TIP3    H1 7485   2.831   6.759   0.053  1.6721  3.1257 -0.5008
 2507TIP3    H2 7486   2.936   6.663   0.105  0.1359  2.7747  2.1292
 2508TIP3   OH2 7487   0.702   6.108   1.021 -0.1755  0.2757  0.4179
 2508TIP3    H1 7488   0.727   6.089   0.931 -1.6413 -0.8797  0.2172
 2508TIP3    H2 7489   0.771   6.166   1.054  0.5459  0.4565 -1.3327
 2509TIP3   OH2 7490   5.179   0.218   2.770 -0.2573 -0.1221  0.1703
 2509TIP3    H1 7491   5.112   0.272   2.728 -0.1518  1.7103  2.1698
 2509TIP3    H2 7492   5.164   0.230   2.864  2.0749 -0.7052  0.6769
 2510TIP3   OH2 7493   0.159   6.282   1.436  0.4303 -0.1573 -0.0856
 2510TIP3    H1 7494   0.157   6.241   1.349  0.3887 -1.0045  0.3076
 2510TIP3    H2 7495   0.240   6.250   1.476  0.2978 -0.0032  0.3090
 2511TIP3   OH2 7496   2.662   0.074   3.837 -0.4100  0.2862 -0.2400
 2511TIP3    H1 7497   2.605   0.025   3.896  1.3383 -0.4277  0.9333
 2511TIP3    H2 7498   2.658   0.164   3.868  0.2409 -0.0290  0.7853
 2512TIP3   OH2 7499   7.117   0.696   1.924  0.4078  0.3246  0.0466
 2512TIP3    H1 7500   7.096   0.605   1.946  0.9381 -0.1184 -1.1708
 2512TIP3    H2 7501   7.175   0.724   1.995  0.3573 -0.3389  0.3639
 2513TIP3   OH2 7502   5.356   2.584   2.159 -0.7591 -0.3342  0.7523
 2513TIP3    H1 7503   5.428   2.641   2.131 -1.3412 -0.8535 -2.0760
 2513TIP3    H2 7504   5.399   2.504   2.188 -0.1419 -0.2636  0.0562
 2514TIP3   OH2 7505   1.305   4.433   2.558 -0.1822 -0.9207  0.5916
 2514TIP3    H1 7506   1.306   4.357   2.501  0.5572  0.2724 -1.0669
 2514TIP3    H2 7507   1.238   4.490   2.522  0.4679 -0.0279  0.7339
 2515TIP3   OH2 7508   1.046   2.010   2.475 -0.1153  0.1859  0.4063
 2515TIP3    H1 7509   1.072   1.956   2.549 -0.4541  0.3185  0.6241
 2515TIP3    H2 7510   0.983   1.956   2.426 -1.7559  0.9844  1.5411
 2516TIP3   OH2 7511   3.130   2.881   0.090  0.0729  0.2036  0.0327
 2516TIP3    H1 7512   3.090   2.794   0.080  1.8297 -0.6263 -0.1416
 2516TIP3    H2 7513   3.211   2.876   0.040 -0.1843  2.2587 -0.6774
 2517TIP3   OH2 7514   2.348   6.679   4.563 -0.4224  0.1453  0.2949
 2517TIP3    H1 7515   2.385   6.767   4.568 -0.0733  0.1256 -1.4549
 2517TIP3    H2 7516   2.254   6.692   4.555 -0.7180  0.2379  2.9060
 2518TIP3   OH2 7517   2.642   2.914   5.644  0.0034 -0.1225  0.2355
 2518TIP3    H1 7518   2.699   2.954   5.578  0.2947  0.8949  1.0678
 2518TIP3    H2 7519   2.646   2.820   5.626  0.6762  0.0759 -0.7123
 2519TIP3   OH2 7520   0.068   1.311   5.755  0.7443 -0.5491 -0.6344
 2519TIP3    H1 7521   0.012   1.291   5.681 -2.4668  1.3238  1.0935
 2519TIP3    H2 7522   0.082   1.227   5.798 -1.1511 -1.0391 -0.8961
 2520TIP3   OH2 7523   3.938   4.106   3.901  0.4525  0.3438 -0.3441
 2520TIP3    H1 7524   3.904   4.017   3.894  2.4560 -0.4800 -0.2073
 2520TIP3    H2 7525   3.986   4.120   3.819 -0.1579  1.4803 -0.5454
 2521TIP3   OH2 7526   0.443   1.068   0.056  0.4874  0.5840  0.2412
 2521TIP3    H1 7527   0.389   1.146   0.062 -0.6067  0.0266 -1.5074
 2521TIP3    H2 7528   0.507   1.088  -0.013  1.3248  0.5463  0.9863
 2522TIP3   OH2 7529   3.851   0.342   1.521 -0.2955  0.1879 -0.7067
 2522TIP3    H1 7530   3.872   0.254   1.552 -0.8832  0.9247  2.0295
 2522TIP3    H2 7531   3.760   0.355   1.547  0.1514  2.0409  0.0474
 2523TIP3   OH2 7532   4.598   6.083   3.755  0.2728 -0.1750 -0.0477
 2523TIP3    H1 7533   4.569   6.023   3.686  0.5096 -0.0991 -0.2155
 2523TIP3    H2 7534   4.540   6.064   3.829  0.3732 -0.6422 -0.0848
 2524TIP3   OH2 7535   4.939   1.545   4.601 -0.1488 -0.2000  0.0059
 2524TIP3    H1 7536   4.996   1.468   4.603  0.7871  0.3737 -2.1512
 2524TIP3    H2 7537   4.932   1.571   4.693  2.2332 -0.8948  0.4637
 2525TIP3   OH2 7538   3.995   4.873   5.019 -0.6978  0.3351  0.9893
 2525TIP3    H1 7539   3.997   4.888   4.925 -1.1690  0.2174  0.9601
 2525TIP3    H2 7540   3.906   4.845   5.038 -0.3781 -0.4823  1.3423
 2526TIP3   OH2 7541   3.227   6.310   5.370 -0.1466  0.3684 -0.0076
 2526TIP3    H1 7542   3.151   6.300   5.313  0.9676  0.3846 -1.5463
 2526TIP3    H2 7543   3.281   6.376   5.326  0.7578  0.3722  1.0713
 2527TIP3   OH2 7544   0.297   6.748   1.009  0.2219  0.1370  0.3444
 2527TIP3    H1 7545   0.219   6.799   1.032 -0.8664 -1.2401 -0.1193
 2527TIP3    H2 7546   0.324   6.707   1.091 -0.4370 -0.5360  0.2340
 2528TIP3   OH2 7547   2.397   0.052   1.956 -0.5347 -0.0551  1.0483
 2528TIP3    H1 7548   2.444  -0.021   1.994  0.0890 -0.1925  0.0555
 2528TIP3    H2 7549   2.425   0.128   2.007 -1.0173 -0.4508  1.9381
 2529TIP3   OH2 7550   4.101   2.052   2.571 -0.6307 -0.0298  0.2925
 2529TIP3    H1 7551   4.086   2.138   2.530 -1.9997 -0.8445 -1.0124
 2529TIP3    H2 7552   4.129   2.073   2.660  0.2531  1.7820 -0.3611
 2530TIP3   OH2 7553   3.092   3.500   4.058 -0.3813  0.4118  0.0179
 2530TIP3    H1 7554   3.082   3.587   4.095  1.2482  0.1075  1.2930
 2530TIP3    H2 7555   3.105   3.515   3.964 -1.0985  1.4388  0.0610
 2531TIP3   OH2 7556   4.187   1.245   0.296 -0.1801  0.2796  0.5480
 2531TIP3    H1 7557   4.138   1.212   0.371 -1.5263 -0.3569 -0.5667
 2531TIP3    H2 7558   4.222   1.329   0.326 -0.3883 -0.1239  1.9947
 2532TIP3   OH2 7559   3.578   3.208   3.887  0.6136 -0.0159 -0.1828
 2532TIP3    H1 7560   3.555   3.145   3.819 -1.7531 -1.0290  1.4414
 2532TIP3    H2 7561   3.605   3.154   3.962 -0.1062  0.9088  0.7823
 2533TIP3   OH2 7562   0.913   1.686   1.858 -0.3672 -0.6384 -0.3494
 2533TIP3    H1 7563   0.852   1.712   1.788  2.2104 -1.2500 -3.0037
 2533TIP3    H2 7564   0.991   1.655   1.812  1.8598 -0.2750  2.8597
 2534TIP3   OH2 7565   4.000   1.289   3.465 -0.1266 -0.2873 -0.0047
 2534TIP3    H1 7566   3.907   1.286   3.443 -0.0704 -0.1719 -0.2568
 2534TIP3    H2 7567   4.001   1.313   3.558 -0.3250  0.7690 -0.2598
 2535TIP3   OH2 7568   6.142   5.317   3.178  0.4009  0.2237 -0.0133
 2535TIP3    H1 7569   6.196   5.259   3.231  1.7327 -0.4465 -1.9988
 2535TIP3    H2 7570   6.204   5.378   3.139 -0.4362  0.2922 -1.2777
 2536TIP3   OH2 7571   1.586   4.426   2.649 -0.2271  0.6700 -0.3358
 2536TIP3    H1 7572   1.563   4.397   2.737 -0.2679  1.2215 -0.1588
 2536TIP3    H2 7573   1.503   4.453   2.609  0.1308  3.8527  0.7411
 2537TIP3   OH2 7574   1.448   1.722   1.707  0.7222 -0.1785 -0.4441
 2537TIP3    H1 7575   1.365   1.766   1.725  0.9384  0.1019 -0.1351
 2537TIP3    H2 7576   1.465   1.740   1.614  0.2859 -0.4971 -0.5905
 2538TIP3   OH2 7577   6.586   5.971   2.760  0.2701 -0.2080 -0.7179
 2538TIP3    H1 7578   6.664   6.007   2.801 -0.7738  1.5217 -0.1258
 2538TIP3    H2 7579   6.584   6.010   2.673 -0.2458  0.3040 -0.4918
 2539TIP3   OH2 7580   1.261   5.388   5.776  0.3140  0.7027 -0.0765
 2539TIP3    H1 7581   1.167   5.378   5.790  0.1718 -0.6326 -1.6584
 2539TIP3    H2 7582   1.289   5.452   5.841 -1.3397 -0.2809  1.6756
 2540TIP3   OH2 7583   3.164   0.396   5.854 -0.1354  0.5831  0.7250
 2540TIP3    H1 7584   3.131   0.469   5.802  0.2250  1.1765  1.3027
 2540TIP3    H2 7585   3.238   0.361   5.804 -0.7312  0.1720  0.1218
 2541TIP3   OH2 7586   0.996   0.996   4.596  0.0437  0.7221 -0.7111
 2541TIP3    H1 7587   0.922   1.044   4.633 -0.1524  0.1835 -0.3917
 2541TIP3    H2 7588   1.053   0.978   4.670  0.7571  1.5791 -1.0419
 2542TIP3   OH2 7589   1.752   4.279   2.299 -0.1776  0.5860 -0.0822
 2542TIP3    H1 7590   1.772   4.187   2.281 -0.8877  0.1528  1.2401
 2542TIP3    H2 7591   1.687   4.302   2.234 -2.0675 -0.6943  1.2453
 2543TIP3   OH2 7592   6.724   6.192   5.213  0.2806 -0.1907 -0.1011
 2543TIP3    H1 7593   6.718   6.202   5.118 -0.9575  1.1819  0.0834
 2543TIP3    H2 7594   6.814   6.218   5.234  0.3017  0.3499 -0.8088
 2544TIP3   OH2 7595   5.811   6.460   5.337 -0.2318 -0.1765  0.6109
 2544TIP3    H1 7596   5.811   6.438   5.244 -2.3198  0.7667  0.3377
 2544TIP3    H2 7597   5.902   6.481   5.357  0.5073 -1.7410 -0.8591
 2545TIP3   OH2 7598   4.643   2.805   4.509  0.3742 -0.0333  0.5017
 2545TIP3    H1 7599   4.662   2.717   4.542  3.1511  0.3824  0.3283
 2545TIP3    H2 7600   4.689   2.863   4.571 -0.9710  1.2784  0.3233
 2546TIP3   OH2 7601   5.804   1.788   4.527 -0.3625  0.2496  0.2379
 2546TIP3    H1 7602   5.803   1.876   4.491  2.0975  0.5254  0.6232
 2546TIP3    H2 7603   5.796   1.801   4.622  1.0438  0.1915  0.3886
 2547TIP3   OH2 7604   6.845   0.668   3.303  0.3695 -0.5107 -0.1123
 2547TIP3    H1 7605   6.908   0.633   3.366  3.1384 -2.3933 -3.5970
 2547TIP3    H2 7606   6.839   0.761   3.324  1.6087 -0.9386  2.4777
 2548TIP3   OH2 7607   6.003   4.813   4.710 -0.5147  0.2258 -0.2008
 2548TIP3    H1 7608   5.917   4.786   4.679 -0.8109  1.7357 -0.7877
 2548TIP3    H2 7609   6.054   4.827   4.630 -0.9553  3.1353 -0.0800
 2549TIP3   OH2 7610   2.354   1.754   0.740  0.1754  0.4204 -0.5501
 2549TIP3    H1 7611   2.319   1.707   0.664  0.3616  0.0171 -0.3893
 2549TIP3    H2 7612   2.302   1.835   0.745 -1.6167 -0.7122  0.4072
 2550TIP3   OH2 7613   5.917   2.684   1.580 -0.2883 -0.2366 -0.3389
 2550TIP3    H1 7614   5.882   2.696   1.491 -1.3396  0.2691  0.1278
 2550TIP3    H2 7615   5.915   2.771   1.619 -0.2337 -0.5327  0.3299
 2551TIP3   OH2 7616   1.904   0.207   4.535 -0.4715  0.0242  0.0066
 2551TIP3    H1 7617   1.968   0.150   4.576 -0.4595 -0.8615 -1.2064
 2551TIP3    H2 7618   1.824   0.154   4.530 -1.0783  0.8267  0.7373
 2552TIP3   OH2 7619   2.054   3.451   2.426 -0.3984 -0.4401 -0.2817
 2552TIP3    H1 7620   2.100   3.449   2.342 -0.7884  1.7725 -0.6211
 2552TIP3    H2 7621   1.963   3.433   2.404 -0.2044 -1.8536 -0.0196
 2553TIP3   OH2 7622   4.466   5.782   3.863  0.4026 -0.0502 -0.0472
 2553TIP3    H1 7623   4.407   5.812   3.793  1.1644 -0.2967 -0.8023
 2553TIP3    H2 7624   4.409   5.775   3.940 -0.5848 -0.3924 -0.7817
 2554TIP3   OH2 7625   4.060   5.769   0.174 -0.3063  0.0465 -0.2718
 2554TIP3    H1 7626   4.070   5.690   0.227 -1.1633  0.5810  0.7191
 2554TIP3    H2 7627   4.115   5.834   0.218 -0.4222  0.2827 -0.4752
 2555TIP3   OH2 7628   6.592   6.054   1.613 -0.2942  0.8180  0.1926
 2555TIP3    H1 7629   6.497   6.061   1.621 -0.6796 -1.5742 -1.3033
 2555TIP3    H2 7630   6.605   5.996   1.538  2.3463  0.7134  0.6595
 2556TIP3   OH2 7631   3.139   5.575   1.879  0.4481 -0.5583  0.1910
 2556TIP3    H1 7632   3.226   5.616   1.874 -0.0749  0.5418 -0.2298
 2556TIP3    H2 7633   3.131   5.548   1.971  1.4013 -1.0740  0.1399
 2557TIP3   OH2 7634   1.190   0.033   5.397 -0.5916 -0.0027  0.2232
 2557TIP3    H1 7635   1.101   0.008   5.426  0.0173 -1.1094  1.2484
 2557TIP3    H2 7636   1.247   0.002   5.468  0.7529 -0.6793 -1.1071
 2558TIP3   OH2 7637   1.074   0.272   3.294  0.3587  0.1486  0.0542
 2558TIP3    H1 7638   1.152   0.239   3.340  0.5183 -0.8140 -0.8830
 2558TIP3    H2 7639   1.007   0.206   3.311 -0.5389  1.3391  1.5058
 2559TIP3   OH2 7640   6.060   4.626   5.831  0.5164 -0.2104 -0.4720
 2559TIP3    H1 7641   6.025   4.559   5.772  0.8729 -0.5129 -0.3453
 2559TIP3    H2 7642   6.127   4.670   5.781 -0.2978  0.6359 -0.8513
 2560TIP3   OH2 7643   2.599   3.255   4.327 -0.1759 -0.2720  0.0420
 2560TIP3    H1 7644   2.648   3.177   4.354  0.0336 -0.4157 -0.7133
 2560TIP3    H2 7645   2.617   3.320   4.395 -0.1801 -0.8133  0.5674
 2561TIP3   OH2 7646   4.250   6.829   4.929  0.0044  0.2109 -0.0619
 2561TIP3    H1 7647   4.235   6.735   4.937 -0.1071  0.0552 -1.8345
 2561TIP3    H2 7648   4.284   6.841   4.841 -1.4705  2.0207 -0.4418
 2562TIP3   OH2 7649   0.243   1.362   1.512  0.7464 -0.7514 -0.1296
 2562TIP3    H1 7650   0.225   1.330   1.423  3.0711 -0.2705 -0.8520
 2562TIP3    H2 7651   0.160   1.354   1.558 -0.5192 -1.0610 -2.3387
 2563TIP3   OH2 7652   5.074   0.394   4.428  0.1625 -0.1847  0.2570
 2563TIP3    H1 7653   5.086   0.400   4.523  1.3785 -1.2041  0.1971
 2563TIP3    H2 7654   5.069   0.300   4.410  0.0671 -0.0091 -0.7119
 2564TIP3   OH2 7655   3.685   5.414   0.545  0.1910  0.1656 -0.8578
 2564TIP3    H1 7656   3.636   5.491   0.575  2.0964  0.7582  1.0429
 2564TIP3    H2 7657   3.668   5.348   0.612  0.9166 -0.0361 -0.8617
 2565TIP3   OH2 7658   2.293   4.910   3.218  0.2992  0.5154 -0.0734
 2565TIP3    H1 7659   2.238   4.846   3.264  0.2080  0.2763 -0.5108
 2565TIP3    H2 7660   2.304   4.982   3.281  0.7825 -0.1270  0.5984
 2566TIP3   OH2 7661   4.469   6.146   1.435 -0.1059  0.0921 -0.1309
 2566TIP3    H1 7662   4.401   6.213   1.437 -1.6850 -1.4424  0.7988
 2566TIP3    H2 7663   4.550   6.194   1.420 -1.1172  2.2515  0.8724
 2567TIP3   OH2 7664   4.202   0.417   4.404 -0.4483  0.1807  0.2308
 2567TIP3    H1 7665   4.285   0.387   4.441 -0.2307  1.6958  1.0692
 2567TIP3    H2 7666   4.137   0.394   4.470 -0.5720 -0.2029 -0.0217
 2568TIP3   OH2 7667   2.114   0.111   5.735  0.1496  0.5047  0.0895
 2568TIP3    H1 7668   2.156   0.131   5.651 -0.4710  1.1864 -0.0635
 2568TIP3    H2 7669   2.181   0.063   5.784 -0.5880 -3.1545 -2.0794
 2569TIP3   OH2 7670   0.708   1.273   3.047 -0.6509  0.4300  0.6033
 2569TIP3    H1 7671   0.789   1.266   3.097 -0.5751  0.7962  0.5332
 2569TIP3    H2 7672   0.649   1.209   3.088  0.2232 -1.0915 -0.4387
 2570TIP3   OH2 7673   5.619   0.268   0.790  0.1587 -0.2793  0.2870
 2570TIP3    H1 7674   5.656   0.212   0.858  1.6817  0.8979  0.4943
 2570TIP3    H2 7675   5.589   0.208   0.722 -0.5181 -1.4327  1.5748
 2571TIP3   OH2 7676   5.660   3.696   0.478 -0.3276 -0.0398  0.3288
 2571TIP3    H1 7677   5.718   3.652   0.416 -0.7113  0.5292 -0.4590
 2571TIP3    H2 7678   5.572   3.678   0.445 -0.4920  1.3074 -0.0124
 2572TIP3   OH2 7679   3.868   6.238   3.646  0.0858  0.0713  0.1422
 2572TIP3    H1 7680   3.809   6.181   3.696 -1.4045  1.0604 -0.4347
 2572TIP3    H2 7681   3.893   6.307   3.707  1.2201 -0.6828  0.5817
 2573TIP3   OH2 7682   3.572   3.036   2.567  0.3692  0.3172  0.1439
 2573TIP3    H1 7683   3.624   3.042   2.647 -1.5359 -1.8197  1.6720
 2573TIP3    H2 7684   3.509   3.108   2.573 -1.2305 -1.1333  1.8014
 2574TIP3   OH2 7685   0.291   2.749   0.451 -0.5347 -0.1383  0.1013
 2574TIP3    H1 7686   0.346   2.769   0.375 -0.5363  0.2867  0.2145
 2574TIP3    H2 7687   0.233   2.679   0.420 -1.9475  1.4139 -0.9456
 2575TIP3   OH2 7688   7.097   3.175   5.633 -0.1316  0.2395  0.5037
 2575TIP3    H1 7689   7.125   3.256   5.676 -0.4659 -0.0276  1.2390
 2575TIP3    H2 7690   7.007   3.192   5.606  0.1103  0.4437 -0.2079
 2576TIP3   OH2 7691   5.085   1.252   4.002 -1.1520 -0.3485  0.0256
 2576TIP3    H1 7692   5.081   1.156   4.006 -1.5883 -0.3566 -0.5428
 2576TIP3    H2 7693   5.178   1.271   3.992 -1.0105 -0.6883  0.6199
 2577TIP3   OH2 7694   7.237   5.547   2.292  0.4133  0.2501 -0.2239
 2577TIP3    H1 7695   7.209   5.636   2.272  1.4456  1.2435  2.3514
 2577TIP3    H2 7696   7.156   5.502   2.318  0.1702  1.0345  0.4050
 2578TIP3   OH2 7697   3.296   4.286   3.604  0.3933 -0.1859  0.0803
 2578TIP3    H1 7698   3.223   4.238   3.641 -0.4587  0.6298 -0.5056
 2578TIP3    H2 7699   3.338   4.224   3.545 -0.6227 -0.2695 -0.5736
 2579TIP3   OH2 7700   2.259   1.701   4.918 -0.3683  0.7900  0.1381
 2579TIP3    H1 7701   2.180   1.755   4.921 -1.3012 -0.4946 -0.5006
 2579TIP3    H2 7702   2.281   1.695   4.825 -0.5397 -0.2755  0.1521
 2580TIP3   OH2 7703   2.080   0.531   1.292  0.3170  0.3643 -0.1774
 2580TIP3    H1 7704   2.156   0.540   1.348  1.0065 -1.5329 -0.7242
 2580TIP3    H2 7705   2.027   0.462   1.334 -0.7696  1.1754 -0.1671
 2581TIP3   OH2 7706   3.303   6.354   4.901 -0.5862 -0.4071 -0.1571
 2581TIP3    H1 7707   3.330   6.305   4.979  0.0192 -2.0095 -1.3088
 2581TIP3    H2 7708   3.272   6.438   4.935 -0.9429 -1.2823  1.8533
 2582TIP3   OH2 7709   4.608   3.607   3.398  0.3117 -0.0325 -0.3624
 2582TIP3    H1 7710   4.569   3.550   3.332 -0.4484 -0.3064  0.3052
 2582TIP3    H2 7711   4.534   3.660   3.430  0.6475  0.0360  0.3243
 2583TIP3   OH2 7712   2.778   5.015   4.938 -0.3664  0.2963  0.8710
 2583TIP3    H1 7713   2.775   4.919   4.935  1.7952  0.1738  1.3847
 2583TIP3    H2 7714   2.694   5.042   4.901 -1.2114 -1.7895  1.1152
 2584TIP3   OH2 7715   4.934   0.482   1.202  0.1362 -0.0371  0.4781
 2584TIP3    H1 7716   5.029   0.487   1.189 -0.0055 -0.3068 -0.7701
 2584TIP3    H2 7717   4.897   0.486   1.114 -0.9973 -0.3795  0.9149
 2585TIP3   OH2 7718   3.293   3.379   3.512 -0.2974  0.2284  0.2666
 2585TIP3    H1 7719   3.314   3.446   3.446 -2.1190 -1.1255 -1.8270
 2585TIP3    H2 7720   3.377   3.359   3.553  0.5621  2.6084 -0.1453
 2586TIP3   OH2 7721   4.119   3.960   0.833 -0.7292 -0.5379  0.2920
 2586TIP3    H1 7722   4.114   3.892   0.901 -1.3141  1.7817  2.7777
 2586TIP3    H2 7723   4.046   4.019   0.853 -1.0640  0.1570 -2.5851
 2587TIP3   OH2 7724   2.213   1.593   0.914  0.0087 -0.5223 -0.4276
 2587TIP3    H1 7725   2.191   1.533   0.843  0.8785 -1.0901 -0.2422
 2587TIP3    H2 7726   2.295   1.634   0.887  1.4477 -2.2093  1.0492
 2588TIP3   OH2 7727   0.688   5.941   5.509  0.2473  0.1783  0.2622
 2588TIP3    H1 7728   0.751   6.011   5.528  1.7084 -0.8317 -0.6709
 2588TIP3    H2 7729   0.613   5.986   5.470  1.3484  1.1758 -0.7638
 2589TIP3   OH2 7730   1.869   0.900   1.068 -0.0227  0.1299  0.7814
 2589TIP3    H1 7731   1.872   0.823   1.010 -1.3407  0.1893  0.5893
 2589TIP3    H2 7732   1.934   0.882   1.135  0.3754 -0.7095  0.1933
 2590TIP3   OH2 7733   6.033   4.710   3.802  0.2287 -0.2926 -0.1366
 2590TIP3    H1 7734   6.071   4.666   3.878 -0.1950 -0.5114 -0.0470
 2590TIP3    H2 7735   5.939   4.694   3.810 -0.0007  1.1035  0.1897
 2591TIP3   OH2 7736   1.452   1.579   3.011 -0.0512  0.1423 -0.1594
 2591TIP3    H1 7737   1.495   1.664   3.018  2.8383 -1.2051 -0.0120
 2591TIP3    H2 7738   1.495   1.525   3.078 -2.7520 -1.1364  0.6996
 2592TIP3   OH2 7739   0.883   3.004   4.487  0.0117 -0.1085 -0.0403
 2592TIP3    H1 7740   0.841   2.919   4.502  2.0771 -1.1087  0.3358
 2592TIP3    H2 7741   0.918   2.999   4.399 -1.7487  1.2620 -0.9004
 2593TIP3   OH2 7742   4.913   4.718   0.071 -0.3550 -0.5088  0.2458
 2593TIP3    H1 7743   4.909   4.651   0.139 -2.0444 -0.4394  0.2573
 2593TIP3    H2 7744   4.967   4.679   0.002 -0.6626 -1.5710  0.5839
 2594TIP3   OH2 7745   3.021   2.395   1.115  0.0946 -0.4105 -0.0879
 2594TIP3    H1 7746   3.092   2.456   1.096  1.0291 -1.1923  0.7785
 2594TIP3    H2 7747   3.018   2.390   1.211 -2.9247  1.6531  0.0806
 2595TIP3   OH2 7748   3.551   4.765   0.292  0.5933  0.0315  0.3099
 2595TIP3    H1 7749   3.609   4.831   0.254 -1.1181  1.9954  0.9425
 2595TIP3    H2 7750   3.548   4.786   0.385 -0.1109 -0.8691  0.5076
 2596TIP3   OH2 7751   3.675   3.626   1.685  0.3221  0.7005 -0.6594
 2596TIP3    H1 7752   3.639   3.544   1.717  1.7250 -0.3780 -1.7483
 2596TIP3    H2 7753   3.655   3.689   1.755 -0.4809 -0.6128  0.3435
 2597TIP3   OH2 7754   1.894   4.827   2.551 -0.1759  0.2245 -0.2884
 2597TIP3    H1 7755   1.921   4.799   2.463 -2.7968 -0.3443 -1.0062
 2597TIP3    H2 7756   1.899   4.748   2.604 -0.8693 -0.0125 -0.5602
 2598TIP3   OH2 7757   0.244   2.796   0.728  0.1362 -0.0531  0.2033
 2598TIP3    H1 7758   0.257   2.811   0.634 -0.4606 -0.5551  0.0347
 2598TIP3    H2 7759   0.236   2.701   0.736  0.6951 -0.0507  0.8347
 2599TIP3   OH2 7760   1.754   3.567   2.640  0.2456  0.3309  0.8396
 2599TIP3    H1 7761   1.717   3.523   2.564  2.2504 -0.6115  0.3316
 2599TIP3    H2 7762   1.819   3.505   2.674 -0.2031  0.9545  3.0039
 2600TIP3   OH2 7763   5.159   2.924   2.582 -0.2653  0.2632  0.3828
 2600TIP3    H1 7764   5.190   2.834   2.590  0.8960  0.1332 -3.6996
 2600TIP3    H2 7765   5.073   2.915   2.539  0.5234  1.0667 -1.4420
 2601TIP3   OH2 7766   4.121   5.802   3.033 -0.1538  0.1462 -0.2907
 2601TIP3    H1 7767   4.091   5.766   3.116  0.2706 -0.3577 -0.3475
 2601TIP3    H2 7768   4.183   5.871   3.058 -0.1546  0.1095 -0.1870
 2602TIP3   OH2 7769   3.506   5.829   2.707 -0.5037 -0.0346 -0.0766
 2602TIP3    H1 7770   3.520   5.847   2.614  0.0537 -0.4832 -0.0818
 2602TIP3    H2 7771   3.469   5.911   2.742 -0.8414  0.0910 -0.7131
 2603TIP3   OH2 7772   5.218   2.484   2.998  0.3491  0.4695  0.1388
 2603TIP3    H1 7773   5.150   2.429   2.961 -0.5798  1.5156  0.2328
 2603TIP3    H2 7774   5.193   2.496   3.089  1.4162 -0.2505  0.5537
 2604TIP3   OH2 7775   2.009   0.875   0.031 -0.7523 -0.4161 -1.1772
 2604TIP3    H1 7776   1.934   0.932   0.050 -0.8316  0.3157 -3.4174
 2604TIP3    H2 7777   2.072   0.894   0.100 -1.2115  1.6263 -1.2588
 2605TIP3   OH2 7778   5.624   1.221   1.916 -0.2386 -0.2381 -0.1344
 2605TIP3    H1 7779   5.566   1.228   1.992 -0.8811 -0.0925 -0.6309
 2605TIP3    H2 7780   5.711   1.209   1.954 -0.4647  0.4401  0.6362
 2606TIP3   OH2 7781   5.259   4.875   4.303 -0.3942 -0.5228  0.7406
 2606TIP3    H1 7782   5.172   4.834   4.299 -0.7308 -0.1975  3.1958
 2606TIP3    H2 7783   5.242   4.969   4.296 -0.1466 -0.4977  0.4413
 2607TIP3   OH2 7784   2.073   0.255   1.744  0.6946  0.9972  0.1089
 2607TIP3    H1 7785   2.098   0.178   1.796  0.0617  0.9698  0.3893
 2607TIP3    H2 7786   2.112   0.329   1.790  0.4266  0.9405  0.4312
 2608TIP3   OH2 7787   2.723   4.451   4.498 -1.0058  0.4865 -0.6136
 2608TIP3    H1 7788   2.748   4.504   4.574  0.0117  0.1644 -0.7060
 2608TIP3    H2 7789   2.680   4.513   4.439 -1.6440  0.7808  0.1344
 2609TIP3   OH2 7790   6.981   6.449   1.639  0.3700  0.5549  0.1952
 2609TIP3    H1 7791   6.923   6.508   1.592  0.2489  1.5568  1.5343
 2609TIP3    H2 7792   7.069   6.476   1.614  0.3009  0.8247  0.2462
 2610TIP3   OH2 7793   4.616   5.541   2.535 -0.1503 -0.0193 -0.0437
 2610TIP3    H1 7794   4.567   5.569   2.457 -2.2787 -0.6011  0.9857
 2610TIP3    H2 7795   4.603   5.612   2.598  0.1203 -0.3098  0.3399
 2611TIP3   OH2 7796   3.013   0.591   0.578 -0.3072 -0.3975 -0.5533
 2611TIP3    H1 7797   3.099   0.632   0.579 -0.9724  1.0833  0.2375
 2611TIP3    H2 7798   2.952   0.664   0.565 -1.4905 -1.2391  0.0614
 2612TIP3   OH2 7799   1.368   1.263   4.566  0.5749 -0.0499 -0.1481
 2612TIP3    H1 7800   1.390   1.304   4.483 -0.0572 -0.3827 -0.4850
 2612TIP3    H2 7801   1.403   1.322   4.633  0.4484  0.5746 -0.6357
 2613TIP3   OH2 7802   5.204   6.194   4.532  0.2627  0.4627 -0.1302
 2613TIP3    H1 7803   5.203   6.255   4.458  1.1144  0.6658  0.0178
 2613TIP3    H2 7804   5.173   6.245   4.606 -0.1226  0.3934 -0.2406
 2614TIP3   OH2 7805   4.823   0.650   3.592  0.5440  0.1806 -0.3855
 2614TIP3    H1 7806   4.763   0.707   3.639  0.1512  0.1512 -0.8488
 2614TIP3    H2 7807   4.768   0.582   3.555  0.7131  0.7348 -1.7118
 2615TIP3   OH2 7808   1.226   6.610   2.090  0.4277 -0.7071  0.6943
 2615TIP3    H1 7809   1.272   6.538   2.132  0.8203  0.0990  1.7094
 2615TIP3    H2 7810   1.290   6.647   2.029  0.4402 -0.8426  0.6260
 2616TIP3   OH2 7811   0.558   6.457   4.262 -0.1610  0.1423  0.0557
 2616TIP3    H1 7812   0.596   6.369   4.258 -0.7136 -0.1386  0.7969
 2616TIP3    H2 7813   0.499   6.455   4.337 -0.1344  1.1718  0.1232
 2617TIP3   OH2 7814   2.244   5.243   3.144  0.3149 -0.0040  0.7133
 2617TIP3    H1 7815   2.245   5.223   3.237 -1.7691 -0.4484  0.6755
 2617TIP3    H2 7816   2.304   5.179   3.106  0.0678 -0.7826  1.5894
 2618TIP3   OH2 7817   3.754   2.596   5.047 -0.3366  0.5203  0.1654
 2618TIP3    H1 7818   3.659   2.609   5.045 -0.3956  0.0994  0.0253
 2618TIP3    H2 7819   3.773   2.567   5.136 -0.4529 -0.1620 -0.0229
 2619TIP3   OH2 7820   5.922   0.533   0.687 -0.3376  0.2742  0.3276
 2619TIP3    H1 7821   5.881   0.576   0.612 -1.8895 -0.9318  0.4408
 2619TIP3    H2 7822   5.898   0.587   0.762 -0.8567  0.1441  0.2579
 2620TIP3   OH2 7823   1.522   6.624   4.729  0.4729  0.8970  0.2335
 2620TIP3    H1 7824   1.611   6.599   4.751  0.4386  0.5583 -0.0165
 2620TIP3    H2 7825   1.477   6.631   4.814  0.3721 -0.2877  0.2935
 2621TIP3   OH2 7826   1.217   5.982   2.036 -0.3543 -0.0671 -0.2723
 2621TIP3    H1 7827   1.127   5.968   2.006 -0.8308  1.7409  0.1531
 2621TIP3    H2 7828   1.224   6.077   2.046  1.7214 -0.1387 -0.6095
 2622TIP3   OH2 7829   5.258   4.383   0.619  0.0025  0.0388  0.2578
 2622TIP3    H1 7830   5.321   4.391   0.691  0.5701 -0.3895 -0.1809
 2622TIP3    H2 7831   5.312   4.392   0.540 -0.6195  0.5280 -0.1153
 2623TIP3   OH2 7832   0.918   6.087   2.766 -0.1043  0.4488  0.5242
 2623TIP3    H1 7833   0.901   6.081   2.860 -1.9063  0.0386  0.1905
 2623TIP3    H2 7834   0.859   6.024   2.726  0.3016  0.9496 -0.9292
 2624TIP3   OH2 7835   6.623   4.512   5.519 -0.4782 -0.0918  0.0521
 2624TIP3    H1 7836   6.707   4.510   5.473 -0.5398  1.0005 -0.1397
 2624TIP3    H2 7837   6.634   4.450   5.591 -0.1902 -1.4141 -1.0855
 2625TIP3   OH2 7838   3.526   4.107   0.678  0.5697  0.4146  0.4495
 2625TIP3    H1 7839   3.595   4.114   0.744  0.2921  0.9458  0.6955
 2625TIP3    H2 7840   3.533   4.018   0.644  0.4628 -0.0016  1.4822
 2626TIP3   OH2 7841   5.109   2.166   5.292  0.0715 -0.2855  0.6618
 2626TIP3    H1 7842   5.054   2.224   5.345 -1.4900 -0.9862 -0.1090
 2626TIP3    H2 7843   5.136   2.097   5.353 -0.1141 -0.0644  0.9969
 2627TIP3   OH2 7844   5.269   3.282   0.515  0.0589  0.3592  0.4681
 2627TIP3    H1 7845   5.185   3.304   0.556  0.1046 -1.4076  1.6328
 2627TIP3    H2 7846   5.260   3.190   0.490  1.5106  0.2506  0.2606
 2628TIP3   OH2 7847   6.759   0.047   1.595  0.1848 -0.5521 -0.0743
 2628TIP3    H1 7848   6.804  -0.035   1.575  1.0251 -1.0784  3.4197
 2628TIP3    H2 7849   6.723   0.034   1.682 -2.1246  1.8588 -0.5418
 2629TIP3   OH2 7850   3.685   3.512   3.262  0.1226  0.3964  0.0442
 2629TIP3    H1 7851   3.639   3.476   3.186  0.9982 -0.6712  0.0012
 2629TIP3    H2 7852   3.672   3.446   3.331 -0.8459  1.4495  0.9113
 2630TIP3   OH2 7853   6.728   1.716   1.905 -0.1263  0.3276 -0.3399
 2630TIP3    H1 7854   6.682   1.716   1.989  0.8737 -1.4778  0.2669
 2630TIP3    H2 7855   6.668   1.673   1.845 -0.5157  0.9013 -0.3750
 2631TIP3   OH2 7856   3.761   5.486   2.871  0.0804 -0.0584  0.5372
 2631TIP3    H1 7857   3.767   5.446   2.957  0.1260  1.0287  1.0551
 2631TIP3    H2 7858   3.767   5.580   2.887  1.2192  0.1245 -0.7463
 2632TIP3   OH2 7859   1.834   3.139   5.491 -0.4743  0.1247 -0.3673
 2632TIP3    H1 7860   1.766   3.194   5.452 -0.8873 -0.1106  0.0125
 2632TIP3    H2 7861   1.803   3.122   5.580  0.5052  0.7485  0.1164
 2633TIP3   OH2 7862   4.807   5.321   3.617  0.6254  0.0303 -0.6524
 2633TIP3    H1 7863   4.769   5.281   3.539  0.1102 -0.2761 -0.2445
 2633TIP3    H2 7864   4.871   5.257   3.648  2.0513  0.8400 -1.7435
 2634TIP3   OH2 7865   6.292   4.305   5.853  0.2929  0.4070 -0.2727
 2634TIP3    H1 7866   6.265   4.367   5.921 -0.9602  0.4659 -0.7953
 2634TIP3    H2 7867   6.386   4.293   5.867  0.3774  1.7182  0.4101
 2635TIP3   OH2 7868   4.650   4.890   1.807 -0.4849  0.1262  0.4159
 2635TIP3    H1 7869   4.664   4.966   1.863 -0.3671 -0.2604  0.9114
 2635TIP3    H2 7870   4.671   4.815   1.862  2.0650 -0.1805 -0.8089
 2636TIP3   OH2 7871   1.683   0.786   5.641  0.0535 -0.0755  0.0396
 2636TIP3    H1 7872   1.733   0.733   5.578 -0.9846 -2.6846  1.2485
 2636TIP3    H2 7873   1.594   0.785   5.607 -0.1827 -0.0659  0.6450
 2637TIP3   OH2 7874   2.629   2.954   0.267  0.2313  0.2323  0.6646
 2637TIP3    H1 7875   2.677   2.937   0.348 -0.9812 -1.1528  1.1091
 2637TIP3    H2 7876   2.623   2.869   0.224  0.4352  0.8650 -0.6784
 2638TIP3   OH2 7877   5.065   0.412   0.343  0.6109 -0.2818  0.7143
 2638TIP3    H1 7878   4.988   0.460   0.374 -0.0397  0.6858 -2.0756
 2638TIP3    H2 7879   5.135   0.477   0.342 -0.0646  0.5668 -2.2582
 2639TIP3   OH2 7880   5.696   6.385   0.826  0.1792 -0.4744  0.2405
 2639TIP3    H1 7881   5.682   6.325   0.752  1.5066 -1.4215  0.7350
 2639TIP3    H2 7882   5.790   6.381   0.843 -0.1834 -0.8108  2.4276
 2640TIP3   OH2 7883   5.799   0.767   5.563  0.4665  0.7363  0.5614
 2640TIP3    H1 7884   5.822   0.737   5.475  1.4686  1.3464  0.5996
 2640TIP3    H2 7885   5.849   0.848   5.574  0.7137  0.4146  1.8748
 2641TIP3   OH2 7886   3.875   1.203   4.951 -0.5781  0.0463 -0.0553
 2641TIP3    H1 7887   3.916   1.290   4.951 -0.1131 -0.1249 -2.3333
 2641TIP3    H2 7888   3.939   1.147   4.995  0.1386  0.4301 -0.5911
 2642TIP3   OH2 7889   0.549   1.142   5.488 -0.0735 -0.5520  0.1830
 2642TIP3    H1 7890   0.511   1.215   5.537  1.1312 -0.9586  1.7925
 2642TIP3    H2 7891   0.637   1.171   5.466 -0.1202 -0.9318 -0.5313
 2643TIP3   OH2 7892   1.652   6.498   2.994  0.0975  0.5545 -0.2968
 2643TIP3    H1 7893   1.704   6.577   3.011  0.1018  0.0944  2.4065
 2643TIP3    H2 7894   1.562   6.529   2.989  0.1967  0.8560 -0.2387
 2644TIP3   OH2 7895   0.639   4.812   4.808  0.1373 -0.2401  0.3312
 2644TIP3    H1 7896   0.583   4.767   4.745  0.2534  3.3539 -2.6296
 2644TIP3    H2 7897   0.721   4.763   4.806 -0.6556 -1.6024 -0.4134
 2645TIP3   OH2 7898   2.185   0.477   1.856  0.4089 -0.5434  0.2313
 2645TIP3    H1 7899   2.226   0.541   1.797 -0.8395  0.0984  0.0410
 2645TIP3    H2 7900   2.160   0.527   1.932 -0.0453 -0.9330  0.3402
 2646TIP3   OH2 7901   0.583   6.176   1.796  0.6711 -0.1954  1.0805
 2646TIP3    H1 7902   0.586   6.085   1.828  0.7176 -0.3699  0.5889
 2646TIP3    H2 7903   0.494   6.205   1.815  0.7875 -0.1965  1.6404
 2647TIP3   OH2 7904   6.925   3.426   2.676 -0.4575 -0.1237  0.1734
 2647TIP3    H1 7905   7.017   3.424   2.702 -0.1403 -0.8103 -0.9022
 2647TIP3    H2 7906   6.876   3.421   2.758  0.4784 -2.2108  0.6659
 2648TIP3   OH2 7907   1.282   1.660   3.975  0.1978 -0.7396 -0.2678
 2648TIP3    H1 7908   1.233   1.690   3.898  1.7104 -0.3096 -1.1010
 2648TIP3    H2 7909   1.239   1.704   4.049 -1.3435 -1.2316 -0.8231
 2649TIP3   OH2 7910   2.663   1.376   0.178 -0.4353  0.5688 -0.3235
 2649TIP3    H1 7911   2.755   1.403   0.178 -0.5068  0.8191 -0.0401
 2649TIP3    H2 7912   2.663   1.293   0.225 -0.3371  0.5050 -0.4338
 2650TIP3   OH2 7913   3.983   2.666   0.267 -0.3774 -0.1940 -0.2349
 2650TIP3    H1 7914   3.925   2.735   0.301 -1.8093 -1.0646 -0.8465
 2650TIP3    H2 7915   4.042   2.647   0.340 -0.8030  0.7609  0.3850
 2651TIP3   OH2 7916   0.185   5.236   1.785 -0.0640  0.3018  0.1200
 2651TIP3    H1 7917   0.129   5.263   1.859  1.8807 -0.7151  2.0846
 2651TIP3    H2 7918   0.182   5.140   1.787 -0.0381  0.2530 -1.2255
 2652TIP3   OH2 7919   0.450   1.714   3.806  0.2439 -0.3882  0.1326
 2652TIP3    H1 7920   0.417   1.803   3.819  1.5638 -0.0310  1.3340
 2652TIP3    H2 7921   0.515   1.702   3.875  1.7565 -1.4609 -1.3953
 2653TIP3   OH2 7922   0.402   6.427   5.168 -0.0391 -0.7529  0.2337
 2653TIP3    H1 7923   0.476   6.485   5.152 -0.2138 -0.4769  0.4151
 2653TIP3    H2 7924   0.329   6.468   5.122  0.2771 -1.8970 -1.3942
 2654TIP3   OH2 7925   0.639   6.423   1.039  0.2594  0.1366 -0.1337
 2654TIP3    H1 7926   0.718   6.392   1.084  0.2700 -0.2532 -0.4150
 2654TIP3    H2 7927   0.661   6.512   1.012  0.4456  0.1837  0.1652
 2655TIP3   OH2 7928   6.387   4.549   5.241  0.0503  0.4120 -0.2412
 2655TIP3    H1 7929   6.377   4.454   5.242 -0.0527  0.3961  1.7821
 2655TIP3    H2 7930   6.308   4.583   5.284  0.4979  1.3526 -0.1192
 2656TIP3   OH2 7931   0.986   3.342   2.668  0.6125 -0.3721  0.0557
 2656TIP3    H1 7932   0.894   3.358   2.692  0.4572  0.4784 -1.0733
 2656TIP3    H2 7933   0.986   3.253   2.633  0.2147 -0.3513 -0.0021
 2657TIP3   OH2 7934   5.048   5.683   1.889  0.2754 -0.2459  0.4048
 2657TIP3    H1 7935   4.968   5.631   1.899 -0.1322  0.3010  0.0609
 2657TIP3    H2 7936   5.029   5.742   1.815  1.6279 -1.2950 -0.8406
 2658TIP3   OH2 7937   4.074   6.382   0.124 -0.2291  0.3533 -0.2856
 2658TIP3    H1 7938   3.988   6.417   0.099  0.8467  2.2878 -1.4263
 2658TIP3    H2 7939   4.103   6.333   0.047 -0.0791  0.1025 -0.0718
 2659TIP3   OH2 7940   6.214   1.710   2.440 -0.0095  0.0056  0.3653
 2659TIP3    H1 7941   6.206   1.614   2.438 -1.9719  0.1081 -1.5832
 2659TIP3    H2 7942   6.128   1.740   2.469  0.0927  1.1629 -0.4607
 2660TIP3   OH2 7943   2.455   3.471   2.745  0.2158 -0.1885  0.2607
 2660TIP3    H1 7944   2.419   3.402   2.801  1.0657 -0.2266  0.7690
 2660TIP3    H2 7945   2.542   3.488   2.780  0.6603 -0.0153 -0.8750
 2661TIP3   OH2 7946   0.873   6.576   2.181 -0.1491  0.2107 -0.1018
 2661TIP3    H1 7947   0.903   6.590   2.092  0.9423  0.8818  0.3566
 2661TIP3    H2 7948   0.820   6.496   2.176  1.6862 -1.0105 -0.9463
 2662TIP3   OH2 7949   3.190   0.175   5.325 -0.0490  0.1508 -0.3053
 2662TIP3    H1 7950   3.129   0.246   5.341  0.9659  0.2949  4.3554
 2662TIP3    H2 7951   3.263   0.215   5.279  0.0482  1.9406  1.3137
 2663TIP3   OH2 7952   2.050   1.200   4.663 -0.1240 -0.2115  0.0596
 2663TIP3    H1 7953   2.055   1.262   4.735  1.2172 -1.5926  1.2290
 2663TIP3    H2 7954   1.961   1.209   4.629 -0.3486  1.4189  1.0097
 2664TIP3   OH2 7955   6.918   1.382   5.085 -0.6119  0.4807  0.2021
 2664TIP3    H1 7956   6.960   1.400   5.169 -0.9187  0.1806  0.4222
 2664TIP3    H2 7957   6.949   1.295   5.061 -0.8525  0.3919  0.2088
 2665TIP3   OH2 7958   5.582   4.093   0.607  0.0116 -0.3694  0.1784
 2665TIP3    H1 7959   5.542   4.046   0.534 -0.7348 -1.4473  1.2436
 2665TIP3    H2 7960   5.599   4.026   0.673 -0.2816  0.7252  1.4113
 2666TIP3   OH2 7961   0.123   1.194   2.463 -0.4659 -0.1044  0.1042
 2666TIP3    H1 7962   0.175   1.126   2.421  0.0842 -0.5918  1.5243
 2666TIP3    H2 7963   0.147   1.274   2.417  2.3841 -0.1364  1.3828
 2667TIP3   OH2 7964   0.902   5.774   5.450  0.3027 -0.4808 -0.4328
 2667TIP3    H1 7965   0.829   5.836   5.454  0.3286 -0.4962  1.1751
 2667TIP3    H2 7966   0.891   5.720   5.529  1.0904 -1.5944 -1.0555
 2668TIP3   OH2 7967   3.772   6.004   2.069  0.5494 -0.4338  0.1266
 2668TIP3    H1 7968   3.731   5.950   2.135  0.5219 -0.8221 -0.2020
 2668TIP3    H2 7969   3.701   6.029   2.009  0.6183 -0.2982  0.0992
 2669TIP3   OH2 7970   3.449   1.040   3.900  0.5233 -0.0792 -0.2363
 2669TIP3    H1 7971   3.432   1.130   3.871 -1.3881 -0.1263  0.6063
 2669TIP3    H2 7972   3.370   1.015   3.948  1.4678 -1.8424  0.4764
 2670TIP3   OH2 7973   0.436   4.913   4.562  0.3095 -0.1152 -0.6872
 2670TIP3    H1 7974   0.397   4.988   4.606  1.8247  0.7509 -0.7307
 2670TIP3    H2 7975   0.395   4.836   4.603  1.4643  0.6386  2.1318
 2671TIP3   OH2 7976   5.629   3.883   2.115  0.1828 -0.0974  0.2892
 2671TIP3    H1 7977   5.589   3.862   2.199 -0.0659 -0.7211  0.0233
 2671TIP3    H2 7978   5.559   3.928   2.066  0.2364  0.0174  0.3200
 2672TIP3   OH2 7979   2.427   5.246   0.421  0.1108 -0.0650  0.4151
 2672TIP3    H1 7980   2.452   5.195   0.344 -1.1072  0.0544 -0.0825
 2672TIP3    H2 7981   2.450   5.336   0.398  0.4136 -0.1259  0.4810
 2673TIP3   OH2 7982   0.788   6.358   3.841  0.4435 -0.3503  0.0112
 2673TIP3    H1 7983   0.705   6.395   3.872 -0.0702 -1.3060 -0.2051
 2673TIP3    H2 7984   0.826   6.427   3.786 -0.1348  0.1439  0.2218
 2674TIP3   OH2 7985   3.116   4.503   3.625 -0.4933 -0.1825  0.1463
 2674TIP3    H1 7986   3.182   4.434   3.622 -0.2126  0.0897 -0.1275
 2674TIP3    H2 7987   3.142   4.558   3.699 -1.5020 -1.1280  1.2287
 2675TIP3   OH2 7988   3.217   0.929   5.184 -0.7185 -0.6620  0.2593
 2675TIP3    H1 7989   3.178   1.000   5.237 -1.4671 -1.0567  0.2411
 2675TIP3    H2 7990   3.159   0.855   5.197  0.0024 -1.2499  0.1803
 2676TIP3   OH2 7991   6.018   5.698   1.177 -0.0560  0.0465 -0.1819
 2676TIP3    H1 7992   6.083   5.682   1.246 -0.6954 -0.8272  0.2467
 2676TIP3    H2 7993   5.955   5.759   1.217  0.4322  0.8033 -0.5571
 2677TIP3   OH2 7994   4.077   2.060   5.761  0.3481 -0.1447 -0.1482
 2677TIP3    H1 7995   4.156   2.067   5.815  0.1762 -1.4989  0.3207
 2677TIP3    H2 7996   4.015   2.011   5.816 -0.3815 -0.1741 -0.9788
 2678TIP3   OH2 7997   6.782   1.890   3.880  0.8023 -0.2403 -0.4472
 2678TIP3    H1 7998   6.788   1.814   3.938  1.7817  0.0470 -0.1667
 2678TIP3    H2 7999   6.872   1.915   3.863  0.4996  2.0887  1.0567
 2679TIP3   OH2 8000   5.433   0.435   2.777  0.4773  0.2815  0.1498
 2679TIP3    H1 8001   5.503   0.499   2.762  1.6880 -1.1176 -0.5119
 2679TIP3    H2 8002   5.441   0.374   2.704 -0.4203 -0.8174  0.9350
 2680TIP3   OH2 8003   2.786   6.668   1.081 -0.1151 -0.4055  0.2661
 2680TIP3    H1 8004   2.840   6.743   1.055 -1.0158  0.3089  0.3904
 2680TIP3    H2 8005   2.697   6.703   1.086 -0.1916 -0.7361  3.2206
 2681TIP3   OH2 8006   3.669   2.655   0.625  0.0058 -0.0249  0.3647
 2681TIP3    H1 8007   3.719   2.709   0.687 -1.0782  1.2477  0.1800
 2681TIP3    H2 8008   3.586   2.701   0.615 -0.1447 -0.6151 -1.4656
 2682TIP3   OH2 8009   1.208   4.863   3.853  0.1336 -0.3216  0.0813
 2682TIP3    H1 8010   1.203   4.775   3.815 -1.7307  0.9687 -3.0384
 2682TIP3    H2 8011   1.142   4.862   3.922  1.2662 -1.7888  1.1996
 2683TIP3   OH2 8012   0.711   4.430   2.092  0.0929  0.0858 -0.3715
 2683TIP3    H1 8013   0.744   4.422   2.182 -1.5450 -1.1086  0.1761
 2683TIP3    H2 8014   0.705   4.340   2.060 -2.4485  0.2052 -0.4387
 2684TIP3   OH2 8015   6.184   6.195   5.848 -0.2615 -0.0096  0.1152
 2684TIP3    H1 8016   6.118   6.126   5.845  0.4412 -0.6915 -0.0742
 2684TIP3    H2 8017   6.155   6.253   5.918  0.0934 -1.5087  1.5653
 2685TIP3   OH2 8018   0.851   1.608   4.968  0.2133  0.5118 -0.5806
 2685TIP3    H1 8019   0.784   1.568   5.024 -0.1309  1.6751 -0.1398
 2685TIP3    H2 8020   0.836   1.568   4.882 -0.7052  0.3515 -0.3635
 2686TIP3   OH2 8021   0.141   4.708   5.369  0.0198 -0.6806 -0.0841
 2686TIP3    H1 8022   0.056   4.751   5.378 -0.0737 -0.5983 -1.2018
 2686TIP3    H2 8023   0.121   4.615   5.359  0.1570 -0.8560  1.1327
 2687TIP3   OH2 8024   5.472   0.223   3.138 -0.6620  0.2640  0.4184
 2687TIP3    H1 8025   5.538   0.292   3.134 -0.0818 -0.1794  1.6960
 2687TIP3    H2 8026   5.394   0.261   3.097 -0.7943  2.1743  2.2918
 2688TIP3   OH2 8027   6.572   0.045   0.442  0.0240  0.0349 -0.3435
 2688TIP3    H1 8028   6.574  -0.021   0.372  0.6158 -0.6954  0.3393
 2688TIP3    H2 8029   6.664   0.057   0.466  0.0664  2.0227 -1.2581
 2689TIP3   OH2 8030   5.863   2.625   4.056 -0.2178  1.1841  1.5572
 2689TIP3    H1 8031   5.818   2.687   4.113 -0.1207  2.6675  0.1059
 2689TIP3    H2 8032   5.938   2.594   4.107 -1.6709  0.2856  3.2309
 2690TIP3   OH2 8033   4.952   6.667   0.909  0.2724 -0.2876  0.0248
 2690TIP3    H1 8034   4.936   6.614   0.831 -0.9524 -1.5525  1.0707
 2690TIP3    H2 8035   4.923   6.611   0.982  3.4055 -0.0397  1.6067
 2691TIP3   OH2 8036   4.525   4.265   0.702  0.4344 -0.1134  0.6779
 2691TIP3    H1 8037   4.567   4.320   0.636 -1.5050  0.0331 -0.5156
 2691TIP3    H2 8038   4.516   4.179   0.660  0.8653 -0.5486  1.4600
 2692TIP3   OH2 8039   2.430   3.372   2.432  0.1763 -0.4770 -0.4711
 2692TIP3    H1 8040   2.454   3.281   2.411  0.4578 -0.5555  0.1713
 2692TIP3    H2 8041   2.486   3.395   2.506 -0.5508 -0.0843 -0.0361
 2693TIP3   OH2 8042   5.773   1.229   3.350 -0.4713  0.1377  0.3945
 2693TIP3    H1 8043   5.819   1.288   3.290  0.2936  2.6091  3.1461
 2693TIP3    H2 8044   5.842   1.172   3.385 -0.8033 -0.8789 -0.5776
 2694TIP3   OH2 8045   1.423   6.391   4.638  0.5725  0.8232  0.7727
 2694TIP3    H1 8046   1.420   6.400   4.543 -0.2953  1.1957  0.8276
 2694TIP3    H2 8047   1.454   6.476   4.669 -1.3919  1.5314  0.9328
 2695TIP3   OH2 8048   0.265   1.385   1.111 -0.0862  0.4564 -0.2742
 2695TIP3    H1 8049   0.359   1.395   1.126  0.2899 -1.0847 -1.4042
 2695TIP3    H2 8050   0.237   1.471   1.080  0.9412  0.9351  0.0658
 2696TIP3   OH2 8051   0.155   3.454   3.005 -0.2476 -0.5168  0.2703
 2696TIP3    H1 8052   0.157   3.469   3.100  0.7730  0.8190  0.0667
 2696TIP3    H2 8053   0.069   3.415   2.989 -1.2890  1.1213  1.4917
 2697TIP3   OH2 8054   0.412   0.091   3.410 -0.1565  0.0718  0.1964
 2697TIP3    H1 8055   0.371   0.065   3.493  0.2799 -0.5421  0.2267
 2697TIP3    H2 8056   0.486   0.146   3.437 -0.1780  0.1017  0.1957
 2698TIP3   OH2 8057   6.760   0.736   2.698  0.2750  0.4860 -0.0630
 2698TIP3    H1 8058   6.683   0.790   2.715  0.5877  0.5838  1.1632
 2698TIP3    H2 8059   6.825   0.798   2.664  1.1295  1.2786  2.7283
 2699TIP3   OH2 8060   3.055   2.786   0.467 -0.6208  0.0511 -0.2892
 2699TIP3    H1 8061   3.082   2.694   0.464  0.9698  0.5065 -1.7538
 2699TIP3    H2 8062   3.069   2.812   0.558 -0.5830 -1.0104  0.0236
 2700TIP3   OH2 8063   4.619   3.587   0.497 -0.1793  0.0046  0.3311
 2700TIP3    H1 8064   4.564   3.528   0.446  0.1999  1.2696 -1.6456
 2700TIP3    H2 8065   4.562   3.620   0.566 -0.4453 -2.4903  1.3884
 2701TIP3   OH2 8066   6.329   3.427   2.749  0.0513 -0.6560 -0.2053
 2701TIP3    H1 8067   6.264   3.496   2.762  0.5652 -0.1185 -0.4354
 2701TIP3    H2 8068   6.297   3.378   2.673 -0.2584 -0.6090 -0.1072
 2702TIP3   OH2 8069   1.301   5.166   3.328 -0.0057  0.1790  0.1885
 2702TIP3    H1 8070   1.220   5.215   3.323  0.2830  0.5769 -0.7516
 2702TIP3    H2 8071   1.370   5.231   3.314  0.3528 -0.5868 -2.1205
 2703TIP3   OH2 8072   1.307   1.916   4.429 -0.0286 -0.3683  0.0531
 2703TIP3    H1 8073   1.302   1.864   4.509 -0.8040 -0.5220 -0.0850
 2703TIP3    H2 8074   1.347   1.857   4.365  1.0848 -0.0691  0.4553
 2704TIP3   OH2 8075   1.507   0.911   1.185 -0.1345  0.0910 -0.0782
 2704TIP3    H1 8076   1.520   0.819   1.208 -0.3386 -0.1234 -0.8090
 2704TIP3    H2 8077   1.576   0.930   1.122 -0.2149  0.3829 -0.0784
 2705TIP3   OH2 8078   2.376   4.369   3.585  0.3984  0.1091  0.5625
 2705TIP3    H1 8079   2.407   4.333   3.668  0.1523  0.2435  0.7151
 2705TIP3    H2 8080   2.343   4.294   3.537 -2.0235  0.3394  1.7100
 2706TIP3   OH2 8081   6.990   3.793   4.769  1.0575  0.3274 -0.0490
 2706TIP3    H1 8082   7.001   3.849   4.846  1.0384 -1.5820  1.4363
 2706TIP3    H2 8083   6.917   3.831   4.721 -0.7478  0.1343  2.3343
 2707TIP3   OH2 8084   4.220   2.740   3.665 -0.7297 -0.2850  0.1441
 2707TIP3    H1 8085   4.216   2.693   3.582  0.3256  0.0554 -0.1137
 2707TIP3    H2 8086   4.150   2.702   3.718  0.8774 -3.0844  0.4242
 2708TIP3   OH2 8087   4.042   1.922   3.045  0.2233  0.2526  0.2965
 2708TIP3    H1 8088   3.967   1.862   3.045 -0.6734  1.2347 -2.7117
 2708TIP3    H2 8089   4.004   2.008   3.061  0.9753  0.5223  0.6511
 2709TIP3   OH2 8090   1.151   1.782   4.166  0.4125 -0.0708  0.0257
 2709TIP3    H1 8091   1.132   1.744   4.251  2.1450 -0.3800  0.2936
 2709TIP3    H2 8092   1.083   1.849   4.154 -0.4447 -0.7029  1.1788
 2710TIP3   OH2 8093   1.354   5.204   2.157  0.2651 -0.1240  0.2382
 2710TIP3    H1 8094   1.331   5.121   2.114 -0.3033  0.7157 -1.1456
 2710TIP3    H2 8095   1.279   5.222   2.214 -0.0913 -0.0643 -0.2386
 2711TIP3   OH2 8096   6.828   6.479   1.900 -0.4599  0.5018 -0.3700
 2711TIP3    H1 8097   6.811   6.556   1.955 -1.6105 -0.5090  0.7541
 2711TIP3    H2 8098   6.743   6.458   1.862 -0.0617  0.0544 -1.0323
 2712TIP3   OH2 8099   0.476   4.638   5.444  0.5362  0.3284  0.2042
 2712TIP3    H1 8100   0.560   4.647   5.399  0.4878 -2.9883 -0.8253
 2712TIP3    H2 8101   0.473   4.712   5.504  4.3336  0.4505  0.5032
 2713TIP3   OH2 8102   0.610   6.758   5.339 -0.5718  0.8486 -0.1712
 2713TIP3    H1 8103   0.676   6.827   5.337 -0.6301  0.9039 -0.1498
 2713TIP3    H2 8104   0.616   6.722   5.427 -0.5058  0.7920 -0.1982
 2714TIP3   OH2 8105   2.601   2.962   5.044  0.4630 -0.0434  0.4284
 2714TIP3    H1 8106   2.544   2.921   5.109 -0.2037  2.1822  1.3408
 2714TIP3    H2 8107   2.618   2.892   4.981 -1.5032 -1.3958  1.2625
 2715TIP3   OH2 8108   4.008   0.958   1.677 -0.1342 -0.2827 -0.7881
 2715TIP3    H1 8109   4.033   1.051   1.680  0.2551 -0.3767  2.0776
 2715TIP3    H2 8110   3.983   0.938   1.767 -0.6753 -2.8710 -1.4512
 2716TIP3   OH2 8111   2.718   0.102   0.317  0.0897  0.6817  0.6781
 2716TIP3    H1 8112   2.629   0.137   0.327  0.1245  0.7456  0.7699
 2716TIP3    H2 8113   2.740   0.119   0.225  0.5800  2.0514  1.0206
 2717TIP3   OH2 8114   1.117   0.174   4.184 -0.3594  0.1218  0.0714
 2717TIP3    H1 8115   1.192   0.177   4.124 -0.4136 -0.9472 -0.0575
 2717TIP3    H2 8116   1.042   0.156   4.127 -0.8007  1.5869  0.1429
 2718TIP3   OH2 8117   6.602   0.186   2.554  0.1162 -0.1714 -0.1648
 2718TIP3    H1 8118   6.542   0.260   2.542  0.3092 -0.0395 -0.3131
 2718TIP3    H2 8119   6.658   0.212   2.626  0.6363  0.1211 -0.6688
 2719TIP3   OH2 8120   1.424   1.752   2.260  0.3123  0.2506 -0.4074
 2719TIP3    H1 8121   1.366   1.823   2.286 -1.5986 -0.7616 -1.7178
 2719TIP3    H2 8122   1.506   1.770   2.307 -0.6458  2.3667  0.5835
 2720TIP3   OH2 8123   3.978   0.312   2.514 -0.0981 -0.6774 -0.3923
 2720TIP3    H1 8124   3.882   0.313   2.516 -0.1105 -0.2865 -0.9190
 2720TIP3    H2 8125   4.004   0.320   2.606 -0.5731 -0.1906 -0.2917
 2721TIP3   OH2 8126   3.407   5.875   0.701 -0.5572 -0.7366 -0.0885
 2721TIP3    H1 8127   3.428   5.967   0.715 -1.2399 -0.4048 -1.1524
 2721TIP3    H2 8128   3.336   5.857   0.764  0.0043 -0.7271  0.5642
 2722TIP3   OH2 8129   2.592   3.577   3.262 -0.2345  0.1548  0.9178
 2722TIP3    H1 8130   2.652   3.523   3.210  1.9932  1.8173  1.5882
 2722TIP3    H2 8131   2.517   3.591   3.205  1.4785  0.7262 -1.3292
 2723TIP3   OH2 8132   6.088   6.672   2.971  0.4493 -0.0040 -0.3827
 2723TIP3    H1 8133   6.019   6.720   3.017  0.3503  0.4447 -0.9920
 2723TIP3    H2 8134   6.169   6.706   3.009  0.3505 -1.3537  1.1610
 2724TIP3   OH2 8135   3.759   5.271   1.582  0.1866  0.5751  0.1670
 2724TIP3    H1 8136   3.681   5.223   1.609  0.3055  0.3168  0.0514
 2724TIP3    H2 8137   3.806   5.287   1.664  0.6678 -0.4205  0.0953
 2725TIP3   OH2 8138   6.078   2.522   4.973  0.5271 -0.3836  0.0955
 2725TIP3    H1 8139   6.080   2.615   4.995 -0.2906 -0.0144 -1.2875
 2725TIP3    H2 8140   6.167   2.502   4.943  0.1890  0.4813 -1.5697
 2726TIP3   OH2 8141   3.294   5.453   5.296 -0.1347  0.0713 -0.0166
 2726TIP3    H1 8142   3.270   5.361   5.307  1.8755 -0.4264  0.6308
 2726TIP3    H2 8143   3.229   5.501   5.347 -1.0621 -0.9991 -0.1479
 2727TIP3   OH2 8144   7.055   4.354   5.181  0.5777  0.5314 -0.8280
 2727TIP3    H1 8145   7.102   4.428   5.143 -1.3469  0.8181 -2.9139
 2727TIP3    H2 8146   6.973   4.351   5.132 -0.5348 -1.3965  0.9867
 2728TIP3   OH2 8147   2.994   5.102   1.544  0.2936  0.2554 -0.0516
 2728TIP3    H1 8148   3.019   5.135   1.630 -2.5211  2.7032 -0.0332
 2728TIP3    H2 8149   2.914   5.149   1.522 -0.5999 -2.2593 -2.8637
 2729TIP3   OH2 8150   4.395   0.917   0.955 -0.3071 -0.0708  0.2741
 2729TIP3    H1 8151   4.324   0.944   1.014 -0.7015  2.0320 -1.0652
 2729TIP3    H2 8152   4.370   0.953   0.870  0.7909 -2.0843 -0.9809
 2730TIP3   OH2 8153   4.546   5.143   5.018  0.1202 -0.5409 -0.6040
 2730TIP3    H1 8154   4.514   5.163   5.106  3.5522  0.3070  0.6023
 2730TIP3    H2 8155   4.492   5.070   4.990 -0.5121 -1.4903  2.6172
 2731TIP3   OH2 8156   3.111   1.513   3.875  0.4491 -0.2946 -0.7924
 2731TIP3    H1 8157   3.107   1.538   3.967 -1.4397 -1.3295 -0.5444
 2731TIP3    H2 8158   3.057   1.577   3.830 -0.5415 -1.1252 -0.8215
 2732TIP3   OH2 8159   2.408   3.749   5.829  0.7858  0.5556  0.0456
 2732TIP3    H1 8160   2.425   3.790   5.914  1.4354  0.1104  0.1430
 2732TIP3    H2 8161   2.487   3.698   5.812 -0.7138 -2.2294  0.8423
 2733TIP3   OH2 8162   2.800   2.843   0.438 -1.0462 -0.3501  0.4532
 2733TIP3    H1 8163   2.786   2.852   0.532 -0.2305  1.6026  0.4462
 2733TIP3    H2 8164   2.889   2.807   0.430 -1.0994 -0.4771  0.4445
 2734TIP3   OH2 8165   6.734   0.997   2.369  0.2079 -0.0335  0.1420
 2734TIP3    H1 8166   6.806   0.994   2.306  0.6787  1.7532  0.5105
 2734TIP3    H2 8167   6.762   1.064   2.432 -0.6175 -1.1846  1.7778
 2735TIP3   OH2 8168   0.937   1.804   0.065 -0.7294 -0.4078 -0.2274
 2735TIP3    H1 8169   0.955   1.845  -0.019 -0.1678 -0.9974 -0.4031
 2735TIP3    H2 8170   0.961   1.869   0.130 -0.7461 -0.1133 -0.5153
 2736TIP3   OH2 8171   3.051   5.000   4.430 -0.1049 -0.0464  0.8016
 2736TIP3    H1 8172   3.058   5.008   4.335 -0.5590 -1.8226  0.5730
 2736TIP3    H2 8173   3.140   5.011   4.462  0.0815  0.3967  0.1531
 2737TIP3   OH2 8174   2.408   4.335   1.460  0.0643 -0.1760 -0.0622
 2737TIP3    H1 8175   2.479   4.370   1.406  0.2852 -0.0651  0.2902
 2737TIP3    H2 8176   2.452   4.308   1.541 -0.1732 -0.8838 -0.1716
 2738TIP3   OH2 8177   0.693   3.243   2.430 -0.0695 -0.6970  0.0839
 2738TIP3    H1 8178   0.710   3.149   2.439  0.1583 -0.7881 -1.2157
 2738TIP3    H2 8179   0.600   3.252   2.452  0.1977 -1.0266  1.4637
 2739TIP3   OH2 8180   1.438   0.109   4.458 -0.0658  0.4627 -0.4744
 2739TIP3    H1 8181   1.446   0.172   4.530  0.9676 -0.4266  0.2295
 2739TIP3    H2 8182   1.501   0.040   4.480  0.3377  0.2006 -2.2811
 2740TIP3   OH2 8183   6.798   1.248   1.763  0.3287  0.1086 -0.3473
 2740TIP3    H1 8184   6.777   1.157   1.744 -0.4846  0.6738 -2.5016
 2740TIP3    H2 8185   6.878   1.244   1.816  0.1641 -1.8416 -0.1832
 2741TIP3   OH2 8186   1.987   0.899   1.322  0.4815 -0.0545 -0.1094
 2741TIP3    H1 8187   1.995   0.976   1.378  0.4730 -0.2742  0.1981
 2741TIP3    H2 8188   2.040   0.832   1.366 -0.3820 -0.5488  0.2091
 2742TIP3   OH2 8189   5.677   4.132   1.790  0.2650 -0.4673  0.2222
 2742TIP3    H1 8190   5.662   4.053   1.738  3.4838 -1.0170 -0.0692
 2742TIP3    H2 8191   5.717   4.193   1.729  0.1652  0.4585  1.0646
 2743TIP3   OH2 8192   3.481   1.639   2.316 -0.0824  0.3801  0.0431
 2743TIP3    H1 8193   3.422   1.711   2.337 -0.5345  0.2882 -0.8533
 2743TIP3    H2 8194   3.425   1.575   2.271  0.5068 -0.1254  0.0174
 2744TIP3   OH2 8195   0.341   3.823   4.594 -0.5075 -0.0051 -0.0573
 2744TIP3    H1 8196   0.359   3.842   4.502  2.3202  0.3049  0.4552
 2744TIP3    H2 8197   0.341   3.727   4.600 -0.5199 -0.0219 -0.3502
 2745TIP3   OH2 8198   5.705   1.555   5.631 -0.5953 -0.6336  0.1854
 2745TIP3    H1 8199   5.729   1.644   5.604 -0.9978 -0.4881  0.3018
 2745TIP3    H2 8200   5.701   1.506   5.549  0.9547 -0.8827  0.2303
 2746TIP3   OH2 8201   7.052   3.440   0.787 -0.1711  0.3303  0.3465
 2746TIP3    H1 8202   7.076   3.509   0.725 -0.6014  0.2175  0.0519
 2746TIP3    H2 8203   7.029   3.365   0.731 -1.5944  0.5514  0.5942
 2747TIP3   OH2 8204   6.498   0.068   0.692 -0.3794  0.5708  0.3628
 2747TIP3    H1 8205   6.524  -0.013   0.737 -3.7004  0.3912  2.3248
 2747TIP3    H2 8206   6.508   0.049   0.599 -0.7768 -2.0094  0.7813
 2748TIP3   OH2 8207   0.496   3.092   5.370 -0.8172 -0.4591 -0.2600
 2748TIP3    H1 8208   0.523   3.060   5.283 -1.9474 -0.7125 -0.5309
 2748TIP3    H2 8209   0.456   3.016   5.412 -0.1934 -0.3629  0.5348
 2749TIP3   OH2 8210   0.671   4.172   3.909 -0.9428 -0.0191  0.0436
 2749TIP3    H1 8211   0.741   4.133   3.962 -0.1754  1.4569  0.1701
 2749TIP3    H2 8212   0.592   4.125   3.935 -0.3724 -0.1641  1.5952
 2750TIP3   OH2 8213   0.363   1.880   1.777 -0.1591 -0.4923  0.8918
 2750TIP3    H1 8214   0.455   1.900   1.761 -0.3563  1.1030  1.6020
 2750TIP3    H2 8215   0.342   1.812   1.713  0.3936  2.1161 -2.3333
 2751TIP3   OH2 8216   5.473   5.285   2.853  0.0536  0.3522 -0.3651
 2751TIP3    H1 8217   5.513   5.291   2.766  2.3219 -0.7539  0.5284
 2751TIP3    H2 8218   5.404   5.220   2.843  0.2982  0.2217 -1.3363
 2752TIP3   OH2 8219   7.063   4.274   4.635 -0.2573 -0.2468  0.3835
 2752TIP3    H1 8220   7.038   4.239   4.549 -0.2387  0.8795 -0.0963
 2752TIP3    H2 8221   6.984   4.318   4.667  0.3682  1.2984 -0.0888
 2753TIP3   OH2 8222   1.019   3.229   5.317  0.5296 -0.2953 -0.1770
 2753TIP3    H1 8223   1.001   3.274   5.400  0.4331 -2.2286  0.9020
 2753TIP3    H2 8224   0.938   3.182   5.297  0.5196  0.2231 -1.4414
 2754TIP3   OH2 8225   4.962   4.243   4.049 -0.4789  0.3860  0.2386
 2754TIP3    H1 8226   4.911   4.222   3.971 -3.5009 -0.2838  2.2117
 2754TIP3    H2 8227   4.983   4.158   4.088  0.0902  0.7208  0.6838
 2755TIP3   OH2 8228   0.489   2.756   1.778  0.4892 -0.0421  0.7079
 2755TIP3    H1 8229   0.547   2.712   1.841 -1.4255 -1.7437  1.3881
 2755TIP3    H2 8230   0.430   2.808   1.833  1.3451  1.7502  0.0178
 2756TIP3   OH2 8231   1.186   1.587   2.922  0.0370 -0.8638  0.2006
 2756TIP3    H1 8232   1.265   1.563   2.972  1.3423 -0.7068 -1.6985
 2756TIP3    H2 8233   1.188   1.530   2.846 -0.3510  0.8010 -1.1021
 2757TIP3   OH2 8234   7.148   0.113   0.813 -0.4470  0.5615  0.0469
 2757TIP3    H1 8235   7.183   0.106   0.724  1.7638  2.0324  0.7207
 2757TIP3    H2 8236   7.225   0.130   0.868 -2.1142  3.8423  1.6899
 2758TIP3   OH2 8237   7.005   6.351   0.961 -0.5477 -0.1380 -0.2572
 2758TIP3    H1 8238   6.955   6.274   0.989 -1.2954  0.0596 -1.0208
 2758TIP3    H2 8239   6.940   6.419   0.947 -0.0772  0.1201 -1.2925
 2759TIP3   OH2 8240   5.126   6.659   4.831  0.7232  0.2032 -0.3981
 2759TIP3    H1 8241   5.167   6.689   4.912  0.4906  1.1520 -0.6235
 2759TIP3    H2 8242   5.034   6.684   4.839  0.7777  0.6753 -1.1218
 2760TIP3   OH2 8243   0.310   2.175   4.042  0.0123 -0.1292 -0.2895
 2760TIP3    H1 8244   0.242   2.144   3.982 -0.1268 -0.7776  0.1936
 2760TIP3    H2 8245   0.274   2.160   4.129  1.5049 -2.3124  0.0386
 2761TIP3   OH2 8246   4.278   6.382   2.919  0.4691 -0.0149  0.4707
 2761TIP3    H1 8247   4.243   6.410   2.835 -0.6945 -1.1812  0.5347
 2761TIP3    H2 8248   4.241   6.443   2.982 -0.4254 -0.4280  0.3707
 2762TIP3   OH2 8249   3.324   0.737   4.215  0.1627  0.0308 -0.5073
 2762TIP3    H1 8250   3.269   0.760   4.290  0.0542  1.6065 -1.0393
 2762TIP3    H2 8251   3.262   0.701   4.151  0.2452 -1.2515  0.1145
 2763TIP3   OH2 8252   6.394   0.394   2.481  0.0582  0.4625  0.0552
 2763TIP3    H1 8253   6.332   0.399   2.554 -1.0953  0.0307 -0.8579
 2763TIP3    H2 8254   6.377   0.472   2.429  0.9048  0.7899  0.2515
 2764TIP3   OH2 8255   4.154   4.618   2.868  0.3319  0.5895  0.2608
 2764TIP3    H1 8256   4.111   4.546   2.915 -0.7754  0.5559 -0.7828
 2764TIP3    H2 8257   4.110   4.697   2.899  0.0538  0.6218 -0.2018
 2765TIP3   OH2 8258   6.372   3.612   5.085 -0.4786  0.5091 -0.0717
 2765TIP3    H1 8259   6.418   3.654   5.158  2.2488 -0.6422 -1.0023
 2765TIP3    H2 8260   6.362   3.681   5.020  0.6631  0.6322 -0.1392
 2766TIP3   OH2 8261   5.004   6.037   5.697  0.2836 -0.2845 -0.3106
 2766TIP3    H1 8262   5.041   6.124   5.709 -0.6094  0.1733 -0.8158
 2766TIP3    H2 8263   4.922   6.039   5.746  0.4906 -1.0100  0.0854
 2767TIP3   OH2 8264   2.579   2.610   2.917  0.1921 -0.5048  0.2370
 2767TIP3    H1 8265   2.649   2.571   2.865  0.5932  1.1650 -0.5249
 2767TIP3    H2 8266   2.513   2.541   2.924  1.4542 -1.7631  0.1038
 2768TIP3   OH2 8267   1.652   5.870   4.115  0.0921 -0.2575  0.4365
 2768TIP3    H1 8268   1.684   5.878   4.026  0.9079 -1.1617  0.6252
 2768TIP3    H2 8269   1.671   5.954   4.156  0.7020 -0.2060  0.0551
 2769TIP3   OH2 8270   3.492   4.291   0.478 -0.3758  0.0372  0.0551
 2769TIP3    H1 8271   3.428   4.252   0.417 -0.0916 -0.7147  0.2372
 2769TIP3    H2 8272   3.477   4.246   0.561 -0.0604  0.3372  0.2774
 2770TIP3   OH2 8273   1.150   1.410   1.132  0.2791  0.6012  0.1794
 2770TIP3    H1 8274   1.167   1.332   1.185  0.0506  0.6812  0.3698
 2770TIP3    H2 8275   1.129   1.479   1.195 -0.4010  0.5939 -0.0255
 2771TIP3   OH2 8276   1.859   2.207   5.677  0.5112  0.4668 -0.1075
 2771TIP3    H1 8277   1.940   2.227   5.723  1.2751 -0.8770 -0.8013
 2771TIP3    H2 8278   1.797   2.183   5.747  0.6589  1.6092  0.4311
 2772TIP3   OH2 8279   6.348   3.135   1.618 -0.7101 -0.4532  0.1140
 2772TIP3    H1 8280   6.254   3.152   1.614 -0.5175  0.3100 -1.7569
 2772TIP3    H2 8281   6.355   3.039   1.619 -1.5312 -0.5734  2.8315
 2773TIP3   OH2 8282   0.208   5.704   0.718  0.2660 -0.2350 -0.3333
 2773TIP3    H1 8283   0.182   5.726   0.629 -0.7571  0.0195  0.0169
 2773TIP3    H2 8284   0.152   5.630   0.743  0.4521 -0.2241  0.1399
 2774TIP3   OH2 8285   2.120   3.153   0.898  0.2606  0.1075  0.4713
 2774TIP3    H1 8286   2.184   3.214   0.861  0.6308 -0.5971 -0.0766
 2774TIP3    H2 8287   2.036   3.181   0.863  0.5381 -0.2111 -0.4851
 2775TIP3   OH2 8288   3.245   2.532   4.001  0.3894 -0.7164  0.5094
 2775TIP3    H1 8289   3.167   2.587   4.001  0.1875 -0.9643 -0.8909
 2775TIP3    H2 8290   3.277   2.536   4.091 -1.1092 -0.4300  1.0650
 2776TIP3   OH2 8291   0.972   1.611   5.656  0.3331  0.1957 -0.2965
 2776TIP3    H1 8292   1.007   1.522   5.649  2.2299  0.7144  1.4594
 2776TIP3    H2 8293   0.932   1.615   5.743 -0.7798  0.7493 -0.8131
 2777TIP3   OH2 8294   4.405   4.507   2.842  0.5716  0.1345  0.1413
 2777TIP3    H1 8295   4.410   4.443   2.913  0.6764  0.0943  0.0976
 2777TIP3    H2 8296   4.311   4.527   2.834  0.5475  0.0475  0.2087
 2778TIP3   OH2 8297   4.162   2.353   5.725  0.5814 -0.1092  0.1934
 2778TIP3    H1 8298   4.098   2.379   5.659  1.7837 -0.2257 -1.0557
 2778TIP3    H2 8299   4.161   2.257   5.724  1.9852 -0.1636 -1.1301
 2779TIP3   OH2 8300   5.117   3.497   4.487  0.1460 -0.1453 -0.1181
 2779TIP3    H1 8301   5.176   3.527   4.417 -0.2420 -1.7114 -1.1690
 2779TIP3    H2 8302   5.133   3.558   4.559  0.5479  1.5569 -1.5571
 2780TIP3   OH2 8303   0.028   2.718   3.035  0.3172 -0.4900  0.0768
 2780TIP3    H1 8304   0.008   2.643   3.090 -0.4746 -0.7786 -0.5728
 2780TIP3    H2 8305  -0.012   2.696   2.950  1.3465  0.0161 -0.5500
 2781TIP3   OH2 8306   1.986   1.371   2.563 -0.0065 -0.2135  0.0140
 2781TIP3    H1 8307   2.009   1.311   2.492 -0.5102 -0.1445 -0.2070
 2781TIP3    H2 8308   2.032   1.453   2.542 -0.0613 -0.2301 -0.1653
 2782TIP3   OH2 8309   2.729   2.911   2.673  0.3925 -0.3407  0.4525
 2782TIP3    H1 8310   2.653   2.922   2.731 -0.4216  1.2466 -0.8268
 2782TIP3    H2 8311   2.796   2.872   2.729 -1.1430 -1.1998  1.8000
 2783TIP3   OH2 8312   5.584   5.775   4.585 -0.2658  0.2048  0.3361
 2783TIP3    H1 8313   5.679   5.788   4.586 -0.4156  1.5749 -0.3739
 2783TIP3    H2 8314   5.548   5.863   4.572 -1.5784 -0.5187 -1.2795
 2784TIP3   OH2 8315   2.923   3.610   1.744  0.1553 -0.3214 -0.2081
 2784TIP3    H1 8316   2.907   3.617   1.839 -0.6127  1.2379 -0.4208
 2784TIP3    H2 8317   3.012   3.574   1.738  0.3268 -0.1913  1.0998
 2785TIP3   OH2 8318   0.813   0.299   1.834  0.5363  0.5292 -0.5393
 2785TIP3    H1 8319   0.904   0.269   1.830  0.5346  0.6076 -1.2645
 2785TIP3    H2 8320   0.817   0.390   1.804  0.1598  0.3878 -1.0319
 2786TIP3   OH2 8321   0.109   5.998   4.166 -0.6508 -0.7019 -0.3776
 2786TIP3    H1 8322   0.089   5.905   4.178 -1.3340 -0.5484 -0.3143
 2786TIP3    H2 8323   0.071   6.019   4.080  0.2774 -0.6921 -0.7993
 2787TIP3   OH2 8324   2.272   4.063   1.138 -0.3449 -0.3204 -0.0994
 2787TIP3    H1 8325   2.351   4.116   1.126  0.0450 -0.7444  0.5579
 2787TIP3    H2 8326   2.201   4.121   1.110  0.0017  0.8556  1.2882
 2788TIP3   OH2 8327   5.142   1.443   0.038  0.7124 -0.3839 -0.3481
 2788TIP3    H1 8328   5.068   1.387   0.015 -0.0840  1.0764 -1.6019
 2788TIP3    H2 8329   5.142   1.511  -0.030  1.9718  0.8007  0.7636
 2789TIP3   OH2 8330   2.234   1.266   1.361  0.8380 -0.3794 -0.2279
 2789TIP3    H1 8331   2.317   1.297   1.324  1.3772 -0.9276  0.5020
 2789TIP3    H2 8332   2.224   1.177   1.327  0.2219 -0.0920 -0.8209
 2790TIP3   OH2 8333   3.736   5.750   4.940  0.7365  0.0281  0.2563
 2790TIP3    H1 8334   3.653   5.772   4.982 -0.5276 -3.2309 -0.2676
 2790TIP3    H2 8335   3.772   5.835   4.912 -1.7724  1.6458  1.5660
 2791TIP3   OH2 8336   6.793   0.067   3.917  0.4768 -0.7341  0.2947
 2791TIP3    H1 8337   6.711   0.116   3.914  0.6649 -0.4068  0.3622
 2791TIP3    H2 8338   6.787   0.014   3.996  0.4072 -0.5752  0.3961
 2792TIP3   OH2 8339   5.175   2.074   4.646 -0.8479 -0.7952  0.0745
 2792TIP3    H1 8340   5.134   2.130   4.579  0.8262 -0.7168 -0.9315
 2792TIP3    H2 8341   5.161   2.122   4.728 -0.5831  0.4795 -0.5887
 2793TIP3   OH2 8342   4.045   6.320   2.539 -0.6839 -0.2302  0.1222
 2793TIP3    H1 8343   4.097   6.342   2.461  2.2607  0.5763  2.1738
 2793TIP3    H2 8344   3.992   6.398   2.554 -1.3134 -0.4089 -1.0579
 2794TIP3   OH2 8345   2.615   5.734   4.390  0.3776  0.2221 -0.4628
 2794TIP3    H1 8346   2.668   5.777   4.322  0.4766  0.2750 -0.3516
 2794TIP3    H2 8347   2.676   5.720   4.463  0.4302 -0.3722 -0.6085
 2795TIP3   OH2 8348   4.964   3.168   3.621  0.6721 -0.4741 -0.1876
 2795TIP3    H1 8349   5.000   3.092   3.667  2.1914  0.0947 -0.3562
 2795TIP3    H2 8350   5.006   3.165   3.535  0.3072  0.2281 -0.3956
 2796TIP3   OH2 8351   0.350   3.886   1.903 -0.0839  0.2202 -0.2337
 2796TIP3    H1 8352   0.427   3.834   1.925  0.3696  0.4069 -1.2914
 2796TIP3    H2 8353   0.300   3.830   1.844 -0.5285  0.2799  0.0830
 2797TIP3   OH2 8354   4.065   0.196   1.371  0.4260  0.1198  0.3256
 2797TIP3    H1 8355   3.982   0.233   1.339 -0.8158 -0.7754  2.3314
 2797TIP3    H2 8356   4.038   0.127   1.431  2.6120 -2.8074 -1.7484
 2798TIP3   OH2 8357   4.942   1.598   2.430  0.1545  0.2290  0.4433
 2798TIP3    H1 8358   4.961   1.685   2.394 -1.4264 -0.0023 -1.0865
 2798TIP3    H2 8359   4.848   1.601   2.452 -0.1671 -1.3583 -0.5327
 2799TIP3   OH2 8360   3.139   5.792   4.128 -0.0191 -0.0349  0.2223
 2799TIP3    H1 8361   3.171   5.879   4.152 -0.3125  0.3401 -0.6889
 2799TIP3    H2 8362   3.203   5.760   4.064  0.9626 -1.1766  1.7125
 2800TIP3   OH2 8363   6.335   5.155   4.610 -0.5576 -0.0685 -0.5747
 2800TIP3    H1 8364   6.409   5.215   4.602 -1.4319  1.1217  0.0236
 2800TIP3    H2 8365   6.277   5.177   4.537  0.0601 -1.6269 -1.6040
 2801TIP3   OH2 8366   2.119   5.320   1.503 -0.5858  0.6743 -0.0636
 2801TIP3    H1 8367   2.170   5.302   1.582  3.0870  3.9174 -1.3799
 2801TIP3    H2 8368   2.032   5.344   1.536 -0.0373 -0.7343  2.6934
 2802TIP3   OH2 8369   3.184   5.872   3.666  0.3491  0.3854  0.1058
 2802TIP3    H1 8370   3.149   5.802   3.611  0.3732 -0.1679  0.7705
 2802TIP3    H2 8371   3.149   5.852   3.753 -0.2877  1.6481  0.1557
 2803TIP3   OH2 8372   5.732   6.220   4.256  0.0813  0.4849  0.3401
 2803TIP3    H1 8373   5.792   6.271   4.310  0.0499  0.7272  0.1457
 2803TIP3    H2 8374   5.780   6.206   4.174  0.5111 -0.6823  0.7649
 2804TIP3   OH2 8375   2.796   4.853   0.892  0.3343  0.2914 -0.1320
 2804TIP3    H1 8376   2.826   4.912   0.823  0.2414  0.2738 -0.1864
 2804TIP3    H2 8377   2.780   4.910   0.967 -0.2602  0.4038 -0.3398
 2805TIP3   OH2 8378   0.350   4.272   4.895  0.1492 -1.0335  0.5583
 2805TIP3    H1 8379   0.376   4.181   4.881  1.0826 -0.6738 -0.1200
 2805TIP3    H2 8380   0.255   4.267   4.908  0.0439 -2.0155 -0.3461
 2806TIP3   OH2 8381   0.307   6.272   2.355  0.4273 -0.4816 -0.2505
 2806TIP3    H1 8382   0.265   6.292   2.439  0.7112 -0.6302 -0.0706
 2806TIP3    H2 8383   0.235   6.263   2.293  0.2850  1.9143 -0.5326
 2807TIP3   OH2 8384   5.907   1.491   3.447 -0.0850 -0.1527  0.1822
 2807TIP3    H1 8385   5.957   1.412   3.426 -1.5790 -0.9451 -0.6033
 2807TIP3    H2 8386   5.918   1.548   3.371 -1.2196 -0.7953 -0.4934
 2808TIP3   OH2 8387   1.809   1.075   2.686 -0.2696  0.1318  0.7504
 2808TIP3    H1 8388   1.763   1.155   2.708  0.4496  1.0936 -1.0764
 2808TIP3    H2 8389   1.882   1.103   2.631 -0.2419 -1.7991 -0.2964
 2809TIP3   OH2 8390   6.356   1.397   2.921 -0.6618  0.0217  0.0030
 2809TIP3    H1 8391   6.302   1.345   2.980 -0.5311  1.4671  1.4466
 2809TIP3    H2 8392   6.430   1.427   2.974  0.9240 -0.8175 -1.5847
 2810TIP3   OH2 8393   1.607   4.095   4.266  0.2402  0.3201 -0.3363
 2810TIP3    H1 8394   1.623   4.190   4.261  1.9360  0.0325 -1.2560
 2810TIP3    H2 8395   1.675   4.062   4.324 -0.6548 -0.3004  0.3867
 2811TIP3   OH2 8396   1.584   2.996   5.388  0.4985 -0.1103 -0.3323
 2811TIP3    H1 8397   1.575   2.957   5.475 -1.5606 -1.2431 -0.9742
 2811TIP3    H2 8398   1.519   3.065   5.386  0.9428  0.3010 -0.7812
 2812TIP3   OH2 8399   1.270   5.864   2.344  0.0252  0.0538  0.0997
 2812TIP3    H1 8400   1.204   5.797   2.325  0.1648 -1.0484  2.9684
 2812TIP3    H2 8401   1.351   5.828   2.307 -0.4429  0.1280 -1.0518
 2813TIP3   OH2 8402   2.112   1.601   2.209  0.0502 -0.7241 -0.3907
 2813TIP3    H1 8403   2.108   1.679   2.265 -0.6974  0.0425 -1.4650
 2813TIP3    H2 8404   2.029   1.602   2.161  0.0856 -2.1236 -0.5161
 2814TIP3   OH2 8405   3.478   6.559   0.262  0.0597  0.2840 -0.1542
 2814TIP3    H1 8406   3.573   6.568   0.264  0.1222  0.0677 -1.4477
 2814TIP3    H2 8407   3.448   6.626   0.202 -0.4950 -0.4252 -0.6889
 2815TIP3   OH2 8408   0.108   3.275   0.718 -0.1224 -0.0451  0.3627
 2815TIP3    H1 8409   0.120   3.369   0.735  0.2097  0.0870 -0.5653
 2815TIP3    H2 8410   0.089   3.269   0.625  0.2649 -0.9356  0.3246
 2816TIP3   OH2 8411   4.160   6.646   0.821 -0.4571  0.5765  0.0046
 2816TIP3    H1 8412   4.216   6.577   0.785  0.7317  1.7816 -0.5326
 2816TIP3    H2 8413   4.159   6.628   0.915 -0.0934 -0.1296 -0.1144
 2817TIP3   OH2 8414   1.778   0.799   1.468 -0.6916 -0.5028 -0.2641
 2817TIP3    H1 8415   1.848   0.841   1.417  0.5004 -1.9678  0.0843
 2817TIP3    H2 8416   1.711   0.776   1.403 -0.6673  0.5258 -0.6735
 2818TIP3   OH2 8417   1.305   4.571   1.972 -0.3380 -1.3977 -0.0163
 2818TIP3    H1 8418   1.262   4.591   1.889  1.2195  0.5197 -0.4333
 2818TIP3    H2 8419   1.273   4.638   2.033 -0.4710 -2.0005  0.5888
 2819TIP3   OH2 8420   1.805   4.054   0.340 -0.0888 -0.5419 -0.2767
 2819TIP3    H1 8421   1.804   4.073   0.246 -1.4545 -0.2575 -0.2162
 2819TIP3    H2 8422   1.835   4.135   0.381 -2.7316  0.5305 -0.2616
 2820TIP3   OH2 8423   5.113   4.112   5.475 -0.0384  0.1615 -0.2756
 2820TIP3    H1 8424   5.080   4.175   5.411 -1.2833  0.1928  0.3868
 2820TIP3    H2 8425   5.080   4.142   5.559 -1.1277 -1.6506 -0.0028
 2821TIP3   OH2 8426   6.876   5.784   3.053 -0.4279  0.6356  0.3945
 2821TIP3    H1 8427   6.794   5.828   3.077 -1.9628 -2.2122  0.7867
 2821TIP3    H2 8428   6.899   5.731   3.130  1.1782  0.4971 -0.1344
 2822TIP3   OH2 8429   0.261   0.701   1.185 -0.1073 -0.2234 -0.0549
 2822TIP3    H1 8430   0.347   0.734   1.212 -0.9824  1.0314  1.3134
 2822TIP3    H2 8431   0.203   0.720   1.259 -1.7370 -0.3388 -1.2431
 2823TIP3   OH2 8432   1.238   3.836   0.904 -0.2819  0.4143 -0.5933
 2823TIP3    H1 8433   1.154   3.881   0.909 -0.8961 -0.7124 -0.4678
 2823TIP3    H2 8434   1.239   3.777   0.979  1.4080  1.6684  0.4315
 2824TIP3   OH2 8435   0.664   1.786   0.467 -0.4294 -0.5524 -0.3711
 2824TIP3    H1 8436   0.635   1.810   0.555  3.3866  1.9912  0.4223
 2824TIP3    H2 8437   0.595   1.820   0.410 -0.6300  2.3964  1.4288
 2825TIP3   OH2 8438   4.119   1.854   0.881  0.0104  0.2343 -0.1218
 2825TIP3    H1 8439   4.203   1.889   0.912  0.2641  0.7149 -1.3012
 2825TIP3    H2 8440   4.059   1.870   0.954  0.5670  1.3716  0.1220
 2826TIP3   OH2 8441   3.558   2.886   5.690 -0.5497 -0.1723 -0.1709
 2826TIP3    H1 8442   3.630   2.948   5.699 -1.1790  0.5909 -0.2980
 2826TIP3    H2 8443   3.554   2.868   5.596  0.0596 -0.9347 -0.0592
 2827TIP3   OH2 8444   5.667   0.236   0.214  0.3171  0.0624 -0.4763
 2827TIP3    H1 8445   5.685   0.300   0.145  0.8254 -0.9227 -1.2866
 2827TIP3    H2 8446   5.581   0.261   0.247 -0.1336  0.3124 -1.7623
 2828TIP3   OH2 8447   5.041   6.529   3.426 -0.3034  0.3559 -0.6844
 2828TIP3    H1 8448   4.976   6.576   3.479 -0.6268 -1.0164  0.1678
 2828TIP3    H2 8449   5.029   6.437   3.449  0.6353 -0.1129 -1.9761
 2829TIP3   OH2 8450   6.556   6.558   3.416 -0.3089  0.1230  0.6472
 2829TIP3    H1 8451   6.637   6.593   3.379 -0.6929  0.9811  0.5924
 2829TIP3    H2 8452   6.499   6.635   3.426 -0.1989 -0.0458  3.1024
 2830TIP3   OH2 8453   4.555   0.395   3.669  0.0443  0.3998  0.4227
 2830TIP3    H1 8454   4.627   0.423   3.725 -0.4727  1.9871  0.3523
 2830TIP3    H2 8455   4.561   0.300   3.667  1.1026  0.4138  1.7854
 2831TIP3   OH2 8456   5.721   4.723   5.689 -0.0928 -0.4458  0.7823
 2831TIP3    H1 8457   5.694   4.738   5.599  0.9123  0.6932  0.6561
 2831TIP3    H2 8458   5.729   4.810   5.727 -2.6817 -0.8965  2.6806
 2832TIP3   OH2 8459   2.738   2.173   4.587 -0.3565 -0.0972 -0.0667
 2832TIP3    H1 8460   2.822   2.141   4.553  0.5397  0.9757  1.0604
 2832TIP3    H2 8461   2.674   2.145   4.521  0.8219 -1.2105 -0.8019
 2833TIP3   OH2 8462   1.265   2.511   5.389  0.0004 -0.0904  0.3259
 2833TIP3    H1 8463   1.270   2.426   5.345 -0.6901 -0.3409  0.7069
 2833TIP3    H2 8464   1.300   2.495   5.477  1.3251  0.3951 -0.1048
 2834TIP3   OH2 8465   4.934   2.281   4.549 -0.0090  0.4315 -0.1496
 2834TIP3    H1 8466   4.953   2.367   4.510  0.6032  0.6109  0.5219
 2834TIP3    H2 8467   4.935   2.297   4.644  0.8090 -0.4442  0.0088
 2835TIP3   OH2 8468   3.037   1.196   1.438  0.6657 -0.2550  0.3339
 2835TIP3    H1 8469   3.118   1.207   1.488  1.0330 -1.1718 -0.0374
 2835TIP3    H2 8470   3.061   1.136   1.367 -0.0946  0.2580 -0.3653
 2836TIP3   OH2 8471   3.060   5.588   2.407 -0.0481 -0.3222 -0.0128
 2836TIP3    H1 8472   3.117   5.515   2.431 -0.4358 -0.8584 -0.6856
 2836TIP3    H2 8473   3.111   5.638   2.343  0.5297  0.4616  1.0193
 2837TIP3   OH2 8474   2.254   4.799   4.359 -0.0261 -0.2886 -0.2788
 2837TIP3    H1 8475   2.235   4.806   4.453 -1.8833 -0.3315 -0.6138
 2837TIP3    H2 8476   2.239   4.707   4.338 -1.8888  0.1426 -1.0248
 2838TIP3   OH2 8477   4.572   0.721   5.571  0.2998  0.1865 -0.2454
 2838TIP3    H1 8478   4.638   0.783   5.600  0.5478 -0.3012  0.2463
 2838TIP3    H2 8479   4.499   0.775   5.541  0.4093  0.7043  0.4153
 2839TIP3   OH2 8480   3.689   0.219   1.895  0.3794 -0.2887 -0.2157
 2839TIP3    H1 8481   3.770   0.171   1.910 -0.1158 -0.9964  0.2469
 2839TIP3    H2 8482   3.643   0.169   1.827 -0.2909 -0.6798  0.5066
 2840TIP3   OH2 8483   3.579   0.909   4.452 -0.3873 -0.5116 -0.4768
 2840TIP3    H1 8484   3.485   0.897   4.441 -0.8391  1.0707  1.1713
 2840TIP3    H2 8485   3.604   0.969   4.382 -1.0237  0.6102  0.2231
 2841TIP3   OH2 8486   1.209   5.930   3.350  0.1538 -0.2682 -0.6487
 2841TIP3    H1 8487   1.292   5.914   3.396 -0.0306  0.6115  0.0397
 2841TIP3    H2 8488   1.235   5.945   3.259  0.7599  0.0043 -0.4400
 2842TIP3   OH2 8489   3.430   5.337   4.280 -0.1446 -0.4034 -0.4904
 2842TIP3    H1 8490   3.448   5.339   4.186  0.8514 -0.2414 -0.3122
 2842TIP3    H2 8491   3.486   5.407   4.316 -1.1704  0.1227  0.1164
 2843TIP3   OH2 8492   1.744   4.575   3.013  0.5948 -0.3110 -0.5468
 2843TIP3    H1 8493   1.656   4.592   3.045 -0.3550 -2.2878 -1.9364
 2843TIP3    H2 8494   1.796   4.560   3.092 -0.8236 -1.3161  0.2316
 2844TIP3   OH2 8495   5.416   6.410   5.006  0.1197  0.0445  0.2598
 2844TIP3    H1 8496   5.330   6.400   5.047  0.2099 -0.8366  0.2584
 2844TIP3    H2 8497   5.398   6.455   4.923 -0.2244  0.6574  0.6585
 2845TIP3   OH2 8498   3.210   0.152   2.199  0.0524  0.2503 -0.0746
 2845TIP3    H1 8499   3.149   0.095   2.152  0.0433  0.3688 -0.2069
 2845TIP3    H2 8500   3.294   0.107   2.193  0.2503  0.7330 -1.0336
 2846TIP3   OH2 8501   2.490   2.979   2.452  0.2684 -0.0870  0.1186
 2846TIP3    H1 8502   2.414   3.002   2.507  0.2008  0.5013 -0.2202
 2846TIP3    H2 8503   2.494   2.883   2.457 -0.7564 -0.1547 -0.2062
 2847TIP3   OH2 8504   3.083   5.040   4.148 -0.3632 -0.2051  0.7287
 2847TIP3    H1 8505   3.175   5.064   4.153  0.1519 -0.9256 -2.6023
 2847TIP3    H2 8506   3.040   5.119   4.116 -0.0314 -1.0307 -2.0937
 2848TIP3   OH2 8507   2.348   6.336   2.664 -0.5149 -0.1815 -0.1117
 2848TIP3    H1 8508   2.337   6.292   2.748 -1.3957 -0.2985 -0.2708
 2848TIP3    H2 8509   2.432   6.305   2.631  0.4661  0.8300  1.2762
 2849TIP3   OH2 8510   7.169   3.467   3.752 -0.0775 -0.4072  0.2653
 2849TIP3    H1 8511   7.238   3.494   3.692  0.9845  1.8034  2.2671
 2849TIP3    H2 8512   7.213   3.457   3.837 -1.9606 -0.3454  1.3319
 2850TIP3   OH2 8513   2.498   1.456   5.637 -0.1936  0.0231  0.3866
 2850TIP3    H1 8514   2.561   1.481   5.705 -0.6802  0.9773  0.4921
 2850TIP3    H2 8515   2.523   1.366   5.615  1.4056  0.4746  0.2062
 2851TIP3   OH2 8516   0.700   0.115   5.759 -0.0193  0.0117 -0.8385
 2851TIP3    H1 8517   0.725   0.023   5.770  1.8807  0.3791 -1.7016
 2851TIP3    H2 8518   0.622   0.112   5.704 -0.1446 -1.0901 -0.6240
 2852TIP3   OH2 8519   4.930   4.991   3.033  0.3512  0.4448  0.5688
 2852TIP3    H1 8520   4.956   5.080   3.055 -0.3426  0.6241  0.6973
 2852TIP3    H2 8521   4.840   4.983   3.067  0.0929 -0.0163 -0.1881
 2853TIP3   OH2 8522   3.375   0.949   1.342  0.3848 -0.0087  0.6232
 2853TIP3    H1 8523   3.366   0.937   1.437 -3.3880 -0.2159  0.3973
 2853TIP3    H2 8524   3.367   0.861   1.305  1.2405  0.1403  0.0482
 2854TIP3   OH2 8525   6.156   1.407   4.336 -0.0526  0.7339  0.7557
 2854TIP3    H1 8526   6.123   1.329   4.292  2.0383 -0.2906  0.9034
 2854TIP3    H2 8527   6.156   1.475   4.268  1.1643 -0.2790 -0.2992
 2855TIP3   OH2 8528   3.137   4.383   0.706 -0.1628  0.3979  0.0996
 2855TIP3    H1 8529   3.146   4.477   0.689 -0.0244  0.3347 -0.1976
 2855TIP3    H2 8530   3.045   4.372   0.732  0.1480  0.8003  1.4184
 2856TIP3   OH2 8531   5.455   6.049   4.495 -0.1243 -0.2584  0.7961
 2856TIP3    H1 8532   5.477   6.136   4.529 -2.2267  0.8144 -0.4152
 2856TIP3    H2 8533   5.362   6.038   4.514  0.3870 -2.9312  2.2351
 2857TIP3   OH2 8534   7.180   2.854   0.759  0.5925  0.0921 -0.1001
 2857TIP3    H1 8535   7.156   2.795   0.831 -0.2150  0.8849  0.2995
 2857TIP3    H2 8536   7.273   2.838   0.745  0.8932  0.2841  1.4787
 2858TIP3   OH2 8537   6.507   1.666   4.511 -0.5948  0.4086 -0.9265
 2858TIP3    H1 8538   6.557   1.724   4.569  0.1241  0.1194 -1.2434
 2858TIP3    H2 8539   6.488   1.720   4.434 -1.0197  0.6030 -0.6908
 2859TIP3   OH2 8540   5.345   4.210   4.116  0.2424 -0.2721  0.2187
 2859TIP3    H1 8541   5.311   4.123   4.097 -0.0037 -0.5231  1.6750
 2859TIP3    H2 8542   5.306   4.233   4.200 -0.3174  1.5887 -0.5178
 2860TIP3   OH2 8543   0.487   5.207   5.699  0.6206 -0.6968  0.0388
 2860TIP3    H1 8544   0.520   5.207   5.610 -1.6914  1.0978 -0.9291
 2860TIP3    H2 8545   0.547   5.263   5.748  2.0387 -1.8859 -0.2851
 2861TIP3   OH2 8546   3.037   0.511   3.352  0.4962  0.2048 -0.0902
 2861TIP3    H1 8547   3.019   0.470   3.436 -0.0785  0.0678 -0.2764
 2861TIP3    H2 8548   3.023   0.605   3.367  2.0672  0.3880  0.4045
 2862TIP3   OH2 8549   0.224   4.270   3.368 -0.0917  0.4144  0.5518
 2862TIP3    H1 8550   0.318   4.252   3.372 -0.1307 -0.1638 -0.6226
 2862TIP3    H2 8551   0.217   4.365   3.377  0.5680  0.4198  1.0985
 2863TIP3   OH2 8552   1.416   2.754   3.660 -0.0709  0.5268  0.0492
 2863TIP3    H1 8553   1.392   2.769   3.751  1.4972 -0.0896  0.5858
 2863TIP3    H2 8554   1.337   2.715   3.621 -0.9204  1.2383  1.0013
 2864TIP3   OH2 8555   6.913   4.675   5.152  0.0490  0.0948 -0.0842
 2864TIP3    H1 8556   6.969   4.730   5.208  0.7887 -0.1238 -0.6064
 2864TIP3    H2 8557   6.908   4.723   5.069 -1.6506  0.7913  0.3746
 2865TIP3   OH2 8558   0.521   3.732   5.256  0.2482 -0.4878 -0.0522
 2865TIP3    H1 8559   0.521   3.813   5.307 -0.6680 -0.8792  0.5916
 2865TIP3    H2 8560   0.468   3.751   5.179  0.5988 -0.2730 -0.2419
 2866TIP3   OH2 8561   6.326   3.148   3.757  0.0625 -0.0310 -0.1312
 2866TIP3    H1 8562   6.303   3.059   3.784  0.5386  0.6370  2.8831
 2866TIP3    H2 8563   6.390   3.136   3.687 -1.3855 -1.9999 -1.2135
 2867TIP3   OH2 8564   1.678   3.478   4.874  0.2246  0.2001  0.0073
 2867TIP3    H1 8565   1.658   3.491   4.781 -0.0402  0.2474  0.0700
 2867TIP3    H2 8566   1.593   3.461   4.914  0.4777 -1.1761  0.0146
 2868TIP3   OH2 8567   5.268   3.215   4.324  0.1099  0.4746 -0.3414
 2868TIP3    H1 8568   5.337   3.149   4.338 -1.0548 -1.0114 -1.2330
 2868TIP3    H2 8569   5.215   3.210   4.403 -0.5597 -0.4414 -0.8251
 2869TIP3   OH2 8570   4.045   1.204   0.947  0.2262 -0.0922  0.4756
 2869TIP3    H1 8571   3.952   1.180   0.952  0.2295 -0.4771 -0.8273
 2869TIP3    H2 8572   4.049   1.291   0.986 -1.0391  0.7258 -1.0492
 2870TIP3   OH2 8573   4.440   1.724   4.535  0.3814  0.6813 -0.4474
 2870TIP3    H1 8574   4.479   1.801   4.576  3.7390  0.3961 -2.6877
 2870TIP3    H2 8575   4.479   1.721   4.447 -3.4363 -0.8566 -2.3453
 2871TIP3   OH2 8576   1.628   1.845   4.472  0.2588 -0.2227  0.3346
 2871TIP3    H1 8577   1.536   1.842   4.444 -0.0183  2.7451  0.5413
 2871TIP3    H2 8578   1.676   1.869   4.392  0.2512  2.2953  1.0175
 2872TIP3   OH2 8579   7.077   3.617   1.719 -0.1510 -0.2212  0.4577
 2872TIP3    H1 8580   7.146   3.612   1.786  0.8666 -0.6112 -0.5724
 2872TIP3    H2 8581   7.010   3.672   1.758  0.0449 -1.0868  2.1053
 2873TIP3   OH2 8582   0.523   3.116   4.162  0.3487  0.3371 -0.1865
 2873TIP3    H1 8583   0.586   3.070   4.105  1.2268 -0.1335  1.1174
 2873TIP3    H2 8584   0.545   3.209   4.152  0.1091  0.3090 -1.0465
 2874TIP3   OH2 8585   0.285   4.318   1.410  0.1522 -0.0842 -0.4755
 2874TIP3    H1 8586   0.369   4.311   1.364  1.2290 -1.4347  1.5503
 2874TIP3    H2 8587   0.308   4.331   1.502 -1.7874 -2.3941  0.4487
 2875TIP3   OH2 8588   2.399   3.900   0.877  0.0519  0.0605 -0.8159
 2875TIP3    H1 8589   2.465   3.908   0.809 -0.6216 -0.3543 -1.5333
 2875TIP3    H2 8590   2.363   3.989   0.886 -0.1288  0.0360 -1.2851
 2876TIP3   OH2 8591  -0.003   3.935   2.669  0.3306 -0.5623  0.0624
 2876TIP3    H1 8592   0.085   3.950   2.636  0.4752 -2.9853 -0.9222
 2876TIP3    H2 8593   0.002   3.954   2.763  1.6171  0.3162 -0.1696
 2877TIP3   OH2 8594   2.917   6.751   0.745 -0.0362  0.4787 -0.3681
 2877TIP3    H1 8595   2.899   6.672   0.694 -2.1023  0.9490 -0.4455
 2877TIP3    H2 8596   2.992   6.791   0.700  1.4115 -1.6412 -0.0128
 2878TIP3   OH2 8597   0.218   5.505   0.139 -0.4339  0.2207  0.4056
 2878TIP3    H1 8598   0.200   5.513   0.045 -0.1996  0.3320  0.3708
 2878TIP3    H2 8599   0.254   5.590   0.164 -2.4553  0.9450  1.0335
 2879TIP3   OH2 8600   1.057   2.724   2.758 -0.6658 -0.5777 -0.5507
 2879TIP3    H1 8601   1.138   2.727   2.708 -0.5110 -0.8962 -0.3207
 2879TIP3    H2 8602   1.054   2.807   2.805 -0.4650 -0.5718 -0.5505
 2880TIP3   OH2 8603   6.581   5.164   5.403  0.4283  0.5989 -0.4073
 2880TIP3    H1 8604   6.631   5.088   5.433  0.6631  0.0640 -2.0390
 2880TIP3    H2 8605   6.604   5.172   5.311 -2.8275  0.0432 -1.3837
 2881TIP3   OH2 8606  -0.004   0.793   3.758 -0.0558 -0.4273  0.3382
 2881TIP3    H1 8607   0.076   0.843   3.742 -0.4831 -0.2251 -1.4056
 2881TIP3    H2 8608   0.021   0.727   3.821  1.1204  0.5289  0.9159
 2882TIP3   OH2 8609   3.213   1.211   3.834  0.1945 -0.0572 -0.7069
 2882TIP3    H1 8610   3.139   1.271   3.823  0.3912  0.4072  0.3869
 2882TIP3    H2 8611   3.175   1.124   3.828 -0.2713  0.1726 -1.1925
 2883TIP3   OH2 8612   6.952   3.918   5.794  0.2814 -0.4893  0.3645
 2883TIP3    H1 8613   6.914   3.885   5.713  0.4878 -0.9799  0.4636
 2883TIP3    H2 8614   6.923   4.009   5.799 -0.7279 -0.7959  0.3492
 2884TIP3   OH2 8615   0.986   4.690   5.364 -0.8949  0.3710 -0.3448
 2884TIP3    H1 8616   1.037   4.614   5.389 -2.7064 -1.1418 -1.0114
 2884TIP3    H2 8617   0.979   4.685   5.269  0.0938  2.1830 -0.5715
 2885TIP3   OH2 8618   6.683   3.277   3.235  0.0932  0.7852  0.1888
 2885TIP3    H1 8619   6.636   3.360   3.247  0.6249  1.9754 -4.2673
 2885TIP3    H2 8620   6.776   3.301   3.243  0.1961  0.0762  1.2445
 2886TIP3   OH2 8621   6.255   3.868   0.176 -0.5006  0.0513 -0.3496
 2886TIP3    H1 8622   6.192   3.925   0.220  1.1427  0.8472  1.1237
 2886TIP3    H2 8623   6.335   3.921   0.171  0.2585 -1.1513 -1.5623
 2887TIP3   OH2 8624   7.076   1.230   0.699 -0.1650  0.4638  0.0657
 2887TIP3    H1 8625   7.092   1.143   0.733 -0.0519 -0.1847 -1.5402
 2887TIP3    H2 8626   7.079   1.288   0.776 -1.2067 -1.0386  1.2929
 2888TIP3   OH2 8627   0.971   0.744   4.411  0.6217  0.5493 -0.1223
 2888TIP3    H1 8628   1.064   0.729   4.392  0.4916  0.8782 -1.0472
 2888TIP3    H2 8629   0.972   0.813   4.478  1.0655 -0.2098  0.6773
 2889TIP3   OH2 8630   6.375   0.677   1.486  0.3023 -0.5840  0.1594
 2889TIP3    H1 8631   6.388   0.582   1.496  1.4492 -0.4161  0.4324
 2889TIP3    H2 8632   6.432   0.716   1.553 -1.4942  0.2674  1.2477
 2890TIP3   OH2 8633   0.888   3.911   1.527  0.1867 -0.2667  0.0914
 2890TIP3    H1 8634   0.936   3.902   1.609  1.6361  2.6778 -0.2886
 2890TIP3    H2 8635   0.809   3.960   1.550  0.5250  0.4404 -0.2061
 2891TIP3   OH2 8636   3.440   3.080   0.013 -1.0112  0.1690 -0.4141
 2891TIP3    H1 8637   3.468   3.164   0.049 -1.0625  1.0816 -2.3289
 2891TIP3    H2 8638   3.344   3.082   0.018 -0.9927 -0.0388  0.0658
 2892TIP3   OH2 8639   4.399   6.173   5.668  0.5244 -0.0691  0.1435
 2892TIP3    H1 8640   4.389   6.171   5.763 -0.0763  0.4562  0.0999
 2892TIP3    H2 8641   4.444   6.256   5.650 -0.4236  0.4088 -0.1070
 2893TIP3   OH2 8642   5.666   1.868   0.395  0.0516 -0.3045  0.7480
 2893TIP3    H1 8643   5.716   1.871   0.314 -1.2150  0.3843 -0.0401
 2893TIP3    H2 8644   5.712   1.927   0.454  0.8686 -0.6509  0.4687
 2894TIP3   OH2 8645   3.754   2.893   3.517  0.2186  0.1759 -0.1999
 2894TIP3    H1 8646   3.679   2.905   3.459  1.0078  0.6645 -1.1549
 2894TIP3    H2 8647   3.796   2.813   3.485 -0.5818 -0.8134  1.1349
 2895TIP3   OH2 8648   3.558   1.137   1.949 -0.1060 -0.2681  0.0303
 2895TIP3    H1 8649   3.530   1.217   1.905  0.2253  0.8441  1.7382
 2895TIP3    H2 8650   3.480   1.081   1.949 -1.1222  1.0743  0.9914
 2896TIP3   OH2 8651   4.033   4.195   4.212  0.7766  0.1954  0.3582
 2896TIP3    H1 8652   4.122   4.217   4.185  1.1670  0.0625  1.4974
 2896TIP3    H2 8653   4.038   4.185   4.307 -0.1831 -1.1082  0.2969
 2897TIP3   OH2 8654   4.070   2.304   2.463 -0.1210  0.2764  0.5379
 2897TIP3    H1 8655   4.130   2.264   2.400  0.6049  1.0025  0.7494
 2897TIP3    H2 8656   4.095   2.396   2.465  0.3795  0.1511  2.4080
 2898TIP3   OH2 8657   4.137   6.049   3.713  0.3907  0.2754 -0.2009
 2898TIP3    H1 8658   4.056   6.069   3.666 -0.9799  1.9202  2.6079
 2898TIP3    H2 8659   4.206   6.085   3.658 -1.0560  1.7276 -1.1744
 2899TIP3   OH2 8660   3.278   2.905   1.436 -0.1519  0.0930 -0.3893
 2899TIP3    H1 8661   3.288   2.990   1.478 -1.8581 -0.5463  1.4587
 2899TIP3    H2 8662   3.365   2.864   1.445 -0.0593  0.5546  1.3016
 2900TIP3   OH2 8663   1.785   4.219   1.181 -0.2560  0.3040 -0.4602
 2900TIP3    H1 8664   1.735   4.164   1.121 -0.7592  0.2538 -0.0019
 2900TIP3    H2 8665   1.736   4.216   1.263  0.5426  0.1746  0.0302
 2901TIP3   OH2 8666   0.199   5.415   4.878  0.0692 -0.2562  0.2570
 2901TIP3    H1 8667   0.291   5.425   4.852 -0.4006  1.3212 -1.0273
 2901TIP3    H2 8668   0.167   5.340   4.827  1.0732 -2.1020  2.1850
 2902TIP3   OH2 8669   1.125   1.326   0.856 -0.3680 -0.0860  0.5506
 2902TIP3    H1 8670   1.045   1.277   0.878  0.3704 -1.0785  1.1319
 2902TIP3    H2 8671   1.143   1.377   0.935  0.1425 -0.6840  0.8343
 2903TIP3   OH2 8672   0.784   1.852   3.828  0.1165 -0.0662  0.5830
 2903TIP3    H1 8673   0.836   1.798   3.887 -2.0949 -1.9104  0.9915
 2903TIP3    H2 8674   0.697   1.854   3.868 -1.0798 -0.1574 -1.8322
 2904TIP3   OH2 8675   4.185   4.495   1.779  0.1662 -0.4275 -0.0529
 2904TIP3    H1 8676   4.171   4.519   1.688  2.2132  0.2673 -0.2272
 2904TIP3    H2 8677   4.189   4.399   1.778 -1.5030 -0.5285 -0.3828
 2905TIP3   OH2 8678   4.515   1.189   5.746 -0.6974  0.0773 -0.4120
 2905TIP3    H1 8679   4.584   1.246   5.779  0.3576 -1.7160  0.6363
 2905TIP3    H2 8680   4.436   1.221   5.790  0.1142 -0.1067  1.2910
 2906TIP3   OH2 8681   6.382   2.653   0.242 -0.4771 -0.0406 -0.0088
 2906TIP3    H1 8682   6.458   2.703   0.271  0.7561 -0.5356 -2.1325
 2906TIP3    H2 8683   6.322   2.653   0.317  0.0651  3.3419  0.5736
 2907TIP3   OH2 8684   5.522   1.116   3.353  0.5164 -0.2405  0.4641
 2907TIP3    H1 8685   5.606   1.160   3.340  0.3423  0.3826  1.3344
 2907TIP3    H2 8686   5.518   1.099   3.448 -0.7727  0.6546  0.6014
 2908TIP3   OH2 8687   2.803   6.476   1.570  0.9285  0.1612 -0.2819
 2908TIP3    H1 8688   2.808   6.501   1.478  0.4405  0.0017 -0.3567
 2908TIP3    H2 8689   2.887   6.434   1.588  1.0748  0.3060 -0.6207
 2909TIP3   OH2 8690   0.758   2.285   2.049  0.5973  0.1883  0.3458
 2909TIP3    H1 8691   0.674   2.239   2.053  2.1499 -3.1327 -1.0949
 2909TIP3    H2 8692   0.738   2.376   2.073 -3.3392 -0.4793  0.1296
 2910TIP3   OH2 8693   0.361   0.588   4.578 -0.0958  0.0880  0.0104
 2910TIP3    H1 8694   0.316   0.504   4.578  0.5700 -0.2924 -1.3435
 2910TIP3    H2 8695   0.316   0.639   4.510 -3.4804  2.5637  3.6533
 2911TIP3   OH2 8696   3.394   0.310   5.740  0.2519  0.4152 -0.3330
 2911TIP3    H1 8697   3.453   0.263   5.680  0.2346  1.1261 -0.9211
 2911TIP3    H2 8698   3.393   0.400   5.706 -2.5967  0.0472 -1.4781
 2912TIP3   OH2 8699   5.083   3.598   0.379 -0.3221  0.1644 -0.8774
 2912TIP3    H1 8700   5.004   3.622   0.429 -0.5232 -0.2982 -0.9717
 2912TIP3    H2 8701   5.076   3.650   0.299 -0.3243  0.4258 -0.7107
 2913TIP3   OH2 8702   0.193   4.866   4.042  0.1797 -0.2125  0.5285
 2913TIP3    H1 8703   0.276   4.882   3.998  0.7871 -0.4304  1.5675
 2913TIP3    H2 8704   0.185   4.771   4.043  0.1115 -0.2033  0.7911
 2914TIP3   OH2 8705   1.425   4.326   0.024  0.1527 -0.0851 -0.2927
 2914TIP3    H1 8706   1.450   4.263  -0.044  0.8745 -0.9749  0.7469
 2914TIP3    H2 8707   1.504   4.335   0.077 -0.2194  1.0390  0.0954
 2915TIP3   OH2 8708   6.948   5.640   4.600 -0.0398 -0.6648  0.1392
 2915TIP3    H1 8709   6.982   5.624   4.688 -3.0737  1.4106  1.8234
 2915TIP3    H2 8710   6.889   5.566   4.583 -0.9366 -0.0952  0.7081
 2916TIP3   OH2 8711   1.668   2.231   1.922  0.5390  0.2259 -0.4082
 2916TIP3    H1 8712   1.712   2.316   1.929  0.8228  0.0211  0.4073
 2916TIP3    H2 8713   1.624   2.234   1.837  0.8001  1.0675 -0.5257
 2917TIP3   OH2 8714   3.497   5.503   2.513 -0.0863  0.4432 -0.3235
 2917TIP3    H1 8715   3.566   5.449   2.552 -1.6291 -2.0279 -0.7593
 2917TIP3    H2 8716   3.464   5.555   2.586 -0.1057 -1.0072  0.7666
 2918TIP3   OH2 8717   5.117   4.984   3.957 -0.1519 -0.2234 -0.4045
 2918TIP3    H1 8718   5.211   4.983   3.974  0.2781  0.6599 -2.4999
 2918TIP3    H2 8719   5.097   4.895   3.928 -0.2732 -0.7974  1.2997
 2919TIP3   OH2 8720   6.969   5.742   2.701 -0.2601 -0.4064 -0.2522
 2919TIP3    H1 8721   6.879   5.749   2.732 -0.3962  0.1828 -0.7735
 2919TIP3    H2 8722   6.976   5.653   2.667  0.0500 -1.2911  1.9224
 2920TIP3   OH2 8723   4.427   0.826   1.507 -0.0066  0.1726 -0.1201
 2920TIP3    H1 8724   4.492   0.886   1.544  0.6063 -0.7595  0.3574
 2920TIP3    H2 8725   4.446   0.742   1.550 -1.7435 -0.0416  0.2912
 2921TIP3   OH2 8726   7.213   2.671   1.241 -0.5575 -0.1396  0.0710
 2921TIP3    H1 8727   7.178   2.659   1.329  0.1669  1.9924  0.7005
 2921TIP3    H2 8728   7.139   2.652   1.183 -1.2904 -0.6914  1.1500
 2922TIP3   OH2 8729   6.514   2.624   1.270  0.7746  0.1810  0.1018
 2922TIP3    H1 8730   6.476   2.618   1.183  1.2601 -0.3970 -0.0776
 2922TIP3    H2 8731   6.555   2.539   1.284 -0.6338 -0.3217  1.5280
 2923TIP3   OH2 8732   1.701   1.015   4.667  0.2162  0.3752  0.3437
 2923TIP3    H1 8733   1.631   1.012   4.733 -0.5675  0.3450 -0.4663
 2923TIP3    H2 8734   1.767   0.953   4.699  0.0047  0.6167  1.2679
 2924TIP3   OH2 8735   4.676   0.151   1.141 -0.0034  0.8231 -0.1259
 2924TIP3    H1 8736   4.687   0.104   1.224  0.4791 -0.0027 -0.6520
 2924TIP3    H2 8737   4.668   0.083   1.075 -0.0373  1.4803 -0.8137
 2925TIP3   OH2 8738   4.948   3.865   5.599  0.3703  0.2678 -0.1396
 2925TIP3    H1 8739   4.940   3.960   5.590 -0.5467  0.2024 -0.0938
 2925TIP3    H2 8740   4.908   3.830   5.520 -1.0762 -0.1165  0.7272
 2926TIP3   OH2 8741   2.958   1.741   2.683 -0.2924 -0.0374 -0.1279
 2926TIP3    H1 8742   3.017   1.673   2.651 -1.6157 -1.1700 -0.2716
 2926TIP3    H2 8743   2.967   1.813   2.621  0.8705 -0.2043 -0.1743
 2927TIP3   OH2 8744   5.093   3.452   0.640 -0.6484  0.1798  0.2513
 2927TIP3    H1 8745   5.068   3.512   0.569 -1.9208 -0.6672 -0.0611
 2927TIP3    H2 8746   5.102   3.509   0.717 -2.7873  0.7071  0.1874
 2928TIP3   OH2 8747   6.828   1.664   3.274  0.2331  0.0396  0.3278
 2928TIP3    H1 8748   6.737   1.650   3.300  0.8730 -1.7616  1.8900
 2928TIP3    H2 8749   6.848   1.752   3.304 -0.9402  0.4040  0.0908
 2929TIP3   OH2 8750   5.880   3.772   0.098 -0.4488 -0.6462 -0.2541
 2929TIP3    H1 8751   5.870   3.861   0.131  1.3405 -0.9625  1.2789
 2929TIP3    H2 8752   5.821   3.768   0.023 -1.4278  1.4611  0.3248
 2930TIP3   OH2 8753   1.818   4.502   3.867  0.0788  0.3146  0.1112
 2930TIP3    H1 8754   1.725   4.505   3.843  0.2272 -0.0546 -0.5169
 2930TIP3    H2 8755   1.821   4.441   3.941  0.1452 -1.7959 -1.5150
 2931TIP3   OH2 8756   5.432   3.868   3.056 -0.4917  0.3533 -0.1898
 2931TIP3    H1 8757   5.428   3.790   2.999 -2.2781  0.1773  0.1011
 2931TIP3    H2 8758   5.494   3.844   3.125 -0.3347 -0.4778 -0.6003
 2932TIP3   OH2 8759   3.515   0.366   4.926 -0.1257  0.1933  0.0560
 2932TIP3    H1 8760   3.513   0.338   4.835 -2.5465  0.4891 -0.0502
 2932TIP3    H2 8761   3.547   0.456   4.922  3.2670 -0.8559 -0.0421
 2933TIP3   OH2 8762   0.315   5.499   5.652  0.0575 -0.4029 -0.2351
 2933TIP3    H1 8763   0.286   5.577   5.699 -0.8120 -0.9052  0.0828
 2933TIP3    H2 8764   0.408   5.515   5.635 -0.0310  0.5608  0.0958
 2934TIP3   OH2 8765   4.034   4.125   0.222  0.0122  0.2569  0.7356
 2934TIP3    H1 8766   3.970   4.086   0.282  0.2667  0.7133  1.3095
 2934TIP3    H2 8767   4.031   4.068   0.145 -0.1464 -0.4774  1.2700
 2935TIP3   OH2 8768   1.294   2.027   1.985 -0.4638  0.6712  0.2494
 2935TIP3    H1 8769   1.381   2.050   2.017  0.3506 -0.7267 -0.8601
 2935TIP3    H2 8770   1.234   2.080   2.038  1.0826  2.2760  0.4652
 2936TIP3   OH2 8771   4.810   1.417   3.443 -0.4612  0.2748 -0.2680
 2936TIP3    H1 8772   4.861   1.455   3.371  0.6556 -1.0023 -0.1868
 2936TIP3    H2 8773   4.806   1.324   3.423  1.2350 -0.3944  2.0756
 2937TIP3   OH2 8774   6.433   1.221   1.070 -0.4076 -0.3734  0.4541
 2937TIP3    H1 8775   6.490   1.286   1.111 -0.8952 -0.1100  0.7164
 2937TIP3    H2 8776   6.384   1.270   1.003 -0.3716 -0.5870  0.2680
 2938TIP3   OH2 8777   5.552   5.298   2.569 -0.2033 -0.2195  0.2357
 2938TIP3    H1 8778   5.485   5.255   2.516 -0.0682  0.6150 -0.6292
 2938TIP3    H2 8779   5.635   5.262   2.537 -0.2176 -2.4566  2.3608
 2939TIP3   OH2 8780   0.791   2.832   5.330  0.2334  0.3599 -0.7506
 2939TIP3    H1 8781   0.882   2.804   5.318  0.0989 -0.3338 -0.2062
 2939TIP3    H2 8782   0.796   2.927   5.333  1.3689  0.3337  2.0983
 2940TIP3   OH2 8783   1.037   5.209   1.317  0.3638 -0.2809 -0.3629
 2940TIP3    H1 8784   1.055   5.172   1.403  1.7993 -1.2265 -1.0254
 2940TIP3    H2 8785   1.055   5.302   1.326 -1.8401  0.1075  0.9447
 2941TIP3   OH2 8786   1.052   6.671   3.816 -0.6267 -0.1035  0.3274
 2941TIP3    H1 8787   1.084   6.595   3.769 -2.3940 -0.3685 -0.5454
 2941TIP3    H2 8788   0.957   6.669   3.804 -0.8119  1.7408  1.0234
 2942TIP3   OH2 8789   2.009   4.384   2.340 -0.4782  0.0942 -0.0830
 2942TIP3    H1 8790   1.999   4.467   2.387 -1.3874 -0.9654  1.7029
 2942TIP3    H2 8791   1.920   4.351   2.331 -0.0401 -1.2750  0.3945
 2943TIP3   OH2 8792   5.456   2.720   4.017  0.0574  0.3254  0.3613
 2943TIP3    H1 8793   5.378   2.663   4.016  0.4445 -0.2360 -1.6167
 2943TIP3    H2 8794   5.528   2.661   4.041  0.5241 -0.1864 -2.0876
 2944TIP3   OH2 8795   6.242   6.122   1.026  0.2423 -0.0824 -0.3362
 2944TIP3    H1 8796   6.327   6.090   1.056  0.1365 -1.2093 -1.1599
 2944TIP3    H2 8797   6.246   6.217   1.039  1.4185 -0.1736  0.1244
 2945TIP3   OH2 8798   6.542   0.558   3.641 -0.2812 -0.2748 -0.4141
 2945TIP3    H1 8799   6.509   0.486   3.588 -1.4061  0.0177 -0.1276
 2945TIP3    H2 8800   6.622   0.523   3.680 -0.5945 -1.2333 -0.5895
 2946TIP3   OH2 8801   4.349   5.952   2.673 -0.7889 -0.1354 -0.6400
 2946TIP3    H1 8802   4.390   6.035   2.695 -1.5604  0.6961 -2.1648
 2946TIP3    H2 8803   4.265   5.954   2.717  0.1598 -1.2407  1.3563
 2947TIP3   OH2 8804   4.491   0.914   2.326 -0.0727  0.4164 -1.0561
 2947TIP3    H1 8805   4.450   0.836   2.363  1.9165 -0.9872 -1.6422
 2947TIP3    H2 8806   4.424   0.952   2.269 -1.1147 -0.8176 -0.6953
 2948TIP3   OH2 8807   1.274   4.654   3.386  0.2881 -0.4967 -0.4041
 2948TIP3    H1 8808   1.350   4.617   3.340  1.7264  1.0222  0.6149
 2948TIP3    H2 8809   1.261   4.740   3.347 -0.5100 -0.4824 -0.1322
 2949TIP3   OH2 8810   4.410   5.350   4.751  0.1055 -1.2368  0.0977
 2949TIP3    H1 8811   4.397   5.394   4.835 -0.1264 -1.3801  0.1370
 2949TIP3    H2 8812   4.333   5.294   4.741 -1.4489  1.0096 -1.6112
 2950TIP3   OH2 8813   3.070   5.575   3.015 -0.0931  0.1375  0.0071
 2950TIP3    H1 8814   3.079   5.538   2.927 -3.3741 -0.1541 -0.3309
 2950TIP3    H2 8815   3.042   5.665   3.000  0.1112  0.3371  0.7765
 2951TIP3   OH2 8816   5.194   4.990   5.403 -0.1603 -0.0992  0.0794
 2951TIP3    H1 8817   5.187   4.990   5.308  1.1692  0.8543 -0.0474
 2951TIP3    H2 8818   5.146   5.067   5.432 -1.6403 -1.0673  0.3149
 2952TIP3   OH2 8819   0.591   5.196   3.222  0.1980 -0.1344 -0.2685
 2952TIP3    H1 8820   0.602   5.235   3.309 -0.5072  2.3193 -1.1985
 2952TIP3    H2 8821   0.588   5.102   3.238 -1.3619  0.2937  2.5433
 2953TIP3   OH2 8822   5.830   5.671   4.082 -0.2768  0.1731  0.0746
 2953TIP3    H1 8823   5.847   5.757   4.042 -1.8501  0.5405  0.1234
 2953TIP3    H2 8824   5.868   5.677   4.169 -0.6815  0.9656  0.2052
 2954TIP3   OH2 8825   3.452   1.865   4.441  0.6308 -0.2926 -0.0087
 2954TIP3    H1 8826   3.403   1.942   4.470  1.1459 -0.7740  2.3087
 2954TIP3    H2 8827   3.406   1.791   4.479 -1.3582 -1.5290 -4.2442
 2955TIP3   OH2 8828   2.679   2.329   3.452  0.0106  0.4330 -0.0166
 2955TIP3    H1 8829   2.708   2.313   3.542 -0.2266  0.5574  0.0819
 2955TIP3    H2 8830   2.652   2.243   3.420 -1.3174  0.6313  0.5324
 2956TIP3   OH2 8831   6.958   0.954   1.890  0.3566 -0.7175 -0.3022
 2956TIP3    H1 8832   6.891   0.965   1.823 -0.1086  0.4398  0.3348
 2956TIP3    H2 8833   6.981   0.861   1.885 -1.5266 -1.2201 -0.3052
 2957TIP3   OH2 8834   1.495   3.861   0.507  0.2210 -0.3360  0.2891
 2957TIP3    H1 8835   1.549   3.936   0.530  0.0283 -0.3746  0.8736
 2957TIP3    H2 8836   1.557   3.792   0.484  0.3990  0.1322 -0.7239
 2958TIP3   OH2 8837   0.551   0.122   1.740  0.0190 -0.4444 -0.3442
 2958TIP3    H1 8838   0.496   0.060   1.788 -0.9324 -1.3038 -2.4116
 2958TIP3    H2 8839   0.636   0.079   1.734 -0.6751 -1.7306 -1.8968
 2959TIP3   OH2 8840   4.405   4.350   2.457 -0.2139 -0.2018  0.2082
 2959TIP3    H1 8841   4.359   4.404   2.393 -1.4652  0.2029  1.4061
 2959TIP3    H2 8842   4.442   4.413   2.519 -1.3873 -0.6710  1.4213
 2960TIP3   OH2 8843   6.928   1.933   4.734  0.2479  0.3458  0.0820
 2960TIP3    H1 8844   7.020   1.950   4.756  0.8788 -1.1537 -1.1211
 2960TIP3    H2 8845   6.902   2.006   4.678  1.2755 -0.0313 -0.9336
 2961TIP3   OH2 8846   0.958   3.560   4.114 -0.8975 -0.7388  0.0635
 2961TIP3    H1 8847   0.997   3.645   4.094 -0.7030 -0.7338  0.4479
 2961TIP3    H2 8848   0.976   3.547   4.207 -0.0863 -1.6338 -0.2051
 2962TIP3   OH2 8849   0.760   1.531   2.741  0.4409 -0.0726 -0.1071
 2962TIP3    H1 8850   0.725   1.454   2.695  0.4121 -0.9279  1.2827
 2962TIP3    H2 8851   0.703   1.541   2.817  0.4963  1.3004 -0.2176
 2963TIP3   OH2 8852   6.995   4.340   1.272 -0.0217  0.4574 -0.0924
 2963TIP3    H1 8853   7.007   4.314   1.363  1.2690 -2.8615 -1.0549
 2963TIP3    H2 8854   7.084   4.347   1.237 -0.4268  3.2744 -0.8063
 2964TIP3   OH2 8855   5.023   4.301   0.739 -0.3043  0.2573 -0.5035
 2964TIP3    H1 8856   5.042   4.317   0.832  0.6181 -3.5420  0.1447
 2964TIP3    H2 8857   5.104   4.325   0.694 -0.6448  1.8123 -0.3535
 2965TIP3   OH2 8858   1.231   4.457   0.281  0.4456  0.0417  0.4197
 2965TIP3    H1 8859   1.201   4.366   0.288 -1.5423  0.7350  2.0989
 2965TIP3    H2 8860   1.220   4.478   0.189 -0.9172 -0.8777  0.3314
 2966TIP3   OH2 8861   4.714   2.665   3.309  0.3936 -0.5860  0.4694
 2966TIP3    H1 8862   4.798   2.622   3.293  0.1582 -0.1683 -2.2993
 2966TIP3    H2 8863   4.737   2.757   3.323  0.3712 -0.2977 -1.2431
 2967TIP3   OH2 8864   7.161   4.652   2.415 -0.6389 -0.1143 -0.4630
 2967TIP3    H1 8865   7.087   4.605   2.453  1.4517 -3.0516  0.3586
 2967TIP3    H2 8866   7.190   4.596   2.342  1.6583  0.0797  0.2147
 2968TIP3   OH2 8867   5.856   6.239   4.010 -0.1142  0.2440 -0.5430
 2968TIP3    H1 8868   5.797   6.286   3.951  0.4528  1.5272 -0.1414
 2968TIP3    H2 8869   5.944   6.262   3.979  0.1885 -1.0496 -0.6863
 2969TIP3   OH2 8870   0.212   0.940   2.369  0.1702  0.2961 -0.0695
 2969TIP3    H1 8871   0.295   0.895   2.351  0.3465  0.3123  0.6642
 2969TIP3    H2 8872   0.190   0.914   2.459 -0.0196  1.2135  0.1556
 2970TIP3   OH2 8873   5.308   2.915   5.623  0.2917  0.0383  0.0690
 2970TIP3    H1 8874   5.295   2.878   5.536  2.5460 -1.0106  0.1255
 2970TIP3    H2 8875   5.314   3.009   5.608 -3.4126  0.3536 -0.3352
 2971TIP3   OH2 8876   6.805   5.845   4.279  0.0436  0.0088  0.1976
 2971TIP3    H1 8877   6.825   5.785   4.351 -0.2376  0.2420  0.4722
 2971TIP3    H2 8878   6.711   5.861   4.287 -0.1281 -0.5271 -0.6572
 2972TIP3   OH2 8879   1.691   0.889   0.723  0.1410  0.3836 -0.2438
 2972TIP3    H1 8880   1.629   0.860   0.790 -0.1569 -0.9578 -1.0633
 2972TIP3    H2 8881   1.768   0.834   0.735  0.8121  1.3664  0.1263
 2973TIP3   OH2 8882   3.271   5.688   5.624 -0.1348 -0.2412 -0.5586
 2973TIP3    H1 8883   3.329   5.735   5.565  0.5332  0.1595  0.3938
 2973TIP3    H2 8884   3.261   5.746   5.700 -0.6410 -0.9163 -0.0885
 2974TIP3   OH2 8885   0.448   1.437   1.734 -0.7510  0.0260 -0.0309
 2974TIP3    H1 8886   0.366   1.397   1.705 -0.9772 -0.8670  1.7128
 2974TIP3    H2 8887   0.444   1.433   1.830  1.3109  0.0069  0.0894
 2975TIP3   OH2 8888   5.699   5.928   2.747 -0.2756  0.5829 -0.2601
 2975TIP3    H1 8889   5.681   5.861   2.814  1.1480 -1.1837 -1.5606
 2975TIP3    H2 8890   5.739   6.000   2.796 -0.9386  0.1091  1.0461
 2976TIP3   OH2 8891   4.729   5.527   1.454 -1.0781  0.6892  0.2243
 2976TIP3    H1 8892   4.674   5.567   1.522 -0.1420 -0.7395  1.9125
 2976TIP3    H2 8893   4.790   5.472   1.502  0.4540  0.5611 -1.7392
 2977TIP3   OH2 8894   3.715   5.663   1.447 -0.0654  0.1058  0.0571
 2977TIP3    H1 8895   3.623   5.653   1.474 -0.4149 -0.2902 -1.2322
 2977TIP3    H2 8896   3.748   5.574   1.442 -0.4873  0.0294 -2.3564
 2978TIP3   OH2 8897   3.848   1.956   2.522 -0.3567 -0.3316 -0.1831
 2978TIP3    H1 8898   3.926   1.928   2.473 -0.1553 -0.6282  0.3010
 2978TIP3    H2 8899   3.883   1.989   2.605 -0.6354  0.8668 -0.5246
 2979TIP3   OH2 8900   0.923   3.691   5.083  0.2651  0.7711  0.0788
 2979TIP3    H1 8901   0.862   3.705   5.155 -0.0254 -0.3811  0.0756
 2979TIP3    H2 8902   1.010   3.702   5.122  0.1429 -0.6794  0.8462
 2980TIP3   OH2 8903   3.666   0.722   1.454 -0.2403 -0.0930 -0.2006
 2980TIP3    H1 8904   3.754   0.714   1.489  0.0666  0.2736 -0.8731
 2980TIP3    H2 8905   3.657   0.647   1.395 -0.2620  0.0431 -0.3715
 2981TIP3   OH2 8906   3.793   0.677   4.036  0.0542  0.1192  0.0714
 2981TIP3    H1 8907   3.719   0.631   4.076 -0.8213  0.1772 -1.4019
 2981TIP3    H2 8908   3.763   0.766   4.023  1.0788  0.6533  1.1724
 2982TIP3   OH2 8909   0.100   6.144   1.161 -0.2115 -0.2407  0.4121
 2982TIP3    H1 8910   0.125   6.207   1.094 -0.5122 -1.8177 -1.2682
 2982TIP3    H2 8911   0.142   6.062   1.134 -2.3918 -1.5431  0.6932
 2983TIP3   OH2 8912   3.775   2.982   2.234  0.5313 -0.2193  0.0354
 2983TIP3    H1 8913   3.694   2.962   2.280  0.3922 -1.9972 -0.8978
 2983TIP3    H2 8914   3.788   3.076   2.247 -1.6537  0.0986  0.2273
 2984TIP3   OH2 8915   5.723   0.758   3.898  0.0539 -0.0058  0.2573
 2984TIP3    H1 8916   5.641   0.741   3.945  0.6601  0.0092  1.3552
 2984TIP3    H2 8917   5.746   0.674   3.860  0.4674 -0.4878  1.5045
 2985TIP3   OH2 8918   5.743   1.627   2.697  0.4853  0.1490  0.2032
 2985TIP3    H1 8919   5.702   1.709   2.671 -0.2781 -0.1028  0.5884
 2985TIP3    H2 8920   5.694   1.559   2.650  0.8451 -0.1133  0.2009
 2986TIP3   OH2 8921   4.621   6.011   1.783 -0.6092 -0.0664 -0.5061
 2986TIP3    H1 8922   4.629   5.926   1.826 -0.4176  0.0599 -0.2893
 2986TIP3    H2 8923   4.648   6.074   1.850 -0.3070  0.1342 -0.8172
 2987TIP3   OH2 8924   3.279   2.516   4.752  0.8708 -0.3942 -0.0403
 2987TIP3    H1 8925   3.192   2.551   4.771  0.7833 -0.9002  0.5103
 2987TIP3    H2 8926   3.331   2.593   4.729  0.2067 -0.1192 -0.6669
 2988TIP3   OH2 8927   4.160   1.296   4.094  0.3437 -0.1022  0.2728
 2988TIP3    H1 8928   4.181   1.216   4.141  0.5633 -2.1727 -3.0451
 2988TIP3    H2 8929   4.067   1.287   4.071  0.3512  0.6447 -0.0928
 2989TIP3   OH2 8930   0.807   2.419   4.146  0.2430  0.4772  0.8746
 2989TIP3    H1 8931   0.825   2.381   4.232  1.5452 -2.3181 -0.4643
 2989TIP3    H2 8932   0.781   2.344   4.092  0.7392  1.8815 -1.4771
 2990TIP3   OH2 8933   6.864   0.099   5.817  0.5414 -0.1826 -0.5797
 2990TIP3    H1 8934   6.853   0.180   5.767  0.8203 -1.0087 -2.0221
 2990TIP3    H2 8935   6.824   0.118   5.902 -1.8540  0.5926 -1.7958
 2991TIP3   OH2 8936   6.581   4.775   1.818  0.0428 -0.2874  0.2632
 2991TIP3    H1 8937   6.643   4.848   1.811  1.6461 -1.6554 -0.3345
 2991TIP3    H2 8938   6.598   4.721   1.741 -0.6308 -1.6683  1.0393
 2992TIP3   OH2 8939   2.437   2.073   3.011 -0.2868  0.0282  0.1696
 2992TIP3    H1 8940   2.437   2.146   3.073  0.1670  0.1617  0.0218
 2992TIP3    H2 8941   2.361   2.089   2.955 -1.1142 -0.4774  1.1239
 2993TIP3   OH2 8942   5.263   0.542   1.839  0.3070 -0.2516 -0.2967
 2993TIP3    H1 8943   5.317   0.621   1.834 -2.5868  1.9974  0.7696
 2993TIP3    H2 8944   5.271   0.514   1.931 -0.9196  0.6252  0.1054
 2994TIP3   OH2 8945   3.248   3.790   3.268 -0.5662 -0.2656  0.1676
 2994TIP3    H1 8946   3.328   3.813   3.219 -0.7510  0.3560  0.1416
 2994TIP3    H2 8947   3.235   3.697   3.251  0.3034 -0.4374  0.3857
 2995TIP3   OH2 8948   0.888   3.118   5.732 -0.2060  0.0531 -0.7173
 2995TIP3    H1 8949   0.836   3.122   5.813 -0.7228  2.3878 -1.0889
 2995TIP3    H2 8950   0.910   3.025   5.722 -0.0430 -0.3036  2.1409
 2996TIP3   OH2 8951   5.002   4.797   4.229 -0.3919 -0.1849  0.0967
 2996TIP3    H1 8952   4.988   4.832   4.141  1.5920  0.2181 -0.1089
 2996TIP3    H2 8953   4.991   4.703   4.219  1.3103 -0.3142 -0.9575
 2997TIP3   OH2 8954   6.110   5.897   4.483 -0.5237  0.6552  0.0598
 2997TIP3    H1 8955   6.125   5.989   4.503  0.3468  0.2926  1.1883
 2997TIP3    H2 8956   6.149   5.849   4.556  0.3910 -0.6692 -1.2097
 2998TIP3   OH2 8957   6.136   3.652   1.797  0.5495  0.0359  0.2407
 2998TIP3    H1 8958   6.090   3.610   1.870  0.2323  0.1018  0.0793
 2998TIP3    H2 8959   6.207   3.591   1.776 -0.4908 -0.9253 -0.6319
 2999TIP3   OH2 8960   2.287   1.150   3.698  0.0687  0.2384 -0.6366
 2999TIP3    H1 8961   2.229   1.129   3.626 -0.1727 -0.9637 -0.1092
 2999TIP3    H2 8962   2.313   1.066   3.734 -0.9749  0.7889  1.5990
 3000TIP3   OH2 8963   2.236   4.066   2.546  0.2564  0.5568 -0.8146
 3000TIP3    H1 8964   2.169   4.038   2.608 -0.9477 -0.2523 -2.3991
 3000TIP3    H2 8965   2.260   4.153   2.575 -0.1877  0.1746  0.8313
 3001TIP3   OH2 8966   2.712   1.076   1.016  0.2850 -0.3327  0.2999
 3001TIP3    H1 8967   2.644   1.091   1.081  0.8740 -0.4162  0.9497
 3001TIP3    H2 8968   2.736   1.163   0.985  0.8929 -0.1826  1.1410
 3002TIP3   OH2 8969   2.475   5.709   3.597  0.2369 -0.2684  0.1444
 3002TIP3    H1 8970   2.475   5.688   3.503  1.1206  0.9578 -0.1480
 3002TIP3    H2 8971   2.525   5.790   3.604 -0.4200  0.0432  1.6077
 3003TIP3   OH2 8972   0.322   0.340   0.786  0.0591 -0.6381  0.1124
 3003TIP3    H1 8973   0.267   0.281   0.837 -1.0128 -1.9186 -2.3493
 3003TIP3    H2 8974   0.319   0.423   0.833 -0.2780 -1.8813  2.4412
 3004TIP3   OH2 8975   6.793   2.041   3.626 -0.0781 -0.4193  0.1693
 3004TIP3    H1 8976   6.819   2.000   3.708 -0.4920  0.1330  0.5849
 3004TIP3    H2 8977   6.772   2.131   3.649  2.3176  0.5182 -0.9989
 3005TIP3   OH2 8978   0.319   4.455   4.637 -0.7601  0.1537 -0.1532
 3005TIP3    H1 8979   0.346   4.363   4.640 -1.3068 -0.0142  2.8330
 3005TIP3    H2 8980   0.228   4.451   4.607 -0.6897 -0.2343 -0.3342
 3006TIP3   OH2 8981   2.345   2.736   4.040  0.3510  0.0463 -0.0627
 3006TIP3    H1 8982   2.279   2.803   4.057  0.3778  0.0591 -0.0092
 3006TIP3    H2 8983   2.298   2.668   3.991 -0.0656 -0.5987  1.1938
 3007TIP3   OH2 8984   2.132   0.991   5.595 -0.3877  0.1046 -0.5242
 3007TIP3    H1 8985   2.040   1.012   5.581  0.0576  1.1570 -2.1069
 3007TIP3    H2 8986   2.156   1.040   5.673 -0.4928  2.1261 -1.6934
 3008TIP3   OH2 8987   1.048   0.768   4.990 -0.5944  0.2115 -0.2207
 3008TIP3    H1 8988   1.115   0.700   5.001 -1.6876 -1.0512 -1.0666
 3008TIP3    H2 8989   1.036   0.804   5.078 -0.7117 -1.3998  0.4523
 3009TIP3   OH2 8990   6.389   0.876   4.020  0.3083 -0.2209  0.1372
 3009TIP3    H1 8991   6.417   0.895   4.109  0.2285  2.4177 -0.2988
 3009TIP3    H2 8992   6.370   0.962   3.982 -2.4466 -1.4126 -1.5271
 3010TIP3   OH2 8993   1.629   2.778   1.824  0.1578  0.2201 -0.4898
 3010TIP3    H1 8994   1.713   2.744   1.855  0.5387  1.0720 -0.5821
 3010TIP3    H2 8995   1.594   2.826   1.899  0.7836  1.7417 -1.1470
 3011TIP3   OH2 8996   6.631   1.863   1.596 -0.7825 -0.1343 -0.3521
 3011TIP3    H1 8997   6.574   1.800   1.553  0.5942 -0.9984 -0.9644
 3011TIP3    H2 8998   6.712   1.814   1.614 -0.2039  1.0642  0.4482
 3012TIP3   OH2 8999   1.196   6.431   3.628 -0.0240  0.2398 -0.1703
 3012TIP3    H1 9000   1.282   6.390   3.614 -0.0379  0.7395 -1.8964
 3012TIP3    H2 9001   1.156   6.433   3.541 -0.3203  3.2481 -0.0603
 3013TIP3   OH2 9002   5.701   0.704   2.032 -0.4168  0.2157 -0.8036
 3013TIP3    H1 9003   5.690   0.732   1.941 -1.7241  1.1139 -0.3863
 3013TIP3    H2 9004   5.796   0.705   2.045 -0.2413  0.6786 -1.9700
 3014TIP3   OH2 9005   6.181   6.444   0.663  0.4753 -0.1900 -0.5827
 3014TIP3    H1 9006   6.201   6.386   0.590  0.0472 -0.1808 -0.7130
 3014TIP3    H2 9007   6.179   6.532   0.624  2.1090  0.0441 -0.2017
 3015TIP3   OH2 9008   4.283   6.242   4.454  0.0014 -0.2340 -0.5273
 3015TIP3    H1 9009   4.304   6.304   4.524 -0.9830 -0.9196  0.4057
 3015TIP3    H2 9010   4.251   6.296   4.382 -1.0709  0.3332  0.3614
 3016TIP3   OH2 9011   6.895   5.848   0.846 -0.3148  0.6264 -0.5254
 3016TIP3    H1 9012   6.829   5.862   0.914  0.1234  3.9800 -0.6232
 3016TIP3    H2 9013   6.845   5.843   0.765 -0.5601  2.1698 -0.4944
 3017TIP3   OH2 9014   2.319   5.905   5.027  0.1657  0.0285  0.0977
 3017TIP3    H1 9015   2.332   5.961   4.950 -0.3274  1.6761  1.1608
 3017TIP3    H2 9016   2.226   5.882   5.025  0.5505 -1.6046 -0.8491
 3018TIP3   OH2 9017   4.593   6.073   4.111 -0.3204 -0.0988 -0.1016
 3018TIP3    H1 9018   4.572   6.085   4.203  0.0038 -0.5128  0.0281
 3018TIP3    H2 9019   4.534   6.132   4.065 -1.3675 -0.8162  0.2884
 3019TIP3   OH2 9020   6.760   0.992   3.050 -0.4577 -0.0555  0.3839
 3019TIP3    H1 9021   6.854   0.979   3.036  0.3834  3.7347  1.3638
 3019TIP3    H2 9022   6.751   0.998   3.145 -2.2089 -2.8664  0.4732
 3020TIP3   OH2 9023   4.366   3.825   1.532 -0.3614 -0.0189  0.2890
 3020TIP3    H1 9024   4.369   3.920   1.531  0.2537 -0.0388 -0.4098
 3020TIP3    H2 9025   4.322   3.801   1.451  2.7638 -0.3956 -1.4420
 3021TIP3   OH2 9026   4.218   6.573   1.681  0.0462 -0.1500 -0.0563
 3021TIP3    H1 9027   4.216   6.656   1.728  0.3314 -0.5262  0.6368
 3021TIP3    H2 9028   4.144   6.578   1.620 -0.4561  0.2699  0.5780
 3022TIP3   OH2 9029   1.560   4.498   5.428 -0.0879  0.0622 -0.2337
 3022TIP3    H1 9030   1.492   4.479   5.363 -1.4424 -0.1809  1.1974
 3022TIP3    H2 9031   1.528   4.576   5.474  1.0864  0.5187 -0.1489
 3023TIP3   OH2 9032   4.978   2.700   3.107  0.3137 -0.2191  0.3508
 3023TIP3    H1 9033   4.982   2.774   3.168  1.8272 -0.0427  0.0609
 3023TIP3    H2 9034   5.014   2.626   3.156  1.6837 -0.0422 -0.3339
 3024TIP3   OH2 9035   6.638   0.987   2.758 -0.1699 -0.3709  0.3155
 3024TIP3    H1 9036   6.696   1.012   2.685 -0.5733  1.5928  0.6219
 3024TIP3    H2 9037   6.688   1.011   2.836 -0.1499 -1.5648  0.6884
 3025TIP3   OH2 9038   0.784   3.826   2.091  0.2977  0.2061  0.5463
 3025TIP3    H1 9039   0.850   3.776   2.044  0.0385  1.0989 -0.8222
 3025TIP3    H2 9040   0.704   3.775   2.083 -0.3250  1.4229 -2.1141
 3026TIP3   OH2 9041   0.248  -0.001   3.640  0.8961  0.5049  0.2553
 3026TIP3    H1 9042   0.263   0.035   3.728  1.4085  1.0343 -0.0371
 3026TIP3    H2 9043   0.153  -0.007   3.632  0.8234  1.2270  0.5412
 3027TIP3   OH2 9044   5.390   2.873   4.824 -0.1899 -0.2812 -0.0171
 3027TIP3    H1 9045   5.348   2.790   4.799 -0.4295 -0.0454 -0.4141
 3027TIP3    H2 9046   5.373   2.881   4.918 -2.5777  0.6527 -0.4380
 3028TIP3   OH2 9047   0.557   5.816   0.074  0.0145  0.2992  0.3768
 3028TIP3    H1 9048   0.577   5.901   0.112 -0.0857  0.8415 -0.7386
 3028TIP3    H2 9049   0.640   5.785   0.039 -0.4962  1.4510 -2.0964
 3029TIP3   OH2 9050   3.698   2.960   0.166 -0.1351  0.1295 -0.3454
 3029TIP3    H1 9051   3.730   2.927   0.250  0.1511  1.6136  0.1731
 3029TIP3    H2 9052   3.618   3.007   0.187  0.7269  1.8207 -0.6064
 3030TIP3   OH2 9053   4.244   4.368   4.955  0.4726 -0.6120 -0.6482
 3030TIP3    H1 9054   4.175   4.354   4.890 -1.0682 -3.4297  1.3608
 3030TIP3    H2 9055   4.201   4.418   5.025  0.9593 -0.8868 -0.1425
 3031TIP3   OH2 9056   5.175   4.932   3.681  0.3473  0.2126  0.2450
 3031TIP3    H1 9057   5.233   4.962   3.750 -0.2993 -0.2277  1.0003
 3031TIP3    H2 9058   5.216   4.851   3.649  1.1228  0.8964 -0.5282
 3032TIP3   OH2 9059   2.586   1.456   5.226  0.0256 -0.1998  0.5806
 3032TIP3    H1 9060   2.595   1.424   5.136  0.2065 -0.0674  0.5533
 3032TIP3    H2 9061   2.517   1.522   5.221 -0.1917 -0.4215  0.5968
 3033TIP3   OH2 9062   0.267   1.140   3.752 -0.3949  0.4036 -0.4795
 3033TIP3    H1 9063   0.335   1.205   3.773 -0.9365  0.9364 -0.3368
 3033TIP3    H2 9064   0.185   1.187   3.765 -0.9299 -1.0663  2.3213
 3034TIP3   OH2 9065   5.319   4.775   2.660 -0.1605  0.4073  0.1481
 3034TIP3    H1 9066   5.247   4.833   2.685 -1.0225 -0.6012  0.0820
 3034TIP3    H2 9067   5.352   4.741   2.743 -0.9535 -0.5007  0.1162
 3035TIP3   OH2 9068   5.654   4.512   5.883 -0.0428 -0.3607  0.4185
 3035TIP3    H1 9069   5.688   4.578   5.822  0.0806  0.8918  1.7599
 3035TIP3    H2 9070   5.573   4.550   5.917 -0.9549 -1.7513 -0.1208
 3036TIP3   OH2 9071   6.299   3.178   0.407  0.2388  0.2200  0.3164
 3036TIP3    H1 9072   6.361   3.188   0.334  0.8407 -0.0197  0.7895
 3036TIP3    H2 9073   6.349   3.132   0.475 -0.2518  0.6324  0.9641
 3037TIP3   OH2 9074   5.846   5.932   0.940  0.1992  0.4766  0.4631
 3037TIP3    H1 9075   5.918   5.991   0.919  0.0630  0.5424  0.1716
 3037TIP3    H2 9076   5.884   5.844   0.933  0.5561  0.5401  1.4901
 3038TIP3   OH2 9077   6.752   5.303   0.602  0.0349  0.2054  0.1546
 3038TIP3    H1 9078   6.812   5.252   0.547  0.1007  1.7692 -1.2905
 3038TIP3    H2 9079   6.677   5.320   0.546  0.4013  2.4254  0.2487
 3039TIP3   OH2 9080   6.680   6.773   0.423  0.3762 -0.0865  0.2208
 3039TIP3    H1 9081   6.720   6.842   0.369 -0.8155  0.2764 -0.2387
 3039TIP3    H2 9082   6.665   6.701   0.362 -0.8530  0.2749  0.0476
 3040TIP3   OH2 9083   6.461   6.038   3.028  0.1006  0.1284  0.4894
 3040TIP3    H1 9084   6.399   6.109   3.008 -0.4719  0.2725  2.5542
 3040TIP3    H2 9085   6.416   5.958   3.000 -0.2891  0.3676  0.4244
 3041TIP3   OH2 9086   2.992   5.991   3.312 -0.0488 -0.1271  0.0952
 3041TIP3    H1 9087   3.060   6.058   3.312 -0.2656  0.1026  0.9713
 3041TIP3    H2 9088   2.981   5.967   3.404 -1.4515  0.1539  0.0250
 3042TIP3   OH2 9089   4.318   0.714   5.260  0.1050  0.3809 -0.0528
 3042TIP3    H1 9090   4.310   0.699   5.354 -0.5218 -0.0759 -0.1751
 3042TIP3    H2 9091   4.407   0.686   5.238  0.1912  0.3243  0.3705
 3043TIP3   OH2 9092   3.731   1.017   0.720 -0.1953 -0.2834 -0.4206
 3043TIP3    H1 9093   3.817   0.983   0.744 -1.4448 -3.4308  0.0104
 3043TIP3    H2 9094   3.737   1.032   0.625  0.4250 -1.9417 -0.6820
 3044TIP3   OH2 9095   0.558   4.428   3.702  0.1885  0.2745  0.3270
 3044TIP3    H1 9096   0.527   4.512   3.669 -0.2737  0.4034  1.0518
 3044TIP3    H2 9097   0.504   4.363   3.657  0.6304  0.3539 -0.3255
 3045TIP3   OH2 9098   5.060   6.542   3.999 -0.1196  0.0071 -0.5741
 3045TIP3    H1 9099   5.053   6.511   4.089  1.7027  0.1458 -0.3609
 3045TIP3    H2 9100   5.091   6.466   3.950  1.8728  0.7058 -0.4995
 3046TIP3   OH2 9101   6.493   4.132   2.557  0.5302 -0.2578 -0.8092
 3046TIP3    H1 9102   6.451   4.084   2.486 -0.6501  1.3298 -1.2704
 3046TIP3    H2 9103   6.539   4.204   2.513 -0.6099  1.0240  0.0110
 3047TIP3   OH2 9104   3.116   3.914   0.099 -0.3728 -0.1273  0.1076
 3047TIP3    H1 9105   3.077   3.917   0.012 -1.5203  2.1060  0.6031
 3047TIP3    H2 9106   3.187   3.978   0.096  0.4283 -0.9748  0.4668
 3048TIP3   OH2 9107   0.396   6.022   4.256 -0.1849  0.1181 -0.2772
 3048TIP3    H1 9108   0.399   6.041   4.349 -1.6173 -0.0475 -0.1816
 3048TIP3    H2 9109   0.303   6.009   4.236  0.0598  0.4157 -1.7769
 3049TIP3   OH2 9110   5.042   2.967   5.133  0.0816  0.2346 -0.0318
 3049TIP3    H1 9111   5.034   2.884   5.084  0.0758 -1.3527  2.4795
 3049TIP3    H2 9112   4.973   3.022   5.097 -0.4704 -1.1459 -1.2145
 3050TIP3   OH2 9113   1.074   5.028   5.016  0.6794  0.2495 -0.2102
 3050TIP3    H1 9114   1.043   5.118   5.009  0.3485  0.0257 -2.5580
 3050TIP3    H2 9115   1.124   5.013   4.936 -0.0145 -1.9015 -0.3139
 3051TIP3   OH2 9116   0.217   1.885   0.353  0.3746  0.3135 -0.1911
 3051TIP3    H1 9117   0.204   1.936   0.273 -0.0930  1.9247  0.8461
 3051TIP3    H2 9118   0.296   1.834   0.337 -0.2232 -0.1148 -1.9982
 3052TIP3   OH2 9119   1.959   4.750   3.914  0.1400 -0.0986  0.5296
 3052TIP3    H1 9120   1.912   4.822   3.872 -0.0257 -1.0603 -1.0281
 3052TIP3    H2 9121   1.895   4.679   3.919  1.0744 -1.0753 -0.6364
 3053TIP3   OH2 9122   0.318   0.225   3.217 -0.1396  0.2612 -0.2427
 3053TIP3    H1 9123   0.366   0.162   3.271 -1.3936 -1.1933 -0.7594
 3053TIP3    H2 9124   0.226   0.199   3.224 -0.9587  3.0064  0.7756
 3054TIP3   OH2 9125   5.562   2.599   5.419 -0.6951 -0.1277 -0.1437
 3054TIP3    H1 9126   5.647   2.620   5.458 -0.7790 -0.7228  0.3816
 3054TIP3    H2 9127   5.574   2.510   5.384 -1.0180 -0.1076 -0.3025
 3055TIP3   OH2 9128   1.840   0.958   5.802 -0.3641 -0.2499 -0.4143
 3055TIP3    H1 9129   1.904   0.903   5.846 -0.1398  0.0649 -0.3400
 3055TIP3    H2 9130   1.818   0.911   5.722 -1.2813 -1.1587  0.3472
 3056TIP3   OH2 9131   1.053   4.655   3.706  0.5676 -0.4215  0.3032
 3056TIP3    H1 9132   0.988   4.642   3.775 -1.2073 -0.0551 -1.2074
 3056TIP3    H2 9133   1.042   4.746   3.679  0.3942 -0.8727 -1.2313
 3057TIP3   OH2 9134   6.159   1.537   0.724 -0.5182 -0.2702 -0.2598
 3057TIP3    H1 9135   6.124   1.614   0.679 -2.0343  0.8419  2.5654
 3057TIP3    H2 9136   6.091   1.471   0.715 -0.5123 -0.2833 -0.2045
 3058TIP3   OH2 9137   5.906   4.707   3.141  0.0256 -0.0848  0.9667
 3058TIP3    H1 9138   5.897   4.661   3.224 -0.3469  0.5827  1.3094
 3058TIP3    H2 9139   5.883   4.643   3.074 -1.2311 -0.1838  1.4739
 3059TIP3   OH2 9140   3.211   1.408   5.736 -0.0999  0.1980 -0.3617
 3059TIP3    H1 9141   3.293   1.456   5.725 -0.8654  1.1708 -2.4450
 3059TIP3    H2 9142   3.143   1.475   5.727 -1.1697 -1.0374 -2.0860
 3060TIP3   OH2 9143   4.996   1.844   2.316  0.3439 -0.0188  0.1732
 3060TIP3    H1 9144   5.063   1.904   2.349 -0.2738  1.2216 -0.7577
 3060TIP3    H2 9145   4.930   1.901   2.276 -0.3998 -1.3045 -0.4941
 3061TIP3   OH2 9146   3.751   0.082   5.175 -0.2497  0.2896  0.0059
 3061TIP3    H1 9147   3.707   0.015   5.227 -0.6308 -0.8666 -1.7280
 3061TIP3    H2 9148   3.769   0.153   5.237 -1.3093 -0.7231  1.5297
 3062TIP3   OH2 9149   4.630   0.563   2.740  0.2428  0.4135  0.3247
 3062TIP3    H1 9150   4.624   0.486   2.796  0.5460 -1.3223 -1.8862
 3062TIP3    H2 9151   4.547   0.609   2.754  0.4095  0.2016  2.3091
 3063TIP3   OH2 9152   7.183   4.377   3.550  0.0877 -0.2389  0.0713
 3063TIP3    H1 9153   7.164   4.431   3.627 -1.6981  1.7526 -1.6579
 3063TIP3    H2 9154   7.265   4.413   3.515  0.4020 -0.5376  0.4844
 3064TIP3   OH2 9155   3.531   1.825   3.207 -0.0018 -0.7575  0.1126
 3064TIP3    H1 9156   3.480   1.744   3.203 -1.3723  0.1265 -2.1049
 3064TIP3    H2 9157   3.466   1.894   3.218  1.0267  0.1587  0.5784
 3065TIP3   OH2 9158   2.293   2.210   0.615  0.3107 -0.6608  0.2090
 3065TIP3    H1 9159   2.374   2.218   0.564 -0.5678  2.1311 -0.9916
 3065TIP3    H2 9160   2.285   2.295   0.660 -1.4137 -1.2675  1.1291
 3066TIP3   OH2 9161   3.046   1.736   2.394  0.1830 -0.1277  0.5780
 3066TIP3    H1 9162   3.006   1.803   2.339 -0.7172 -0.6841  0.5485
 3066TIP3    H2 9163   3.023   1.653   2.353  0.7580 -0.4915  0.9671
 3067TIP3   OH2 9164   0.435   5.378   1.896  0.1054 -0.0647 -0.3050
 3067TIP3    H1 9165   0.367   5.361   1.832  0.7095  2.0268 -1.6410
 3067TIP3    H2 9166   0.395   5.438   1.959  0.3235  0.1829 -0.3954
 3068TIP3   OH2 9167   2.908   2.121   1.489 -0.0611 -0.1578 -0.3717
 3068TIP3    H1 9168   2.819   2.097   1.463 -0.4673 -0.3017  1.0477
 3068TIP3    H2 9169   2.951   2.038   1.506 -0.3438 -0.0446  1.0273
 3069TIP3   OH2 9170   5.202   4.186   0.168 -0.3606 -0.3097 -0.0301
 3069TIP3    H1 9171   5.292   4.216   0.181  0.0862 -2.1122  1.5144
 3069TIP3    H2 9172   5.197   4.104   0.216 -1.8409 -2.1395 -3.0219
 3070TIP3   OH2 9173   6.034   1.591   1.975 -0.4239 -0.4368 -0.2265
 3070TIP3    H1 9174   6.007   1.661   1.916  1.0400 -0.0183 -0.4474
 3070TIP3    H2 9175   6.052   1.636   2.058 -1.3088 -0.8399  0.1850
 3071TIP3   OH2 9176   5.980   2.639   3.565 -0.4630 -0.4148  0.1939
 3071TIP3    H1 9177   5.885   2.642   3.553 -0.4561  1.0109  0.3935
 3071TIP3    H2 9178   6.004   2.728   3.590  0.9520 -0.7276  0.0064
 3072TIP3   OH2 9179   4.150   0.833   0.638 -0.0461 -0.0106  0.7500
 3072TIP3    H1 9180   4.061   0.835   0.672 -0.3602 -0.0461 -0.0586
 3072TIP3    H2 9181   4.147   0.772   0.564  0.0299  1.9627 -0.9548
 3073TIP3   OH2 9182   3.676   0.113   4.415  0.1783 -0.1490  0.2861
 3073TIP3    H1 9183   3.624   0.034   4.428 -0.8814  0.3450 -0.7217
 3073TIP3    H2 9184   3.709   0.135   4.502  1.6313 -2.4224  0.4024
 3074TIP3   OH2 9185   1.364   6.516   4.388  0.5626  0.1178 -0.3947
 3074TIP3    H1 9186   1.357   6.568   4.468  0.3895 -1.0410  0.3775
 3074TIP3    H2 9187   1.317   6.567   4.322 -0.9926  0.2202  0.7176
 3075TIP3   OH2 9188   3.653   3.085   4.114 -0.1059 -0.1708  0.1222
 3075TIP3    H1 9189   3.618   3.094   4.203  0.8327  1.2956  0.3853
 3075TIP3    H2 9190   3.689   2.996   4.111 -1.5540 -0.8089  0.6630
 3076TIP3   OH2 9191   2.422   5.764   2.041  0.1371  0.2156 -0.1473
 3076TIP3    H1 9192   2.374   5.694   1.996  0.7872  0.4114 -1.1921
 3076TIP3    H2 9193   2.374   5.844   2.020 -0.2850  0.1605  0.5812
 3077TIP3   OH2 9194   2.719   1.991   3.580 -0.3445  0.4978  0.1368
 3077TIP3    H1 9195   2.720   1.957   3.491 -0.3556 -0.8935  0.6486
 3077TIP3    H2 9196   2.641   1.952   3.620  1.9761 -2.5739  2.0738
 3078TIP3   OH2 9197   6.428   2.215   2.968 -0.4810  0.0252 -0.2909
 3078TIP3    H1 9198   6.384   2.137   2.935  0.6913  0.2958 -2.7096
 3078TIP3    H2 9199   6.375   2.288   2.936 -0.7273  0.2892  0.6663
 3079TIP3   OH2 9200   0.991   2.573   5.780 -0.3118  0.5368  0.2258
 3079TIP3    H1 9201   1.053   2.501   5.789  0.3185  1.0852  0.4275
 3079TIP3    H2 9202   0.974   2.601   5.870 -2.6222 -1.0375  0.3419
 3080TIP3   OH2 9203   6.428   5.584   4.437 -0.0237 -0.2588 -0.1410
 3080TIP3    H1 9204   6.351   5.560   4.385  1.3932 -0.0457 -2.4939
 3080TIP3    H2 9205   6.474   5.647   4.382  2.7839 -1.7864  0.3123
 3081TIP3   OH2 9206   1.894   5.457   2.336  0.0399 -0.3966  0.5161
 3081TIP3    H1 9207   1.942   5.397   2.393  0.0401 -0.0104  0.9274
 3081TIP3    H2 9208   1.802   5.444   2.361  0.1707  1.1524  1.9829
 3082TIP3   OH2 9209   3.536   1.761   2.876  0.2094 -0.7792 -0.2000
 3082TIP3    H1 9210   3.476   1.836   2.874  0.0063 -0.8623  1.3045
 3082TIP3    H2 9211   3.503   1.702   2.809 -1.6007 -0.9489  0.7763
 3083TIP3   OH2 9212   3.396   6.082   0.160  0.3688 -0.3544 -0.0165
 3083TIP3    H1 9213   3.477   6.040   0.187  1.1399  0.3108 -1.2045
 3083TIP3    H2 9214   3.373   6.138   0.234  1.5925  0.2758 -0.0882
 3084TIP3   OH2 9215   5.994   5.790   1.876 -0.2976 -0.2252 -0.6689
 3084TIP3    H1 9216   5.958   5.877   1.859 -2.0513 -0.7367  0.1822
 3084TIP3    H2 9217   5.978   5.741   1.795  1.5635  0.4511 -1.5135
 3085TIP3   OH2 9218   0.724   0.874   0.129 -0.2093 -0.0923 -0.6582
 3085TIP3    H1 9219   0.656   0.928   0.089 -2.3318 -2.9232 -1.1994
 3085TIP3    H2 9220   0.718   0.893   0.222 -2.2402 -0.7096 -0.6114
 3086TIP3   OH2 9221   0.838   4.208   5.552 -0.3940 -0.0358 -0.1463
 3086TIP3    H1 9222   0.845   4.264   5.474  0.0576  0.7626  0.4565
 3086TIP3    H2 9223   0.854   4.267   5.625 -0.7838 -0.7881  0.5592
 3087TIP3   OH2 9224   7.036   1.443   0.917 -0.1041 -0.0529  0.2329
 3087TIP3    H1 9225   7.094   1.470   0.847 -0.6727  1.2421  0.2343
 3087TIP3    H2 9226   6.966   1.508   0.918 -0.5883 -0.5417  1.4171
 3088TIP3   OH2 9227   5.982   3.864   1.737 -0.4280 -0.6419 -0.1262
 3088TIP3    H1 9228   6.033   3.786   1.760  1.8753  0.7341 -0.2461
 3088TIP3    H2 9229   5.921   3.875   1.810  0.7127 -1.3109  0.9760
 3089TIP3   OH2 9230   1.693   6.500   1.251 -0.1229  0.0827 -0.2334
 3089TIP3    H1 9231   1.753   6.537   1.187  2.5390 -2.0714  0.7926
 3089TIP3    H2 9232   1.744   6.431   1.294 -3.4272 -2.0697  0.6290
 3090TIP3   OH2 9233   2.019   4.661   5.750  0.3144 -0.5701  0.9449
 3090TIP3    H1 9234   1.933   4.627   5.726 -0.0206  1.0148 -0.2658
 3090TIP3    H2 9235   2.001   4.749   5.784  1.5870  0.8588 -1.7131
 3091TIP3   OH2 9236   5.427   4.361   2.266  0.1483  0.5060  0.4955
 3091TIP3    H1 9237   5.481   4.283   2.256  0.4243  0.3525  2.6979
 3091TIP3    H2 9238   5.344   4.328   2.301 -0.6711  0.9693 -0.9140
 3092TIP3   OH2 9239   0.776   4.210   4.344  0.3794 -0.0978 -0.4062
 3092TIP3    H1 9240   0.850   4.217   4.404  0.7068 -0.3309 -0.7779
 3092TIP3    H2 9241   0.765   4.116   4.331 -0.0784 -0.0687 -0.2358
 3093TIP3   OH2 9242   1.326   3.292   3.156 -0.4736  0.0193 -0.0268
 3093TIP3    H1 9243   1.278   3.229   3.209 -0.3376  0.4274  0.5992
 3093TIP3    H2 9244   1.259   3.337   3.105 -0.5948 -0.4580 -0.2879
 3094TIP3   OH2 9245   1.760   3.576   1.740  0.6941 -0.3845 -0.0400
 3094TIP3    H1 9246   1.678   3.541   1.705  1.1769 -0.6148 -0.9734
 3094TIP3    H2 9247   1.823   3.504   1.730  1.4911  0.4319 -1.1956
 3095TIP3   OH2 9248   4.702   5.140   1.935 -0.0809  0.0090  0.1067
 3095TIP3    H1 9249   4.639   5.175   1.873  2.5875  3.9949 -0.7728
 3095TIP3    H2 9250   4.657   5.143   2.019 -2.2955 -1.2232 -0.9540
 3096TIP3   OH2 9251   4.049   0.311   2.776 -0.1042 -0.2250  0.0564
 3096TIP3    H1 9252   4.145   0.317   2.776 -0.0155 -1.3566 -1.0885
 3096TIP3    H2 9253   4.024   0.344   2.863  1.3435 -0.2649  0.5240
 3097TIP3   OH2 9254   5.423   0.594   3.194  0.2703  0.0557  0.5129
 3097TIP3    H1 9255   5.498   0.545   3.159  0.1126  1.2768 -1.6905
 3097TIP3    H2 9256   5.456   0.683   3.207 -0.1063 -0.0160  2.1472
 3098TIP3   OH2 9257   6.516   6.430   3.944 -0.4908  0.1900 -0.1417
 3098TIP3    H1 9258   6.443   6.427   3.882 -1.2714  0.1287  0.7595
 3098TIP3    H2 9259   6.590   6.397   3.894 -0.7960  1.3680 -1.4427
 3099TIP3   OH2 9260   1.396   0.841   4.652  0.2999  0.0839 -0.6627
 3099TIP3    H1 9261   1.396   0.845   4.748  2.0829  0.0914 -0.6299
 3099TIP3    H2 9262   1.367   0.928   4.624 -1.1634 -0.2214 -0.1540
 3100TIP3   OH2 9263   7.038   2.633   5.412 -0.4591  0.7926 -0.0609
 3100TIP3    H1 9264   6.988   2.590   5.342  0.5257  0.0747 -0.3497
 3100TIP3    H2 9265   7.121   2.656   5.372 -0.3292  1.4602  0.5666
 3101TIP3   OH2 9266   1.524   4.258   1.795  0.5338 -0.0835 -0.1986
 3101TIP3    H1 9267   1.552   4.346   1.822 -1.5018  0.0572  1.7537
 3101TIP3    H2 9268   1.439   4.272   1.753 -0.4948 -1.1940  1.3980
 3102TIP3   OH2 9269   2.622   2.484   4.571  0.2388  0.7392  0.1137
 3102TIP3    H1 9270   2.681   2.443   4.508 -0.8783 -0.0982 -0.4255
 3102TIP3    H2 9271   2.581   2.411   4.617 -1.2077  1.2484 -0.3238
 3103TIP3   OH2 9272   3.332   0.611   2.930  0.2368 -0.2156 -0.2390
 3103TIP3    H1 9273   3.395   0.540   2.942 -1.0425 -1.5707 -1.1673
 3103TIP3    H2 9274   3.250   0.577   2.965 -0.2086  1.1770  0.1569
 3104TIP3   OH2 9275   2.121   3.762   4.434  0.4849 -0.2851 -0.1210
 3104TIP3    H1 9276   2.175   3.707   4.377  2.3472  0.5329  0.7726
 3104TIP3    H2 9277   2.181   3.830   4.465 -0.7204 -0.1155  2.0093
 3105TIP3   OH2 9278   0.789   4.394   4.122  0.4923 -0.3912 -0.3123
 3105TIP3    H1 9279   0.759   4.351   4.202 -0.1720 -0.6017 -0.6676
 3105TIP3    H2 9280   0.733   4.358   4.053  0.4989  0.4186 -0.7487
 3106TIP3   OH2 9281   6.976   3.608   5.304 -0.1323  0.3827  0.3940
 3106TIP3    H1 9282   6.980   3.551   5.227 -1.0568 -0.5173  1.0033
 3106TIP3    H2 9283   7.066   3.607   5.339  0.0358 -0.0718 -0.0429
 3107TIP3   OH2 9284   6.783   0.350   5.729  0.4566  0.3150 -0.3354
 3107TIP3    H1 9285   6.707   0.348   5.672  0.3994  1.0997 -0.2994
 3107TIP3    H2 9286   6.848   0.401   5.680  0.2222  1.4685  0.5040
 3108TIP3   OH2 9287   5.370   0.126   2.597 -0.7244  0.7412  0.1607
 3108TIP3    H1 9288   5.296   0.153   2.652 -0.6117 -0.1151  0.7479
 3108TIP3    H2 9289   5.385   0.201   2.539 -2.0798  0.9214  0.0031
 3109TIP3   OH2 9290   1.619   6.532   2.210  0.1296  0.2329 -0.3943
 3109TIP3    H1 9291   1.615   6.442   2.177 -1.0156  0.3839 -0.7372
 3109TIP3    H2 9292   1.691   6.532   2.273  0.3656 -0.8342 -0.6453
 3110TIP3   OH2 9293   2.799   5.969   3.838 -0.1347  0.1364  0.1763
 3110TIP3    H1 9294   2.704   5.957   3.836 -0.5066  2.6451 -0.0167
 3110TIP3    H2 9295   2.815   6.044   3.781  1.8861  0.3119  0.8951
 3111TIP3   OH2 9296   1.612   6.182   1.049 -0.0920  0.3251  0.1251
 3111TIP3    H1 9297   1.575   6.266   1.075  0.4930  0.9423 -1.0084
 3111TIP3    H2 9298   1.635   6.140   1.132 -1.5942  0.7049  0.7713
 3112TIP3   OH2 9299   4.489   4.276   3.304  0.7361  0.2254 -0.2507
 3112TIP3    H1 9300   4.425   4.215   3.339  1.1771 -1.1932 -1.7731
 3112TIP3    H2 9301   4.571   4.225   3.300  1.0306  0.7556 -1.9001
 3113TIP3   OH2 9302   1.722   2.622   4.062 -0.2314 -0.5719  0.4473
 3113TIP3    H1 9303   1.670   2.550   4.099 -0.4483 -0.2606  0.7537
 3113TIP3    H2 9304   1.684   2.701   4.099  0.3121 -0.3223  0.4880
 3114TIP3   OH2 9305   1.811   3.509   1.074 -0.3533  0.2957  0.4396
 3114TIP3    H1 9306   1.761   3.479   1.149 -1.6344 -0.3765 -0.6422
 3114TIP3    H2 9307   1.902   3.490   1.097 -0.8102 -0.9357  1.3691
 3115TIP3   OH2 9308   3.943   3.510   4.248  0.3665 -0.7848  0.3615
 3115TIP3    H1 9309   4.015   3.489   4.189  1.4916 -3.0775  2.3389
 3115TIP3    H2 9310   3.864   3.481   4.202  0.6572  1.3026 -1.6321
 3116TIP3   OH2 9311   4.137   3.588   5.156  0.0966 -0.1710 -0.2100
 3116TIP3    H1 9312   4.116   3.544   5.073 -0.8566 -1.1440  0.5259
 3116TIP3    H2 9313   4.233   3.583   5.162  0.2414  0.5239 -1.5695
 3117TIP3   OH2 9314   6.268   4.418   3.460  0.8316 -0.3979  0.0189
 3117TIP3    H1 9315   6.199   4.353   3.448  1.9408 -1.6717  0.3284
 3117TIP3    H2 9316   6.350   4.370   3.444  1.8062  0.3759  2.2512
 3118TIP3   OH2 9317   0.479   0.500   2.509 -0.3684 -0.2472  0.4453
 3118TIP3    H1 9318   0.492   0.481   2.602 -1.0952  0.3367  0.6827
 3118TIP3    H2 9319   0.522   0.428   2.463  0.4127 -0.2889  1.2243
 3119TIP3   OH2 9320   0.803   3.662   3.398 -0.1875 -0.4681  0.6395
 3119TIP3    H1 9321   0.843   3.744   3.430 -0.4814 -0.5849  1.3367
 3119TIP3    H2 9322   0.710   3.682   3.393  0.0170  0.1364 -1.9933
 3120TIP3   OH2 9323   1.928   1.829   5.096 -0.2934  0.1324  0.0635
 3120TIP3    H1 9324   1.875   1.775   5.038 -1.5877 -1.4154  2.5050
 3120TIP3    H2 9325   1.941   1.910   5.047 -1.2338 -1.0645 -2.3589
 3121TIP3   OH2 9326   6.582   1.311   2.605 -0.4913 -0.3219  0.0920
 3121TIP3    H1 9327   6.529   1.312   2.685 -0.4364 -1.9068  0.1772
 3121TIP3    H2 9328   6.670   1.291   2.635 -0.3041 -0.0974 -0.2951
 3122TIP3   OH2 9329   5.727   1.762   1.280 -0.2100 -0.2079 -0.2514
 3122TIP3    H1 9330   5.796   1.784   1.342  0.5404  1.9672 -1.7386
 3122TIP3    H2 9331   5.657   1.725   1.334  0.5705  1.2051  1.8353
 3123TIP3   OH2 9332   4.612   1.836   1.069  0.0384  0.4378 -0.4349
 3123TIP3    H1 9333   4.637   1.919   1.111  1.4374 -0.2940  0.2376
 3123TIP3    H2 9334   4.662   1.835   0.987  0.1757  0.1613 -0.3457
 3124TIP3   OH2 9335   2.246   2.059   4.401  0.1925  0.1383  0.3980
 3124TIP3    H1 9336   2.224   2.086   4.311  1.0834  0.4507  0.2639
 3124TIP3    H2 9337   2.194   2.117   4.456  0.3263  0.5643  0.0862
 3125TIP3   OH2 9338   4.606   6.383   0.721  0.1562  0.1437  0.3277
 3125TIP3    H1 9339   4.600   6.331   0.641  0.1556 -1.1228  1.1350
 3125TIP3    H2 9340   4.675   6.447   0.702  2.1318 -1.8942  0.2689
 3126TIP3   OH2 9341   6.790   1.683   4.083 -0.1676  0.1017 -0.2583
 3126TIP3    H1 9342   6.790   1.733   4.165 -0.0496 -1.4542  0.7545
 3126TIP3    H2 9343   6.774   1.592   4.111  1.4785 -0.7291 -1.7934
 3127TIP3   OH2 9344   3.172   3.059   5.051 -0.0969  0.4012  0.6076
 3127TIP3    H1 9345   3.135   3.068   4.963  1.0275  0.2758  0.1071
 3127TIP3    H2 9346   3.224   3.138   5.063  1.3014 -0.4366  0.3728
 3128TIP3   OH2 9347   5.405   0.955   4.120  0.5251  0.1237  0.0568
 3128TIP3    H1 9348   5.327   0.961   4.175  0.4368  1.8623 -0.2272
 3128TIP3    H2 9349   5.471   1.007   4.166  0.6905  0.9301 -1.0481
 3129TIP3   OH2 9350   0.287   6.466   3.704  0.2114 -0.4600 -0.3356
 3129TIP3    H1 9351   0.261   6.425   3.787 -0.4434 -1.5767 -1.0627
 3129TIP3    H2 9352   0.206   6.503   3.670  0.3612 -0.5286 -0.7652
 3130TIP3   OH2 9353   5.154   0.167   0.727  0.4226 -0.1961 -0.0241
 3130TIP3    H1 9354   5.118   0.157   0.815  0.3749 -0.3521 -0.0619
 3130TIP3    H2 9355   5.224   0.102   0.722 -0.7873 -1.4848 -0.7446
 3131TIP3   OH2 9356   4.965   1.818   4.768  0.3018 -0.1558 -0.3790
 3131TIP3    H1 9357   5.013   1.810   4.851  0.0667 -0.0430 -0.2302
 3131TIP3    H2 9358   4.904   1.891   4.783  0.2057 -0.1859 -0.6246
 3132TIP3   OH2 9359   0.776   6.314   2.128 -0.2392 -0.6746  0.0686
 3132TIP3    H1 9360   0.825   6.268   2.197  1.2781  1.0400  0.2113
 3132TIP3    H2 9361   0.695   6.340   2.171 -0.0196 -1.0358  0.7349
 3133TIP3   OH2 9362   1.309   3.036   1.334 -0.0875  0.6604 -0.0775
 3133TIP3    H1 9363   1.337   3.128   1.334 -2.0389  1.3050  0.5509
 3133TIP3    H2 9364   1.390   2.987   1.318  1.2331  2.4087  0.7537
 3134TIP3   OH2 9365   3.923   1.560   3.706  0.2844  0.5153 -0.0802
 3134TIP3    H1 9366   3.950   1.469   3.717 -0.2214  0.4539  0.7704
 3134TIP3    H2 9367   3.832   1.555   3.675 -0.3523  0.6954  1.6084
 3135TIP3   OH2 9368   5.432   3.589   2.383 -0.0916  0.5244 -0.7264
 3135TIP3    H1 9369   5.391   3.505   2.360  2.0064 -1.3317  1.7227
 3135TIP3    H2 9370   5.517   3.586   2.339  1.4884 -0.4019  2.1444
 3136TIP3   OH2 9371   3.429   2.898   5.036  0.1977  0.5722  0.0387
 3136TIP3    H1 9372   3.480   2.954   5.094 -0.2713  1.4511 -0.3836
 3136TIP3    H2 9373   3.339   2.932   5.042  0.2213  1.0045 -1.5631
 3137TIP3   OH2 9374  -0.015   6.608   3.074  0.0716  0.1334 -0.2900
 3137TIP3    H1 9375   0.080   6.608   3.084  0.1683  1.4382 -0.9467
 3137TIP3    H2 9376  -0.030   6.647   2.988 -1.0509 -0.3828 -0.3452
 3138TIP3   OH2 9377   3.105   1.702   5.486  0.1069 -0.6948  0.2014
 3138TIP3    H1 9378   3.050   1.751   5.425  0.9754  2.4159  1.7132
 3138TIP3    H2 9379   3.191   1.743   5.481  1.1054 -2.5290  1.1314
 3139TIP3   OH2 9380   6.072   5.186   0.835  0.2828  0.7606 -0.6839
 3139TIP3    H1 9381   6.033   5.264   0.875 -0.4591 -0.4828  1.1464
 3139TIP3    H2 9382   6.155   5.217   0.798  0.4220  2.2632  0.7462
 3140TIP3   OH2 9383   0.955   6.296   4.052  0.2687 -0.1909 -0.2741
 3140TIP3    H1 9384   1.033   6.288   3.998 -0.4611 -0.4702 -1.3147
 3140TIP3    H2 9385   0.889   6.332   3.993 -1.2527 -2.7773 -0.2924
 3141TIP3   OH2 9386   1.807   3.439   2.114  0.0882  0.7637 -0.3159
 3141TIP3    H1 9387   1.901   3.450   2.098  0.0666  0.7126 -0.4778
 3141TIP3    H2 9388   1.771   3.528   2.105  0.0630  0.7196 -0.6367
 3142TIP3   OH2 9389   3.239   3.499   3.229 -0.0238 -0.6666  0.7556
 3142TIP3    H1 9390   3.163   3.441   3.238 -0.2476 -0.3406  0.9687
 3142TIP3    H2 9391   3.309   3.441   3.199 -0.5904 -0.7969 -0.3397
 3143TIP3   OH2 9392   3.177   6.343   4.217 -0.7406  0.3884  0.2999
 3143TIP3    H1 9393   3.188   6.248   4.213  0.3652  0.2265  3.7242
 3143TIP3    H2 9394   3.083   6.355   4.234 -0.8694 -0.0671 -0.0687
 3144TIP3   OH2 9395   1.308   4.520   0.800  0.3239  0.4314 -0.8608
 3144TIP3    H1 9396   1.376   4.587   0.811  0.1164  0.6508 -0.8897
 3144TIP3    H2 9397   1.227   4.566   0.821  0.2486 -0.0054 -0.1278
 3145TIP3   OH2 9398   2.955   1.304   4.584  0.3293 -0.5307  0.7052
 3145TIP3    H1 9399   2.908   1.387   4.577  2.1899  0.4475 -1.4701
 3145TIP3    H2 9400   2.886   1.237   4.586 -1.1810  0.9802  1.3521
 3146TIP3   OH2 9401   1.975   1.109   1.516 -0.4015 -0.1793  0.1126
 3146TIP3    H1 9402   2.031   1.126   1.592 -0.5874  0.9361  0.0075
 3146TIP3    H2 9403   1.895   1.073   1.554 -0.1777 -0.4179  0.3717
 3147TIP3   OH2 9404   6.567   5.137   4.165  0.2196 -0.6277 -0.3809
 3147TIP3    H1 9405   6.518   5.128   4.246  0.5874  0.2332 -0.0505
 3147TIP3    H2 9406   6.544   5.059   4.114 -1.1678 -0.4503 -0.0727
 3148TIP3   OH2 9407   3.383   5.901   3.328  0.3415 -0.3122 -0.0685
 3148TIP3    H1 9408   3.445   5.943   3.268 -0.9444  1.2501 -0.3869
 3148TIP3    H2 9409   3.310   5.875   3.272  0.1193 -0.9161  0.4921
 3149TIP3   OH2 9410   2.496   3.739   4.913 -0.2433 -0.2443 -0.3096
 3149TIP3    H1 9411   2.477   3.769   5.002 -0.6945  0.0040 -0.4906
 3149TIP3    H2 9412   2.423   3.681   4.891 -0.7762  0.6484 -0.9755
 3150TIP3   OH2 9413   4.665   4.058   2.183  0.2829  0.1908  0.1511
 3150TIP3    H1 9414   4.571   4.057   2.165  0.2551  0.7593  0.2602
 3150TIP3    H2 9415   4.690   4.150   2.173  0.5651  0.2696  1.4721
 3151TIP3   OH2 9416   2.137   6.491   2.923 -0.0219 -0.4136  0.2614
 3151TIP3    H1 9417   2.061   6.524   2.972  0.6651  1.3775  0.2064
 3151TIP3    H2 9418   2.150   6.556   2.854  1.6824 -0.5814  0.3972
 3152TIP3   OH2 9419   7.197   0.828   0.730  0.1134 -0.6513 -0.3018
 3152TIP3    H1 9420   7.273   0.789   0.686  1.0243  1.0813 -0.3206
 3152TIP3    H2 9421   7.122   0.794   0.681  0.8627 -2.0532 -0.5557
 3153TIP3   OH2 9422   5.489   5.835   5.016  0.3038 -0.0349 -0.0685
 3153TIP3    H1 9423   5.416   5.789   4.973 -0.0248  1.1229 -0.8050
 3153TIP3    H2 9424   5.449   5.875   5.093 -0.2047  1.7599 -1.2108
 3154TIP3   OH2 9425   3.787   3.920   0.040 -0.0628 -0.4781  0.4181
 3154TIP3    H1 9426   3.879   3.945   0.025  0.3979 -2.2151  0.1022
 3154TIP3    H2 9427   3.764   3.867  -0.037 -1.7620  0.9324 -0.1209
 3155TIP3   OH2 9428   3.115   0.691   3.709  0.4112 -0.1752 -0.1334
 3155TIP3    H1 9429   3.160   0.607   3.712  0.0642 -0.4403 -1.4850
 3155TIP3    H2 9430   3.078   0.695   3.620 -2.1663  0.0295  0.8477
 3156TIP3   OH2 9431   2.513   5.990   3.416 -0.3569 -0.0058  0.3513
 3156TIP3    H1 9432   2.418   5.989   3.424 -0.2617  0.4168  1.9417
 3156TIP3    H2 9433   2.532   6.057   3.350 -1.1314  0.4951  0.6348
 3157TIP3   OH2 9434   5.075   0.635   2.166  0.3994  0.3592 -0.3294
 3157TIP3    H1 9435   4.992   0.614   2.122 -0.4519 -1.5341  1.9945
 3157TIP3    H2 9436   5.049   0.669   2.251  2.0254  0.5051  0.1351
 3158TIP3   OH2 9437   6.762   3.545   5.071 -0.1839  0.2696  0.2850
 3158TIP3    H1 9438   6.694   3.480   5.091 -1.8101  1.4677 -0.9682
 3158TIP3    H2 9439   6.836   3.494   5.039 -0.0267 -1.1545  2.6989
 3159TIP3   OH2 9440   0.488   0.705   0.356 -0.4049  0.1289 -0.0610
 3159TIP3    H1 9441   0.428   0.775   0.333 -1.1192  0.0499  1.4197
 3159TIP3    H2 9442   0.565   0.750   0.392 -0.1397  0.1873 -0.6868
 3160TIP3   OH2 9443   5.300   3.909   3.764  0.3443  0.2419  0.1684
 3160TIP3    H1 9444   5.277   3.818   3.746 -0.8746  0.6026 -0.2089
 3160TIP3    H2 9445   5.300   3.915   3.859 -0.1412 -0.0214  0.1889
 3161TIP3   OH2 9446   6.949   5.277   3.441 -0.3405  0.2561  0.7188
 3161TIP3    H1 9447   7.019   5.214   3.422 -1.5591 -0.9949  0.1231
 3161TIP3    H2 9448   6.909   5.244   3.522 -1.8899 -0.6200 -0.3469
 3162TIP3   OH2 9449   2.981   2.708   3.177 -0.3370 -0.0617  0.1133
 3162TIP3    H1 9450   3.000   2.800   3.159  1.4654 -0.1823  1.1114
 3162TIP3    H2 9451   2.924   2.709   3.254  0.9761  0.2183  1.1121
 3163TIP3   OH2 9452   0.731   6.278   0.306  0.3722  0.1013 -0.3924
 3163TIP3    H1 9453   0.689   6.215   0.248 -0.3784  0.2210  0.0036
 3163TIP3    H2 9454   0.752   6.353   0.250 -2.0224  0.9872 -0.1969
 3164TIP3   OH2 9455   5.205   4.536   2.571 -0.4253 -0.4288 -0.3224
 3164TIP3    H1 9456   5.192   4.542   2.476 -0.7914  0.2558 -0.2362
 3164TIP3    H2 9457   5.238   4.623   2.596 -0.4388 -0.5713  0.1934
 3165TIP3   OH2 9458   6.730   1.525   3.604 -0.1141 -0.0094  0.4318
 3165TIP3    H1 9459   6.724   1.618   3.579  0.1243  0.3824  1.7507
 3165TIP3    H2 9460   6.781   1.526   3.685 -0.4109 -1.2732  0.6450
 3166TIP3   OH2 9461   5.659   3.333   1.401  0.3509  0.3459  0.1972
 3166TIP3    H1 9462   5.627   3.269   1.338  0.4716  0.3204  0.1614
 3166TIP3    H2 9463   5.690   3.281   1.475  3.3104  0.1216 -1.0588
 3167TIP3   OH2 9464   5.363   5.660   3.748  0.0117  0.5327 -0.1673
 3167TIP3    H1 9465   5.389   5.634   3.836  3.6390  2.4474 -0.4983
 3167TIP3    H2 9466   5.360   5.579   3.698 -0.7030 -0.4135  1.3336
 3168TIP3   OH2 9467   4.378   0.970   4.858  0.1572 -0.1182  0.0262
 3168TIP3    H1 9468   4.472   0.954   4.858 -0.0785 -1.7155 -0.5940
 3168TIP3    H2 9469   4.342   0.901   4.914 -0.9033 -1.6183 -2.3428
 3169TIP3   OH2 9470   6.845   0.099   0.507 -0.4285  0.1795  0.0185
 3169TIP3    H1 9471   6.865   0.187   0.539  0.1794  0.0922 -0.1113
 3169TIP3    H2 9472   6.865   0.042   0.582 -1.9681  0.2457  0.5153
 3170TIP3   OH2 9473   4.065   6.213   5.643 -0.0019 -0.3330  0.6451
 3170TIP3    H1 9474   4.084   6.307   5.645  1.1711 -0.5475  0.2452
 3170TIP3    H2 9475   4.139   6.175   5.595 -0.3031 -1.4972  1.0881
 3171TIP3   OH2 9476   3.740   1.042   5.891 -0.2171 -0.1317  0.2111
 3171TIP3    H1 9477   3.810   1.056   5.827 -0.0050 -0.2910  0.4072
 3171TIP3    H2 9478   3.666   1.012   5.839 -1.4390  3.6875 -0.6003
 3172TIP3   OH2 9479   6.156   4.149   2.697  0.1108 -0.3337  0.3561
 3172TIP3    H1 9480   6.078   4.117   2.742  1.0292 -2.3338  0.6277
 3172TIP3    H2 9481   6.227   4.093   2.729  1.6381  1.2780 -0.0540
 3173TIP3   OH2 9482   3.700   2.253   3.950 -0.0537  0.0831  0.2231
 3173TIP3    H1 9483   3.771   2.263   3.886  2.3689  0.2601  2.7650
 3173TIP3    H2 9484   3.638   2.194   3.907  1.6230 -0.0974 -2.1393
 3174TIP3   OH2 9485   5.361   4.524   2.056 -0.0481 -0.0522 -0.0090
 3174TIP3    H1 9486   5.394   4.468   1.986 -1.2891 -0.7583 -0.0669
 3174TIP3    H2 9487   5.389   4.480   2.136 -0.2736 -0.2985 -0.0615
 3175TIP3   OH2 9488   0.986   6.356   3.017 -0.1222  0.7910 -0.4710
 3175TIP3    H1 9489   0.934   6.420   2.969 -0.3173  1.7008  0.8926
 3175TIP3    H2 9490   0.921   6.304   3.065  0.0780  0.0240 -1.0151
 3176TIP3   OH2 9491   5.883   4.653  -0.018 -0.1202 -0.3995 -0.1322
 3176TIP3    H1 9492   5.966   4.695  -0.041 -0.5829  0.7058  0.1424
 3176TIP3    H2 9493   5.887   4.644   0.077 -0.4677  0.0314 -0.0699
 3177TIP3   OH2 9494   5.902   6.488   2.152 -0.2635 -0.3038  0.5532
 3177TIP3    H1 9495   5.998   6.490   2.151 -0.2719  0.8797 -1.0046
 3177TIP3    H2 9496   5.880   6.421   2.217  1.6324 -1.8102 -0.2755
 3178TIP3   OH2 9497   5.882   3.241   0.915  0.6377 -0.2816  0.1453
 3178TIP3    H1 9498   5.804   3.296   0.918 -0.1721 -1.4556  1.5930
 3178TIP3    H2 9499   5.916   3.253   0.826  0.1203  1.9951  0.1952
 3179TIP3   OH2 9500   6.716   3.418   2.496 -0.0623 -0.1343  0.7147
 3179TIP3    H1 9501   6.729   3.371   2.413  0.9395 -0.5841  1.1082
 3179TIP3    H2 9502   6.796   3.402   2.545 -0.0282  1.3660  1.1877
 3180TIP3   OH2 9503   3.868   2.537   2.444  0.0915  0.1379  0.4509
 3180TIP3    H1 9504   3.830   2.541   2.356  2.0046  1.8117 -0.3847
 3180TIP3    H2 9505   3.869   2.628   2.473 -1.5771 -0.5135  2.7398
 3181TIP3   OH2 9506   4.036   0.455   0.869  0.0174  0.2527  0.5707
 3181TIP3    H1 9507   3.989   0.521   0.818  1.0243 -0.8200 -1.8668
 3181TIP3    H2 9508   4.118   0.498   0.893 -1.0034  1.2251  2.5859
 3182TIP3   OH2 9509   4.154   1.002   5.330  0.1712  0.0292  0.2381
 3182TIP3    H1 9510   4.202   0.933   5.375 -0.1456  0.2500  0.9320
 3182TIP3    H2 9511   4.219   1.070   5.312  0.5923 -0.6633 -0.9191
 3183TIP3   OH2 9512   4.027   5.580   1.875  0.3599  0.5555 -0.3357
 3183TIP3    H1 9513   4.036   5.585   1.780 -0.9362  1.9298 -0.4271
 3183TIP3    H2 9514   4.062   5.663   1.907 -0.7830  0.8470  0.2160
 3184TIP3   OH2 9515   3.920   1.049   5.683 -0.7922  0.2217  0.6593
 3184TIP3    H1 9516   4.007   1.009   5.682 -0.1289  1.6045  0.9808
 3184TIP3    H2 9517   3.889   1.041   5.592 -0.5056 -0.6160  0.6271
 3185TIP3   OH2 9518   2.620   1.766   2.368  0.3389  0.2757 -0.1706
 3185TIP3    H1 9519   2.685   1.831   2.394 -0.7258  0.8409  1.1818
 3185TIP3    H2 9520   2.632   1.694   2.431  0.0502  0.1233 -0.2878
 3186TIP3   OH2 9521   1.240   3.153   1.938 -0.0637  0.4193 -0.2085
 3186TIP3    H1 9522   1.150   3.177   1.961 -0.2571 -1.1321  0.8455
 3186TIP3    H2 9523   1.295   3.203   1.998 -0.3232  0.1730  0.2419
 3187TIP3   OH2 9524   1.635   1.198   4.085  0.1902  0.1968 -0.4206
 3187TIP3    H1 9525   1.649   1.218   4.178 -1.2027 -0.7978  0.0264
 3187TIP3    H2 9526   1.570   1.262   4.057  0.0788  0.0395 -0.5212
 3188TIP3   OH2 9527   3.433   4.688   2.613 -0.3658  0.3522  0.1943
 3188TIP3    H1 9528   3.430   4.731   2.527  2.0941 -0.5605 -0.4145
 3188TIP3    H2 9529   3.400   4.600   2.597 -0.1153  0.2526  0.2203
 3189TIP3   OH2 9530   3.755   6.830   1.246 -0.5357  0.2944 -0.2428
 3189TIP3    H1 9531   3.675   6.778   1.232 -0.4355  0.4404 -1.4590
 3189TIP3    H2 9532   3.816   6.797   1.181  1.2916 -1.4878  2.1941
 3190TIP3   OH2 9533   2.161   1.052   2.634 -0.0070  0.0560  0.3511
 3190TIP3    H1 9534   2.151   1.102   2.715 -2.5442 -0.6286  0.5440
 3190TIP3    H2 9535   2.117   1.105   2.567  0.2648 -0.3346 -0.1453
 3191TIP3   OH2 9536   0.534   3.015   2.869 -0.5341  0.0734 -0.4569
 3191TIP3    H1 9537   0.571   2.945   2.922  0.2683  1.3613  0.7535
 3191TIP3    H2 9538   0.607   3.074   2.851 -1.5771  1.7469  0.4721
 3192TIP3   OH2 9539   1.292   3.098   5.379  0.5732 -0.0656  0.0526
 3192TIP3    H1 9540   1.281   3.013   5.420 -0.0526  0.5230  1.1538
 3192TIP3    H2 9541   1.221   3.151   5.414  0.8497  0.8716 -0.7422
 3193TIP3   OH2 9542   5.346   6.712   5.309  0.0879  0.0014  0.1570
 3193TIP3    H1 9543   5.393   6.794   5.295  0.8048 -0.3937  0.2060
 3193TIP3    H2 9544   5.414   6.645   5.308 -0.4427 -0.5521  0.5332
 3194TIP3   OH2 9545   6.162   0.694   2.646 -0.5548  0.2786 -0.1908
 3194TIP3    H1 9546   6.242   0.642   2.652 -1.1481 -0.6469 -0.0775
 3194TIP3    H2 9547   6.166   0.734   2.560  0.9162  1.7596  0.5075
 3195TIP3   OH2 9548   0.700   6.641   5.577 -0.4120  0.2771 -0.3190
 3195TIP3    H1 9549   0.734   6.660   5.665  0.5804  1.9969 -1.0232
 3195TIP3    H2 9550   0.726   6.551   5.561  0.2689  0.2489  0.7787
 3196TIP3   OH2 9551   0.259   2.584   1.120 -0.1276 -0.0379 -0.1280
 3196TIP3    H1 9552   0.166   2.605   1.129  0.1216  0.6439  1.0580
 3196TIP3    H2 9553   0.304   2.650   1.173  0.9133 -1.4215  0.7925
 3197TIP3   OH2 9554   6.358   1.089   2.809  0.0765 -0.3110  0.1106
 3197TIP3    H1 9555   6.447   1.111   2.838 -0.1491  0.6138  0.1382
 3197TIP3    H2 9556   6.325   1.028   2.875  0.0577  0.7167  1.0907
 3198TIP3   OH2 9557   3.089   3.800   4.802 -0.3628  0.0734 -0.0464
 3198TIP3    H1 9558   3.134   3.824   4.884  0.7438  0.5315 -0.7619
 3198TIP3    H2 9559   3.020   3.739   4.829 -1.4100  1.8342  1.4924
 3199TIP3   OH2 9560   2.095   1.715   5.310 -0.1609  0.1702  0.3616
 3199TIP3    H1 9561   2.059   1.735   5.224 -2.5150 -0.5462  1.1121
 3199TIP3    H2 9562   2.152   1.790   5.330  0.0188  0.5928 -1.5643
 3200TIP3   OH2 9563   6.324   2.324   2.278 -0.4402  0.0069 -0.2039
 3200TIP3    H1 9564   6.403   2.270   2.272 -0.4622 -0.0298 -0.1676
 3200TIP3    H2 9565   6.270   2.295   2.205 -0.1465  0.4862 -0.6177
 3201TIP3   OH2 9566   4.395   3.830   5.333  0.7002  0.3550 -0.1782
 3201TIP3    H1 9567   4.431   3.779   5.406 -1.6633 -0.3303  0.5767
 3201TIP3    H2 9568   4.416   3.778   5.255 -0.1930 -0.9474  0.4213
 3202TIP3   OH2 9569   5.094   4.366   4.970 -0.2438 -0.7409 -0.0130
 3202TIP3    H1 9570   5.024   4.326   5.022  0.7776 -1.8868  0.5012
 3202TIP3    H2 9571   5.090   4.459   4.994 -1.4340 -0.8180  0.1713
 3203TIP3   OH2 9572   6.399   4.817   1.511 -0.1101 -0.4967  0.1785
 3203TIP3    H1 9573   6.431   4.871   1.439 -2.1069 -1.0926 -1.2617
 3203TIP3    H2 9574   6.375   4.880   1.579 -1.6574  0.4429 -1.1598
 3204TIP3   OH2 9575   4.096   6.262   1.232  0.5869 -0.3411  0.5023
 3204TIP3    H1 9576   4.012   6.280   1.272  0.3775 -0.1297 -0.0236
 3204TIP3    H2 9577   4.153   6.236   1.305 -0.0772 -1.0328  0.7923
 3205TIP3   OH2 9578   6.461   1.186   4.285  0.1786  0.0951 -0.4752
 3205TIP3    H1 9579   6.534   1.192   4.224 -0.4358  0.0077 -1.2338
 3205TIP3    H2 9580   6.404   1.260   4.262  1.1926  1.6642  1.7177
 3206TIP3   OH2 9581   2.283   2.010   0.042 -0.4693  0.0531  0.4014
 3206TIP3    H1 9582   2.259   2.035  -0.048  3.0422  1.4088 -0.3391
 3206TIP3    H2 9583   2.279   1.915   0.042  0.7583 -0.0593 -1.6972
 3207TIP3   OH2 9584   5.886   6.402   4.411  0.4430 -0.2000 -0.0144
 3207TIP3    H1 9585   5.981   6.417   4.408  0.5870 -1.0682  0.1643
 3207TIP3    H2 9586   5.867   6.391   4.504  0.3948 -1.4090 -0.1530
 3208TIP3   OH2 9587   7.076   4.794   5.917 -0.3970 -0.3230  0.4529
 3208TIP3    H1 9588   7.073   4.776   5.823 -0.2702  0.1739  0.3471
 3208TIP3    H2 9589   7.160   4.838   5.929  0.0315 -1.2542  0.9638
 3209TIP3   OH2 9590   4.960   4.033   3.330 -0.4807 -0.1989  0.4500
 3209TIP3    H1 9591   5.000   4.074   3.254 -2.2834 -0.9545 -0.9720
 3209TIP3    H2 9592   5.011   3.953   3.343 -0.2139 -0.1111 -0.0295
 3210TIP3   OH2 9593   1.530   1.197   5.810  0.1985  0.4828 -0.3018
 3210TIP3    H1 9594   1.510   1.115   5.854  1.3731 -0.5986 -1.7041
 3210TIP3    H2 9595   1.563   1.254   5.880  0.1775 -0.5065  0.5439
 3211TIP3   OH2 9596   6.589   4.915   4.023 -0.3833  0.1580  0.0411
 3211TIP3    H1 9597   6.683   4.919   4.038 -0.1069 -0.5161 -1.3486
 3211TIP3    H2 9598   6.574   4.829   3.985 -1.5807  0.2268  0.3155
 3212TIP3   OH2 9599   7.106   1.740   5.119 -0.6716 -0.1583  0.4846
 3212TIP3    H1 9600   7.069   1.703   5.039  1.4709  1.3896 -1.3511
 3212TIP3    H2 9601   7.140   1.664   5.166 -0.8643 -1.0079 -0.6790
 3213TIP3   OH2 9602   6.291   3.766   4.289 -0.4444  0.0475 -0.8808
 3213TIP3    H1 9603   6.375   3.759   4.333 -0.4537 -1.0758 -1.0140
 3213TIP3    H2 9604   6.241   3.827   4.343  0.2813  0.3463 -0.5318
 3214TIP3   OH2 9605   4.265   4.693   4.940  0.1763  0.0160 -0.0831
 3214TIP3    H1 9606   4.183   4.741   4.939  0.6319  0.7999 -1.4834
 3214TIP3    H2 9607   4.287   4.685   5.033 -1.9246 -1.0429  0.3758
 3215TIP3   OH2 9608   3.000   2.173   3.168  0.1390  0.3014  0.3865
 3215TIP3    H1 9609   3.030   2.256   3.205 -1.3982  0.9651  0.2158
 3215TIP3    H2 9610   2.908   2.187   3.148  0.1061 -1.1121 -0.6505
 3216TIP3   OH2 9611   3.425   1.321   3.615  0.0951  0.2565 -0.6186
 3216TIP3    H1 9612   3.393   1.370   3.691  1.1811 -0.6386  0.4515
 3216TIP3    H2 9613   3.503   1.368   3.587  0.6090 -0.3175 -0.1690
 3217TIP3   OH2 9614   0.500   1.341   5.649 -0.6892  1.1080  0.0816
 3217TIP3    H1 9615   0.435   1.284   5.691 -1.7632  2.5468  0.4239
 3217TIP3    H2 9616   0.562   1.362   5.718  0.2810 -0.3744 -0.2765
 3218TIP3   OH2 9617   0.991   5.956   4.589  0.2171 -0.4860  0.6043
 3218TIP3    H1 9618   0.916   5.914   4.549  0.2812 -0.4575  0.4545
 3218TIP3    H2 9619   0.955   6.031   4.636  0.0587 -0.9060  1.1616
 3219TIP3   OH2 9620   5.027   6.146   2.807  0.0392  0.2963  0.4576
 3219TIP3    H1 9621   4.942   6.182   2.832  0.4642  1.5951  0.1462
 3219TIP3    H2 9622   5.014   6.051   2.806 -1.4581  0.4755  0.2018
 3220TIP3   OH2 9623   0.090   5.734   1.813  0.1796 -0.4339  0.2724
 3220TIP3    H1 9624   0.059   5.676   1.882 -0.6343 -1.3003 -0.7941
 3220TIP3    H2 9625   0.141   5.801   1.860  0.2683 -1.3983  1.6252
 3221TIP3   OH2 9626   0.281   2.251   3.707  0.5070  0.2881  0.0020
 3221TIP3    H1 9627   0.257   2.296   3.626  1.6534  0.9629  0.0070
 3221TIP3    H2 9628   0.230   2.294   3.775 -0.1274  0.0181 -0.2995
 3222TIP3   OH2 9629   1.052   3.265   2.198 -0.0932 -0.2786  0.2623
 3222TIP3    H1 9630   1.098   3.230   2.274  1.0561  1.1153  0.2450
 3222TIP3    H2 9631   0.980   3.316   2.235 -0.5126 -0.9115  0.3435
 3223TIP3   OH2 9632   4.379   4.076   3.729 -0.0869  0.1138  0.6754
 3223TIP3    H1 9633   4.385   4.154   3.674  1.4807 -0.8460 -0.5897
 3223TIP3    H2 9634   4.450   4.020   3.700 -0.6852 -1.4790  2.0893
 3224TIP3   OH2 9635   3.671   4.463   3.644 -0.0986 -0.1246  0.0576
 3224TIP3    H1 9636   3.630   4.414   3.572  0.3718 -1.2185  0.5073
 3224TIP3    H2 9637   3.680   4.399   3.715  2.0852  0.1313  0.0922
 3225TIP3   OH2 9638   3.293   4.064   2.291 -0.0247  0.3937 -0.1709
 3225TIP3    H1 9639   3.265   4.003   2.223  1.5667  1.0705 -1.4971
 3225TIP3    H2 9640   3.284   4.150   2.251 -0.2336  0.9061  0.9363
 3226TIP3   OH2 9641   5.431   2.836   5.343 -0.5320 -0.2996 -0.0617
 3226TIP3    H1 9642   5.506   2.893   5.357  0.1623 -0.0449 -3.7606
 3226TIP3    H2 9643   5.464   2.748   5.358 -0.9391 -0.0110  3.1794
 3227TIP3   OH2 9644   4.697   5.866   0.805 -0.0261  0.0684  0.0619
 3227TIP3    H1 9645   4.637   5.869   0.879 -0.8820  1.2373 -0.6590
 3227TIP3    H2 9646   4.759   5.937   0.821  1.3613 -1.2602  0.9112
 3228TIP3   OH2 9647   2.198   1.974   2.523  0.0336 -0.1664 -0.6938
 3228TIP3    H1 9648   2.263   2.026   2.475  0.1088 -1.3157 -1.8853
 3228TIP3    H2 9649   2.167   1.910   2.460 -0.7449 -0.9775  0.4701
 3229TIP3   OH2 9650   0.521   3.986   5.382 -0.1271 -0.0090 -0.3330
 3229TIP3    H1 9651   0.495   3.964   5.471  0.7880  2.3226  0.5678
 3229TIP3    H2 9652   0.496   4.077   5.371 -0.6226 -0.3597 -2.6589
 3230TIP3   OH2 9653   1.826   4.457   2.056 -0.3077 -0.3918 -0.0029
 3230TIP3    H1 9654   1.809   4.456   2.150 -0.8516  1.7184 -0.0378
 3230TIP3    H2 9655   1.741   4.473   2.016 -0.0019 -0.7648 -0.8434
 3231TIP3   OH2 9656   0.553   4.723   5.859 -0.2934  0.3959 -0.2362
 3231TIP3    H1 9657   0.504   4.793   5.901  0.8352  0.1442  1.5931
 3231TIP3    H2 9658   0.626   4.768   5.815  0.0453  0.4458  0.3659
 3232TIP3   OH2 9659   6.795   1.584   2.324 -0.6124  0.4834  0.2008
 3232TIP3    H1 9660   6.809   1.679   2.315 -1.7978  0.5950 -0.7392
 3232TIP3    H2 9661   6.854   1.558   2.394  0.8678  1.6580 -0.5382
 3233TIP3   OH2 9662   5.543   5.180   0.482  0.5737 -0.0967 -0.8315
 3233TIP3    H1 9663   5.453   5.195   0.514  1.0384  1.4389 -0.1216
 3233TIP3    H2 9664   5.541   5.092   0.447 -0.4482 -1.3267  1.9761
 3234TIP3   OH2 9665   0.602   1.390   0.295  0.1999 -0.3761  0.1480
 3234TIP3    H1 9666   0.667   1.456   0.317  0.6932 -1.6482  2.8985
 3234TIP3    H2 9667   0.527   1.410   0.352 -0.9594 -0.3053 -1.3230
 3235TIP3   OH2 9668   2.489   3.586   4.609  0.4711 -0.2140  0.1720
 3235TIP3    H1 9669   2.561   3.526   4.594  0.1592 -0.3400 -0.9252
 3235TIP3    H2 9670   2.507   3.660   4.551  0.0753  0.0663  0.4003
 3236TIP3   OH2 9671   3.911   4.644   1.265  0.2126 -0.4078 -0.0516
 3236TIP3    H1 9672   3.852   4.569   1.274  1.2546 -1.2068  0.3523
 3236TIP3    H2 9673   3.853   4.720   1.264 -0.8036 -1.1335  0.8113
 3237TIP3   OH2 9674   1.720   5.374   2.627 -0.4506 -0.2283  0.1835
 3237TIP3    H1 9675   1.708   5.379   2.721  0.6123  1.6167  0.2779
 3237TIP3    H2 9676   1.800   5.322   2.615 -0.9799 -1.0685  0.2458
 3238TIP3   OH2 9677   1.152   5.306   4.952 -0.3505 -0.3683  0.1251
 3238TIP3    H1 9678   1.083   5.338   5.010 -1.6903  0.8936 -2.0212
 3238TIP3    H2 9679   1.106   5.277   4.873  1.4251 -1.4864 -0.5584
 3239TIP3   OH2 9680   0.766   0.563   0.323  0.3062 -0.4578 -0.3245
 3239TIP3    H1 9681   0.855   0.589   0.301  0.5623 -1.7903 -0.9468
 3239TIP3    H2 9682   0.736   0.630   0.385  0.9575  1.2282 -1.7464
 3240TIP3   OH2 9683   0.533   2.314   0.769  0.0656  0.1649 -0.1971
 3240TIP3    H1 9684   0.455   2.336   0.821  0.0539  2.1259 -0.9510
 3240TIP3    H2 9685   0.600   2.294   0.834 -0.6859 -0.1317  0.5025
 3241TIP3   OH2 9686   4.027   5.834   5.504  0.4155 -0.4733 -0.1111
 3241TIP3    H1 9687   4.015   5.866   5.414 -0.2649  0.8564  0.4266
 3241TIP3    H2 9688   4.091   5.894   5.542  0.6723 -1.0127  0.3174
 3242TIP3   OH2 9689   5.434   6.648   0.489 -0.6678  0.4835  0.4163
 3242TIP3    H1 9690   5.482   6.631   0.570 -0.3746 -1.5963 -0.1646
 3242TIP3    H2 9691   5.387   6.567   0.471 -0.1153  0.6271 -1.9269
 3243TIP3   OH2 9692   0.178   3.768   1.159  0.0167 -0.1259  0.5411
 3243TIP3    H1 9693   0.148   3.706   1.225 -2.2229  0.8775  0.5965
 3243TIP3    H2 9694   0.108   3.768   1.093  1.3380  0.2272 -0.9105
 3244TIP3   OH2 9695   2.048   3.002   1.810 -0.4881 -0.1179  0.3492
 3244TIP3    H1 9696   2.094   2.920   1.791 -0.0050 -0.6389  3.1904
 3244TIP3    H2 9697   2.109   3.071   1.784  0.1688 -0.7165  0.2686
 3245TIP3   OH2 9698   1.180   0.681   5.628  0.7259  0.0179  0.0855
 3245TIP3    H1 9699   1.120   0.753   5.650 -0.6018 -1.2850  0.9485
 3245TIP3    H2 9700   1.187   0.631   5.709  0.7960 -1.3877 -0.7648
 3246TIP3   OH2 9701   0.226   4.788   2.444 -0.6574  0.9974 -0.5664
 3246TIP3    H1 9702   0.189   4.721   2.502 -0.2547  0.1102 -1.3030
 3246TIP3    H2 9703   0.151   4.839   2.416 -0.8411  1.5120  0.8187
 3247TIP3   OH2 9704   5.497   4.049   1.217 -0.1260 -0.0945 -0.3670
 3247TIP3    H1 9705   5.530   4.079   1.302 -1.2203  0.6667 -0.1778
 3247TIP3    H2 9706   5.439   4.120   1.188 -0.7615 -0.9097 -1.1480
 3248TIP3   OH2 9707   3.165   0.686   3.998 -0.5498 -0.4738  0.7472
 3248TIP3    H1 9708   3.080   0.669   3.957  0.5616 -0.1590 -1.8191
 3248TIP3    H2 9709   3.227   0.633   3.949  1.0632  0.9741  1.1158
 3249TIP3   OH2 9710   1.120   3.676   4.716 -0.0466 -0.0563  0.0999
 3249TIP3    H1 9711   1.043   3.661   4.770 -1.3101  1.2610 -1.2259
 3249TIP3    H2 9712   1.146   3.589   4.686  0.7071 -0.8219  2.7358
 3250TIP3   OH2 9713   7.139   4.591   1.910  0.0654 -0.3532 -0.4074
 3250TIP3    H1 9714   7.118   4.683   1.919 -0.7791 -0.6240  0.5468
 3250TIP3    H2 9715   7.055   4.548   1.895  0.4144 -1.0055 -0.5449
 3251TIP3   OH2 9716   0.743   5.410   0.452 -0.2501  0.0946 -0.0880
 3251TIP3    H1 9717   0.789   5.476   0.398 -1.3262  1.2815  0.3970
 3251TIP3    H2 9718   0.676   5.460   0.498 -1.7439 -1.5196 -0.4190
 3252TIP3   OH2 9719   5.302   4.698   1.661  0.1371 -0.8448 -0.0414
 3252TIP3    H1 9720   5.250   4.776   1.679  0.5604 -0.5703 -0.0061
 3252TIP3    H2 9721   5.351   4.682   1.741  1.0095 -0.4029 -0.4720
 3253TIP3   OH2 9722   2.530   6.722   1.747  0.0924  0.2397 -0.6929
 3253TIP3    H1 9723   2.438   6.746   1.753 -0.1847 -1.1165  2.5991
 3253TIP3    H2 9724   2.577   6.805   1.758 -0.8062  0.5703  1.0167
 3254TIP3   OH2 9725   4.073   2.634   4.603  0.8306  0.7192 -0.4833
 3254TIP3    H1 9726   4.106   2.581   4.676 -2.8834  0.5393  1.2610
 3254TIP3    H2 9727   4.059   2.571   4.532 -2.2438 -0.5834  1.1179
 3255TIP3   OH2 9728   4.960   2.520   0.745 -0.2118 -0.1954  0.0952
 3255TIP3    H1 9729   4.871   2.508   0.779  0.4932  2.0758  3.0850
 3255TIP3    H2 9730   5.009   2.446   0.780 -0.4462 -0.2549  0.3028
 3256TIP3   OH2 9731   2.672   6.021   2.917 -0.0709 -1.0816  0.0168
 3256TIP3    H1 9732   2.622   6.028   2.835  0.3573 -1.3976 -0.2727
 3256TIP3    H2 9733   2.624   5.957   2.969 -0.2673 -0.9818 -0.0385
 3257TIP3   OH2 9734   4.397   5.483   1.486  0.1389  0.3952 -0.5683
 3257TIP3    H1 9735   4.444   5.405   1.456  2.3011  0.3836  2.3590
 3257TIP3    H2 9736   4.342   5.451   1.558 -2.2777  0.9337 -2.0888
 3258TIP3   OH2 9737   4.774   5.465   2.198  0.6622 -0.0058 -0.4097
 3258TIP3    H1 9738   4.855   5.435   2.157  0.0628 -1.3587 -0.6702
 3258TIP3    H2 9739   4.799   5.544   2.246  1.8245  0.4173 -1.6521
 3259TIP3   OH2 9740   6.121   6.370   2.514  0.4018 -0.1074  0.5261
 3259TIP3    H1 9741   6.083   6.326   2.438 -0.0991  1.7738 -0.3840
 3259TIP3    H2 9742   6.214   6.374   2.496  0.1805  1.1323 -0.4797
 3260TIP3   OH2 9743   3.650   0.199   0.052 -0.0388  0.3186 -0.1820
 3260TIP3    H1 9744   3.614   0.194  -0.036  1.5179  1.4753 -0.9373
 3260TIP3    H2 9745   3.708   0.276   0.050  1.9041 -1.0110  1.1335
 3261TIP3   OH2 9746   1.276   3.660   3.881 -0.1310  0.0480  0.6995
 3261TIP3    H1 9747   1.214   3.595   3.850  0.8752 -0.6304  0.0697
 3261TIP3    H2 9748   1.319   3.619   3.956  0.4658  0.0032  0.3374
 3262TIP3   OH2 9749   2.605   4.927   1.127  0.5618 -0.0888  0.3228
 3262TIP3    H1 9750   2.542   4.960   1.190  0.9279 -1.9159  1.7247
 3262TIP3    H2 9751   2.552   4.900   1.052 -0.1124  0.2261  0.6772
 3263TIP3   OH2 9752   7.188   0.840   1.658  0.3771 -0.4305  0.1892
 3263TIP3    H1 9753   7.144   0.755   1.651  2.2633 -1.4889  0.6248
 3263TIP3    H2 9754   7.226   0.840   1.746 -0.9186  1.5759  0.8191
 3264TIP3   OH2 9755   1.356   3.002   2.669 -0.2572 -0.4195 -0.0696
 3264TIP3    H1 9756   1.316   3.082   2.702  0.2075 -0.6654  1.1188
 3264TIP3    H2 9757   1.444   3.027   2.643 -0.8207 -0.0822 -1.8248
 3265TIP3   OH2 9758   5.523   6.090   1.923 -0.8819  0.4569  0.4166
 3265TIP3    H1 9759   5.434   6.078   1.957 -1.1907  1.7272  0.1237
 3265TIP3    H2 9760   5.544   6.007   1.881 -2.2442  0.3661 -0.1549
 3266TIP3   OH2 9761   0.886   1.863   1.636 -0.2158 -0.0356 -0.2403
 3266TIP3    H1 9762   0.952   1.838   1.571 -0.2342 -0.6676 -0.0262
 3266TIP3    H2 9763   0.922   1.940   1.679  0.0524  0.0518 -0.6146
 3267TIP3   OH2 9764   4.704   3.711   0.800  0.5285  0.5834  0.2850
 3267TIP3    H1 9765   4.773   3.704   0.865 -1.0461 -0.9899  1.9287
 3267TIP3    H2 9766   4.652   3.787   0.826  0.3765  0.4521  0.3678
 3268TIP3   OH2 9767   4.041   6.337   3.998 -0.2344 -0.2074  0.6597
 3268TIP3    H1 9768   3.986   6.388   3.939 -0.5507 -0.3064  0.8694
 3268TIP3    H2 9769   4.117   6.313   3.944  0.0766  0.7597  0.6604
 3269TIP3   OH2 9770   3.227   0.447   3.689 -0.2051 -0.4775  0.1111
 3269TIP3    H1 9771   3.279   0.452   3.769  2.5233 -0.6383 -1.5334
 3269TIP3    H2 9772   3.269   0.378   3.637 -0.8274  0.7518 -2.1591
 3270TIP3   OH2 9773   0.200   2.409   5.487 -0.3867 -0.2438  0.4928
 3270TIP3    H1 9774   0.109   2.405   5.458  0.0393 -1.7010 -0.7865
 3270TIP3    H2 9775   0.211   2.332   5.542 -0.0233  0.1559  0.9921
 3271TIP3   OH2 9776   3.285   4.976   1.036  0.2416 -0.1639 -0.5739
 3271TIP3    H1 9777   3.218   4.910   1.017  0.1659  0.0355 -1.0079
 3271TIP3    H2 9778   3.331   4.988   0.953 -0.5005  1.1852 -0.8148
 3272TIP3   OH2 9779   2.008   5.262   2.978 -0.6423 -0.3882 -0.2362
 3272TIP3    H1 9780   2.078   5.222   3.029 -0.6985 -0.4595 -0.2147
 3272TIP3    H2 9781   2.046   5.277   2.891 -0.3308  0.3704  0.0215
 3273TIP3   OH2 9782   1.870   5.660   2.551  0.0879 -0.3207  0.3931
 3273TIP3    H1 9783   1.788   5.709   2.549 -0.3386 -1.0418 -0.9381
 3273TIP3    H2 9784   1.846   5.571   2.527  1.0547 -0.8797  1.4353
 3274TIP3   OH2 9785   3.447   2.276   0.616 -0.0893 -0.2401 -0.7405
 3274TIP3    H1 9786   3.513   2.214   0.585  1.7329  1.3256 -0.1660
 3274TIP3    H2 9787   3.486   2.362   0.601 -1.4035  0.7128  0.9307
 3275TIP3   OH2 9788   2.721   4.085   3.011  0.1945  0.2344  0.1727
 3275TIP3    H1 9789   2.760   4.064   3.096 -0.4123  0.4309  0.5018
 3275TIP3    H2 9790   2.739   4.178   2.998  0.8684  0.0523 -0.2246
 3276TIP3   OH2 9791   6.019   0.078   5.424  0.0832 -0.1644  0.0930
 3276TIP3    H1 9792   5.959   0.152   5.426  0.7124  0.3426  0.9689
 3276TIP3    H2 9793   6.063   0.085   5.339  0.5393  0.8029  0.3947
 3277TIP3   OH2 9794   3.576   3.721   1.446  0.4393 -0.2601 -0.6515
 3277TIP3    H1 9795   3.611   3.691   1.530  3.1709 -1.8574 -2.2423
 3277TIP3    H2 9796   3.620   3.804   1.430  0.3914 -0.2650 -0.8057
 3278TIP3   OH2 9797   0.003   4.066   3.744 -0.3857  0.3279  0.0093
 3278TIP3    H1 9798   0.033   4.103   3.661 -0.3064 -1.4484 -0.8038
 3278TIP3    H2 9799  -0.035   3.981   3.720  0.9532 -0.8983  1.9668
 3279TIP3   OH2 9800   0.400   5.511   2.997 -0.6594  0.1957  0.4537
 3279TIP3    H1 9801   0.410   5.419   2.974  0.8711  0.4577  0.0028
 3279TIP3    H2 9802   0.432   5.559   2.920 -0.9150  1.1073  0.8996
 3280TIP3   OH2 9803   5.508   1.277   2.611  0.3996 -0.2002  0.2507
 3280TIP3    H1 9804   5.469   1.267   2.698 -1.2678 -0.5299 -0.4905
 3280TIP3    H2 9805   5.577   1.211   2.608  0.6195 -0.0485  1.3770
 3281TIP3   OH2 9806   6.267   2.949   4.803 -0.3817  0.0523 -0.1563
 3281TIP3    H1 9807   6.286   2.944   4.897 -1.8293 -0.4191  0.1342
 3281TIP3    H2 9808   6.267   3.042   4.784 -2.2998  0.3023  0.8320
 3282TIP3   OH2 9809   5.365   0.373   0.702 -0.1272 -0.4788 -0.2649
 3282TIP3    H1 9810   5.330   0.353   0.788  1.5619 -0.1348  0.5350
 3282TIP3    H2 9811   5.458   0.354   0.708  0.2240  0.5736 -1.6869
 3283TIP3   OH2 9812   5.010   0.806   3.822  0.2023  0.4976 -0.0272
 3283TIP3    H1 9813   5.012   0.724   3.772  1.2632 -0.7235  1.8756
 3283TIP3    H2 9814   4.917   0.829   3.828 -0.0191  0.1485 -1.6516
 3284TIP3   OH2 9815   3.242   0.112   5.581 -0.0936  0.3501 -0.0516
 3284TIP3    H1 9816   3.325   0.160   5.583 -0.9993  2.0568 -0.7045
 3284TIP3    H2 9817   3.207   0.130   5.494 -0.3610 -1.7986 -0.4310
 3285TIP3   OH2 9818   0.324   0.255   1.843  0.0471  0.6346 -0.6266
 3285TIP3    H1 9819   0.408   0.285   1.808 -0.2656 -0.6605 -2.6467
 3285TIP3    H2 9820   0.321   0.162   1.821 -1.3700  0.3472  0.5832
 3286TIP3   OH2 9821   4.561   2.483   3.567  0.0355  0.3030 -0.2539
 3286TIP3    H1 9822   4.537   2.568   3.531  1.5533  0.9193  0.0982
 3286TIP3    H2 9823   4.555   2.422   3.494  1.1164  1.1544 -1.0808
 3287TIP3   OH2 9824   1.578   4.623   1.633  0.2752 -0.3717 -0.5035
 3287TIP3    H1 9825   1.637   4.676   1.580  1.9095 -0.9442  0.6368
 3287TIP3    H2 9826   1.585   4.535   1.596 -1.9649  0.0013 -2.0145
 3288TIP3   OH2 9827   0.770   0.297   2.966 -0.4281  0.0156  0.4235
 3288TIP3    H1 9828   0.775   0.329   3.056  0.3499 -0.8915  0.7173
 3288TIP3    H2 9829   0.714   0.220   2.971  0.5597 -0.7337  0.3616
 3289TIP3   OH2 9830   2.759   4.172   1.764 -0.2794  0.2256  1.1833
 3289TIP3    H1 9831   2.745   4.093   1.818 -1.2636  0.2022  0.9040
 3289TIP3    H2 9832   2.819   4.143   1.695 -0.0264 -0.0761  1.5218
 3290TIP3   OH2 9833   1.568   3.018   0.970  0.3815  0.1090  0.6778
 3290TIP3    H1 9834   1.652   3.040   0.931  1.8287 -0.7986  3.1045
 3290TIP3    H2 9835   1.551   2.928   0.942  0.2808  0.2469  0.2950
 3291TIP3   OH2 9836   3.475   0.512   2.411  0.3666 -0.3776  0.2201
 3291TIP3    H1 9837   3.532   0.467   2.348  0.3775 -1.9405  1.2733
 3291TIP3    H2 9838   3.416   0.443   2.442 -0.1258  0.5302  1.3517
 3292TIP3   OH2 9839   0.576   4.667   4.069  0.3955 -0.1791 -0.4522
 3292TIP3    H1 9840   0.627   4.661   4.149 -1.0773 -0.2731  0.5215
 3292TIP3    H2 9841   0.549   4.576   4.051  1.2428 -0.2545 -1.4294
 3293TIP3   OH2 9842   3.115   2.383   3.780 -0.5402  0.3923 -0.0507
 3293TIP3    H1 9843   3.198   2.399   3.826 -0.7096  1.5525 -0.1248
 3293TIP3    H2 9844   3.064   2.331   3.842  0.7617 -1.5930 -0.5738
 3294TIP3   OH2 9845   6.447   1.361   5.376 -0.1374 -0.5261 -0.4135
 3294TIP3    H1 9846   6.365   1.313   5.381  1.3496 -3.3963 -1.2789
 3294TIP3    H2 9847   6.475   1.371   5.467 -0.6280 -1.0707 -0.1970
 3295TIP3   OH2 9848   5.255   5.941   4.682  0.5736 -0.3034  0.3410
 3295TIP3    H1 9849   5.318   5.943   4.753 -0.0535  2.2479  0.9509
 3295TIP3    H2 9850   5.187   6.004   4.708 -0.6318 -0.6707 -1.6623
 3296TIP3   OH2 9851   6.945   3.417   3.577  0.2696  0.1129  0.0366
 3296TIP3    H1 9852   6.940   3.512   3.564  1.8388  0.3262  0.7380
 3296TIP3    H2 9853   7.018   3.405   3.637  0.3651 -1.5864 -0.3714
 3297TIP3   OH2 9854   6.777   6.246   4.950 -0.1788  0.2348  1.0191
 3297TIP3    H1 9855   6.835   6.316   4.979 -1.3080  1.5691  0.2068
 3297TIP3    H2 9856   6.827   6.199   4.883  0.1428  1.0994  0.6342
 3298TIP3   OH2 9857   5.109   5.574   5.122 -0.0719  0.0102  0.1158
 3298TIP3    H1 9858   5.019   5.606   5.127 -0.4618 -0.8912 -0.7940
 3298TIP3    H2 9859   5.105   5.503   5.058  1.7413  1.5397 -1.8445
 3299TIP3   OH2 9860   4.374   2.086   4.019 -0.0564 -0.1659 -0.0018
 3299TIP3    H1 9861   4.316   2.018   4.053 -1.3884  1.4463  1.1465
 3299TIP3    H2 9862   4.425   2.043   3.951  1.4258 -3.0970  2.7406
 3300TIP3   OH2 9863   5.099   5.581   5.527 -0.2123 -0.9014 -0.2197
 3300TIP3    H1 9864   5.081   5.501   5.577  0.5371 -0.9522 -0.0076
 3300TIP3    H2 9865   5.171   5.623   5.575 -0.3898 -0.2530 -0.5041
 3301TIP3   OH2 9866   6.536   4.489   0.289  0.1447 -0.0184  0.2363
 3301TIP3    H1 9867   6.485   4.551   0.237 -2.1223 -2.2357 -0.3487
 3301TIP3    H2 9868   6.614   4.539   0.316 -0.9395  2.6514 -1.2138
 3302TIP3   OH2 9869   2.471   0.649   1.967  0.1800 -0.0269 -0.4401
 3302TIP3    H1 9870   2.522   0.613   2.040 -1.3333  0.6243  0.9872
 3302TIP3    H2 9871   2.521   0.623   1.889  1.1512 -1.8942  0.7171
 3303TIP3   OH2 9872   3.326   2.060   3.204 -0.0563 -0.5818 -0.4438
 3303TIP3    H1 9873   3.235   2.055   3.175  0.3557 -1.7376 -1.6169
 3303TIP3    H2 9874   3.373   2.097   3.130  0.6740 -1.4586 -0.4273
 3304TIP3   OH2 9875   2.225   3.138   1.163  0.3520  0.1363 -0.8514
 3304TIP3    H1 9876   2.192   3.125   1.074 -0.7615 -0.6442 -0.3422
 3304TIP3    H2 9877   2.196   3.061   1.212  2.7072 -0.4782 -0.2732
 3305TIP3   OH2 9878   6.964   0.494   0.153 -0.0126 -0.3219 -0.5216
 3305TIP3    H1 9879   6.950   0.534   0.239  0.9266  0.1150 -0.5617
 3305TIP3    H2 9880   6.893   0.528   0.099  0.6020  1.0955 -0.4757
 3306TIP3   OH2 9881   5.683   3.731   4.341 -0.4317 -0.0670  0.5060
 3306TIP3    H1 9882   5.767   3.758   4.304 -0.4473 -0.2535  0.3355
 3306TIP3    H2 9883   5.682   3.770   4.428 -0.0464 -0.3036  0.6181
 3307TIP3   OH2 9884   4.624   2.568   1.097 -0.4188  0.5319  0.0359
 3307TIP3    H1 9885   4.546   2.553   1.150 -0.0442 -1.5045  0.1112
 3307TIP3    H2 9886   4.692   2.516   1.141  0.4168  0.5066 -1.2479
 3308TIP3   OH2 9887   3.597   6.793   0.395  0.1533  0.3334 -0.5249
 3308TIP3    H1 9888   3.659   6.850   0.440 -1.2161  1.8483 -0.4473
 3308TIP3    H2 9889   3.640   6.708   0.392  0.5101  0.2037  3.3625
 3309TIP3   OH2 9890   6.734   5.176   3.187 -0.1235 -0.1576 -0.2559
 3309TIP3    H1 9891   6.779   5.128   3.118  0.1454 -1.1231  0.5615
 3309TIP3    H2 9892   6.798   5.180   3.258  0.6920  3.3168 -0.9968
 3310TIP3   OH2 9893   1.970   2.677   0.680 -0.3922  0.0302  0.4205
 3310TIP3    H1 9894   1.878   2.666   0.702 -0.9194  2.3581 -0.3384
 3310TIP3    H2 9895   2.017   2.649   0.759 -1.9977  3.7632  2.9823
 3311TIP3   OH2 9896   4.248   1.090   1.129  0.3977  0.6858  0.1463
 3311TIP3    H1 9897   4.185   1.114   1.061  0.4420  0.0824 -0.1068
 3311TIP3    H2 9898   4.202   1.106   1.211  0.1409  0.8633 -0.0315
 3312TIP3   OH2 9899   4.625   3.870   1.869 -0.1813  0.1711  0.0206
 3312TIP3    H1 9900   4.628   3.864   1.965 -1.6664  0.2304  0.0923
 3312TIP3    H2 9901   4.692   3.808   1.840  0.1650  0.0098  1.0978
 3313TIP3   OH2 9902   0.818   5.745   4.289 -0.1764 -0.8897  0.1350
 3313TIP3    H1 9903   0.865   5.736   4.206 -1.4289 -1.0040 -0.5908
 3313TIP3    H2 9904   0.735   5.787   4.265 -0.4585 -0.6982  1.3712
 3314TIP3   OH2 9905   0.639   4.240   0.948  0.0780  0.1196 -0.4221
 3314TIP3    H1 9906   0.699   4.242   0.873 -0.6784  0.2864 -1.0401
 3314TIP3    H2 9907   0.635   4.148   0.973 -1.4679 -0.3424 -2.1159
 3315TIP3   OH2 9908   6.689   3.059   5.618 -0.2463 -0.0126  0.2580
 3315TIP3    H1 9909   6.753   3.098   5.679 -1.4168 -0.4946  1.8750
 3315TIP3    H2 9910   6.732   2.979   5.586  0.8274  0.8225 -0.4510
 3316TIP3   OH2 9911   2.670   2.132   1.187  0.2504  0.1316 -0.2253
 3316TIP3    H1 9912   2.646   2.102   1.275  0.6981  0.7867  0.1249
 3316TIP3    H2 9913   2.665   2.053   1.133  1.2270 -0.5499  0.6403
 3317TIP3   OH2 9914   0.549   2.045   3.889 -0.4097  0.2698  0.0192
 3317TIP3    H1 9915   0.459   2.069   3.863 -1.1029 -0.4780  1.6302
 3317TIP3    H2 9916   0.595   2.035   3.806 -2.5067 -1.9379 -0.9896
 3318TIP3   OH2 9917   5.320   6.380   1.263  0.0696 -0.4286 -0.1970
 3318TIP3    H1 9918   5.341   6.444   1.330 -2.5724 -0.5179  0.8334
 3318TIP3    H2 9919   5.347   6.296   1.301 -2.0104 -0.5638  1.1649
 3319TIP3   OH2 9920   3.309   4.596   0.908 -0.4742  0.1039 -0.1245
 3319TIP3    H1 9921   3.370   4.614   0.979 -1.0756  2.2301 -0.1009
 3319TIP3    H2 9922   3.228   4.570   0.953 -0.5872  0.5855 -0.0423
 3320TIP3   OH2 9923   6.791   0.460   3.775 -0.4535 -0.0670  0.4133
 3320TIP3    H1 9924   6.735   0.480   3.851 -1.4199  1.2513 -0.5899
 3320TIP3    H2 9925   6.874   0.503   3.794 -1.1327  1.4113  0.1701
 3321TIP3   OH2 9926   7.013   5.110   2.625 -0.2179  0.1239  0.2451
 3321TIP3    H1 9927   6.918   5.122   2.630 -0.2677  1.2554 -2.1689
 3321TIP3    H2 9928   7.025   5.038   2.563  0.5118 -1.2266  1.8754
 3322TIP3   OH2 9929   5.998   3.618   3.009 -0.7176  0.0398  0.2638
 3322TIP3    H1 9930   6.062   3.689   3.019 -0.2927 -0.4190  0.7858
 3322TIP3    H2 9931   6.015   3.559   3.082 -0.8534 -0.7730 -0.3494
 3323TIP3   OH2 9932   5.281   2.318   5.116 -0.0853  0.5265  0.1411
 3323TIP3    H1 9933   5.233   2.400   5.104  1.3228  1.4559  0.6010
 3323TIP3    H2 9934   5.229   2.268   5.178 -1.5037  0.5941 -0.9283
 3324TIP3   OH2 9935   3.342   1.833   3.833  0.1309 -0.2889 -0.3143
 3324TIP3    H1 9936   3.253   1.862   3.814  0.5753  1.2880 -0.1265
 3324TIP3    H2 9937   3.364   1.877   3.915  1.2871 -0.1897 -0.6613
 3325TIP3   OH2 9938   3.949   0.649   3.424 -0.5740  0.2847 -0.6983
 3325TIP3    H1 9939   3.902   0.632   3.506 -0.7363 -1.3465 -1.1069
 3325TIP3    H2 9940   3.909   0.730   3.391 -2.8489 -0.8216 -0.8226
 3326TIP3   OH2 9941   4.710   0.342   1.803  0.2730 -0.0455 -0.0087
 3326TIP3    H1 9942   4.698   0.435   1.820  1.6502  0.0819  0.4143
 3326TIP3    H2 9943   4.779   0.338   1.737 -0.6016 -0.7509 -0.9289
 3327TIP3   OH2 9944   6.736   0.161   0.984  0.3327  0.3604 -0.3832
 3327TIP3    H1 9945   6.807   0.225   0.980  0.7375 -0.1169 -0.9351
 3327TIP3    H2 9946   6.666   0.199   0.931 -0.2341  1.3075  0.9798
 3328TIP3   OH2 9947   3.076   4.856   1.395  0.3009  0.5715  0.3477
 3328TIP3    H1 9948   3.171   4.862   1.384  0.3151  0.5507  0.4595
 3328TIP3    H2 9949   3.053   4.935   1.443  0.2048  0.7899 -0.0570
 3329TIP3   OH2 9950   5.065   0.990   4.036 -0.2913 -0.7988  0.1992
 3329TIP3    H1 9951   5.127   0.962   4.104 -0.2364  0.4120  0.6689
 3329TIP3    H2 9952   5.066   0.919   3.972  0.1979 -1.6418  1.1059
 3330TIP3   OH2 9953   2.908   2.444   0.880 -0.4427  0.3499  0.4137
 3330TIP3    H1 9954   2.927   2.468   0.970 -1.0570  0.6694  0.4656
 3330TIP3    H2 9955   2.883   2.352   0.884  0.8264 -0.0096  0.3753
 3331TIP3   OH2 9956   3.374   3.503   1.111 -0.4331 -0.1863 -0.3830
 3331TIP3    H1 9957   3.293   3.514   1.062 -1.3887 -1.4492  0.8281
 3331TIP3    H2 9958   3.362   3.558   1.189  0.7370  1.1733 -1.0944
 3332TIP3   OH2 9959   5.691   2.595   0.656  0.1222 -0.2077 -0.1907
 3332TIP3    H1 9960   5.742   2.562   0.582 -1.4077 -1.2414 -0.8420
 3332TIP3    H2 9961   5.744   2.665   0.692  0.6777  0.7385 -2.6389
 3333TIP3   OH2 9962   4.149   2.473   4.203 -0.0471  0.6394  0.1815
 3333TIP3    H1 9963   4.169   2.560   4.167 -1.1966 -0.0728 -2.4092
 3333TIP3    H2 9964   4.054   2.465   4.196 -0.0829 -0.3961  1.5050
 3334TIP3   OH2 9965   3.123   5.572   0.846  0.0537 -0.2232  0.2788
 3334TIP3    H1 9966   3.138   5.665   0.860  2.0411 -0.0999 -2.0249
 3334TIP3    H2 9967   3.090   5.566   0.756 -1.5390 -1.6761  0.8971
 3335TIP3   OH2 9968   1.154   0.640   2.967  0.3964  0.3782 -0.2833
 3335TIP3    H1 9969   1.234   0.647   2.914 -0.2539 -0.2667 -1.3898
 3335TIP3    H2 9970   1.130   0.548   2.962 -1.4544  0.8605 -1.6104
 3336TIP3   OH2 9971   1.853   1.700   3.751  0.3267 -0.6346 -0.4423
 3336TIP3    H1 9972   1.926   1.637   3.746  1.4020  0.2545  2.1939
 3336TIP3    H2 9973   1.781   1.650   3.788  0.8871 -0.5725  0.7647
 3337TIP3   OH2 9974   0.855   6.327   5.073 -0.3826 -0.1317 -0.6251
 3337TIP3    H1 9975   0.872   6.397   5.011  0.3870 -0.1274 -0.4169
 3337TIP3    H2 9976   0.791   6.271   5.029  0.7690 -0.5833 -1.7835
 3338TIP3   OH2 9977   2.253   3.424   4.532  0.1776 -0.0260 -0.3316
 3338TIP3    H1 9978   2.314   3.497   4.543 -0.8020  0.8482 -0.6059
 3338TIP3    H2 9979   2.274   3.387   4.446  1.3017 -0.6861  0.2027
 3339TIP3   OH2 9980   0.600   0.712   4.085  0.3428 -0.5561  0.2481
 3339TIP3    H1 9981   0.646   0.746   4.007  0.1628  1.3526  0.9226
 3339TIP3    H2 9982   0.628   0.769   4.156  1.0436 -2.6827  1.7909
 3340TIP3   OH2 9983   0.925   2.837   5.748 -0.7282  0.0164 -0.5214
 3340TIP3    H1 9984   0.984   2.869   5.816 -1.1039 -0.2846 -0.0450
 3340TIP3    H2 9985   0.918   2.743   5.765  1.2912 -0.5853 -2.6057
 3341TIP3   OH2 9986   4.482   3.821   5.678  0.0133  0.2444 -0.2709
 3341TIP3    H1 9987   4.533   3.894   5.643  0.3018  0.1889  0.0337
 3341TIP3    H2 9988   4.419   3.862   5.738 -0.6717  0.3707 -1.0475
 3342TIP3   OH2 9989   3.686   4.812   0.833  0.1584  0.2206 -0.7176
 3342TIP3    H1 9990   3.706   4.723   0.862 -1.6266 -0.7925 -2.3541
 3342TIP3    H2 9991   3.751   4.830   0.765  0.0997 -0.1093 -0.8631
 3343TIP3   OH2 9992   4.433   1.450   2.165  0.2790 -0.2667  0.0104
 3343TIP3    H1 9993   4.389   1.416   2.087 -1.8857  0.5278  0.7943
 3343TIP3    H2 9994   4.361   1.468   2.226  1.8583 -0.1741  1.9098
 3344TIP3   OH2 9995   5.110   3.474   1.935  0.2321 -0.3149  0.4306
 3344TIP3    H1 9996   5.181   3.493   1.997  0.4151 -1.2216  0.5138
 3344TIP3    H2 9997   5.147   3.409   1.876 -1.0977 -2.2748  1.6433
 3345TIP3   OH2 9998   0.365   6.212   4.003  0.3917 -0.5725  0.0552
 3345TIP3    H1 9999   0.388   6.147   4.070 -0.9221  0.2364  1.3547
 3345TIP3    H210000   0.273   6.231   4.019  0.0480 -0.3336 -2.0208
 3346TIP3   OH210001   3.630   5.029   1.094  0.4323  0.4092  0.0553
 3346TIP3    H110002   3.704   5.010   1.037  0.3407 -1.1754  0.4059
 3346TIP3    H210003   3.553   5.004   1.042  0.2429  0.6421  0.2225
 3347TIP3   OH210004   1.648   1.338   2.951 -0.2856 -0.1146 -0.0577
 3347TIP3    H110005   1.692   1.338   2.866 -1.9172 -0.6382 -0.9571
 3347TIP3    H210006   1.612   1.250   2.959  0.1074 -0.1585  1.3308
 3348TIP3   OH210007   2.659   0.353   0.129  0.1677  0.2774 -0.1694
 3348TIP3    H110008   2.716   0.284   0.095 -1.6565 -1.2586 -0.2450
 3348TIP3    H210009   2.718   0.409   0.180  1.5736 -1.9062  0.7766
 3349TIP3   OH210010   5.828   3.490   4.329  0.0368 -0.5081  0.1494
 3349TIP3    H110011   5.771   3.565   4.311  0.3729 -0.0448  0.9826
 3349TIP3    H210012   5.899   3.500   4.266  0.9632  0.8487  1.3434
 3350TIP3   OH210013   6.326   5.358   1.139  0.1934 -0.2605  0.1906
 3350TIP3    H110014   6.363   5.274   1.110 -0.2587 -0.7633  1.0085
 3350TIP3    H210015   6.286   5.338   1.224 -0.0919  0.7484  0.3065
 3351TIP3   OH210016   6.781   2.778   3.707 -0.1102 -0.0288  0.5351
 3351TIP3    H110017   6.865   2.731   3.709 -0.2900 -0.4843 -0.8854
 3351TIP3    H210018   6.804   2.868   3.686  0.0664 -0.0289  0.7278
 3352TIP3   OH210019   4.654   3.917   2.942  0.0536 -0.0294  0.1930
 3352TIP3    H110020   4.671   4.011   2.944 -0.3792  0.0527  1.0407
 3352TIP3    H210021   4.740   3.876   2.934  0.2767  0.4350  0.2066
 3353TIP3   OH210022   4.332   5.369   0.372  0.3358 -0.0923 -0.4593
 3353TIP3    H110023   4.268   5.333   0.433 -1.9796  0.4596 -2.3664
 3353TIP3    H210024   4.388   5.295   0.350  0.6641 -0.5064  1.5812
 3354TIP3   OH210025   2.696   4.327   0.114 -0.0139  0.2916 -0.0907
 3354TIP3    H110026   2.705   4.410   0.067  0.5129  0.3007  0.0210
 3354TIP3    H210027   2.640   4.274   0.058 -0.1956  0.6512 -0.2565
 3355TIP3   OH210028   2.723   2.754   3.330 -0.2519  0.3031 -0.1928
 3355TIP3    H110029   2.790   2.726   3.392  1.2016  0.0477 -1.7821
 3355TIP3    H210030   2.701   2.843   3.355 -0.6287 -0.2197  1.4132
 3356TIP3   OH210031   0.751   0.196   2.585  0.5595  0.1068  0.0662
 3356TIP3    H110032   0.685   0.180   2.652  0.3952  0.4830 -0.0038
 3356TIP3    H210033   0.822   0.241   2.630  0.8275 -0.4132  0.1689
 3357TIP3   OH210034   2.749   1.426   0.473  0.4933  1.2788  0.3219
 3357TIP3    H110035   2.719   1.335   0.474  2.1400  0.6970  1.6375
 3357TIP3    H210036   2.670   1.478   0.492 -0.1812  0.0160  1.1267
 3358TIP3   OH210037   5.781   3.739   1.929  0.5102  0.4151  0.0372
 3358TIP3    H110038   5.737   3.797   1.992 -0.9506 -1.1472  0.5186
 3358TIP3    H210039   5.846   3.692   1.981 -0.5759 -0.7470  0.3879
 3359TIP3   OH210040   0.491   0.228   1.140  0.1772 -0.0911 -0.2287
 3359TIP3    H110041   0.399   0.243   1.118  0.4454 -0.6138 -1.8269
 3359TIP3    H210042   0.536   0.309   1.115  0.0887  0.4490  1.2272
 3360TIP3   OH210043   1.644   0.750   4.415  0.2021 -0.2261 -0.5616
 3360TIP3    H110044   1.738   0.750   4.394  0.4569 -2.7424  0.3193
 3360TIP3    H210045   1.638   0.706   4.500 -1.5580  2.5569  0.9411
 3361TIP3   OH210046   2.600   3.129   2.029  0.0344 -0.1127  0.6315
 3361TIP3    H110047   2.684   3.093   2.058  0.7978  2.1866  1.5403
 3361TIP3    H210048   2.565   3.173   2.106 -1.2326  0.3526 -0.1829
 3362TIP3   OH210049   5.690   0.801   4.503 -0.0259 -0.2917  0.0950
 3362TIP3    H110050   5.740   0.872   4.462 -0.4723 -0.1393 -0.1925
 3362TIP3    H210051   5.603   0.806   4.462 -0.7269  0.3316  1.5462
 3363TIP3   OH210052   3.560   2.599   5.723 -0.0045  0.4523 -0.3104
 3363TIP3    H110053   3.640   2.568   5.683  1.6747  0.9275  2.3884
 3363TIP3    H210054   3.549   2.689   5.691 -0.1099  0.0112 -1.5395
 3364TIP3   OH210055   7.117   5.882   0.728 -0.1436  0.5217  0.6580
 3364TIP3    H110056   7.174   5.950   0.763 -0.4784  0.2288  1.8178
 3364TIP3    H210057   7.039   5.885   0.784 -0.1676 -0.8070  0.7212
 3365TIP3   OH210058   7.157   3.097   4.570  0.3337  0.2189 -0.3083
 3365TIP3    H110059   7.078   3.117   4.520 -0.1887  0.2556  0.5174
 3365TIP3    H210060   7.213   3.173   4.557 -0.3024  0.7751  0.1520
 3366TIP3   OH210061   4.228   2.038   4.696  0.2284 -0.0167  0.4396
 3366TIP3    H110062   4.167   2.103   4.660  0.7238  0.4432  0.4186
 3366TIP3    H210063   4.314   2.079   4.686  0.6508 -1.0683 -0.4644
 3367TIP3   OH210064   1.244   2.266   1.765 -0.2026 -0.4391 -0.0847
 3367TIP3    H110065   1.308   2.268   1.837  0.1206 -0.4702 -0.3693
 3367TIP3    H210066   1.181   2.334   1.788  1.0286  1.0086 -0.8097
 3368TIP3   OH210067   5.120   6.343   3.825 -0.3089  0.1624  0.2185
 3368TIP3    H110068   5.037   6.325   3.780 -0.5197  2.2216 -0.3652
 3368TIP3    H210069   5.174   6.267   3.808 -1.9533 -1.0820  0.3065
 3369TIP3   OH210070   1.997   4.722   2.326  0.2500 -0.6019  0.2050
 3369TIP3    H110071   1.947   4.644   2.299  1.4607 -1.4942  0.4449
 3369TIP3    H210072   2.010   4.771   2.245 -0.4602 -0.6821  0.0338
 3370TIP3   OH210073   3.963   1.631   1.603  0.2503 -0.3407 -0.3413
 3370TIP3    H110074   3.932   1.682   1.678  0.8212 -0.8602  0.2649
 3370TIP3    H210075   3.885   1.586   1.570  0.0262 -0.2296  0.0370
 3371TIP3   OH210076   5.565   4.715   1.530  0.1265  0.0354  0.9035
 3371TIP3    H110077   5.612   4.771   1.592  0.4331  0.7088  0.0888
 3371TIP3    H210078   5.474   4.720   1.557  0.3285 -0.1292  1.6347
 3372TIP3   OH210079   0.788   3.680   0.524 -0.2137  0.4414  0.3190
 3372TIP3    H110080   0.753   3.756   0.571  0.8681  0.7771  0.6095
 3372TIP3    H210081   0.741   3.680   0.440  2.6061  3.9910 -1.5512
 3373TIP3   OH210082   4.525   5.170   2.916 -0.1170  0.7471  0.2529
 3373TIP3    H110083   4.546   5.145   2.826 -1.4424  2.0059 -0.4560
 3373TIP3    H210084   4.430   5.166   2.920 -0.1335  1.7689  1.2692
 3374TIP3   OH210085   3.998   6.041   5.864 -0.2773 -0.1720  0.1772
 3374TIP3    H110086   4.022   6.103   5.796  0.5456 -0.5752  0.0895
 3374TIP3    H210087   3.985   5.958   5.818  0.1771 -0.4213  0.4895
 3375TIP3   OH210088   1.498   6.296   1.329  0.1408  0.7775  0.4377
 3375TIP3    H110089   1.421   6.280   1.274  0.2010 -0.8746  0.7907
 3375TIP3    H210090   1.538   6.374   1.291  0.0793 -0.1961 -1.7629
 3376TIP3   OH210091   3.229   0.321   0.442  0.9830  0.3500 -0.2889
 3376TIP3    H110092   3.222   0.228   0.420  2.5327  0.2822 -0.6090
 3376TIP3    H210093   3.251   0.364   0.360  2.2011  0.7225  0.2056
 3377TIP3   OH210094   1.157   4.347   0.028 -0.3904 -0.1512 -0.2199
 3377TIP3    H110095   1.248   4.335   0.001  0.0435  2.1276  0.0367
 3377TIP3    H210096   1.130   4.260   0.059  1.7307 -0.8451 -0.1325
 3378TIP3   OH210097   3.828   4.094   1.120 -0.4328 -0.1441  0.8264
 3378TIP3    H110098   3.912   4.084   1.075 -2.1089 -0.5691 -2.4547
 3378TIP3    H210099   3.849   4.147   1.197  2.5359  1.5257 -0.9389
 3379TIP3   OH210100   2.910   5.340   2.559  0.1488 -0.4163 -0.0301
 3379TIP3    H110101   2.849   5.288   2.613  0.1911  0.2450  0.6699
 3379TIP3    H210102   2.855   5.381   2.493 -0.3985  1.1140  1.2992
 3380TIP3   OH210103   4.950   3.246   4.770 -0.0827 -0.3959  0.0414
 3380TIP3    H110104   4.936   3.318   4.832  0.8692 -0.5412  0.4418
 3380TIP3    H210105   5.019   3.193   4.810 -1.2705 -1.9598  0.1096
 3381TIP3   OH210106   3.106   1.557   2.007  0.6593 -0.4530  0.7032
 3381TIP3    H110107   3.124   1.650   1.991 -0.7940  0.1483  2.2581
 3381TIP3    H210108   3.078   1.522   1.923  0.5011  0.6949  0.2693
 3382TIP3   OH210109   2.068   5.314   3.600  0.2284  0.0449  0.6408
 3382TIP3    H110110   2.131   5.250   3.635  0.0877 -0.5809 -0.2194
 3382TIP3    H210111   2.105   5.340   3.516 -1.6313 -1.8878 -0.8708
 3383TIP3   OH210112   2.852   1.825   4.048 -0.4461  0.0836 -0.3396
 3383TIP3    H110113   2.940   1.788   4.058 -1.0356 -0.9002  1.5917
 3383TIP3    H210114   2.797   1.750   4.028 -1.4703 -0.0345  2.5069
 3384TIP3   OH210115   2.712   1.574   4.775 -0.1883 -0.3776  0.0728
 3384TIP3    H110116   2.710   1.566   4.679  0.3705  1.1309 -0.1003
 3384TIP3    H210117   2.792   1.623   4.793 -0.3576 -0.5255  1.3139
 3385TIP3   OH210118   2.858   3.318   0.525 -0.2670 -0.2579 -0.5883
 3385TIP3    H110119   2.825   3.261   0.595  2.8602 -0.3664  0.9307
 3385TIP3    H210120   2.882   3.257   0.454 -1.3006 -0.3428 -0.8875
 3386TIP3   OH210121   1.740   1.827   1.670  0.0470 -0.3667 -0.1353
 3386TIP3    H110122   1.732   1.903   1.611  1.2516  0.9325  1.2627
 3386TIP3    H210123   1.809   1.853   1.732 -0.4384 -2.1005  1.1999
 3387TIP3   OH210124   7.076   6.527   3.332  0.4875 -0.3126 -0.1385
 3387TIP3    H110125   7.089   6.597   3.396 -0.4279  0.0067 -0.2828
 3387TIP3    H210126   7.123   6.556   3.255 -0.1886  0.3351 -0.3190
 3388TIP3   OH210127   3.484   2.757   4.374  0.1498 -0.2071  0.5268
 3388TIP3    H110128   3.573   2.788   4.356 -0.5143  1.6820  0.1922
 3388TIP3    H210129   3.429   2.836   4.365 -1.7546 -1.5663 -0.7525
 3389TIP3   OH210130   1.779   5.186   3.270 -0.3590 -0.4868  0.7102
 3389TIP3    H110131   1.749   5.204   3.180  0.5516  2.2604  0.8438
 3389TIP3    H210132   1.847   5.120   3.260  0.7337  0.7842 -0.8576
 3390TIP3   OH210133   1.449   5.477   3.563 -0.2967  0.0140 -0.1008
 3390TIP3    H110134   1.540   5.481   3.592  0.2704 -0.4691 -1.6550
 3390TIP3    H210135   1.454   5.436   3.476 -1.9240  0.6787 -0.5467
 3391TIP3   OH210136   3.346   2.142   3.960  0.3377 -0.1078 -0.5353
 3391TIP3    H110137   3.393   2.072   4.006  0.9176  0.0292 -0.9200
 3391TIP3    H210138   3.256   2.136   3.994  0.6493 -0.3028  0.2781
 3392TIP3   OH210139   6.870   4.721   5.702  0.0424  0.1355  0.2172
 3392TIP3    H110140   6.844   4.775   5.627  0.4858  1.1392  0.7746
 3392TIP3    H210141   6.924   4.652   5.664 -1.2524 -0.4761 -0.6198
 3393TIP3   OH210142   5.858   2.253   5.534  0.2962  0.3608 -0.5357
 3393TIP3    H110143   5.838   2.265   5.627 -1.0667  1.7486 -0.9696
 3393TIP3    H210144   5.953   2.242   5.532  0.1479 -2.3004  1.2244
 3394TIP3   OH210145   0.418   0.170   1.508  0.0143  0.3036  0.0583
 3394TIP3    H110146   0.438   0.130   1.592 -2.5023 -0.0673  0.5491
 3394TIP3    H210147   0.460   0.256   1.511  0.8820 -0.1424  1.2224
 3395TIP3   OH210148   0.289   4.783   0.920  0.2153 -0.6981  0.2720
 3395TIP3    H110149   0.265   4.830   1.000  0.4326  2.0898 -1.1777
 3395TIP3    H210150   0.365   4.730   0.945 -0.6970 -1.1744  2.2437
 3396TIP3   OH210151   4.241   0.484   0.137  1.3221 -0.6119 -0.6535
 3396TIP3    H110152   4.296   0.528   0.202 -0.1125 -0.2481  0.3495
 3396TIP3    H210153   4.303   0.453   0.071  2.6351  0.5951 -0.0419
 3397TIP3   OH210154   2.831   5.706   2.723 -0.0753  0.8453  0.0687
 3397TIP3    H110155   2.809   5.617   2.751  1.3953 -0.1769 -1.7869
 3397TIP3    H210156   2.911   5.696   2.671 -1.1589  2.9078 -2.1796
 3398TIP3   OH210157   5.434   0.942   0.114 -0.6767  0.2287  0.0379
 3398TIP3    H110158   5.492   0.935   0.039 -1.4572  0.4738 -0.5969
 3398TIP3    H210159   5.354   0.898   0.087 -1.0371  0.4953  0.6536
 3399TIP3   OH210160   1.073   4.388   0.598 -0.3322  0.2665 -0.2395
 3399TIP3    H110161   0.997   4.361   0.546 -0.5066  0.2556  0.0167
 3399TIP3    H210162   1.147   4.340   0.561 -0.5943 -0.3609  0.0455
 3400TIP3   OH210163   6.961   5.252   1.551  0.1908  0.1000 -0.8037
 3400TIP3    H110164   6.898   5.316   1.516 -0.6288  0.1083  0.5914
 3400TIP3    H210165   6.919   5.167   1.536 -1.2086  0.1984  1.9409
 3401TIP3   OH210166   0.267   6.001   3.395 -0.3005  0.8246 -0.0376
 3401TIP3    H110167   0.302   6.080   3.355 -0.5762  1.9058  1.7483
 3401TIP3    H210168   0.198   5.972   3.335 -0.9277  2.5633 -0.2213
 3402TIP3   OH210169   5.572   3.991   5.284  0.5907 -0.0156 -0.1749
 3402TIP3    H110170   5.502   4.046   5.319  1.5197  1.0584  0.0190
 3402TIP3    H210171   5.536   3.955   5.203  0.6204  2.4188 -1.3496
 3403TIP3   OH210172   4.894   3.441   4.957  0.0577  0.1368  0.0989
 3403TIP3    H110173   4.924   3.426   5.047  0.8765 -2.1549 -0.5009
 3403TIP3    H210174   4.816   3.386   4.948  0.5914 -0.4791 -0.8909
 3404TIP3   OH210175   5.494   1.176   1.168  0.9834  0.1384  0.6578
 3404TIP3    H110176   5.587   1.198   1.164  0.9940  0.4889  2.3141
 3404TIP3    H210177   5.462   1.218   1.247 -0.2390 -1.2895  0.9756
 3405TIP3   OH210178   1.474   0.185   5.101  0.4084 -0.0100  0.6827
 3405TIP3    H110179   1.502   0.271   5.132  0.5870 -0.7096  2.6012
 3405TIP3    H210180   1.528   0.123   5.149  0.7303 -1.2229 -1.1259
 3406TIP3   OH210181   3.552   1.580   4.477 -0.2550 -0.1054  0.0875
 3406TIP3    H110182   3.562   1.594   4.383  1.1608 -0.2890  0.1911
 3406TIP3    H210183   3.488   1.509   4.484 -1.4723  0.8672 -0.6677
 3407TIP3   OH210184   1.528   2.925   1.595  0.2446  0.0296  0.6012
 3407TIP3    H110185   1.557   2.841   1.631 -0.2333 -0.1199  0.6378
 3407TIP3    H210186   1.486   2.969   1.668 -0.1224  0.0102  0.4027
 3408TIP3   OH210187   3.659   3.088   2.822  0.7170 -0.9392 -0.6858
 3408TIP3    H110188   3.706   3.080   2.905  0.1945 -2.3617 -0.4964
 3408TIP3    H210189   3.576   3.129   2.846  0.7386 -0.9592 -0.5740
 3409TIP3   OH210190   1.860   3.845   4.828  0.5753  0.2058  0.7628
 3409TIP3    H110191   1.876   3.767   4.774 -3.2577  0.4664 -1.0903
 3409TIP3    H210192   1.943   3.892   4.827  2.7056 -3.1824  0.9587
 3410TIP3   OH210193   1.048   3.432   3.534 -0.9372  0.0517 -0.5805
 3410TIP3    H110194   0.954   3.431   3.553 -1.3537 -0.5906 -2.3959
 3410TIP3    H210195   1.079   3.515   3.569 -2.6478  1.2751 -1.7911
 3411TIP3   OH210196   4.741   6.275   2.563 -0.1681 -0.7789  0.2513
 3411TIP3    H110197   4.660   6.324   2.579  0.9812  0.7495  1.6973
 3411TIP3    H210198   4.788   6.278   2.646  2.0025 -0.4392 -0.9147
 3412TIP3   OH210199   2.788   3.305   5.887  0.3077 -0.1191 -0.0630
 3412TIP3    H110200   2.868   3.260   5.913 -0.4755 -1.1396  0.7093
 3412TIP3    H210201   2.816   3.371   5.824  1.5851 -1.3536 -0.8576
 3413TIP3   OH210202   5.061   1.371   0.390 -0.2424 -0.2450  0.0651
 3413TIP3    H110203   5.049   1.327   0.306 -0.3488 -1.5498  0.7411
 3413TIP3    H210204   5.026   1.459   0.376  0.4306 -0.1952 -1.4686
 3414TIP3   OH210205   3.575   0.208   1.209 -0.4063  0.2898  0.1352
 3414TIP3    H110206   3.524   0.275   1.164 -1.2696  0.3274  1.1262
 3414TIP3    H210207   3.571   0.233   1.302  0.3630 -0.4082  0.3725
 3415TIP3   OH210208   4.891   0.449   2.724  0.2062  0.2285 -0.2867
 3415TIP3    H110209   4.823   0.516   2.728 -0.0004  0.1150 -1.4483
 3415TIP3    H210210   4.844   0.366   2.738  0.0446  0.1309 -1.3039
 3416TIP3   OH210211   4.105   5.177   3.205  0.4977  0.2144 -0.2472
 3416TIP3    H110212   4.073   5.266   3.223  2.3749  0.4571  2.6188
 3416TIP3    H210213   4.051   5.121   3.261  1.0275 -0.1010 -0.0435
 3417TIP3   OH210214   4.212   4.822   5.695  0.0054 -0.2148  0.1851
 3417TIP3    H110215   4.260   4.897   5.659  1.7873 -0.6620  1.4436
 3417TIP3    H210216   4.139   4.860   5.744 -1.2758  0.4764 -2.1468
 3418TIP3   OH210217   1.566   1.298   1.375  0.1850  0.3771  0.1022
 3418TIP3    H110218   1.512   1.376   1.361 -0.6162 -0.1115  0.3637
 3418TIP3    H210219   1.617   1.289   1.294 -1.8274 -0.4378 -1.1689
 3419TIP3   OH210220   6.441   0.419   1.500  0.2017  0.0323  0.4311
 3419TIP3    H110221   6.451   0.348   1.436 -0.8030 -2.1998  2.6030
 3419TIP3    H210222   6.518   0.412   1.557  0.2663  0.9409  0.4762
 3420TIP3   OH210223   1.063   5.737   3.653  0.0955  0.5820 -0.0347
 3420TIP3    H110224   1.153   5.769   3.654 -0.4391  2.1670  0.0606
 3420TIP3    H210225   1.046   5.707   3.742  0.5020  0.3694 -0.0311
 3421TIP3   OH210226   0.859   4.458   1.390 -0.1964 -0.5113 -0.1389
 3421TIP3    H110227   0.927   4.524   1.382  0.0913 -0.6019  1.2205
 3421TIP3    H210228   0.906   4.375   1.395 -0.4795 -0.6964 -0.4728
 3422TIP3   OH210229   6.917   5.954   0.489  0.1197  0.0866  0.4432
 3422TIP3    H110230   6.883   5.909   0.412 -0.1537 -0.1201  0.6837
 3422TIP3    H210231   6.975   5.891   0.531 -1.7237 -0.7624  1.8307
 3423TIP3   OH210232   2.372   4.218   5.404 -0.2171 -0.5925  0.4401
 3423TIP3    H110233   2.446   4.189   5.457  0.0291 -0.5722  0.1148
 3423TIP3    H210234   2.387   4.179   5.318  2.0315  3.1526 -1.1321
 3424TIP3   OH210235   3.448   5.002   0.807 -0.4463  0.4470 -0.0916
 3424TIP3    H110236   3.533   4.964   0.783  0.4604  1.3287  1.5471
 3424TIP3    H210237   3.386   4.963   0.746  0.8464 -1.5867 -0.1825
 3425TIP3   OH210238   1.945   2.980   3.567  0.2495  0.0804 -0.5271
 3425TIP3    H110239   2.005   2.914   3.601  0.5122  1.4844  1.9610
 3425TIP3    H210240   1.999   3.035   3.510  1.2382  0.9578  1.1942
 3426TIP3   OH210241   5.162   0.193   5.318 -0.5349  0.0520 -0.1642
 3426TIP3    H110242   5.242   0.202   5.369 -0.2468  0.7925 -0.7269
 3426TIP3    H210243   5.131   0.105   5.336 -0.3217  0.2309  1.1174
 3427TIP3   OH210244   2.501   5.446   2.169 -0.5512 -0.3611 -0.0347
 3427TIP3    H110245   2.554   5.422   2.093  0.8319 -0.4268  0.9172
 3427TIP3    H210246   2.468   5.362   2.203  1.2922 -0.6755  1.1482
 3428TIP3   OH210247   5.203   4.733   5.519 -0.1442  0.2368 -0.1282
 3428TIP3    H110248   5.179   4.819   5.484  1.3754  1.0203  0.6463
 3428TIP3    H210249   5.258   4.753   5.595 -0.7775 -1.4293  0.7999
 3429TIP3   OH210250   0.930   2.610   4.328 -0.2077  0.0204 -0.4062
 3429TIP3    H110251   0.899   2.527   4.363  0.6010 -0.4256 -0.7253
 3429TIP3    H210252   0.885   2.676   4.381 -1.9453 -0.5682 -1.0667
 3430TIP3   OH210253   1.588   2.758   3.124  0.0296 -0.5866 -0.7002
 3430TIP3    H110254   1.501   2.786   3.153 -0.6193 -1.5359 -1.6520
 3430TIP3    H210255   1.612   2.823   3.057  0.6464  0.4296  0.4700
 3431TIP3   OH210256   3.508   4.670   5.751 -0.3065  0.4984  0.1242
 3431TIP3    H110257   3.515   4.576   5.764  0.4981  0.5231 -0.0462
 3431TIP3    H210258   3.416   4.685   5.732 -0.5885 -0.1503  0.9212
 3432TIP3   OH210259   4.173   3.183   5.070  0.8127  0.1217 -0.2753
 3432TIP3    H110260   4.091   3.176   5.119  0.4992  0.7689 -0.6984
 3432TIP3    H210261   4.185   3.097   5.030 -0.9419  0.6993 -2.2259
 3433TIP3   OH210262   2.802   3.656   0.187 -0.5570  0.7127  0.4605
 3433TIP3    H110263   2.831   3.685   0.101 -1.2181  1.4103  0.4584
 3433TIP3    H210264   2.879   3.617   0.227 -0.3534 -0.0106 -0.6112
 3434TIP3   OH210265   1.729   1.844   5.333 -0.1605 -0.2546  0.3818
 3434TIP3    H110266   1.788   1.869   5.262 -1.0065  1.2538  0.1656
 3434TIP3    H210267   1.681   1.768   5.299 -0.6918  0.5655 -0.7526
 3435TIP3   OH210268   4.099   3.614   3.287  0.3474  0.3455  0.4174
 3435TIP3    H110269   4.183   3.589   3.325 -0.1912 -0.5814  1.0234
 3435TIP3    H210270   4.047   3.645   3.361 -0.6309 -1.2548  0.4292
 3436TIP3   OH210271   7.038   0.266   0.257 -1.3011 -0.0427  0.4312
 3436TIP3    H110272   7.093   0.300   0.328 -1.4540  1.2703 -0.0471
 3436TIP3    H210273   7.005   0.345   0.213 -0.9353 -0.8190 -1.3107
 3437TIP3   OH210274   0.153   1.821   3.152  0.7371 -0.2652 -0.1800
 3437TIP3    H110275   0.152   1.727   3.173  1.7018 -0.0984  0.6882
 3437TIP3    H210276   0.080   1.857   3.203 -0.4804 -0.7245 -1.5396
 3438TIP3   OH210277   6.977   5.820   3.740 -0.3082 -0.0438  0.4642
 3438TIP3    H110278   7.068   5.803   3.714 -1.1112 -1.3020 -1.7892
 3438TIP3    H210279   6.968   5.776   3.824  0.7813 -1.2335  0.0004
 3439TIP3   OH210280   3.631   4.724   2.188 -0.3247 -0.1168  0.0263
 3439TIP3    H110281   3.552   4.675   2.166  0.0941 -1.1899  0.8099
 3439TIP3    H210282   3.698   4.657   2.202  1.1041  0.8259 -1.9543
 3440TIP3   OH210283   0.391   2.891   2.643 -0.4881  0.7417  0.5915
 3440TIP3    H110284   0.440   2.955   2.696  0.0140 -0.4219  1.5728
 3440TIP3    H210285   0.383   2.814   2.699  0.0439 -0.5412 -1.0180
 3441TIP3   OH210286   4.521   1.413   3.840 -0.1610 -0.6515  0.4080
 3441TIP3    H110287   4.481   1.360   3.771  2.3887 -0.1903 -1.6181
 3441TIP3    H210288   4.535   1.353   3.913 -0.6032 -1.8440 -0.4624
 3442TIP3   OH210289   1.404   1.421   4.047  0.3792 -0.3495  0.0458
 3442TIP3    H110290   1.352   1.500   4.031  0.3205 -0.7131 -1.7551
 3442TIP3    H210291   1.359   1.353   3.997  0.2687 -1.6163  1.7941
 3443TIP3   OH210292   4.324   3.151   2.766  0.9811  0.1673 -0.6525
 3443TIP3    H110293   4.363   3.229   2.726  0.1045  0.6763 -0.5132
 3443TIP3    H210294   4.391   3.120   2.828  1.0250  1.2382 -0.1512
 3444TIP3   OH210295   1.006   4.353   3.902 -0.0268  0.5016 -0.3546
 3444TIP3    H110296   0.929   4.336   3.847 -0.4268 -0.2921  0.4250
 3444TIP3    H210297   0.971   4.362   3.990  0.9413 -2.2080  0.4168
 3445TIP3   OH210298   2.354   4.508   3.880 -0.2445 -0.0287 -0.1861
 3445TIP3    H110299   2.262   4.524   3.902  0.1800  0.4162  1.3652
 3445TIP3    H210300   2.364   4.413   3.883 -0.7777 -0.1247 -0.9873
 3446TIP3   OH210301   0.732   5.247   3.590  0.3837 -0.0699  0.3348
 3446TIP3    H110302   0.781   5.329   3.593 -2.1746  1.5679  0.6246
 3446TIP3    H210303   0.749   5.206   3.675  0.8415  0.6848  0.6182
 3447TIP3   OH210304   6.162   4.541   4.879 -0.4500 -0.6668  0.5042
 3447TIP3    H110305   6.164   4.632   4.907 -0.8357 -0.5250  0.0922
 3447TIP3    H210306   6.071   4.514   4.894 -0.7129 -0.5359 -0.7197
 3448TIP3   OH210307   2.770   1.567   2.801 -0.6456 -0.0858  0.4338
 3448TIP3    H110308   2.813   1.628   2.741 -1.7866  2.4680  1.9993
 3448TIP3    H210309   2.812   1.483   2.785 -0.4584  0.5662 -3.4162
 3449TIP3   OH210310   5.665   1.601   2.246  0.1403  0.0019 -0.3281
 3449TIP3    H110311   5.697   1.688   2.268 -0.8755  0.5565 -0.9921
 3449TIP3    H210312   5.633   1.565   2.329  0.7129  0.1863 -0.0242
 3450TIP3   OH210313   4.363   2.066   0.893  0.1705  0.2996  0.2911
 3450TIP3    H110314   4.345   2.010   0.817 -2.6649 -1.8234  2.3351
 3450TIP3    H210315   4.458   2.061   0.904  0.5893  0.0840 -2.5947
 3451TIP3   OH210316   3.489   5.076   2.602  0.1853 -0.5459  0.1287
 3451TIP3    H110317   3.432   5.140   2.643 -1.2846 -2.0562  0.5335
 3451TIP3    H210318   3.467   5.079   2.509 -1.7263 -2.1738  0.4698
 3452TIP3   OH210319   2.249   4.223   4.669  0.3186  0.6973  0.0409
 3452TIP3    H110320   2.327   4.275   4.690  0.2216  0.8388  0.0469
 3452TIP3    H210321   2.282   4.133   4.662  0.0108  0.2281  3.0671
 3453TIP3   OH210322   2.773   0.437   2.409 -0.2024  0.3363 -0.2889
 3453TIP3    H110323   2.847   0.392   2.367 -0.6094 -0.8335  0.2149
 3453TIP3    H210324   2.807   0.525   2.427  0.7530  0.1241 -0.9278
 3454TIP3   OH210325   2.556   4.270   2.400  0.6428 -0.0397 -0.0395
 3454TIP3    H110326   2.595   4.304   2.319  0.8459  0.0947  0.1124
 3454TIP3    H210327   2.476   4.320   2.411  0.1948 -0.6178 -0.5874
 3455TIP3   OH210328   6.165   5.570   1.645 -0.2241  0.0786  0.5766
 3455TIP3    H110329   6.162   5.517   1.726  0.6598 -0.1317  0.4892
 3455TIP3    H210330   6.207   5.651   1.672 -1.2260  0.5915  0.6238
 3456TIP3   OH210331   0.347   2.369   2.790  0.1334  0.2327 -0.1503
 3456TIP3    H110332   0.272   2.346   2.845 -1.6124  1.6429 -1.7819
 3456TIP3    H210333   0.416   2.308   2.815 -0.9301  0.0810  2.7355
 3457TIP3   OH210334   3.003   5.213   0.050  0.0006  0.4232 -0.2661
 3457TIP3    H110335   2.925   5.200   0.104  0.5806 -0.0872  0.4746
 3457TIP3    H210336   3.033   5.301   0.071 -1.4010  1.3762 -1.9494
 3458TIP3   OH210337   5.195   6.591   1.045 -0.1151  0.5295 -0.2790
 3458TIP3    H110338   5.159   6.607   1.133 -1.6237  0.1918 -0.8053
 3458TIP3    H210339   5.149   6.653   0.989  1.5601  1.4333 -0.7143
 3459TIP3   OH210340   6.046   3.192   0.125 -0.0689  0.1357 -0.1329
 3459TIP3    H110341   6.119   3.253   0.115  0.5229 -0.2669  1.4322
 3459TIP3    H210342   5.976   3.245   0.165 -0.2527  0.2335 -0.5675
 3460TIP3   OH210343   7.029   1.329   1.328  0.3355 -0.0079 -0.6648
 3460TIP3    H110344   7.042   1.247   1.374  2.4412 -0.1701 -1.4807
 3460TIP3    H210345   7.048   1.397   1.394 -0.0953 -0.1777 -0.3612
 3461TIP3   OH210346   4.333   4.822   1.310  0.1778 -0.3457  0.3870
 3461TIP3    H110347   4.272   4.829   1.237 -0.1516  0.2506  0.7170
 3461TIP3    H210348   4.406   4.879   1.287 -1.3327  2.4218  1.8968
 3462TIP3   OH210349   3.169   6.178   1.934  0.1072  0.3134 -0.8929
 3462TIP3    H110350   3.082   6.215   1.952  0.4101  0.7624 -0.3591
 3462TIP3    H210351   3.228   6.252   1.937  0.6978 -0.1785  0.0326
 3463TIP3   OH210352   3.472   5.482   2.971 -0.4047 -0.0165 -0.6953
 3463TIP3    H110353   3.465   5.395   3.011 -1.1971  0.2300 -0.2700
 3463TIP3    H210354   3.519   5.534   3.035  2.6358 -0.8100 -2.1317
 3464TIP3   OH210355   3.700   0.718   1.019  0.1699  1.3836 -0.4852
 3464TIP3    H110356   3.637   0.735   0.949 -2.3874  0.8239  1.5281
 3464TIP3    H210357   3.668   0.769   1.093  1.1232 -0.2156  1.1127
 3465TIP3   OH210358   1.955   3.888   5.829  0.2557 -0.1669 -0.2358
 3465TIP3    H110359   2.018   3.828   5.787  1.0891  1.4822 -1.4675
 3465TIP3    H210360   1.871   3.863   5.792  0.3913 -1.3442  0.1930
 3466TIP3   OH210361   6.899   1.800   5.348 -0.0108 -0.3387  0.0089
 3466TIP3    H110362   6.886   1.715   5.391 -1.1918 -1.4988 -2.4438
 3466TIP3    H210363   6.933   1.778   5.261  2.5605  1.9199  0.3208
 3467TIP3   OH210364   7.152   4.620   0.723 -0.3342 -0.0677 -0.7002
 3467TIP3    H110365   7.169   4.709   0.691  2.2337 -0.9786 -2.1438
 3467TIP3    H210366   7.064   4.599   0.690 -1.3206  2.1269  0.3007
 3468TIP3   OH210367   5.120   1.667   1.758  0.1277 -0.5249 -0.6579
 3468TIP3    H110368   5.153   1.700   1.674  0.4865  0.9624  0.0230
 3468TIP3    H210369   5.196   1.629   1.800 -0.3339 -2.5600 -1.5403
 3469TIP3   OH210370   2.186   3.741   0.739 -0.0723 -0.2903  0.0210
 3469TIP3    H110371   2.104   3.702   0.767 -0.4827  0.1376 -0.5660
 3469TIP3    H210372   2.251   3.706   0.800 -1.0198  1.1320  1.9512
 3470TIP3   OH210373   5.578   2.145   1.811  0.1410  0.3489 -0.2836
 3470TIP3    H110374   5.614   2.120   1.726  0.8811 -1.3629  0.4766
 3470TIP3    H210375   5.536   2.229   1.796 -2.2418 -1.1784 -3.0089
 3471TIP3   OH210376   2.441   4.343   0.313 -0.2731 -0.4157  0.2466
 3471TIP3    H110377   2.361   4.394   0.305 -1.0758 -1.8787 -2.2152
 3471TIP3    H210378   2.411   4.254   0.332  0.9774 -0.4405  2.4298
 3472TIP3   OH210379   6.892   2.771   1.852 -0.2069 -0.3526  0.0318
 3472TIP3    H110380   6.904   2.710   1.779 -3.7460 -1.7770  0.4130
 3472TIP3    H210381   6.973   2.764   1.902  1.7235 -0.4906 -2.8385
 3473TIP3   OH210382   1.623   1.570   5.306  0.0814  0.2295  0.5036
 3473TIP3    H110383   1.637   1.524   5.389 -0.9301 -1.4791 -0.2178
 3473TIP3    H210384   1.530   1.556   5.286  0.7375 -1.1879 -1.9043
 3474TIP3   OH210385   0.149   3.535   1.515  0.6847  0.2855 -0.3366
 3474TIP3    H110386   0.115   3.461   1.565  0.8636  0.4627  0.0487
 3474TIP3    H210387   0.119   3.518   1.425  0.1108  0.1229 -0.1208
 3475TIP3   OH210388   0.710   0.775   1.635 -0.2367 -0.3624 -0.3489
 3475TIP3    H110389   0.616   0.758   1.627 -0.3202  0.7337 -2.5052
 3475TIP3    H210390   0.716   0.847   1.699 -0.9735  0.3139 -1.0231
 3476TIP3   OH210391   0.306   1.024   5.306  0.1937  0.2053  0.3206
 3476TIP3    H110392   0.311   1.119   5.295 -0.9997  0.2954  0.4772
 3476TIP3    H210393   0.265   1.011   5.391 -0.5799 -0.4344 -0.1349
 3477TIP3   OH210394   6.351   3.450   2.009  0.3925  0.5365 -0.3751
 3477TIP3    H110395   6.298   3.409   1.939 -1.3811  0.8175  0.7459
 3477TIP3    H210396   6.340   3.392   2.084 -0.3921  1.9200  0.6129
 3478TIP3   OH210397   1.604   0.486   4.078 -0.5761  0.4075 -0.0821
 3478TIP3    H110398   1.558   0.549   4.022 -1.3302 -0.0895 -0.0345
 3478TIP3    H210399   1.689   0.475   4.036 -1.2015 -0.1144 -1.2694
 3479TIP3   OH210400   0.862   1.825   3.253  0.3885  0.1224  0.1896
 3479TIP3    H110401   0.833   1.916   3.248 -1.6082 -0.3104  2.3007
 3479TIP3    H210402   0.798   1.776   3.203  0.0456 -0.3709  1.1013
 3480TIP3   OH210403   7.003  -0.000   0.280 -0.0406 -0.1854 -0.4222
 3480TIP3    H110404   7.005   0.085   0.236  1.0262 -0.2814 -0.5752
 3480TIP3    H210405   6.943   0.013   0.353 -1.2578  0.1858 -1.4595
 3481TIP3   OH210406   6.239   5.069   0.495  0.1500 -0.3421  0.1505
 3481TIP3    H110407   6.162   5.037   0.543 -1.9178  1.8903 -1.4311
 3481TIP3    H210408   6.284   5.125   0.558 -0.7269  0.0002  0.4992
 3482TIP3   OH210409   1.362   5.562   4.398 -0.1057  0.1190  0.3027
 3482TIP3    H110410   1.411   5.641   4.378 -0.4916  0.0555 -0.9994
 3482TIP3    H210411   1.352   5.563   4.493 -0.0200  1.5804  0.3200
 3483TIP3   OH210412   0.463   2.560   1.979 -0.1840 -0.7439 -0.1463
 3483TIP3    H110413   0.539   2.512   1.946 -0.9111 -0.2702 -2.6914
 3483TIP3    H210414   0.497   2.647   1.999  0.0676 -0.7056 -0.7227
 3484TIP3   OH210415   5.729   0.461   4.578  0.3614 -0.0531 -0.3851
 3484TIP3    H110416   5.708   0.436   4.488 -2.5007  0.7772 -0.0273
 3484TIP3    H210417   5.700   0.387   4.631  0.1541  0.3148  0.0155
 3485TIP3   OH210418   6.555   0.023   2.899  0.1188 -0.6497  0.2477
 3485TIP3    H110419   6.588   0.029   2.809  0.4397 -0.8358  0.3537
 3485TIP3    H210420   6.510   0.106   2.913 -0.4958 -0.8777 -0.3128
 3486TIP3   OH210421   2.540   5.607   1.072 -0.3406 -0.0055  0.7498
 3486TIP3    H110422   2.487   5.600   0.992 -2.1789 -2.1073  2.0448
 3486TIP3    H210423   2.489   5.562   1.138  2.0709 -0.0767  2.6863
 3487TIP3   OH210424   2.564   4.017   0.560  0.5212 -0.1202 -0.2896
 3487TIP3    H110425   2.581   4.091   0.502  0.4806  1.3372  1.4505
 3487TIP3    H210426   2.623   3.949   0.530  0.3614  0.4868 -2.1355
 3488TIP3   OH210427   5.343   5.449   5.017 -0.0652 -0.3530 -0.1101
 3488TIP3    H110428   5.298   5.395   4.952  0.6982 -0.7539 -0.3190
 3488TIP3    H210429   5.321   5.539   4.992 -0.5642 -0.5274 -0.3359
 3489TIP3   OH210430   0.772   5.938   3.720 -0.4373  0.2150  0.3344
 3489TIP3    H110431   0.704   5.890   3.767 -0.1694 -1.0778 -0.5603
 3489TIP3    H210432   0.844   5.944   3.783 -0.5492 -0.3975  0.5309
 3490TIP3   OH210433   6.512   3.187   4.069  0.1153 -0.4454  0.1676
 3490TIP3    H110434   6.416   3.193   4.069  0.1032 -0.6043  0.3861
 3490TIP3    H210435   6.533   3.129   3.996  0.0173 -0.7835  0.4063
 3491TIP3   OH210436   4.401   1.494   5.724  0.0218  0.3792 -0.5587
 3491TIP3    H110437   4.370   1.467   5.811  2.7689  0.4478  0.5440
 3491TIP3    H210438   4.339   1.455   5.663 -3.6670  2.5267  1.4153
 3492TIP3   OH210439   2.289   1.296   5.141 -0.5740  0.1589  0.1422
 3492TIP3    H110440   2.195   1.314   5.132 -0.2051  2.2726 -0.0776
 3492TIP3    H210441   2.325   1.377   5.177  0.9936 -1.0742  1.5137
 3493TIP3   OH210442   6.287   3.425   3.834  0.5214  0.1007 -0.6463
 3493TIP3    H110443   6.196   3.454   3.826  0.3050 -0.7224 -1.3901
 3493TIP3    H210444   6.292   3.348   3.777  1.7267  0.2230 -0.7229
 3494TIP3   OH210445   5.933   4.727   0.859 -0.5183 -0.0346  0.3566
 3494TIP3    H110446   6.017   4.700   0.823 -0.2949  0.5646  0.4188
 3494TIP3    H210447   5.873   4.727   0.785 -1.1019 -2.8775  0.7062
 3495TIP3   OH210448   4.846   3.963   1.625 -0.0639 -0.3582 -0.3424
 3495TIP3    H110449   4.901   3.885   1.621 -0.8153 -1.2575  3.3801
 3495TIP3    H210450   4.900   4.028   1.669 -0.8226 -0.1758  0.3450
 3496TIP3   OH210451   3.972   5.187   3.583 -0.0816 -0.1654 -0.2976
 3496TIP3    H110452   3.950   5.184   3.490  0.1021 -3.0565 -0.3406
 3496TIP3    H210453   4.065   5.209   3.585 -0.5884  2.3385 -0.5908
 3497TIP3   OH210454   1.277   1.807   4.978 -0.5211  0.0755  0.0596
 3497TIP3    H110455   1.230   1.887   5.001 -2.1671 -0.6217 -0.6709
 3497TIP3    H210456   1.252   1.744   5.046 -0.3228 -0.1962 -0.1161
 3498TIP3   OH210457   4.891   4.810   3.606 -0.2437  0.2118 -0.4443
 3498TIP3    H110458   4.891   4.717   3.631 -0.8291  0.0483 -1.0189
 3498TIP3    H210459   4.983   4.833   3.599 -0.0921 -0.1685  0.2922
 3499TIP3   OH210460   1.842   5.920   2.901 -0.5428 -0.1261 -0.0541
 3499TIP3    H110461   1.810   5.835   2.932 -0.3777 -0.0386  0.3574
 3499TIP3    H210462   1.771   5.981   2.922 -0.3405 -0.0291  0.3486
 3500TIP3   OH210463   6.857   3.721   5.559  0.4431  0.2587  0.7254
 3500TIP3    H110464   6.921   3.696   5.492  1.7093  0.4209  1.8370
 3500TIP3    H210465   6.878   3.665   5.634 -0.9368  0.0967  1.0148
 3501TIP3   OH210466   6.722   6.020   3.103  0.0663  0.0299  0.3129
 3501TIP3    H110467   6.753   6.103   3.068  0.9310 -0.6298 -0.5358
 3501TIP3    H210468   6.626   6.026   3.098  0.1305  0.8076 -0.1130
 3502TIP3   OH210469   0.108   2.657   5.283  0.2080  0.3917  0.4077
 3502TIP3    H110470   0.115   2.713   5.205  2.0353  0.1622  0.3465
 3502TIP3    H210471   0.169   2.585   5.265 -1.3597 -1.1086  0.9235
 3503TIP3   OH210472   0.743  -0.011   2.390 -0.0903  0.2091  0.4354
 3503TIP3    H110473   0.836  -0.021   2.372 -0.0100  1.4407  0.0385
 3503TIP3    H210474   0.738   0.060   2.453 -0.7210 -0.3965  1.0785
 3504TIP3   OH210475   3.538   2.291   1.783 -0.1087 -0.4884 -0.1855
 3504TIP3    H110476   3.495   2.227   1.726 -0.9149  0.2264 -0.3852
 3504TIP3    H210477   3.504   2.376   1.755  0.9522  0.0373  0.0817
 3505TIP3   OH210478   6.730   0.732   1.937 -0.5786 -0.1939 -0.4443
 3505TIP3    H110479   6.655   0.787   1.959 -0.9164 -0.6179 -0.5028
 3505TIP3    H210480   6.775   0.719   2.020 -1.0900 -0.6852 -0.2353
 3506TIP3   OH210481   6.963   4.659   2.798 -0.3673  0.0049  0.0959
 3506TIP3    H110482   6.910   4.648   2.877 -0.1517 -0.7048  0.1517
 3506TIP3    H210483   6.996   4.748   2.803 -1.4001  0.3956  0.1592
 3507TIP3   OH210484   4.927   4.843   0.383  0.3097  0.1650  0.5904
 3507TIP3    H110485   4.938   4.875   0.294 -0.5867 -0.0329  0.4031
 3507TIP3    H210486   4.982   4.901   0.436 -1.3304  2.1147  0.2777
 3508TIP3   OH210487   2.120   6.004   3.802 -0.1992 -0.1667 -0.6173
 3508TIP3    H110488   2.122   5.917   3.762 -0.8117  0.0500 -1.1247
 3508TIP3    H210489   2.194   6.050   3.762  0.7328 -0.7557  0.3749
 3509TIP3   OH210490   5.939   0.762   3.530 -0.6029 -0.3396 -0.4158
 3509TIP3    H110491   5.931   0.699   3.602 -1.5481 -0.7409 -0.8516
 3509TIP3    H210492   5.856   0.809   3.530 -0.7006 -0.5021 -1.3885
 3510TIP3   OH210493   1.928   3.055   2.103 -0.1134 -0.5836  0.3487
 3510TIP3    H110494   1.963   3.056   2.013 -0.0647 -1.4288  0.3537
 3510TIP3    H210495   1.833   3.050   2.092 -0.2525  1.3268  0.3397
 3511TIP3   OH210496   2.369   6.369   2.991  0.9117 -0.5513 -0.2513
 3511TIP3    H110497   2.284   6.395   2.957 -0.1817 -1.1427  1.8140
 3511TIP3    H210498   2.395   6.441   3.048  0.5631 -1.4034  1.0529
 3512TIP3   OH210499   1.183   2.157   4.320  0.2886  0.0336  0.1337
 3512TIP3    H110500   1.097   2.157   4.277  0.5389 -1.1187 -0.3935
 3512TIP3    H210501   1.172   2.097   4.394  0.6736 -0.1821  0.0144
 3513TIP3   OH210502   7.104   6.344   4.252 -0.1029  0.7854  0.0910
 3513TIP3    H110503   7.090   6.250   4.263  0.1594  0.4508 -2.1070
 3513TIP3    H210504   7.018   6.379   4.230 -0.0224  0.9163 -0.0176
 3514TIP3   OH210505   5.158   0.813   5.347 -0.2450 -0.4831 -0.2664
 3514TIP3    H110506   5.154   0.900   5.309  0.8165 -0.3138 -0.0424
 3514TIP3    H210507   5.176   0.755   5.273 -1.0949 -0.5430 -0.4368
 3515TIP3   OH210508   5.100   0.315   2.241  0.3075 -0.3255 -0.5926
 3515TIP3    H110509   5.195   0.311   2.255  0.1362 -0.8002  0.4668
 3515TIP3    H210510   5.087   0.272   2.156  0.9237 -1.3375 -0.1888
 3516TIP3   OH210511   4.857   2.539   3.560  0.0999 -0.2119  0.0339
 3516TIP3    H110512   4.848   2.453   3.600  1.1363 -0.0245  0.7094
 3516TIP3    H210513   4.783   2.545   3.499  0.7603 -2.1340 -1.0523
 3517TIP3   OH210514   2.351   0.559   2.974  0.0921 -0.0217 -0.2955
 3517TIP3    H110515   2.286   0.511   2.923  0.9831  0.1657 -1.6464
 3517TIP3    H210516   2.339   0.527   3.064 -2.8177  1.0531 -0.2117
 3518TIP3   OH210517   4.862   2.772   5.280  0.1571 -0.3837  0.0659
 3518TIP3    H110518   4.849   2.747   5.371 -0.0288 -1.7446 -0.3107
 3518TIP3    H210519   4.849   2.867   5.279 -1.4633 -0.5481  1.1796
 3519TIP3   OH210520   0.183   3.285   4.053  0.3730 -0.0172  0.3815
 3519TIP3    H110521   0.159   3.375   4.027  0.8722 -0.1082 -0.4403
 3519TIP3    H210522   0.246   3.296   4.123 -1.1717  0.2395  1.7945
 3520TIP3   OH210523   3.441   5.905   2.404 -0.4346 -0.0790 -0.6411
 3520TIP3    H110524   3.448   5.825   2.353 -0.0661 -0.1382 -0.5027
 3520TIP3    H210525   3.511   5.961   2.371 -0.1588 -0.1374 -0.1770
 3521TIP3   OH210526   5.091   5.410   2.923  0.3671  0.3701 -0.1414
 3521TIP3    H110527   5.132   5.494   2.945 -1.6556  1.5677 -0.6084
 3521TIP3    H210528   5.142   5.377   2.849  0.6023  1.7372 -0.6280
 3522TIP3   OH210529   4.382   4.905   0.813  0.4793 -0.1799  0.1479
 3522TIP3    H110530   4.475   4.882   0.825  0.1249 -2.7118 -1.2252
 3522TIP3    H210531   4.374   4.920   0.719 -0.5412 -0.1156  0.2438
 3523TIP3   OH210532   5.725   3.623   3.628 -0.0181 -0.0011 -0.5026
 3523TIP3    H110533   5.632   3.609   3.649 -0.0263 -0.2844 -0.7265
 3523TIP3    H210534   5.739   3.574   3.547  0.0707  0.9135 -1.0500
 3524TIP3   OH210535   1.233   1.108   4.737 -0.3505  0.0512 -0.6972
 3524TIP3    H110536   1.289   1.172   4.692 -0.6678  0.3204 -0.7118
 3524TIP3    H210537   1.256   1.116   4.829 -0.3573  0.1569 -0.7043
 3525TIP3   OH210538   5.657   4.724   5.411 -0.4604  0.1033  0.0368
 3525TIP3    H110539   5.571   4.718   5.369  0.3191  1.1808 -1.8348
 3525TIP3    H210540   5.701   4.796   5.366  2.1955 -1.7148 -0.5762
 3526TIP3   OH210541   6.110   1.492   1.607 -0.2406 -0.0025  0.4771
 3526TIP3    H110542   6.076   1.525   1.524 -0.0819  0.1466  0.4719
 3526TIP3    H210543   6.032   1.462   1.654 -0.1922 -1.4384 -0.3071
 3527TIP3   OH210544   0.624   5.914   1.864 -0.4019  0.2568  0.5673
 3527TIP3    H110545   0.689   5.886   1.799  0.1665  1.0685  0.7783
 3527TIP3    H210546   0.550   5.856   1.849 -1.7563  2.5766 -3.2158
 3528TIP3   OH210547   0.761   2.106   0.146  0.0565 -0.1428 -0.1003
 3528TIP3    H110548   0.825   2.048   0.187  0.9433  0.0489 -1.1610
 3528TIP3    H210549   0.684   2.100   0.202  1.3773  0.5270  1.8778
 3529TIP3   OH210550   1.088   5.278   0.659 -0.5355  0.2521  0.0720
 3529TIP3    H110551   1.065   5.371   0.648  0.4327  0.4997  0.0038
 3529TIP3    H210552   1.141   5.258   0.582  1.1306  0.2725  1.1691
 3530TIP3   OH210553   6.521   1.223   4.559 -0.0395  0.3286 -0.3325
 3530TIP3    H110554   6.484   1.221   4.471 -0.0927  0.7358 -0.3189
 3530TIP3    H210555   6.446   1.212   4.618  0.0967 -0.8578 -0.3551
 3531TIP3   OH210556   4.749   4.609   1.803  0.0392  0.1258  0.1592
 3531TIP3    H110557   4.824   4.664   1.778 -0.3336  0.4471 -0.2598
 3531TIP3    H210558   4.775   4.571   1.887  0.9755 -0.3383 -0.3234
 3532TIP3   OH210559   2.417   3.311   1.087 -0.5562  0.3901  0.0984
 3532TIP3    H110560   2.354   3.258   1.135 -1.3292  1.4400  0.2712
 3532TIP3    H210561   2.462   3.249   1.030  1.2428 -1.1832  2.9393
 3533TIP3   OH210562   7.234   2.164   3.169  0.5146 -0.1158 -0.0005
 3533TIP3    H110563   7.178   2.229   3.211 -1.3689 -1.1349 -0.7878
 3533TIP3    H210564   7.199   2.080   3.199  0.6853 -0.8067 -1.6246
 3534TIP3   OH210565   4.057   1.070   0.484  0.4047 -0.3433  0.4539
 3534TIP3    H110566   4.095   1.006   0.545  0.4849  0.2284  1.0112
 3534TIP3    H210567   3.984   1.023   0.444  1.6686 -1.4559 -0.6315
 3535TIP3   OH210568   2.402   1.251   4.534  0.3734  0.3870  0.0503
 3535TIP3    H110569   2.336   1.282   4.595 -0.0672 -2.1772  0.9794
 3535TIP3    H210570   2.355   1.194   4.474  1.3743  0.2735 -0.6575
 3536TIP3   OH210571   1.137   6.145   3.532 -0.5531  0.3809 -0.8302
 3536TIP3    H110572   1.184   6.124   3.612 -0.5609  0.1503 -0.8865
 3536TIP3    H210573   1.162   6.076   3.470 -0.6300  0.4967 -0.9928
 3537TIP3   OH210574   0.434   0.625   4.851 -0.0531  0.2217 -0.4656
 3537TIP3    H110575   0.522   0.596   4.874 -0.3137 -1.3316 -1.2194
 3537TIP3    H210576   0.437   0.635   4.755 -0.3468  1.5042 -0.3591
 3538TIP3   OH210577   6.518   2.481   1.024 -0.4098  0.4214  0.8554
 3538TIP3    H110578   6.567   2.540   0.968  1.7589 -0.6296  1.5294
 3538TIP3    H210579   6.430   2.479   0.986  0.5076  1.0632 -1.4650
 3539TIP3   OH210580   2.377   2.816   4.323 -0.2244 -0.1514 -0.0696
 3539TIP3    H110581   2.409   2.793   4.236  1.9021  1.4973  0.1881
 3539TIP3    H210582   2.282   2.823   4.313 -0.2365 -1.9018 -1.7424
 3540TIP3   OH210583   4.834   4.501   0.651  0.2943 -0.0225  0.1530
 3540TIP3    H110584   4.890   4.426   0.669 -0.8121 -0.6122  1.2248
 3540TIP3    H210585   4.794   4.523   0.735  0.2736  1.5080 -0.2222
 3541TIP3   OH210586   4.462   6.452   5.711 -0.5810 -0.5408 -0.6296
 3541TIP3    H110587   4.518   6.453   5.788 -2.0841 -2.7338  0.5764
 3541TIP3    H210588   4.409   6.532   5.718 -0.0443 -0.2487  0.1005
 3542TIP3   OH210589   5.498   2.558   4.998  0.1453  0.0852 -0.3267
 3542TIP3    H110590   5.446   2.639   5.002 -0.9765 -0.6310  0.1990
 3542TIP3    H210591   5.589   2.588   5.000 -0.2465  1.3309  0.1762
 3543TIP3   OH210592   5.261   6.432   2.189  0.1544 -0.3569  0.0290
 3543TIP3    H110593   5.270   6.438   2.094 -4.4222  1.2972 -0.5594
 3543TIP3    H210594   5.285   6.519   2.221 -0.8732 -0.0311 -0.0302
 3544TIP3   OH210595   3.490   5.239   4.943  0.1668 -0.4235  0.5855
 3544TIP3    H110596   3.497   5.327   4.980  0.6285 -0.3106  0.2377
 3544TIP3    H210597   3.398   5.215   4.956  0.0607  0.0706  0.7718
 3545TIP3   OH210598   4.609   5.887   1.474 -0.0369 -0.1126 -0.0583
 3545TIP3    H110599   4.579   5.977   1.474 -1.5516 -0.5684  1.5079
 3545TIP3    H210600   4.549   5.841   1.415  0.7973 -0.1013 -0.9397
 3546TIP3   OH210601   3.736   0.436   2.040  0.7064  0.3114 -0.1538
 3546TIP3    H110602   3.721   0.364   1.979  1.8063  0.2240 -0.3448
 3546TIP3    H210603   3.693   0.408   2.121 -0.7587  0.4268 -0.8658
 3547TIP3   OH210604   1.295   2.504   3.960 -0.1099  0.7860 -0.0536
 3547TIP3    H110605   1.286   2.420   3.915  2.7260 -0.5120  1.5211
 3547TIP3    H210606   1.208   2.523   3.994 -0.8980 -1.3864 -0.6908
 3548TIP3   OH210607   1.231   6.251   4.335 -0.1131 -0.0316  0.4070
 3548TIP3    H110608   1.146   6.280   4.369 -0.4947  1.7530 -1.8225
 3548TIP3    H210609   1.287   6.329   4.342  0.8349 -0.6809  0.2444
 3549TIP3   OH210610   0.916   5.417   4.153 -0.4734  0.1366 -0.0435
 3549TIP3    H110611   0.832   5.378   4.129 -0.8931  0.5896  0.6520
 3549TIP3    H210612   0.974   5.342   4.168 -1.3608 -0.2761  1.6151
 3550TIP3   OH210613   2.418   3.652   3.963 -0.2220 -0.2449 -0.3185
 3550TIP3    H110614   2.378   3.723   3.913 -0.0533  1.3312  1.6695
 3550TIP3    H210615   2.509   3.681   3.976  0.1541 -1.3555 -0.4031
 3551TIP3   OH210616   1.605   4.551   5.008  0.4111 -0.0501 -0.4948
 3551TIP3    H110617   1.696   4.573   5.031  0.0073  1.1147  0.0295
 3551TIP3    H210618   1.552   4.616   5.054 -0.6920 -0.6441 -0.8993
 3552TIP3   OH210619   2.573   0.582   4.716 -0.5012  0.3668  0.2897
 3552TIP3    H110620   2.626   0.509   4.749 -0.0185  0.8430  0.5851
 3552TIP3    H210621   2.483   0.552   4.726 -0.2814 -0.8745 -1.2163
 3553TIP3   OH210622   5.222   1.573   4.740 -0.7057 -0.4618  0.0851
 3553TIP3    H110623   5.213   1.640   4.673 -0.8348 -1.4607 -0.9183
 3553TIP3    H210624   5.202   1.490   4.695  0.8176 -1.3398  0.9433
 3554TIP3   OH210625   3.190   6.807   3.755 -0.1027 -0.0965 -0.3219
 3554TIP3    H110626   3.115   6.779   3.701  0.0307  1.2642 -1.2578
 3554TIP3    H210627   3.247   6.730   3.757 -2.1434 -1.7279  1.6860
 3555TIP3   OH210628   4.783   1.346   3.893 -0.1871  0.0087  0.5513
 3555TIP3    H110629   4.822   1.415   3.947  0.0978  0.6262 -0.4149
 3555TIP3    H210630   4.706   1.388   3.853 -0.9185 -0.7105  1.1728
 3556TIP3   OH210631   2.806   1.930   2.454 -0.0119 -1.0190  0.5103
 3556TIP3    H110632   2.894   1.932   2.415 -0.2883 -1.1779 -0.1253
 3556TIP3    H210633   2.768   2.015   2.432 -0.5228 -1.4776 -0.3934
 3557TIP3   OH210634   0.342   2.560   1.662  0.4151 -0.1371 -0.0695
 3557TIP3    H110635   0.411   2.613   1.704 -0.5027 -0.5931  2.1739
 3557TIP3    H210636   0.378   2.472   1.660 -0.0956 -0.3947  1.1971
 3558TIP3   OH210637   4.303   0.776   5.825  0.0582 -0.1506 -0.1250
 3558TIP3    H110638   4.287   0.817   5.910  1.0200 -1.0716  0.5226
 3558TIP3    H210639   4.394   0.799   5.804  0.0778 -0.5873 -0.5323
 3559TIP3   OH210640   3.075   4.230   1.786  0.0892 -0.4118  0.3721
 3559TIP3    H110641   3.028   4.148   1.770  0.1203 -0.1474 -1.2238
 3559TIP3    H210642   3.069   4.243   1.881 -1.9984 -1.0271  0.3792
 3560TIP3   OH210643   1.905   5.717   3.670  0.4943  0.0195  0.4956
 3560TIP3    H110644   2.000   5.712   3.653  0.0618  0.2935 -2.6222
 3560TIP3    H210645   1.867   5.650   3.613 -1.1864 -0.6939  2.3474
 3561TIP3   OH210646   6.221   0.247   4.937 -0.5038 -0.4791 -0.2798
 3561TIP3    H110647   6.159   0.187   4.896 -0.4589  0.3310 -1.5813
 3561TIP3    H210648   6.292   0.257   4.873 -0.5051  0.9387 -0.1013
 3562TIP3   OH210649   5.099   3.733   4.038  0.2903 -0.3334  0.6989
 3562TIP3    H110650   5.131   3.654   4.081 -0.6366 -1.5077 -0.6753
 3562TIP3    H210651   5.004   3.728   4.047  0.1295 -0.1825 -0.7365
 3563TIP3   OH210652   0.403   0.471   0.405 -0.1061  0.4629  0.0369
 3563TIP3    H110653   0.402   0.560   0.371  0.3359 -0.4071 -2.4488
 3563TIP3    H210654   0.494   0.442   0.395  0.0505  0.0820  1.9803
 3564TIP3   OH210655   1.800   4.679   4.810  0.0051  0.3116  0.0965
 3564TIP3    H110656   1.812   4.640   4.896  0.6207 -0.6219 -0.3928
 3564TIP3    H210657   1.759   4.764   4.827  0.2228  0.1889  1.3078
 3565TIP3   OH210658   5.940   0.254   5.921 -0.4817  0.1927  0.5429
 3565TIP3    H110659   5.911   0.345   5.923  0.1912  0.4723 -0.8490
 3565TIP3    H210660   5.951   0.235   5.828  0.4466 -0.9693  0.8644
 3566TIP3   OH210661   3.772   0.193   4.661  0.0251  0.0716  0.4434
 3566TIP3    H110662   3.819   0.174   4.742  0.5797  1.8276  0.5850
 3566TIP3    H210663   3.757   0.287   4.664 -1.2603 -0.0611 -0.8194
 3567TIP3   OH210664   6.598   1.426   5.632  0.0418 -0.3217  0.2052
 3567TIP3    H110665   6.508   1.457   5.622  0.6435  1.4803  0.0969
 3567TIP3    H210666   6.608   1.408   5.726  0.3225  2.0681  0.6931
 3568TIP3   OH210667   1.473   6.442   3.981 -0.5221 -0.0365 -0.2780
 3568TIP3    H110668   1.498   6.406   3.896  0.1060  0.2829 -0.2354
 3568TIP3    H210669   1.523   6.390   4.044 -0.7965 -0.1077 -0.1186
 3569TIP3   OH210670   3.775   1.435   1.863  0.1525 -0.4444 -0.0873
 3569TIP3    H110671   3.800   1.527   1.853  0.6459 -0.5906 -0.2236
 3569TIP3    H210672   3.680   1.438   1.877 -0.4275 -0.0995 -3.3013
 3570TIP3   OH210673   0.410   4.373   0.493 -0.2096 -0.0309 -0.1517
 3570TIP3    H110674   0.452   4.361   0.578 -0.4916 -1.3631 -0.1700
 3570TIP3    H210675   0.337   4.433   0.510 -0.5830 -0.7040  0.6679
 3571TIP3   OH210676   0.252   5.974   2.262  0.2025 -0.6664 -0.1199
 3571TIP3    H110677   0.290   5.894   2.297 -0.0044 -1.1780 -1.0339
 3571TIP3    H210678   0.159   5.968   2.285  0.4304  0.0215  1.0799
 3572TIP3   OH210679   1.709   4.093   3.633 -0.6673 -0.8935 -0.4397
 3572TIP3    H110680   1.636   4.083   3.573  0.1591 -2.6903 -1.2225
 3572TIP3    H210681   1.769   4.152   3.588 -1.1518 -0.2710 -0.2737
 3573TIP3   OH210682   1.777   5.753   5.184 -0.2699  0.4196  0.6482
 3573TIP3    H110683   1.860   5.800   5.175 -0.0550  0.2825  1.7343
 3573TIP3    H210684   1.761   5.752   5.279 -0.7086 -0.9473  0.5717
 3574TIP3   OH210685   4.232   2.593   3.411 -0.0142 -0.4086  0.2012
 3574TIP3    H110686   4.285   2.631   3.341  0.8745 -1.0323  0.5191
 3574TIP3    H210687   4.173   2.532   3.368  0.6781 -0.9531  0.0043
 3575TIP3   OH210688   3.357   4.956   5.353  0.0660  0.0022  0.6958
 3575TIP3    H110689   3.342   5.009   5.275 -3.0163 -0.3084  0.9439
 3575TIP3    H210690   3.445   4.921   5.342  0.4679  1.5365 -1.6702
 3576TIP3   OH210691   0.047   1.791   1.182 -0.1023 -0.5951  0.4706
 3576TIP3    H110692   0.029   1.804   1.275 -0.9989 -0.9375  0.3521
 3576TIP3    H210693   0.002   1.710   1.160  2.2011 -1.8946  0.3036
 3577TIP3   OH210694   4.487   3.177   0.640 -0.4647 -0.1449  0.7093
 3577TIP3    H110695   4.503   3.150   0.731  0.3760 -1.1834  0.2709
 3577TIP3    H210696   4.451   3.099   0.598 -2.4417  0.8162  0.5347
 3578TIP3   OH210697   6.777   6.158   0.781  0.7051 -0.1276  0.0787
 3578TIP3    H110698   6.733   6.078   0.752 -0.1812  0.5982 -0.6349
 3578TIP3    H210699   6.715   6.200   0.841 -0.1688  1.4946 -1.8294
 3579TIP3   OH210700   3.345   5.301   0.345  0.6646  0.3803  0.1768
 3579TIP3    H110701   3.299   5.374   0.304 -0.3160 -0.3920 -0.1412
 3579TIP3    H210702   3.292   5.280   0.423  0.4932 -0.4748 -0.1564
 3580TIP3   OH210703   6.219   2.071   5.188 -0.3421  0.3058  0.4231
 3580TIP3    H110704   6.290   2.058   5.125 -0.3971  1.5230  0.0829
 3580TIP3    H210705   6.202   2.165   5.186 -1.6119  0.1091  0.8819
 3581TIP3   OH210706   3.744   2.002   4.687  0.0165  0.1607  0.2634
 3581TIP3    H110707   3.681   1.933   4.669  0.4184 -0.0304 -0.4068
 3581TIP3    H210708   3.689   2.077   4.714 -0.4964 -0.0299 -0.2178
 3582TIP3   OH210709   1.206   5.565   1.875 -0.3793 -0.3987 -0.0023
 3582TIP3    H110710   1.233   5.474   1.863 -0.1346 -0.4065  0.5924
 3582TIP3    H210711   1.197   5.600   1.786  1.3280 -0.4605 -0.2209
 3583TIP3   OH210712   1.762   6.216   5.131  0.1139 -0.1114 -0.6496
 3583TIP3    H110713   1.708   6.274   5.184  1.0740  0.8560 -0.6954
 3583TIP3    H210714   1.742   6.240   5.041 -1.6899 -1.9130 -0.7968
 3584TIP3   OH210715   5.931   1.528   0.198 -0.0255  0.1502  0.1139
 3584TIP3    H110716   5.998   1.516   0.131  0.1002 -0.1740  0.2962
 3584TIP3    H210717   5.852   1.489   0.161  0.0869 -0.1853  0.2228
 3585TIP3   OH210718   1.769   0.548   3.725 -0.1508 -0.4429  0.1988
 3585TIP3    H110719   1.836   0.615   3.712  0.5443 -1.1978 -0.2148
 3585TIP3    H210720   1.692   0.596   3.755 -0.3008  0.8070 -1.9719
 3586TIP3   OH210721   0.343   1.986   3.730  0.2443 -0.2044  0.1220
 3586TIP3    H110722   0.333   2.075   3.698  2.4062  0.1838  0.3862
 3586TIP3    H210723   0.299   1.932   3.665 -1.0299  1.0237 -0.0846
 3587TIP3   OH210724   3.360   5.783   1.145 -0.1702 -0.5007  0.2738
 3587TIP3    H110725   3.318   5.703   1.176 -0.3513 -0.7717 -0.6440
 3587TIP3    H210726   3.441   5.753   1.103 -0.5718 -0.2794 -0.6834
 3588TIP3   OH210727   1.858   4.034   5.469 -0.2757 -0.2403  0.5173
 3588TIP3    H110728   1.779   4.009   5.421  0.6280 -0.1286 -1.1125
 3588TIP3    H210729   1.900   3.951   5.489  0.5152 -0.2538 -1.0171
 3589TIP3   OH210730   6.475   6.039   3.812  0.2377 -0.1408 -0.1230
 3589TIP3    H110731   6.428   6.036   3.895 -0.9508  0.4828 -0.7592
 3589TIP3    H210732   6.407   6.037   3.745  1.0736  1.2846 -1.0713
 3590TIP3   OH210733   6.878   4.215   5.777  0.1186 -0.1384 -0.3421
 3590TIP3    H110734   6.793   4.220   5.820  1.0168 -1.3585  1.7255
 3590TIP3    H210735   6.929   4.286   5.816  0.3288  0.0513 -0.9506
 3591TIP3   OH210736   0.910   3.556   4.841 -0.2605  0.1671 -0.9616
 3591TIP3    H110737   0.836   3.500   4.863  0.4005  0.1613  1.4927
 3591TIP3    H210738   0.917   3.617   4.914  0.7079  1.7268 -2.2835
 3592TIP3   OH210739   0.739   3.737   4.083  0.3300 -0.0883  0.4777
 3592TIP3    H110740   0.825   3.702   4.063  0.3476  0.2858 -0.1376
 3592TIP3    H210741   0.706   3.683   4.155  1.0199 -0.3138  0.6231
 3593TIP3   OH210742   1.168   2.862   0.540  0.5792  0.1632 -0.1359
 3593TIP3    H110743   1.092   2.889   0.488  1.0781  1.3960 -0.2654
 3593TIP3    H210744   1.132   2.836   0.625  0.0722  1.5737  0.1019
 3594TIP3   OH210745   4.752   1.649   3.939 -0.1311  0.2312 -0.6158
 3594TIP3    H110746   4.847   1.635   3.937 -0.1538  0.0437 -0.4612
 3594TIP3    H210747   4.727   1.654   3.847 -0.4708 -3.3416 -0.8694
 3595TIP3   OH210748   5.840   4.056   0.102  0.0925  0.9599 -0.0433
 3595TIP3    H110749   5.899   4.121   0.140 -0.5990  1.6124 -0.0581
 3595TIP3    H210750   5.796   4.102   0.030  1.5645 -0.3360 -1.8456
 3596TIP3   OH210751   5.159   0.188   0.455  0.2225 -0.2798  0.1089
 3596TIP3    H110752   5.169   0.229   0.541  1.0749 -1.1565  0.4484
 3596TIP3    H210753   5.120   0.256   0.400  0.0106  0.4111  1.0927
 3597TIP3   OH210754   7.059   0.158   3.916  0.3258  0.6710 -0.5020
 3597TIP3    H110755   7.055   0.229   3.852  0.3499 -0.7644 -2.1740
 3597TIP3    H210756   6.992   0.096   3.888  0.3035  0.0112  0.9134
 3598TIP3   OH210757   1.138   6.543   5.011  0.6320  0.5381 -0.0960
 3598TIP3    H110758   1.042   6.545   5.009  0.6135  1.6729 -2.9908
 3598TIP3    H210759   1.161   6.460   4.969  0.9242  0.5826 -0.0273
 3599TIP3   OH210760   5.985   5.176   1.781 -0.0874 -0.8627  0.2947
 3599TIP3    H110761   5.972   5.082   1.791 -1.4163 -0.6746  0.4507
 3599TIP3    H210762   5.901   5.215   1.804 -0.1018  0.2598 -1.4863
 3600TIP3   OH210763   3.314   6.306   1.209 -0.3707 -0.0084 -0.1307
 3600TIP3    H110764   3.396   6.291   1.163 -0.4100 -2.6796  0.4906
 3600TIP3    H210765   3.247   6.308   1.140 -0.1749 -1.7359 -0.4191
 3601TIP3   OH210766   3.747   0.693   4.477  0.0724 -0.2303 -0.2199
 3601TIP3    H110767   3.698   0.775   4.478 -0.3694 -0.4920  1.2630
 3601TIP3    H210768   3.836   0.719   4.452  0.1565  0.8441  1.1135
 3602TIP3   OH210769   2.712   3.613   2.432  0.2112  0.3366 -0.2701
 3602TIP3    H110770   2.726   3.520   2.448  2.4275  0.7745  0.8284
 3602TIP3    H210771   2.704   3.651   2.519  0.6691  1.3209 -0.6434
 3603TIP3   OH210772   0.325   1.743   2.163 -0.2877  0.2130  0.2011
 3603TIP3    H110773   0.233   1.732   2.137 -0.2410  2.0624 -0.9382
 3603TIP3    H210774   0.372   1.676   2.114 -1.0515 -0.9865  1.0685
 3604TIP3   OH210775   1.707   2.387   1.127  0.4433 -0.5825 -0.5134
 3604TIP3    H110776   1.653   2.321   1.172 -0.9394  0.5963 -0.3671
 3604TIP3    H210777   1.757   2.337   1.062  0.1880 -1.9021  0.2641
 3605TIP3   OH210778   5.059   2.598   1.643 -0.2931  0.3947 -0.0874
 3605TIP3    H110779   5.102   2.648   1.574  1.3008 -0.3865  0.2813
 3605TIP3    H210780   5.044   2.511   1.604 -1.1015  0.5052 -0.0434
 3606TIP3   OH210781   4.294   4.638   1.982 -0.0098  0.2969  0.1674
 3606TIP3    H110782   4.272   4.582   1.908  0.8263  1.0098 -0.6333
 3606TIP3    H210783   4.299   4.726   1.945 -0.3850  0.7814  1.2273
 3607TIP3   OH210784   6.555   1.885   0.973 -0.2513  0.4450 -0.2734
 3607TIP3    H110785   6.467   1.848   0.962 -0.0767  0.1707 -0.7901
 3607TIP3    H210786   6.596   1.874   0.887 -0.1193  1.6472 -0.3731
 3608TIP3   OH210787   6.911   4.749   4.144 -0.7114  0.1210 -0.4046
 3608TIP3    H110788   6.847   4.678   4.147  1.1811 -1.8203 -2.3200
 3608TIP3    H210789   6.984   4.714   4.094  0.8615  3.0583 -0.4241
 3609TIP3   OH210790   4.345   5.375   2.253 -0.3240  0.0052  0.0366
 3609TIP3    H110791   4.389   5.458   2.266 -0.3410 -0.0247  0.2920
 3609TIP3    H210792   4.260   5.398   2.214  0.0568  0.0349 -0.7943
 3610TIP3   OH210793   3.976   2.900   1.977 -0.0329  0.1570  0.1773
 3610TIP3    H110794   3.969   2.820   1.926  0.0244  0.4255 -0.2560
 3610TIP3    H210795   3.900   2.898   2.036 -0.8601  0.4867 -0.8423
 3611TIP3   OH210796   3.066   2.784   3.576 -0.0420  0.0833 -0.1789
 3611TIP3    H110797   2.995   2.832   3.619 -0.7523  1.2828 -2.5236
 3611TIP3    H210798   3.110   2.849   3.522  0.5108 -1.4042 -1.6077
 3612TIP3   OH210799   6.012   2.052   4.545  0.3522 -0.4944  0.2354
 3612TIP3    H110800   5.934   2.091   4.584  0.1864  0.5387 -1.0688
 3612TIP3    H210801   6.080   2.060   4.613  0.3448  2.1471  0.0298
 3613TIP3   OH210802   0.740   6.519   3.174 -0.1798 -0.3552  0.0867
 3613TIP3    H110803   0.649   6.491   3.186  0.0768 -1.8443 -1.0682
 3613TIP3    H210804   0.769   6.543   3.262 -1.7269  0.3389  0.4440
 3614TIP3   OH210805   2.816   5.883   5.415  0.4198 -0.2095  0.0148
 3614TIP3    H110806   2.778   5.808   5.368  1.2065 -0.8840  0.4269
 3614TIP3    H210807   2.777   5.880   5.502 -0.7092  0.7859 -0.4273
 3615TIP3   OH210808   2.728  -0.007   5.440 -0.6157 -0.0771  0.0518
 3615TIP3    H110809   2.747   0.052   5.512 -1.5002 -0.6469  0.7769
 3615TIP3    H210810   2.813  -0.032   5.405 -0.1901  0.4050  0.7322
 3616TIP3   OH210811   2.598   1.558   2.545 -0.1822  0.3648  0.0222
 3616TIP3    H110812   2.529   1.491   2.553  0.3395  0.0421  3.1959
 3616TIP3    H210813   2.680   1.508   2.544  0.1262  0.8680 -0.5840
 3617TIP3   OH210814   5.305   0.502   2.094  0.6715 -0.1272  0.1565
 3617TIP3    H110815   5.226   0.543   2.130  2.0548  0.8865  2.2515
 3617TIP3    H210816   5.304   0.413   2.131  1.0759  0.2683  1.1591
 3618TIP3   OH210817   0.532   2.761   5.220 -0.1468 -0.1174  0.5192
 3618TIP3    H110818   0.604   2.751   5.283  0.9409 -1.1323 -0.7997
 3618TIP3    H210819   0.557   2.704   5.147  0.2098  3.1685 -2.2157
 3619TIP3   OH210820   5.374   5.860   1.091  0.0126 -0.5734 -0.1645
 3619TIP3    H110821   5.443   5.905   1.042 -0.7151  0.1188 -0.5863
 3619TIP3    H210822   5.408   5.772   1.106 -0.6139 -1.5984 -3.8805
 3620TIP3   OH210823   6.498   3.070   2.069 -0.1629  0.6599  0.3930
 3620TIP3    H110824   6.580   3.107   2.038 -1.0526  0.9880 -1.7884
 3620TIP3    H210825   6.505   2.976   2.049 -0.3965  0.7294 -0.0341
 3621TIP3   OH210826   0.646   0.785   0.669  0.3483  0.4020  0.1675
 3621TIP3    H110827   0.662   0.853   0.734  1.1482 -0.5326  0.9839
 3621TIP3    H210828   0.619   0.709   0.720  0.3674 -0.1624 -0.6479
 3622TIP3   OH210829   2.073   4.510   1.040 -0.5725  0.2419 -0.4605
 3622TIP3    H110830   2.067   4.563   1.119  0.0941 -1.1278  0.5444
 3622TIP3    H210831   2.163   4.521   1.010 -0.7589  0.5800 -0.9015
 3623TIP3   OH210832   3.103   4.867   2.218  0.6777  0.5328  0.6832
 3623TIP3    H110833   3.115   4.918   2.298  0.5549 -0.6898  1.5044
 3623TIP3    H210834   3.040   4.799   2.242  0.4813  0.2675 -0.5182
 3624TIP3   OH210835   5.217   1.058   5.233  0.2359 -0.0464 -0.0149
 3624TIP3    H110836   5.250   1.127   5.174 -1.9873  0.4661 -0.7456
 3624TIP3    H210837   5.197   1.105   5.314  0.7529 -0.2555  0.2378
 3625TIP3   OH210838   6.483   6.150   2.039 -0.0821 -0.2328 -0.8093
 3625TIP3    H110839   6.500   6.236   2.002 -1.3211  0.0892 -0.6906
 3625TIP3    H210840   6.538   6.090   1.989 -1.3154  0.2448 -2.8467
 3626TIP3   OH210841   7.120   0.099   3.415  0.0893 -0.4854 -0.0021
 3626TIP3    H110842   7.118   0.058   3.501 -0.7087 -2.0928 -0.7249
 3626TIP3    H210843   7.210   0.085   3.384  0.0047 -1.1534  0.0313
 3627TIP3   OH210844   4.111   0.346   4.662  0.0768  0.0681 -0.1854
 3627TIP3    H110845   4.027   0.388   4.681 -0.2339 -0.5037 -0.2964
 3627TIP3    H210846   4.176   0.413   4.683 -0.3498  0.1361  0.9862
 3628TIP3   OH210847   4.881   5.094   1.061 -1.2572  0.3327 -0.7110
 3628TIP3    H110848   4.948   5.107   0.994 -0.6084 -0.0728 -0.1507
 3628TIP3    H210849   4.863   5.000   1.059  0.9455 -0.2412  1.6871
 3629TIP3   OH210850   7.040   1.697   5.817  0.4078 -0.2338 -0.2132
 3629TIP3    H110851   6.946   1.711   5.831  0.5432 -0.4346  0.9892
 3629TIP3    H210852   7.062   1.625   5.875  1.7772  1.3614  1.3693
 3630TIP3   OH210853   5.529   6.530   5.245  0.1197 -0.1122 -0.3813
 3630TIP3    H110854   5.494   6.502   5.160  0.1793 -0.5395 -0.2647
 3630TIP3    H210855   5.581   6.456   5.276  0.2428  0.1082 -0.0503
 3631TIP3   OH210856   4.653   1.020   2.030 -0.2374  0.2166 -0.0452
 3631TIP3    H110857   4.558   1.021   2.015 -0.2940  1.2075  0.3042
 3631TIP3    H210858   4.683   1.104   1.997  0.7756 -0.7244 -1.6196
 3632TIP3   OH210859   0.859   5.793   1.723 -0.6562 -0.2523 -0.1144
 3632TIP3    H110860   0.843   5.710   1.678 -0.6262  0.1789 -0.9425
 3632TIP3    H210861   0.867   5.857   1.652  1.2879  0.1400  0.4022
 3633TIP3   OH210862   5.741   3.857   3.766  0.2093 -0.2305  0.7429
 3633TIP3    H110863   5.746   3.781   3.708  0.1226  0.9316 -0.8584
 3633TIP3    H210864   5.813   3.844   3.829  0.9162 -1.0602 -0.2032
 3634TIP3   OH210865   2.619   3.218   2.833 -0.5826 -0.7158  0.1434
 3634TIP3    H110866   2.628   3.199   2.740  0.3674 -1.6908  0.4029
 3634TIP3    H210867   2.527   3.241   2.845 -0.4506  0.6342 -1.2309
 3635TIP3   OH210868   6.241   4.680   2.932 -0.0175  0.9657 -0.7742
 3635TIP3    H110869   6.170   4.683   2.868 -0.1710  1.3851 -0.5904
 3635TIP3    H210870   6.210   4.734   3.005 -0.0394  0.1082 -0.1412
 3636TIP3   OH210871   1.462   0.681   1.585 -0.1012  0.6900 -0.1838
 3636TIP3    H110872   1.399   0.731   1.637  0.3540 -1.7919  3.0665
 3636TIP3    H210873   1.468   0.596   1.630  2.7066 -0.5407 -2.5894
 3637TIP3   OH210874   2.984   2.318   2.217 -0.1826 -0.5229 -0.1314
 3637TIP3    H110875   2.892   2.342   2.225  0.0737  0.0154  1.5570
 3637TIP3    H210876   3.028   2.399   2.190 -0.1016 -0.5861 -0.1896
 3638TIP3   OH210877   3.757   0.562   2.870  0.3908  0.7411 -0.1223
 3638TIP3    H110878   3.766   0.575   2.776  1.9157  0.0622 -0.0853
 3638TIP3    H210879   3.679   0.507   2.879 -0.4080  1.7122 -0.8957
 3639TIP3   OH210880   3.611   0.953   5.015 -0.0955  0.0901 -0.3963
 3639TIP3    H110881   3.600   1.048   5.006 -0.5234  0.1342  0.5292
 3639TIP3    H210882   3.530   0.917   4.978 -0.1046  0.1003 -0.3865
 3640TIP3   OH210883   3.445   4.719   4.264 -0.4139 -0.4778 -0.4337
 3640TIP3    H110884   3.397   4.790   4.307 -0.1099 -0.8610  0.5502
 3640TIP3    H210885   3.534   4.753   4.255  0.0690 -1.1937  1.2358
 3641TIP3   OH210886   2.059   5.699   2.916 -0.0569 -0.1521  0.1096
 3641TIP3    H110887   2.095   5.662   2.835  1.5964  1.7869 -0.1180
 3641TIP3    H210888   2.082   5.636   2.984 -0.8127 -1.4431 -0.7680
 3642TIP3   OH210889   2.427   0.341   2.737  0.4102 -0.0684 -0.0212
 3642TIP3    H110890   2.460   0.291   2.812  0.7555 -2.5452 -1.7057
 3642TIP3    H210891   2.333   0.346   2.752  0.4157 -0.9047  0.3821
 3643TIP3   OH210892   2.284   4.552   2.122  0.2883 -0.0077 -0.3305
 3643TIP3    H110893   2.260   4.492   2.051 -2.0352  1.3093 -0.7568
 3643TIP3    H210894   2.276   4.498   2.201 -0.4047 -0.6355 -0.8088
 3644TIP3   OH210895   2.724   4.938   0.054 -0.8134  0.5882 -0.1645
 3644TIP3    H110896   2.754   4.978  -0.028  0.2634  0.4198  0.1261
 3644TIP3    H210897   2.629   4.934   0.046 -0.7399  0.8044 -1.2995
 3645TIP3   OH210898   3.266   3.888   0.492  0.3631 -0.5488  0.2825
 3645TIP3    H110899   3.327   3.906   0.420 -1.3251 -0.3325 -1.1500
 3645TIP3    H210900   3.319   3.842   0.557  2.2384  0.2982 -0.5522
 3646TIP3   OH210901   0.342   3.319   5.405  0.1215 -0.5290 -0.0246
 3646TIP3    H110902   0.263   3.304   5.457 -0.7461  1.5987 -0.6073
 3646TIP3    H210903   0.365   3.233   5.370 -0.6887 -1.5755  1.8596
 3647TIP3   OH210904   5.331   2.155   0.122 -0.1278 -0.6959  0.0361
 3647TIP3    H110905   5.241   2.126   0.135  0.1165 -0.9307  1.3943
 3647TIP3    H210906   5.328   2.250   0.138 -0.3585 -0.4797 -1.2323
 3648TIP3   OH210907   5.362   3.910   3.461 -0.9295  0.3120 -0.2445
 3648TIP3    H110908   5.397   3.939   3.545 -0.8873 -0.6703  0.0948
 3648TIP3    H210909   5.271   3.889   3.479 -1.3931  1.6892 -0.8469
 3649TIP3   OH210910   3.926   2.369   4.891  0.2494  0.4000  0.6187
 3649TIP3    H110911   3.868   2.431   4.935  0.4981  1.9317 -1.0898
 3649TIP3    H210912   3.875   2.338   4.815  1.3471  1.1581 -0.4556
 3650TIP3   OH210913   1.402   4.995   3.537 -0.0718  0.2192  0.0422
 3650TIP3    H110914   1.413   5.015   3.444 -0.4287 -0.0004 -0.0463
 3650TIP3    H210915   1.492   4.991   3.570  0.0807 -0.2411 -0.4068
 3651TIP3   OH210916   5.886   2.020   1.961 -0.2291 -0.2444 -0.0965
 3651TIP3    H110917   5.800   2.044   1.996 -0.5618 -0.0602 -1.0007
 3651TIP3    H210918   5.916   2.099   1.916 -0.0500 -0.6257 -0.6606
 3652TIP3   OH210919   0.858   3.011   4.202  0.4246 -0.6348  0.0065
 3652TIP3    H110920   0.835   2.969   4.119 -0.7658  1.1316 -0.6219
 3652TIP3    H210921   0.875   3.102   4.178  1.2908 -0.3594  1.5436
 3653TIP3   OH210922   2.261   6.617   3.329  1.2349 -0.4981  0.1459
 3653TIP3    H110923   2.342   6.600   3.280  1.4309 -0.9677  0.6226
 3653TIP3    H210924   2.191   6.598   3.267  1.4859 -0.7732 -0.0532
 3654TIP3   OH210925   6.080   0.958   3.758 -0.4048  0.2941 -0.0087
 3654TIP3    H110926   6.019   1.030   3.740 -2.0133 -0.3330  2.3540
 3654TIP3    H210927   6.044   0.884   3.708  0.0466  0.5939 -0.7938
 3655TIP3   OH210928   0.749   5.054   4.166  0.1267  0.3989  0.0668
 3655TIP3    H110929   0.676   5.013   4.212  0.7849 -0.8123  0.0588
 3655TIP3    H210930   0.707   5.104   4.095 -0.7587  0.7239  0.7966
 3656TIP3   OH210931   7.029   2.451   2.885  0.3206 -0.5253  0.0140
 3656TIP3    H110932   7.064   2.522   2.831  1.0355 -0.4083  0.6140
 3656TIP3    H210933   6.936   2.469   2.891  0.6096  0.8060  0.8069
 3657TIP3   OH210934   1.556   3.384   3.261 -0.4968  0.8717  0.5664
 3657TIP3    H110935   1.593   3.300   3.289 -0.4890  0.9799  0.8869
 3657TIP3    H210936   1.480   3.360   3.209 -0.0362  0.6494 -0.0149
 3658TIP3   OH210937   4.958   2.089   1.174  0.5740  0.2681  0.2633
 3658TIP3    H110938   4.891   2.041   1.222 -1.3794 -0.8490 -3.2590
 3658TIP3    H210939   5.040   2.046   1.198 -0.3330 -0.5676  2.0773
 3659TIP3   OH210940   6.819   4.599   0.834 -0.0907 -0.0759  0.1204
 3659TIP3    H110941   6.803   4.693   0.843  1.1231  0.0936  0.7411
 3659TIP3    H210942   6.838   4.586   0.741  0.8530  0.5052  0.2121
 3660TIP3   OH210943   1.242   4.303   1.001  0.4321  0.5151 -0.1770
 3660TIP3    H110944   1.303   4.229   1.003 -0.4715 -0.2587 -0.4498
 3660TIP3    H210945   1.288   4.371   0.952 -0.1966 -1.2366 -3.4775
 3661TIP3   OH210946   6.190   2.564   1.308  0.1773  0.6070 -0.6078
 3661TIP3    H110947   6.245   2.640   1.325  0.7846  0.2789 -1.0786
 3661TIP3    H210948   6.121   2.596   1.250  0.2533  0.8678 -0.5523
 3662TIP3   OH210949   6.554   4.214   3.054 -0.1594  0.1211 -0.2505
 3662TIP3    H110950   6.584   4.186   2.968  2.2347  1.6290 -0.0155
 3662TIP3    H210951   6.482   4.275   3.036 -0.4723 -0.4868 -1.1013
 3663TIP3   OH210952   5.233   1.359   4.546 -0.7566 -0.3682 -0.5254
 3663TIP3    H110953   5.267   1.281   4.503  0.3879 -0.8803  1.2368
 3663TIP3    H210954   5.281   1.431   4.506  0.8600 -0.9051  0.3926
 3664TIP3   OH210955   2.638   3.433   5.068  0.0080 -0.1496 -0.6053
 3664TIP3    H110956   2.585   3.493   5.120  0.2829 -0.8601  0.5283
 3664TIP3    H210957   2.681   3.376   5.132  2.6544  0.7783 -1.4124
 3665TIP3   OH210958   0.625   2.767   0.780 -0.0316 -0.1692 -0.1473
 3665TIP3    H110959   0.561   2.734   0.843  0.1680  1.7389  1.1330
 3665TIP3    H210960   0.609   2.862   0.776  0.0350 -0.1730 -2.9285
 3666TIP3   OH210961   4.784   5.756   0.495  0.6439  0.1134  0.7846
 3666TIP3    H110962   4.709   5.779   0.550  0.4694 -0.1698  0.6689
 3666TIP3    H210963   4.747   5.742   0.408  0.8277 -0.0546  0.7318
 3667TIP3   OH210964   2.097   6.755   3.864  0.0001 -0.1938 -0.3557
 3667TIP3    H110965   2.030   6.703   3.820 -1.5224  1.2368  0.1561
 3667TIP3    H210966   2.106   6.714   3.950 -1.6168  0.6677  0.2623
 3668TIP3   OH210967   6.990   6.146   2.167  0.6210  0.0328  0.2210
 3668TIP3    H110968   7.005   6.167   2.074  1.4570  0.6846  0.4918
 3668TIP3    H210969   7.018   6.225   2.214 -2.4498  0.8666  0.8910
 3669TIP3   OH210970   7.216   1.111   1.634 -0.0156 -0.5144 -0.1017
 3669TIP3    H110971   7.205   1.016   1.627  0.3801 -0.5353 -0.5044
 3669TIP3    H210972   7.165   1.147   1.561  0.7061 -0.4842 -0.5989
 3670TIP3   OH210973   6.496   3.360   4.923  0.5216 -0.3341 -0.4908
 3670TIP3    H110974   6.483   3.397   4.835 -0.0611  0.6098 -0.0199
 3670TIP3    H210975   6.472   3.431   4.983  0.4590 -1.1234  0.4405
 3671TIP3   OH210976   5.679   3.181   2.295 -0.1810  0.1641  0.2352
 3671TIP3    H110977   5.752   3.120   2.311 -0.9464 -0.5175  1.2749
 3671TIP3    H210978   5.614   3.127   2.250 -0.7827  0.2528  0.9820
 3672TIP3   OH210979   4.835   3.312   2.503 -0.2369 -0.2253  0.8054
 3672TIP3    H110980   4.804   3.330   2.591 -0.6366  1.0279  0.4296
 3672TIP3    H210981   4.786   3.372   2.447 -1.0345 -1.9713 -0.4632
 3673TIP3   OH210982   2.842   5.527   5.859 -0.3757 -0.8371  0.0994
 3673TIP3    H110983   2.872   5.556   5.945 -0.2762 -2.6232  0.6963
 3673TIP3    H210984   2.835   5.432   5.866 -2.5894 -0.8372 -1.1742
 3674TIP3   OH210985   5.426   5.733   2.313 -0.4021  0.4391  0.1181
 3674TIP3    H110986   5.491   5.772   2.254  0.0969 -0.5549 -0.0065
 3674TIP3    H210987   5.475   5.714   2.393 -0.2286 -1.3620 -0.3736
 3675TIP3   OH210988   1.224   2.532   0.437  0.1600 -0.6857 -0.1789
 3675TIP3    H110989   1.187   2.510   0.352 -1.7262  0.8603  0.1595
 3675TIP3    H210990   1.301   2.586   0.417  0.2783 -1.1113 -0.8980
 3676TIP3   OH210991   0.676   6.422   1.779 -0.8947  0.1095  0.0256
 3676TIP3    H110992   0.662   6.455   1.868  1.6630 -0.6060  0.8066
 3676TIP3    H210993   0.657   6.328   1.786 -1.4552  0.1880 -0.4037
 3677TIP3   OH210994   0.075   3.565   1.863  0.1190 -0.5287  0.2059
 3677TIP3    H110995   0.097   3.592   1.952  0.0953 -0.9050  0.3250
 3677TIP3    H210996   0.148   3.510   1.835 -0.0186 -0.6599  0.1037
 3678TIP3   OH210997   3.509   1.214   2.229 -0.7754  0.5462  0.0169
 3678TIP3    H110998   3.533   1.178   2.144 -1.3695  0.1744  0.0030
 3678TIP3    H210999   3.436   1.272   2.212 -1.0970  0.2333  0.3152
 3679TIP3   OH211000   2.441   6.595   2.121 -0.5756  0.1731  0.2930
 3679TIP3    H111001   2.360   6.639   2.096 -0.8785 -0.7083 -0.3343
 3679TIP3    H211002   2.417   6.502   2.128  0.3723 -0.1001  0.1230
 3680TIP3   OH211003   6.631   5.818   0.989  0.5164  0.5204  0.0946
 3680TIP3    H111004   6.576   5.788   0.917  2.0693  0.5937 -1.1739
 3680TIP3    H211005   6.675   5.739   1.021  1.5275  0.7941 -0.5584
 3681TIP3   OH211006   6.055   5.873   3.287  0.0491  0.0774  0.2942
 3681TIP3    H111007   6.100   5.958   3.280  0.7180 -0.0968  2.0440
 3681TIP3    H211008   6.079   5.841   3.374 -0.4123 -1.7984 -0.2412
 3682TIP3   OH211009   1.989   2.770   5.052  0.2431  0.0505 -0.0351
 3682TIP3    H111010   2.018   2.855   5.019 -1.1624  0.0250 -1.4855
 3682TIP3    H211011   1.902   2.786   5.088  0.1002 -0.6929 -0.0233
 3683TIP3   OH211012   1.420   2.045   1.442 -0.2085  0.3918  0.1570
 3683TIP3    H111013   1.412   1.949   1.437 -0.4480  0.3324  1.3932
 3683TIP3    H211014   1.337   2.077   1.406  0.2486  0.1751 -1.1433
 3684TIP3   OH211015   3.596   4.965   1.559  0.8642 -0.0428 -0.6354
 3684TIP3    H111016   3.511   4.987   1.597  0.7636  0.1013 -0.9359
 3684TIP3    H211017   3.579   4.888   1.504  0.8904  0.0828 -0.8230
 3685TIP3   OH211018   0.346   2.637   2.726 -0.6109 -0.0438  0.1093
 3685TIP3    H111019   0.340   2.544   2.749 -0.6840 -0.3782 -1.2016
 3685TIP3    H211020   0.343   2.638   2.631  2.3302  1.0849 -0.0583
 3686TIP3   OH211021   5.810   5.460   0.093 -0.0907 -0.8061 -0.2436
 3686TIP3    H111022   5.794   5.428   0.004  1.0878 -1.4369 -0.2473
 3686TIP3    H211023   5.751   5.409   0.147 -2.4611  1.1187 -0.8493
 3687TIP3   OH211024   6.188   4.974   3.394 -0.2375 -0.0158  0.2761
 3687TIP3    H111025   6.225   4.915   3.329  0.0719 -0.4434  0.8279
 3687TIP3    H211026   6.229   5.059   3.376  1.1370 -0.5051  0.9448
 3688TIP3   OH211027   1.922   5.413   0.048  0.2215  0.1225 -0.1218
 3688TIP3    H111028   1.899   5.504   0.070  2.1153  0.3777  1.0756
 3688TIP3    H211029   1.838   5.371   0.031 -0.8517  1.6889  0.9408
 3689TIP3   OH211030   5.771   6.376   2.907 -0.0422  0.3986  0.7401
 3689TIP3    H111031   5.708   6.403   2.840 -0.2668  0.9038  1.1523
 3689TIP3    H211032   5.850   6.352   2.858  0.5644  2.8507  0.4024
 3690TIP3   OH211033   3.810   2.890   5.261  0.2677  0.1348 -0.1785
 3690TIP3    H111034   3.832   2.919   5.172 -0.7930 -1.1962 -0.9111
 3690TIP3    H211035   3.720   2.919   5.274 -0.0037 -0.7597 -0.0286
 3691TIP3   OH211036   0.604   0.568   5.753 -0.5248 -0.4512  0.5445
 3691TIP3    H111037   0.534   0.518   5.711 -0.1152 -2.3815  1.9994
 3691TIP3    H211038   0.652   0.608   5.680 -1.8079 -0.9234 -0.6004
 3692TIP3   OH211039   5.931   1.427   1.253  0.1576 -0.0476 -0.1795
 3692TIP3    H111040   5.993   1.500   1.250 -0.6933  0.7891  1.7122
 3692TIP3    H211041   5.934   1.391   1.164  1.5088  1.5020 -0.8253
 3693TIP3   OH211042   6.541   4.117   0.721  0.3241 -0.0772 -0.1833
 3693TIP3    H111043   6.524   4.209   0.738  0.4676 -0.1541  0.3902
 3693TIP3    H211044   6.517   4.105   0.629  1.8348  0.8874 -0.7299
 3694TIP3   OH211045   4.979   1.763   3.659 -0.2575  0.2886 -0.1191
 3694TIP3    H111046   4.965   1.671   3.683  1.1574 -0.0667 -0.5067
 3694TIP3    H211047   5.044   1.759   3.589 -0.3223  1.5820 -0.2727
 3695TIP3   OH211048   4.990   5.888   0.629 -0.1736 -0.2345  0.6802
 3695TIP3    H111049   4.939   5.821   0.582  0.9411  0.4464 -1.6851
 3695TIP3    H211050   5.015   5.950   0.560  2.8995  0.0356  1.9265
 3696TIP3   OH211051   6.130   2.781   4.599 -0.7273  0.0290  0.0846
 3696TIP3    H111052   6.098   2.847   4.537  1.2333  1.2176  0.2219
 3696TIP3    H211053   6.127   2.825   4.684  2.5282  0.8680 -0.0784
 3697TIP3   OH211054   3.945   4.069   5.727  0.6601  0.1469 -0.2204
 3697TIP3    H111055   3.856   4.061   5.692  0.9259 -0.5668 -0.7633
 3697TIP3    H211056   3.933   4.096   5.818 -0.1380 -0.4851 -0.1210
 3698TIP3   OH211057   0.052   5.513   1.962 -0.1497  0.4088 -0.3714
 3698TIP3    H111058   0.038   5.482   2.051  0.2623 -1.9163 -1.0450
 3698TIP3    H211059  -0.016   5.471   1.911 -0.4014  1.7417 -1.1859
 3699TIP3   OH211060   5.713   2.833   5.274 -0.3706 -0.3634 -0.2986
 3699TIP3    H111061   5.751   2.750   5.246  0.4276 -0.0989 -0.0136
 3699TIP3    H211062   5.774   2.867   5.340 -0.3740  0.7394 -0.8353
 3700TIP3   OH211063   5.257  -0.014   2.905  0.5108 -0.1765 -0.1957
 3700TIP3    H111064   5.178  -0.033   2.955 -1.2349  3.4771 -1.2417
 3700TIP3    H211065   5.231   0.053   2.842  3.8244 -0.7953 -2.5519
 3701TIP3   OH211066   1.490   1.667   1.988  0.5428 -0.2892 -0.7397
 3701TIP3    H111067   1.471   1.659   2.082 -1.7630 -0.6927 -1.1819
 3701TIP3    H211068   1.454   1.588   1.949  0.4205  0.4042 -2.1103
 3702TIP3   OH211069   4.246   2.246   0.576 -0.2176  0.4537  0.1391
 3702TIP3    H111070   4.301   2.183   0.623 -0.6080  1.2008  1.6529
 3702TIP3    H211071   4.283   2.331   0.599 -0.3402  0.8430 -1.0431
 3703TIP3   OH211072   1.062   3.723   5.500 -0.0898  0.1392  0.1284
 3703TIP3    H111073   1.117   3.708   5.577  2.5540  0.6677 -1.5380
 3703TIP3    H211074   0.984   3.670   5.515  1.2082 -1.2965  2.2662
 3704TIP3   OH211075   7.026   3.453   5.087 -0.2064  0.0058  0.1770
 3704TIP3    H111076   7.088   3.382   5.107  0.9110  1.3448  1.7249
 3704TIP3    H211077   7.072   3.507   5.023 -1.9699 -1.7930 -2.8383
 3705TIP3   OH211078   4.803   5.438   0.180 -0.2387 -0.2727  0.0840
 3705TIP3    H111079   4.778   5.453   0.271 -1.4121  1.3357 -0.4576
 3705TIP3    H211080   4.747   5.365   0.152  0.3276 -0.9625  0.7085
 3706TIP3   OH211081   4.015   2.665   4.962 -0.6188 -0.1962 -0.1295
 3706TIP3    H111082   4.045   2.588   4.914 -0.6574 -0.3850  0.1464
 3706TIP3    H211083   3.925   2.644   4.986 -0.3617 -0.4250  0.6787
 3707TIP3   OH211084   3.500   1.209   2.655 -0.2189  0.1233  0.2569
 3707TIP3    H111085   3.544   1.282   2.697  0.8160 -1.7058  2.5842
 3707TIP3    H211086   3.570   1.159   2.614 -0.5129 -0.9832  1.0496
 3708TIP3   OH211087   5.771   4.567   1.261  0.2605 -1.2743  0.3298
 3708TIP3    H111088   5.686   4.528   1.279  0.1408 -1.2467 -0.1440
 3708TIP3    H211089   5.792   4.537   1.172  0.4822 -0.8139  0.2243
 3709TIP3   OH211090   6.242   4.915   2.471 -0.3166 -0.3841 -0.3185
 3709TIP3    H111091   6.273   4.922   2.381 -0.5626  0.3915 -0.3454
 3709TIP3    H211092   6.149   4.935   2.467 -0.0401  1.1869  0.3121
 3710TIP3   OH211093   0.086   6.525   5.260 -0.5395 -0.3118  0.0951
 3710TIP3    H111094   0.131   6.594   5.211  0.4524 -0.2390  1.0447
 3710TIP3    H211095  -0.007   6.540   5.245 -0.3525  1.4057  0.4711
 3711TIP3   OH211096   1.999   2.479   0.039  0.5131 -0.1549  0.1279
 3711TIP3    H111097   1.973   2.487   0.130 -0.6904 -1.8142 -0.0223
 3711TIP3    H211098   2.029   2.567   0.014 -2.5386  1.3079  1.0990
 3712TIP3   OH211099   6.138   3.048   2.767  0.4925 -0.0235 -0.2051
 3712TIP3    H111100   6.054   3.087   2.743  0.2558 -0.4333 -0.0597
 3712TIP3    H211101   6.191   3.121   2.798  0.1794  0.2348 -0.2777
 3713TIP3   OH211102   7.033   4.454   4.284 -0.3369  0.2211 -0.0367
 3713TIP3    H111103   7.089   4.381   4.310  0.3060  0.6969 -0.0719
 3713TIP3    H211104   6.966   4.459   4.352  1.4894  1.6511  1.7364
 3714TIP3   OH211105   0.633   0.442   1.458  0.0393  0.5798  0.0255
 3714TIP3    H111106   0.539   0.432   1.449 -0.0763  0.5643  1.0660
 3714TIP3    H211107   0.657   0.509   1.394 -0.7858  1.0789  0.2283
 3715TIP3   OH211108   3.005   1.742   3.465  0.3001  0.2282  0.2407
 3715TIP3    H111109   2.953   1.795   3.406 -0.4075 -0.2537  0.4164
 3715TIP3    H211110   3.048   1.678   3.408  0.5227  0.4861  0.1198
 3716TIP3   OH211111   1.881   6.295   3.911 -0.2007  0.1830  0.9084
 3716TIP3    H111112   1.833   6.212   3.914 -0.9675  0.4699 -1.4385
 3716TIP3    H211113   1.968   6.271   3.878 -0.2476  0.2335  0.7459
 3717TIP3   OH211114   0.170   6.411   3.943 -0.2748 -0.3325 -0.0236
 3717TIP3    H111115   0.080   6.441   3.930  0.1309  0.3952 -1.3762
 3717TIP3    H211116   0.190   6.432   4.034 -0.7765  1.4911 -0.2996
 3718TIP3   OH211117   0.316   3.566   4.206  0.0580  0.0371 -0.3090
 3718TIP3    H111118   0.271   3.552   4.122  0.3898 -1.5649 -0.2481
 3718TIP3    H211119   0.331   3.660   4.209 -0.7507  0.2414 -1.6448
 3719TIP3   OH211120   7.066   6.741   3.507 -0.0530 -0.0122 -0.1519
 3719TIP3    H111121   7.067   6.822   3.455  0.5591 -1.3727 -2.3795
 3719TIP3    H211122   6.993   6.753   3.567 -0.4910  1.8673 -0.9750
 3720TIP3   OH211123   0.850   4.658   3.941 -0.8771 -0.3121  0.2088
 3720TIP3    H111124   0.817   4.726   3.882 -0.3451 -2.0393 -2.2189
 3720TIP3    H211125   0.771   4.623   3.983 -1.1154  2.1631  2.0895
 3721TIP3   OH211126   4.731   0.134   2.308 -0.1050  0.3323  0.5181
 3721TIP3    H111127   4.759   0.148   2.218  0.9142  0.4612  0.8473
 3721TIP3    H211128   4.801   0.083   2.348 -0.8569 -0.3112  1.0674
 3722TIP3   OH211129   0.431   5.031   5.095 -0.6220  0.0984 -0.3814
 3722TIP3    H111130   0.343   5.020   5.130 -0.5614  0.0017 -0.2588
 3722TIP3    H211131   0.481   4.960   5.134 -0.2309  0.7931  0.4120
 3723TIP3   OH211132   0.879   2.255   1.806  0.1432  0.4995 -0.0350
 3723TIP3    H111133   0.945   2.324   1.808  0.9214 -0.2264 -0.2445
 3723TIP3    H211134   0.857   2.240   1.898  2.1995 -1.0390  0.2795
 3724TIP3   OH211135   1.278   4.960   4.833 -1.0239  0.3044 -0.0357
 3724TIP3    H111136   1.220   4.973   4.758 -1.6045  0.7153  0.4675
 3724TIP3    H211137   1.365   4.984   4.802 -1.0135 -0.8838 -0.9731
 3725TIP3   OH211138   0.831   0.243   1.194  0.6055 -0.0623  0.8673
 3725TIP3    H111139   0.917   0.219   1.226  1.7630  2.2275 -0.2622
 3725TIP3    H211140   0.774   0.237   1.271  1.0388 -4.2156  1.0958
 3726TIP3   OH211141   3.519   2.512   0.459  0.0214  0.0162 -0.0787
 3726TIP3    H111142   3.518   2.569   0.537 -0.9895  0.2249 -0.2209
 3726TIP3    H211143   3.611   2.493   0.444  0.3828  1.5205  0.0601
 3727TIP3   OH211144   1.522   0.119   5.473 -0.3158 -0.3038 -0.4273
 3727TIP3    H111145   1.557   0.119   5.384 -2.3074 -0.7103 -1.2585
 3727TIP3    H211146   1.507   0.211   5.493 -3.0667 -0.3351 -1.9159
 3728TIP3   OH211147   3.991   5.509   0.526  0.2615  0.2289 -0.2989
 3728TIP3    H111148   4.007   5.467   0.611  0.0474 -0.8444 -0.7701
 3728TIP3    H211149   4.011   5.601   0.541 -0.1972  0.1375  1.0318
 3729TIP3   OH211150   1.588   5.029   0.633  0.4773  0.0193  0.2612
 3729TIP3    H111151   1.617   4.964   0.697  0.7782 -0.7188 -0.5960
 3729TIP3    H211152   1.628   5.111   0.662 -0.8442  0.1012  2.0116
 3730TIP3   OH211153   5.310   5.835   1.911  0.3351 -0.6180 -0.1074
 3730TIP3    H111154   5.237   5.775   1.929  0.5771 -0.4778  1.4879
 3730TIP3    H211155   5.271   5.922   1.915  0.3691 -0.5875 -0.4276
 3731TIP3   OH211156   3.884   0.494   4.308 -0.4080  0.4587 -0.3026
 3731TIP3    H111157   3.809   0.516   4.363  0.1407  0.6071  0.4001
 3731TIP3    H211158   3.856   0.417   4.260 -0.5686 -0.2496  0.8822
 3732TIP3   OH211159   0.177   2.911   2.861 -0.5005 -0.0003  0.3767
 3732TIP3    H111160   0.189   2.996   2.819  1.1430  0.9685  2.6235
 3732TIP3    H211161   0.220   2.849   2.802 -0.4029  0.9258 -0.5647
 3733TIP3   OH211162   0.047   3.513   1.245 -0.4518 -0.4446 -0.2922
 3733TIP3    H111163  -0.008   3.478   1.176 -0.8076 -0.3227 -0.0741
 3733TIP3    H211164   0.130   3.465   1.237 -0.8856 -1.2606 -0.0696
 3734TIP3   OH211165   0.733   5.609   2.697  0.6952  0.2667 -0.1467
 3734TIP3    H111166   0.685   5.590   2.616  0.2285  1.3656 -0.1452
 3734TIP3    H211167   0.825   5.602   2.672  0.5551  0.5063 -0.7562
 3735TIP3   OH211168   3.259   6.061   1.308 -0.2660 -0.1876 -0.6309
 3735TIP3    H111169   3.305   6.002   1.249  0.9840  0.3412 -0.2228
 3735TIP3    H211170   3.287   6.149   1.281 -0.1864  0.0937  0.3184
 3736TIP3   OH211171   3.403   2.548   3.380 -0.3167  0.3626  0.2748
 3736TIP3    H111172   3.384   2.486   3.310  0.2815  1.9504 -1.3773
 3736TIP3    H211173   3.333   2.534   3.444  1.3505 -3.9936  1.5292
 3737TIP3   OH211174   5.784   4.697   4.615  0.0463  0.4103 -0.0213
 3737TIP3    H111175   5.810   4.726   4.528 -0.3332 -0.6444 -0.5088
 3737TIP3    H211176   5.734   4.616   4.599  0.4039 -0.0724  1.2066
 3738TIP3   OH211177   4.538   0.345   2.270  0.0029 -0.2348 -1.0608
 3738TIP3    H111178   4.551   0.432   2.309 -1.1139  0.3566 -1.9351
 3738TIP3    H211179   4.618   0.297   2.291  0.1886  0.6426  0.3815
 3739TIP3   OH211180   0.166   6.363   3.332  0.2224  0.3797 -0.0706
 3739TIP3    H111181   0.176   6.450   3.292 -1.1300  0.0255 -1.2839
 3739TIP3    H211182   0.095   6.374   3.395 -0.0831  0.1171 -0.3663
 3740TIP3   OH211183   5.600   5.684   2.542 -0.0222 -0.3882  0.0538
 3740TIP3    H111184   5.674   5.726   2.584  0.6970 -2.1721  0.6555
 3740TIP3    H211185   5.614   5.590   2.555 -0.7061 -0.9543 -2.5950
 3741TIP3   OH211186   6.128   5.065   5.712 -0.3214 -0.1840  0.7260
 3741TIP3    H111187   6.140   5.151   5.753 -1.5604  0.0690  0.5944
 3741TIP3    H211188   6.216   5.041   5.681 -0.0866  1.4016  0.0691
 3742TIP3   OH211189   0.994   6.548   4.195  0.4271 -0.5033  0.1873
 3742TIP3    H111190   1.078   6.538   4.151 -0.3873  0.9253 -1.8225
 3742TIP3    H211191   0.966   6.458   4.213  0.5177 -1.2584 -2.8848
 3743TIP3   OH211192   5.941   0.519   4.005  0.3945  0.1006 -0.1882
 3743TIP3    H111193   5.977   0.529   4.093  0.0389 -0.2024 -0.0062
 3743TIP3    H211194   5.848   0.500   4.018  0.2633  0.4161 -0.6423
 3744TIP3   OH211195   2.905   4.545   3.354 -0.1613 -0.2694  0.1624
 3744TIP3    H111196   2.837   4.481   3.333 -0.9003  0.6711 -0.3962
 3744TIP3    H211197   2.871   4.591   3.430  0.1566 -0.2299  0.2824
 3745TIP3   OH211198   4.087   5.765   0.510 -0.3285 -0.1509  0.1264
 3745TIP3    H111199   4.126   5.745   0.595  0.0829 -0.3489 -0.1090
 3745TIP3    H211200   4.145   5.830   0.471 -1.1839  0.8703  0.5123
 3746TIP3   OH211201   4.011   1.413   0.482  0.1935  0.5504 -0.0962
 3746TIP3    H111202   4.097   1.440   0.450  1.0950 -0.1805  1.5704
 3746TIP3    H211203   4.018   1.418   0.578 -0.4061 -2.8347  0.2655
 3747TIP3   OH211204   0.176   4.935   1.373 -0.3358 -0.3479 -0.1401
 3747TIP3    H111205   0.163   4.912   1.282 -1.2717 -1.3498  0.2310
 3747TIP3    H211206   0.164   5.030   1.375  0.8040 -0.1577 -1.2246
 3748TIP3   OH211207   6.189   6.708   1.651 -0.4905  0.3178 -0.1945
 3748TIP3    H111208   6.108   6.686   1.605 -0.4196  0.8741 -0.6006
 3748TIP3    H211209   6.191   6.804   1.651  0.9200  0.3211 -1.5442
 3749TIP3   OH211210   3.770   5.902   4.584  0.2080 -0.0129  0.7401
 3749TIP3    H111211   3.772   5.815   4.624  4.3978 -0.1397  0.6895
 3749TIP3    H211212   3.800   5.961   4.652 -0.0752  1.0017  0.0105
 3750TIP3   OH211213   1.437   3.357   1.065  1.2066 -0.2900 -0.5150
 3750TIP3    H111214   1.445   3.319   1.153  1.8807 -1.3017 -0.9827
 3750TIP3    H211215   1.367   3.308   1.024  0.4925  0.5798 -0.3664
 3751TIP3   OH211216   4.821   5.455   2.940  0.3028 -0.6886  0.1994
 3751TIP3    H111217   4.913   5.433   2.949  0.1697 -1.1172  0.5163
 3751TIP3    H211218   4.802   5.442   2.847  0.3072 -1.5965  0.3184
 3752TIP3   OH211219   3.722   1.098   0.971 -0.3215  0.2338  0.4914
 3752TIP3    H111220   3.631   1.084   0.997 -1.0134  2.7173 -0.2974
 3752TIP3    H211221   3.728   1.062   0.883 -0.9176  1.1735  0.0554
 3753TIP3   OH211222   4.789   0.182   4.196  0.4320  0.0661  0.3448
 3753TIP3    H111223   4.736   0.186   4.276 -0.0754  0.6227 -0.0090
 3753TIP3    H211224   4.797   0.089   4.177 -1.8288 -0.0213 -0.4896
 3754TIP3   OH211225   1.297   0.318   3.453 -0.1288  0.2458  0.3203
 3754TIP3    H111226   1.231   0.381   3.483  1.6011  1.0145  2.8733
 3754TIP3    H211227   1.309   0.259   3.528  1.2580 -0.5631 -0.5030
 3755TIP3   OH211228   5.984   3.841   3.924 -0.4638 -0.1801 -0.3593
 3755TIP3    H111229   5.988   3.896   4.002  1.9922 -0.8355  0.0528
 3755TIP3    H211230   6.064   3.862   3.875 -0.8059 -1.4477 -1.5465
 3756TIP3   OH211231   2.302   2.846   5.832 -0.1866  0.3258 -0.4232
 3756TIP3    H111232   2.391   2.833   5.864 -0.2984  0.9763  0.2043
 3756TIP3    H211233   2.306   2.927   5.781 -0.3231  0.1076 -0.7805
 3757TIP3   OH211234   6.825   4.528   0.541  0.9769  0.1588 -0.0359
 3757TIP3    H111235   6.775   4.557   0.464  1.7206  0.6238 -0.3651
 3757TIP3    H211236   6.916   4.529   0.511  1.1938 -0.5997  0.5679
 3758TIP3   OH211237   5.648   1.710   3.627  0.0161  0.1867  0.4716
 3758TIP3    H111238   5.604   1.781   3.673  0.0973 -0.1728  1.1143
 3758TIP3    H211239   5.630   1.726   3.535 -1.7424 -0.1312  0.7302
 3759TIP3   OH211240   6.303   6.078   0.765  0.2871  0.5514  0.0449
 3759TIP3    H111241   6.232   6.128   0.726  1.0171  0.5053 -1.4113
 3759TIP3    H211242   6.265   6.038   0.843 -0.9981  1.3080 -0.1702
 3760TIP3   OH211243   1.885   2.233   1.486 -0.4080 -0.1957 -0.1692
 3760TIP3    H111244   1.944   2.266   1.553 -0.6191  1.4287 -0.7383
 3760TIP3    H211245   1.847   2.312   1.446 -1.4567 -1.1533 -1.1434
 3761TIP3   OH211246   2.111   4.361   0.577  0.1537  0.0852 -0.4942
 3761TIP3    H111247   2.068   4.390   0.658 -1.4973 -0.7185 -1.0431
 3761TIP3    H211248   2.184   4.306   0.608 -0.5015 -0.2801  0.4585
 3762TIP3   OH211249   2.965   0.546   0.161 -0.4784 -0.1843 -0.3322
 3762TIP3    H111250   2.947   0.489   0.236 -1.8250 -1.3618 -1.4988
 3762TIP3    H211251   2.928   0.631   0.185 -2.7113 -1.0825 -0.4222
 3763TIP3   OH211252   5.586   6.764   1.741  0.5136  0.2388  0.0248
 3763TIP3    H111253   5.528   6.688   1.733  0.1444  0.6021 -0.9010
 3763TIP3    H211254   5.592   6.780   1.835 -2.1550  1.1518  0.1124
 3764TIP3   OH211255   2.550   0.768   2.460 -0.6164 -0.1322  0.2515
 3764TIP3    H111256   2.628   0.713   2.443  0.6502  1.3466  1.0606
 3764TIP3    H211257   2.518   0.738   2.545  1.0993  1.4265  1.5289
 3765TIP3   OH211258   5.921   2.188   5.108 -0.4322  0.3114  0.0880
 3765TIP3    H111259   6.005   2.143   5.115  0.1968  1.3208 -0.8464
 3765TIP3    H211260   5.934   2.271   5.152 -1.4577 -0.1825  1.3943
 3766TIP3   OH211261   5.516   5.471   2.222 -0.3520  0.0308  0.3772
 3766TIP3    H111262   5.484   5.392   2.267 -0.0039  0.3969  1.3085
 3766TIP3    H211263   5.485   5.543   2.277  1.7521  0.4207  1.1605
 3767TIP3   OH211264   5.590   1.348   4.546  0.1706 -0.3729  0.3548
 3767TIP3    H111265   5.675   1.315   4.575 -0.2012 -3.2489 -1.5151
 3767TIP3    H211266   5.530   1.274   4.556 -1.3731  0.5316 -1.4782
 3768TIP3   OH211267   5.068   0.124   4.388 -0.4236 -0.3611  0.4997
 3768TIP3    H111268   5.141   0.139   4.328 -1.3168  0.5249 -0.3985
 3768TIP3    H211269   5.028   0.042   4.358 -1.3199  0.4561 -0.6264
 3769TIP3   OH211270   1.204   6.176   2.701  0.3325  0.0896  0.2647
 3769TIP3    H111271   1.155   6.258   2.705 -2.6585 -1.5475  0.1776
 3769TIP3    H211272   1.184   6.132   2.784 -0.7582 -1.8517 -0.9493
 3770TIP3   OH211273   5.841   1.545   4.153  0.0360 -0.1787  0.6673
 3770TIP3    H111274   5.777   1.530   4.084  0.3416 -0.1348  0.3694
 3770TIP3    H211275   5.867   1.637   4.143 -0.7028  0.1321  1.5207
 3771TIP3   OH211276   2.025   1.381   4.890 -0.1983 -0.1159 -0.4375
 3771TIP3    H111277   2.048   1.398   4.981  0.1008  2.5813 -0.9520
 3771TIP3    H211278   1.933   1.354   4.893 -0.0867 -0.4232  0.6639
 3772TIP3   OH211279   4.892   2.114   3.305  0.2267  0.7765 -0.0806
 3772TIP3    H111280   4.871   2.097   3.397  1.9805  0.5380  0.3166
 3772TIP3    H211281   4.826   2.065   3.255  0.9608 -1.5193  1.0597
 3773TIP3   OH211282   2.580   1.654   0.866  0.5797  0.1827  0.2917
 3773TIP3    H111283   2.645   1.693   0.808 -0.4305  1.3614 -0.0944
 3773TIP3    H211284   2.496   1.678   0.827 -0.1379  0.8867  2.1481
 3774TIP3   OH211285   5.344   1.369   3.509 -0.4233  0.0467  0.1360
 3774TIP3    H111286   5.269   1.350   3.453 -0.0987  1.2431 -0.7255
 3774TIP3    H211287   5.400   1.291   3.501 -1.1628 -0.4919  0.1287
 3775TIP3   OH211288   6.274   0.088   0.852  0.0836  0.7318  0.0776
 3775TIP3    H111289   6.330   0.076   0.776 -0.5760 -0.7410 -0.2045
 3775TIP3    H211290   6.301   0.019   0.913  0.0866  1.4147  0.8623
 3776TIP3   OH211291   4.456   2.173   5.143 -0.5506 -0.0724 -1.1033
 3776TIP3    H111292   4.369   2.134   5.134 -0.8091  0.5370 -1.3161
 3776TIP3    H211293   4.446   2.237   5.214 -0.4435  0.4450 -1.5436
 3777TIP3   OH211294   3.915   5.604   5.361 -0.1685 -0.5638 -0.3093
 3777TIP3    H111295   3.979   5.565   5.302  0.1818 -0.6680  0.1274
 3777TIP3    H211296   3.956   5.686   5.389  0.0225 -0.8915  0.3942
 3778TIP3   OH211297   5.184   2.003   5.521  0.2179 -0.3408 -0.1760
 3778TIP3    H111298   5.246   2.075   5.514 -0.8435  0.5043 -1.4092
 3778TIP3    H211299   5.234   1.932   5.561  2.4797 -0.2149 -2.4724
 3779TIP3   OH211300   4.527   3.508   0.870 -0.0446 -0.1956 -0.5507
 3779TIP3    H111301   4.601   3.566   0.855 -1.9949  3.2972  1.8502
 3779TIP3    H211302   4.564   3.433   0.917  2.1794  0.4294 -1.2031
 3780TIP3   OH211303   1.447   5.857   3.432  0.3622  0.1714  0.1801
 3780TIP3    H111304   1.533   5.895   3.452 -0.0733  1.8773 -0.9795
 3780TIP3    H211305   1.462   5.801   3.357  0.2359  1.7195 -1.0533
 3781TIP3   OH211306   3.568   5.236   5.401  0.3333  0.3347  0.5242
 3781TIP3    H111307   3.539   5.327   5.396 -0.4390  0.0229 -1.3045
 3781TIP3    H211308   3.600   5.216   5.313 -0.4615 -1.4751  0.6086
 3782TIP3   OH211309   1.666   5.272   2.288 -0.1168  0.2257  0.1907
 3782TIP3    H111310   1.732   5.268   2.219  1.4516  1.5906  1.5220
 3782TIP3    H211311   1.678   5.190   2.337 -0.7897 -0.4402 -0.7297
 3783TIP3   OH211312   4.310   1.632   3.693  0.3626  0.4250 -0.1312
 3783TIP3    H111313   4.350   1.554   3.655  1.0736  0.2243  1.0076
 3783TIP3    H211314   4.282   1.605   3.780 -0.6527  1.0650 -0.2375
 3784TIP3   OH211315   1.428   1.089   3.312 -0.5455  0.3777 -0.3659
 3784TIP3    H111316   1.440   1.179   3.282 -0.2024  0.3962 -0.1815
 3784TIP3    H211317   1.485   1.037   3.254  0.5613  0.4776  0.5966
 3785TIP3   OH211318   5.820   3.622   0.982 -0.1060  0.4429 -0.2262
 3785TIP3    H111319   5.855   3.711   0.986  0.5862  0.1580  0.3148
 3785TIP3    H211320   5.817   3.594   1.074  2.9833 -1.3331 -0.5481
 3786TIP3   OH211321   3.232   5.683   4.926  0.2323  0.2319  0.1409
 3786TIP3    H111322   3.228   5.778   4.922 -0.0131  0.2189  0.0105
 3786TIP3    H211323   3.279   5.664   5.007  0.9033  0.4685 -0.1812
 3787TIP3   OH211324   3.623   2.337   2.755 -0.9392  0.0163  0.5139
 3787TIP3    H111325   3.658   2.310   2.671  2.2587  0.5273  1.5307
 3787TIP3    H211326   3.583   2.422   2.738  2.4692  1.6632 -0.0754
 3788TIP3   OH211327   0.684   0.615   4.941  0.3019 -0.5619  0.1497
 3788TIP3    H111328   0.750   0.562   4.984  0.5169 -0.4416 -0.0324
 3788TIP3    H211329   0.729   0.696   4.918  0.2698 -0.7522 -0.5910
 3789TIP3   OH211330   5.017   0.432   3.531 -0.1624 -0.0787  0.2160
 3789TIP3    H111331   5.023   0.376   3.608  0.0974  0.2146  0.4143
 3789TIP3    H211332   4.987   0.516   3.565 -0.9545 -0.2080 -0.1386
 3790TIP3   OH211333   3.106   6.411   1.352 -0.0562  0.1672 -0.2919
 3790TIP3    H111334   3.127   6.462   1.430 -0.2554  0.0728 -0.1753
 3790TIP3    H211335   3.174   6.344   1.348  0.6500  0.9072 -0.8720
 3791TIP3   OH211336   4.566   1.112   3.233  0.6432 -0.0241  0.3303
 3791TIP3    H111337   4.557   1.163   3.313  1.4251  2.3848 -1.0136
 3791TIP3    H211338   4.633   1.046   3.254 -0.0435 -0.2342  1.9821
 3792TIP3   OH211339   2.568   6.131   2.519 -0.5060  0.6846  0.3065
 3792TIP3    H111340   2.571   6.083   2.436 -0.6548  1.2928 -0.0534
 3792TIP3    H211341   2.613   6.073   2.581 -0.0379  0.3993 -0.2826
 3793TIP3   OH211342   7.185   5.296   2.748  0.1169  0.3124 -0.6697
 3793TIP3    H111343   7.156   5.240   2.676 -0.4015  0.8110 -0.8626
 3793TIP3    H211344   7.109   5.301   2.806  0.1489  0.8361 -0.6698
 3794TIP3   OH211345   5.025   5.734   4.737  0.1736  0.3832  0.0429
 3794TIP3    H111346   4.994   5.799   4.800 -0.0100  0.3869 -0.0508
 3794TIP3    H211347   5.074   5.784   4.672 -0.3038  0.4877 -0.2498
 3795TIP3   OH211348   6.522   3.277   2.972 -0.3112  0.1847 -0.3991
 3795TIP3    H111349   6.574   3.226   2.910 -0.1740  0.1460 -0.2557
 3795TIP3    H211350   6.573   3.274   3.053 -0.8101 -0.3175 -0.1010
 3796TIP3   OH211351   5.041   5.887   4.076 -0.3119  0.7211  0.1797
 3796TIP3    H111352   4.961   5.938   4.088  0.3150  1.2569  2.4726
 3796TIP3    H211353   5.104   5.925   4.137  1.6200  0.0852 -1.3136
 3797TIP3   OH211354   0.586   4.771   1.719 -0.0584  0.1889  0.3794
 3797TIP3    H111355   0.578   4.759   1.814 -1.2179 -1.8349  0.0605
 3797TIP3    H211356   0.498   4.792   1.690  0.2100  0.3694 -0.3263
 3798TIP3   OH211357   6.533   2.402   0.437  0.4505  0.4081  0.3054
 3798TIP3    H111358   6.468   2.451   0.487 -0.0312 -3.1738  3.7756
 3798TIP3    H211359   6.591   2.365   0.504  1.5023 -2.5333 -1.9882
 3799TIP3   OH211360   0.206   4.977   2.168 -0.2794 -0.3316  0.2368
 3799TIP3    H111361   0.255   5.004   2.246  1.1685 -1.6527 -0.1559
 3799TIP3    H211362   0.262   4.911   2.127 -2.2522 -1.6433 -0.4642
 3800TIP3   OH211363   3.650   3.117   1.975 -0.5527  0.7623 -0.2011
 3800TIP3    H111364   3.690   3.203   1.962  1.5839 -0.1051  0.1854
 3800TIP3    H211365   3.649   3.078   1.888  0.9841  0.1935  0.0054
 3801TIP3   OH211366   1.608   5.386   1.278  0.2164  0.4257 -0.3283
 3801TIP3    H111367   1.675   5.319   1.289 -0.9627 -1.0188 -1.3767
 3801TIP3    H211368   1.634   5.435   1.200  0.2982  0.1776 -0.4565
 3802TIP3   OH211369   6.415   0.496   5.143  0.1020 -0.2240 -0.6998
 3802TIP3    H111370   6.441   0.443   5.068  0.3123  0.0185 -0.8010
 3802TIP3    H211371   6.324   0.471   5.160 -0.0188 -0.1266 -1.1775
 3803TIP3   OH211372   0.173   2.015   1.937 -0.1084  0.6404  0.2670
 3803TIP3    H111373   0.113   1.946   1.966 -0.6895  1.7027  1.7096
 3803TIP3    H211374   0.235   1.970   1.880 -0.3610 -1.1134  1.3089
 3804TIP3   OH211375   0.578   0.054   1.313 -0.1263 -0.4623  0.1763
 3804TIP3    H111376   0.557   0.120   1.247 -0.6998  0.3092  1.1000
 3804TIP3    H211377   0.513   0.068   1.382  0.5591 -1.1389  0.9736
 3805TIP3   OH211378   0.149   6.631   1.981 -0.2263  0.7920  0.0495
 3805TIP3    H111379   0.245   6.623   1.982 -0.2452  0.6065  0.5790
 3805TIP3    H211380   0.120   6.567   1.916 -0.0202  0.4958  0.2456
 3806TIP3   OH211381   0.351   6.105   2.778 -0.2432 -0.4345  0.3383
 3806TIP3    H111382   0.336   6.118   2.872 -1.9503 -0.7260  0.1282
 3806TIP3    H211383   0.436   6.147   2.762  0.3844 -0.9219  2.1181
 3807TIP3   OH211384   0.369   1.259   2.184 -0.1006 -0.3445 -0.2732
 3807TIP3    H111385   0.308   1.235   2.115 -1.9790 -0.4467  1.3605
 3807TIP3    H211386   0.401   1.176   2.219  1.5729 -0.2954 -1.5658
 3808TIP3   OH211387   3.400   0.489   3.903  0.4781  0.6049  0.2306
 3808TIP3    H111388   3.472   0.462   3.960  1.2738  2.2685  0.1091
 3808TIP3    H211389   3.439   0.557   3.847 -0.7581  0.3270 -1.0199
 3809TIP3   OH211390   3.527   0.818   0.781 -0.3921  0.3229 -0.2813
 3809TIP3    H111391   3.475   0.854   0.852  1.9481  1.1616  1.1217
 3809TIP3    H211392   3.578   0.893   0.748  0.1955 -0.5131 -1.3375
 3810TIP3   OH211393   1.921   1.646   5.536 -0.0244 -0.3260 -0.0589
 3810TIP3    H111394   1.995   1.681   5.486 -1.2790 -0.5777 -2.1982
 3810TIP3    H211395   1.850   1.708   5.519 -0.8328 -1.1230  0.3843
 3811TIP3   OH211396   2.865   0.717   3.005  0.2338 -0.0266  0.1387
 3811TIP3    H111397   2.782   0.705   2.959  0.8160 -2.1268 -0.4919
 3811TIP3    H211398   2.863   0.808   3.035 -2.3238 -0.0427  0.2493
 3812TIP3   OH211399   1.029   4.441   1.819 -0.3071 -0.4476  0.1006
 3812TIP3    H111400   1.026   4.414   1.911 -2.0544 -0.3269  0.0983
 3812TIP3    H211401   0.964   4.511   1.812  0.8720  0.6103 -0.9208
 3813TIP3   OH211402   4.630   5.136   5.908  0.3055  0.2661  0.0006
 3813TIP3    H111403   4.576   5.115   5.832  0.9801  1.9226 -1.0045
 3813TIP3    H211404   4.688   5.060   5.918  0.6456  0.2812 -1.5770
 3814TIP3   OH211405   2.287   1.898   5.406  0.2361 -0.0395 -0.3512
 3814TIP3    H111406   2.237   1.970   5.446  1.4571  0.2207  0.7882
 3814TIP3    H211407   2.299   1.835   5.477  0.8277 -0.4787 -0.8344
 3815TIP3   OH211408   1.582   6.406   4.242  0.5533  0.2391  0.0081
 3815TIP3    H111409   1.488   6.421   4.245 -0.2721 -3.7937  1.3575
 3815TIP3    H211410   1.610   6.412   4.333  0.6752 -2.3711  0.2376
 3816TIP3   OH211411   1.506   5.662   1.714 -0.5626  0.2918  0.1583
 3816TIP3    H111412   1.537   5.693   1.629 -1.4221  1.4400  0.2377
 3816TIP3    H211413   1.451   5.585   1.693 -0.9500  0.6998 -0.3542
 3817TIP3   OH211414   6.066   3.285   2.171  0.3171  0.3179 -0.6216
 3817TIP3    H111415   6.030   3.312   2.255  1.2052  0.5125 -0.2923
 3817TIP3    H211416   6.144   3.233   2.193 -1.3958 -2.7619 -1.1981
 3818TIP3   OH211417   0.846   5.195   0.600  0.6636  0.1985  0.2009
 3818TIP3    H111418   0.825   5.280   0.562  1.6610  0.5037  0.2889
 3818TIP3    H211419   0.936   5.204   0.631  0.7938 -0.8932  0.2033
 3819TIP3   OH211420   1.469   6.129   2.636  0.3079 -0.5294 -0.3325
 3819TIP3    H111421   1.458   6.035   2.649 -3.3970 -0.4874 -1.8520
 3819TIP3    H211422   1.383   6.166   2.656  1.1759  2.3551 -1.3747
 3820TIP3   OH211423   1.591   0.793   4.121 -0.1605 -0.1206 -0.4325
 3820TIP3    H111424   1.669   0.844   4.143 -1.3467  1.4102  0.3658
 3820TIP3    H211425   1.582   0.730   4.192  0.7357 -0.7996 -0.9028
 3821TIP3   OH211426   1.064   3.331   0.711 -0.5683 -0.2199  0.1041
 3821TIP3    H111427   1.094   3.375   0.791 -0.5945  2.8182 -1.3912
 3821TIP3    H211428   1.143   3.291   0.675  0.0619  0.8152  0.2799
 3822TIP3   OH211429   3.484   0.100   2.157  0.0003  0.1902 -0.3710
 3822TIP3    H111430   3.513   0.049   2.232 -0.7046 -1.2182 -1.0116
 3822TIP3    H211431   3.545   0.077   2.087 -1.1576 -0.9483 -1.0611
 3823TIP3   OH211432   2.128   2.231   0.878  0.6269  0.1488 -0.0883
 3823TIP3    H111433   2.078   2.268   0.805 -0.7627  0.0962  0.8052
 3823TIP3    H211434   2.220   2.245   0.853  0.2289 -0.6308 -2.2245
 3824TIP3   OH211435   4.868   1.146   3.759 -0.2378  0.2600 -0.4551
 3824TIP3    H111436   4.858   1.214   3.825  0.2209 -1.0329  1.0241
 3824TIP3    H211437   4.961   1.147   3.736 -0.4737  0.9937 -1.4394
 3825TIP3   OH211438   3.751   6.196   4.998 -0.1609  0.2237  0.0062
 3825TIP3    H111439   3.790   6.247   5.069  0.5048  0.3968 -0.4827
 3825TIP3    H211440   3.657   6.200   5.015 -0.1404  1.7251 -0.0869
 3826TIP3   OH211441   1.153   6.301   0.109  0.1813  0.5669  0.3601
 3826TIP3    H111442   1.176   6.364   0.176 -0.1344  1.6088 -0.4891
 3826TIP3    H211443   1.080   6.251   0.146 -0.8083  1.9493  0.3378
 3827TIP3   OH211444   2.334   5.249   2.028  0.2043 -0.4734  0.2403
 3827TIP3    H111445   2.331   5.223   2.120  1.5986 -0.2869  0.3523
 3827TIP3    H211446   2.383   5.179   1.984  1.5395  0.5434  0.0546
 3828TIP3   OH211447   2.039   6.304   0.667 -0.2447  0.2667 -0.3805
 3828TIP3    H111448   1.994   6.387   0.681 -0.9217 -0.0927 -0.4075
 3828TIP3    H211449   1.986   6.239   0.713  0.2835 -0.1534 -0.3491
 3829TIP3   OH211450   5.813   2.634   5.537  0.0947  0.1659 -0.5139
 3829TIP3    H111451   5.792   2.632   5.630  0.3953 -0.9834 -0.4501
 3829TIP3    H211452   5.905   2.608   5.533 -0.1388 -0.5864 -1.1796
 3830TIP3   OH211453   6.556   6.000   0.694 -0.3020 -0.5053  0.5119
 3830TIP3    H111454   6.548   5.906   0.711 -0.6839 -0.8247 -1.2801
 3830TIP3    H211455   6.476   6.038   0.731  0.1254 -0.7789  1.7647
 3831TIP3   OH211456   6.869   3.257   1.572  0.1559 -0.2701  0.3339
 3831TIP3    H111457   6.921   3.293   1.501 -2.0644  2.9815  0.1734
 3831TIP3    H211458   6.791   3.220   1.530  0.1234 -0.8810  0.9002
 3832TIP3   OH211459   0.852   4.656   1.717  0.2221 -0.2828 -0.2637
 3832TIP3    H111460   0.776   4.706   1.687  1.5492  0.6199 -2.3616
 3832TIP3    H211461   0.912   4.722   1.752 -0.0307 -1.0264  1.7467
 3833TIP3   OH211462   3.531   2.343   2.265  0.0485 -0.4007  0.1282
 3833TIP3    H111463   3.593   2.299   2.323  0.0220 -1.2578 -0.4774
 3833TIP3    H211464   3.470   2.274   2.239 -0.8865  0.3304  0.3492
 3834TIP3   OH211465   4.533   0.800   4.238 -0.1321 -0.0076  0.2428
 3834TIP3    H111466   4.489   0.861   4.180  1.1479  1.7749  1.0550
 3834TIP3    H211467   4.482   0.719   4.231 -1.0040  0.6666 -2.0069
 3835TIP3   OH211468   0.091   1.490   2.645 -0.0492 -0.2216 -0.1548
 3835TIP3    H111469   0.163   1.462   2.589 -0.5321 -0.2973 -0.7412
 3835TIP3    H211470   0.045   1.558   2.595  0.3691  0.7465  0.7439
 3836TIP3   OH211471   5.007   5.878   1.704 -0.2665  0.0616  0.2207
 3836TIP3    H111472   4.965   5.932   1.637 -0.5413  0.4061  0.6676
 3836TIP3    H211473   5.067   5.937   1.749  0.2726 -0.2851 -0.0224
 3837TIP3   OH211474   0.709   4.873   1.469  0.1952  0.3263  0.1440
 3837TIP3    H111475   0.673   4.836   1.549 -1.4211  2.1824  0.3457
 3837TIP3    H211476   0.635   4.873   1.407  1.4247 -1.1582 -1.4314
 3838TIP3   OH211477   6.065   5.241   2.880 -0.3528  0.0631 -0.3191
 3838TIP3    H111478   6.012   5.284   2.947  0.2449  1.7266 -0.8609
 3838TIP3    H211479   6.055   5.148   2.897 -2.8916  0.3457  0.0142
 3839TIP3   OH211480   5.488   3.741   4.883 -0.2059 -0.4109 -0.1208
 3839TIP3    H111481   5.577   3.709   4.901 -0.2791 -0.5404  0.0103
 3839TIP3    H211482   5.431   3.674   4.921 -0.3638  0.0814  0.5268
 3840TIP3   OH211483   2.352   1.898   1.356  0.3564 -0.2052  0.4162
 3840TIP3    H111484   2.368   1.936   1.270  0.1687 -2.6388 -0.7621
 3840TIP3    H211485   2.439   1.893   1.396  1.0401 -2.3236 -1.1380
 3841TIP3   OH211486   1.669   5.362   0.929 -0.3950  0.7160 -0.0582
 3841TIP3    H111487   1.592   5.410   0.900  0.0295  1.7299  0.4503
 3841TIP3    H211488   1.710   5.419   0.994 -1.4305 -1.5023  2.7872
 3842TIP3   OH211489   3.342   4.857   1.282 -0.1504 -0.2163 -0.2900
 3842TIP3    H111490   3.423   4.828   1.241 -0.3145  0.7532 -1.3411
 3842TIP3    H211491   3.290   4.893   1.210 -1.9748 -1.7903  0.1620
 3843TIP3   OH211492   2.820   4.696   0.410  0.4818 -0.2479 -0.8102
 3843TIP3    H111493   2.839   4.775   0.359 -1.2576  1.1738  0.6031
 3843TIP3    H211494   2.742   4.659   0.369 -0.1136  0.1353 -0.0537
 3844TIP3   OH211495   0.564   4.917   3.279  0.5547  0.1256 -0.3525
 3844TIP3    H111496   0.620   4.860   3.227 -0.3050  0.6570 -1.8994
 3844TIP3    H211497   0.476   4.883   3.266  0.3239  0.1459  0.9518
 3845TIP3   OH211498   6.979   0.475   4.336  0.0155  0.2915 -0.4044
 3845TIP3    H111499   6.945   0.446   4.252 -0.5513 -3.3728  0.9309
 3845TIP3    H211500   7.071   0.497   4.319 -0.3408  0.5690 -2.1166
 3846TIP3   OH211501   1.630   1.647   0.726  0.6585 -0.0328 -0.6279
 3846TIP3    H111502   1.610   1.690   0.810  1.0920  0.0322 -0.5523
 3846TIP3    H211503   1.694   1.705   0.685  0.7420 -0.2659 -0.8280
 3847TIP3   OH211504   4.101   4.531   1.490 -0.5662  0.2610  0.7385
 3847TIP3    H111505   4.021   4.581   1.475 -1.4872 -0.6053  2.4352
 3847TIP3    H211506   4.071   4.449   1.530  1.1610 -0.1262  1.3395
 3848TIP3   OH211507   4.058   4.287   1.944  0.6598 -0.0412  0.0687
 3848TIP3    H111508   4.061   4.205   1.893 -0.4816  1.0108 -1.8107
 3848TIP3    H211509   3.965   4.299   1.964  1.0098 -0.0548  1.8697
 3849TIP3   OH211510   5.818   0.272   5.169 -0.5007 -0.0108 -0.0905
 3849TIP3    H111511   5.725   0.289   5.153 -0.8175 -0.3724  1.2766
 3849TIP3    H211512   5.841   0.328   5.243  0.3030 -0.1445 -0.2244
 3850TIP3   OH211513   3.946   3.178   0.996  0.5089 -1.0455  0.4281
 3850TIP3    H111514   3.922   3.260   0.951 -0.7318 -0.8351  1.4036
 3850TIP3    H211515   4.039   3.167   0.978  0.9106  1.0341  0.9259
 3851TIP3   OH211516   6.415   3.303   3.382 -0.7118 -0.0246 -0.5707
 3851TIP3    H111517   6.426   3.282   3.475 -2.7584  0.9376 -0.0282
 3851TIP3    H211518   6.428   3.398   3.377  0.2762 -0.1933 -1.4490
 3852TIP3   OH211519   6.803   4.069   2.381  0.2703  1.0045  0.4902
 3852TIP3    H111520   6.733   4.130   2.402 -1.4046 -1.3109  2.1566
 3852TIP3    H211521   6.856   4.065   2.461  1.8352  2.0192 -0.4330
 3853TIP3   OH211522   2.005   2.213   0.441 -0.0139  0.0339 -0.3452
 3853TIP3    H111523   2.069   2.224   0.370 -0.2697  0.2030 -0.5532
 3853TIP3    H211524   2.031   2.132   0.484  1.5764  1.1611  0.8901
 3854TIP3   OH211525   1.949   4.949   1.531  0.5637  0.0600  0.2499
 3854TIP3    H111526   2.001   4.894   1.589 -1.9084 -1.5128  1.1177
 3854TIP3    H211527   1.898   4.887   1.479 -0.9676  1.4964 -0.0275
 3855TIP3   OH211528   2.726   5.100   5.214 -0.1639  0.2889  0.2198
 3855TIP3    H111529   2.681   5.032   5.264  1.7148 -1.6511 -0.5529
 3855TIP3    H211530   2.759   5.054   5.137  0.0681  2.4125 -1.0209
 3856TIP3   OH211531   3.677   2.095   1.364  0.4430 -0.0876 -0.1824
 3856TIP3    H111532   3.691   2.039   1.441  0.5872  1.4944  0.9996
 3856TIP3    H211533   3.713   2.180   1.390 -0.6998  0.8448 -1.5169
 3857TIP3   OH211534   4.942   2.867   2.454  0.0907 -0.0443 -0.3253
 3857TIP3    H111535   4.853   2.873   2.421 -0.6818  0.2786  1.6976
 3857TIP3    H211536   4.981   2.795   2.404 -1.1042  0.1820 -1.6349
 3858TIP3   OH211537   5.632   1.615   4.663 -0.2189 -0.0163  0.3303
 3858TIP3    H111538   5.707   1.606   4.722 -0.3732 -1.4949  0.3427
 3858TIP3    H211539   5.617   1.527   4.630 -1.0817  0.5170 -0.7705
 3859TIP3   OH211540   6.801   6.744   0.672 -0.3627  0.6701 -0.3946
 3859TIP3    H111541   6.880   6.797   0.680  0.7434 -1.0606  0.8836
 3859TIP3    H211542   6.767   6.764   0.585  0.7696  2.3720 -0.4960
 3860TIP3   OH211543   2.248   3.463   5.394  0.0672  0.4060  0.6502
 3860TIP3    H111544   2.257   3.411   5.315 -0.8997 -0.1710  0.9100
 3860TIP3    H211545   2.174   3.521   5.376  0.1199  0.5740  0.9687
 3861TIP3   OH211546   1.575   2.612   1.034 -0.5438  0.3790 -0.1095
 3861TIP3    H111547   1.512   2.627   1.105 -1.6201  0.6675 -1.1006
 3861TIP3    H211548   1.607   2.523   1.049 -2.3378 -0.3709 -0.4388
 3862TIP3   OH211549   1.708   4.514   5.706 -0.0170 -0.0423  0.4222
 3862TIP3    H111550   1.643   4.555   5.650  0.1537  0.5208  0.6154
 3862TIP3    H211551   1.726   4.429   5.666  0.6754  0.6571 -0.8220
 3863TIP3   OH211552   5.183   2.760   2.917  0.4043  0.0848  0.0801
 3863TIP3    H111553   5.125   2.714   2.855  0.1375  1.0212 -0.3864
 3863TIP3    H211554   5.143   2.745   3.003  0.6610 -1.0566  0.0134
 3864TIP3   OH211555   3.774   1.029   2.085 -0.3953  0.8428  0.0387
 3864TIP3    H111556   3.703   1.070   2.036 -0.0591  0.5791 -0.6761
 3864TIP3    H211557   3.854   1.059   2.042 -0.1507 -0.7622 -0.6732
 3865TIP3   OH211558   5.646   2.129   1.524 -0.3631  0.6066 -0.1899
 3865TIP3    H111559   5.740   2.139   1.505 -0.4632 -0.9141 -1.8346
 3865TIP3    H211560   5.603   2.193   1.468 -0.3461  0.6086 -0.2006
 3866TIP3   OH211561   4.117   3.475   2.475 -0.1747  0.2860  0.2567
 3866TIP3    H111562   4.211   3.458   2.468 -0.0832  0.6418  0.5741
 3866TIP3    H211563   4.083   3.399   2.523 -0.0048  0.2765  0.3653
 3867TIP3   OH211564   2.233   0.191   4.639 -0.0745 -0.1875 -0.8474
 3867TIP3    H111565   2.255   0.101   4.662  1.1813  0.3758  0.2816
 3867TIP3    H211566   2.263   0.201   4.549  0.9933 -0.5210 -0.5466
 3868TIP3   OH211567   5.648   6.692   3.408  0.1076  0.0656 -0.4570
 3868TIP3    H111568   5.596   6.632   3.355  0.5394 -1.4456  0.7332
 3868TIP3    H211569   5.668   6.765   3.350 -0.1076 -1.1276 -2.1037
 3869TIP3   OH211570   2.010   3.434   4.384  0.2536  0.5487 -0.5519
 3869TIP3    H111571   1.970   3.358   4.426 -0.1131 -0.1474 -2.1209
 3869TIP3    H211572   2.089   3.451   4.436  1.2351 -1.9161 -1.0835
 3870TIP3   OH211573   0.039   4.279   0.476  0.0601  0.6019 -0.1660
 3870TIP3    H111574   0.119   4.270   0.424  1.7144  0.6770  2.2205
 3870TIP3    H211575   0.028   4.195   0.520 -0.8583  0.7987  0.0208
 3871TIP3   OH211576   2.467   3.003   4.696 -0.1103 -0.8713 -0.6092
 3871TIP3    H111577   2.389   2.954   4.722 -0.3910 -0.5975 -0.9260
 3871TIP3    H211578   2.539   2.940   4.705 -0.4222 -1.2475 -0.7071
 3872TIP3   OH211579   2.946   1.953   4.397 -0.2433 -0.1463 -0.4485
 3872TIP3    H111580   2.905   1.897   4.463 -1.6528  1.4963  0.1482
 3872TIP3    H211581   3.008   1.896   4.351 -0.5188 -1.7719  1.1164
 3873TIP3   OH211582   6.273   3.246   4.775 -0.4545  0.3662  0.1204
 3873TIP3    H111583   6.299   3.255   4.867  2.2000  0.7789 -0.5930
 3873TIP3    H211584   6.212   3.318   4.760  0.1476  1.1277  1.2192
 3874TIP3   OH211585   1.874   2.132   3.626 -0.3199 -0.1955 -0.3330
 3874TIP3    H111586   1.808   2.151   3.558  1.7158  1.9221 -1.8908
 3874TIP3    H211587   1.860   2.201   3.691 -0.0637 -0.1244 -0.3538
 3875TIP3   OH211588   2.544   4.734   5.156 -0.2747 -0.5387 -0.2464
 3875TIP3    H111589   2.494   4.670   5.208 -0.7296  0.5476  0.6932
 3875TIP3    H211590   2.498   4.817   5.170  1.0275  0.2313 -0.4314
 3876TIP3   OH211591   6.264   1.258   0.149 -0.1915 -0.5918 -0.3796
 3876TIP3    H111592   6.327   1.193   0.118  0.9646  0.6288 -0.6461
 3876TIP3    H211593   6.230   1.221   0.230  0.5759 -1.4465 -0.4309
 3877TIP3   OH211594   2.186   2.554   5.499  0.4778 -0.4334  0.0921
 3877TIP3    H111595   2.266   2.602   5.521 -0.1234  1.2129 -1.0914
 3877TIP3    H211596   2.180   2.560   5.404 -0.0163 -2.2864 -0.0229
 3878TIP3   OH211597   2.763   1.649   1.519 -0.1570 -0.2392  0.2603
 3878TIP3    H111598   2.769   1.735   1.562 -1.1271 -0.1515  0.2346
 3878TIP3    H211599   2.679   1.650   1.474  0.4841 -0.6427 -0.9982
 3879TIP3   OH211600   5.132   3.823   2.292 -0.0893  0.0202  0.0099
 3879TIP3    H111601   5.040   3.820   2.320 -0.0674 -0.3401  0.0416
 3879TIP3    H211602   5.131   3.792   2.201 -0.3110  2.2236 -0.8036
 3880TIP3   OH211603   3.939   0.703   2.653  0.5196 -1.4299  0.0999
 3880TIP3    H111604   3.973   0.735   2.569  0.1243 -1.7911 -0.2029
 3880TIP3    H211605   3.975   0.763   2.718  1.3659 -1.5303 -0.2575
 3881TIP3   OH211606   5.811   4.518   4.291  0.0632  0.0975 -0.1868
 3881TIP3    H111607   5.877   4.586   4.305 -0.7280  0.8594 -0.1239
 3881TIP3    H211608   5.745   4.533   4.359 -0.4407 -0.3440 -0.5687
 3882TIP3   OH211609   6.497   5.798   2.311  0.1466 -0.2228 -0.3556
 3882TIP3    H111610   6.427   5.753   2.357 -0.2639  0.2506 -0.5054
 3882TIP3    H211611   6.465   5.808   2.221 -0.0537  0.9536 -0.1651
 3883TIP3   OH211612   0.015   3.512   4.884 -0.3709  0.5250  0.6492
 3883TIP3    H111613   0.076   3.445   4.855 -0.9610  0.4891 -0.5773
 3883TIP3    H211614  -0.053   3.513   4.816 -0.1919  2.5997  0.4550
 3884TIP3   OH211615   6.392   4.004   0.946  0.2618 -0.3698  0.0079
 3884TIP3    H111616   6.458   4.005   0.877 -0.5024 -1.3730 -0.7722
 3884TIP3    H211617   6.343   4.085   0.934  0.8568  0.0095  0.1076
 3885TIP3   OH211618   5.788   0.931   4.145 -0.5894 -0.0965 -0.2747
 3885TIP3    H111619   5.807   0.852   4.094 -2.5805 -0.3437 -0.7067
 3885TIP3    H211620   5.771   0.998   4.079 -2.1077 -0.1469  0.0193
 3886TIP3   OH211621   5.967   5.418   5.592 -0.5119  0.0897 -0.3516
 3886TIP3    H111622   5.994   5.337   5.548  0.5121 -0.4953  1.3002
 3886TIP3    H211623   5.906   5.459   5.530 -0.3368 -1.4723 -1.6210
 3887TIP3   OH211624   5.662   3.890   4.569 -0.4230 -0.4358 -0.5129
 3887TIP3    H111625   5.610   3.960   4.529 -0.0896  0.0879 -0.0545
 3887TIP3    H211626   5.666   3.913   4.661 -0.2696 -1.0449 -0.3624
 3888TIP3   OH211627   3.721   4.420   2.963  0.1723 -0.0898 -0.0638
 3888TIP3    H111628   3.790   4.355   2.947  0.3617 -0.1151  0.8253
 3888TIP3    H211629   3.639   4.372   2.947  0.3372 -0.2281 -0.5153
 3889TIP3   OH211630   5.261   3.015   0.441  0.0216  0.6225 -0.1182
 3889TIP3    H111631   5.192   2.958   0.408 -0.2562  1.0266 -0.2489
 3889TIP3    H211632   5.330   2.956   0.469  0.8696  0.2733 -2.7254
 3890TIP3   OH211633   6.346   6.690   2.162 -0.2083 -0.4378 -0.2377
 3890TIP3    H111634   6.283   6.629   2.122 -0.2473  0.9887 -2.5546
 3890TIP3    H211635   6.334   6.772   2.113  2.3211  0.3727  0.3543
 3891TIP3   OH211636   5.257   6.413   0.473  0.1437  0.1671  0.0502
 3891TIP3    H111637   5.209   6.466   0.536  0.4262  1.7697 -1.0375
 3891TIP3    H211638   5.200   6.410   0.396  0.0640 -1.2723  0.1410
 3892TIP3   OH211639   6.907   6.084   1.029 -0.2702 -0.2631 -0.0534
 3892TIP3    H111640   6.954   6.001   1.019 -1.7179 -1.1875  0.4165
 3892TIP3    H211641   6.852   6.090   0.950  0.9655  1.0696 -0.8629
 3893TIP3   OH211642   6.788   5.181   2.272  0.0051  0.3135 -0.3782
 3893TIP3    H111643   6.755   5.267   2.246 -0.8639 -0.7479 -3.2543
 3893TIP3    H211644   6.877   5.198   2.302 -1.3167  2.6154  2.8261
 3894TIP3   OH211645   0.578   5.740   3.228 -0.0891  0.0078  0.0550
 3894TIP3    H111646   0.580   5.808   3.295  0.1303 -1.3367  1.4698
 3894TIP3    H211647   0.603   5.660   3.274 -1.6743 -1.3062 -1.2300
 3895TIP3   OH211648   6.953   4.350   0.850 -0.1384 -0.3144 -0.7181
 3895TIP3    H111649   6.904   4.432   0.860 -0.2909 -0.4514 -0.3086
 3895TIP3    H211650   6.896   4.284   0.888  0.6027 -0.3897  0.2908
 3896TIP3   OH211651   5.069   4.187   5.743  0.2631 -0.3056 -0.5779
 3896TIP3    H111652   5.150   4.162   5.786  0.2784 -0.7614 -0.8594
 3896TIP3    H211653   5.005   4.194   5.814  0.6863  0.6768 -0.2788
 3897TIP3   OH211654   5.148   6.614   0.648  0.1952  0.2025  0.2437
 3897TIP3    H111655   5.165   6.674   0.721  0.3534  1.0212 -0.4400
 3897TIP3    H211656   5.118   6.671   0.577  0.1185 -0.5618 -0.3519
 3898TIP3   OH211657   5.758   1.555   5.106 -0.1966 -0.0794 -0.3590
 3898TIP3    H111658   5.700   1.632   5.105 -2.5470 -1.7101  1.0880
 3898TIP3    H211659   5.704   1.484   5.070  1.7305 -1.2255 -1.1347
 3899TIP3   OH211660   0.299   3.163   2.808  0.2678  0.3505  0.3891
 3899TIP3    H111661   0.330   3.096   2.869 -0.9508 -0.6850 -0.0779
 3899TIP3    H211662   0.379   3.204   2.774  1.0144 -0.4748  1.1127
 3900TIP3   OH211663  -0.015   5.715   3.887 -0.0396 -0.3066  0.2436
 3900TIP3    H111664   0.009   5.807   3.872  0.2471 -0.5107 -0.5893
 3900TIP3    H211665   0.055   5.681   3.943  0.7419 -0.4463 -0.7915
 3901TIP3   OH211666   1.917   5.828   1.626 -0.9026  0.2510  0.1645
 3901TIP3    H111667   2.007   5.800   1.645 -0.8881 -0.3193 -0.7004
 3901TIP3    H211668   1.875   5.831   1.712 -0.5489 -1.1972  0.4166
 3902TIP3   OH211669   4.077   2.798   3.049 -0.2825 -0.3669  0.0449
 3902TIP3    H111670   4.007   2.743   3.015 -0.7833  0.0348  0.4134
 3902TIP3    H211671   4.054   2.812   3.141 -0.5769  1.0872 -0.2334
 3903TIP3   OH211672   2.197   3.872   4.769 -0.3993 -0.5253 -1.2503
 3903TIP3    H111673   2.210   3.777   4.775  0.3291 -0.4997 -2.2036
 3903TIP3    H211674   2.252   3.899   4.696 -0.4874  0.6622 -0.8966
 3904TIP3   OH211675   6.466   0.899   0.638  0.1440  0.0508 -0.4454
 3904TIP3    H111676   6.384   0.849   0.629  0.9565 -1.0849 -1.8561
 3904TIP3    H211677   6.443   0.986   0.607 -0.2656 -0.5757 -2.0229
 3905TIP3   OH211678   4.866   6.136   3.711  0.6904 -0.4336 -0.4446
 3905TIP3    H111679   4.774   6.123   3.735  0.2974  0.2631 -1.4870
 3905TIP3    H211680   4.911   6.058   3.743 -0.2302 -0.6919  0.2531
 3906TIP3   OH211681   4.288   1.502   4.314  0.2224  1.0026  0.0770
 3906TIP3    H111682   4.309   1.563   4.385 -0.1193  2.3952 -0.9810
 3906TIP3    H211683   4.333   1.538   4.238  0.1313 -0.1665 -0.5471
 3907TIP3   OH211684   2.016   6.213   3.542  0.8298  0.1263 -0.4296
 3907TIP3    H111685   2.069   6.199   3.464  1.9931  1.7890  0.0005
 3907TIP3    H211686   1.926   6.211   3.510  1.1839 -1.2281 -1.4405
 3908TIP3   OH211687   3.718   3.771   0.268  0.1110  0.0951 -0.1663
 3908TIP3    H111688   3.728   3.816   0.184 -1.4767  0.2961 -0.2860
 3908TIP3    H211689   3.703   3.680   0.245  1.0263 -0.1011 -0.0234
 3909TIP3   OH211690   4.761   2.924   4.726 -0.2785 -0.7018  0.1635
 3909TIP3    H111691   4.829   2.884   4.781 -0.0960 -2.6126 -1.3369
 3909TIP3    H211692   4.807   2.994   4.680  0.2136 -0.7820  0.5137
 3910TIP3   OH211693   6.649   0.845   1.071 -0.3059 -0.2295 -0.2118
 3910TIP3    H111694   6.583   0.893   1.123 -0.2302  2.1641 -2.1384
 3910TIP3    H211695   6.597   0.787   1.016 -0.5704 -0.6090  0.4153
 3911TIP3   OH211696   6.201   1.265   1.316 -0.5044  0.3550  0.5333
 3911TIP3    H111697   6.227   1.244   1.226  0.9788  1.6112  0.6338
 3911TIP3    H211698   6.159   1.351   1.309  0.9495  1.1474  1.2106
 3912TIP3   OH211699   5.464   1.398   3.135 -0.0979 -0.6220  0.6342
 3912TIP3    H111700   5.525   1.448   3.080 -0.0398  0.8814  2.0052
 3912TIP3    H211701   5.517   1.327   3.170  0.3104 -0.5722  0.1411
 3913TIP3   OH211702   2.437   3.379   1.913  0.2845  1.0304 -0.2584
 3913TIP3    H111703   2.368   3.441   1.889  0.8497  1.5984 -0.4318
 3913TIP3    H211704   2.454   3.396   2.006 -0.7162 -0.0161  0.1543
 3914TIP3   OH211705   2.214   1.461   1.563 -0.1253  0.1946 -0.1824
 3914TIP3    H111706   2.197   1.383   1.509  1.3508 -1.3596  1.4341
 3914TIP3    H211707   2.188   1.534   1.508 -2.8730 -1.4623 -1.2966
 3915TIP3   OH211708   3.230   0.907   3.369 -0.3297  0.1826 -0.1247
 3915TIP3    H111709   3.273   0.989   3.395  1.0561 -0.2065 -1.1245
 3915TIP3    H211710   3.299   0.853   3.332 -1.2130 -1.4936  0.5513
 3916TIP3   OH211711   0.780   2.111   5.330  0.2329 -0.4052  0.3954
 3916TIP3    H111712   0.824   2.061   5.399  0.2838  0.4612  0.9983
 3916TIP3    H211713   0.815   2.199   5.338 -1.0284  0.1168  0.3749
 3917TIP3   OH211714   0.088   2.641   1.708  0.3380 -0.0140 -0.5643
 3917TIP3    H111715   0.169   2.605   1.671  1.6627  1.6390  0.5882
 3917TIP3    H211716   0.099   2.631   1.803 -1.1112 -0.3441 -0.4156
 3918TIP3   OH211717   6.814   3.258   2.285  0.4372  0.0431  0.0812
 3918TIP3    H111718   6.880   3.189   2.281 -0.5158 -0.8410 -0.8381
 3918TIP3    H211719   6.854   3.332   2.238  0.0322 -1.1720 -2.3308
 3919TIP3   OH211720   4.184   1.006   5.681  0.3588  0.4339  0.4830
 3919TIP3    H111721   4.208   0.935   5.740  0.9378  0.0472 -0.1958
 3919TIP3    H211722   4.260   1.017   5.624  1.4707  3.5064  2.3132
 3920TIP3   OH211723   3.228   6.394   3.158 -0.3862 -0.8170  0.5084
 3920TIP3    H111724   3.172   6.457   3.111 -1.6093 -3.4954 -1.9017
 3920TIP3    H211725   3.309   6.442   3.173 -1.8668  1.9303  0.5321
 3921TIP3   OH211726   2.121   6.361   1.611  0.0270  0.2307  0.6737
 3921TIP3    H111727   2.172   6.394   1.685 -0.3160 -1.4613  1.7288
 3921TIP3    H211728   2.031   6.361   1.643 -0.2896  0.7178 -0.2216
 3922TIP3   OH211729   2.769   1.071   0.200 -0.1160 -0.5029 -0.5906
 3922TIP3    H111730   2.799   0.981   0.184  1.8641 -0.6850  2.9156
 3922TIP3    H211731   2.699   1.061   0.264 -0.9683  0.4338 -1.3492
 3923TIP3   OH211732   5.033   2.113   5.738 -0.0635  0.2515 -0.2716
 3923TIP3    H111733   4.949   2.104   5.693 -0.4434  1.7336  0.0804
 3923TIP3    H211734   5.098   2.081   5.676 -1.0206 -3.1749  0.2886
 3924TIP3   OH211735   5.958   3.680   1.416 -0.0621  0.1068  0.1002
 3924TIP3    H111736   5.988   3.771   1.425 -0.3618  0.0825  1.7704
 3924TIP3    H211737   6.017   3.641   1.352  0.8013  1.1748  0.2148
 3925TIP3   OH211738   6.345   0.188   3.651  0.1741  0.0040  0.5213
 3925TIP3    H111739   6.377   0.228   3.571  1.7649 -2.4328 -0.1771
 3925TIP3    H211740   6.250   0.199   3.648  0.1263 -0.5477 -2.0387
 3926TIP3   OH211741   6.946   2.030   4.297 -0.6759  0.0674  0.0505
 3926TIP3    H111742   7.027   1.978   4.298 -0.7543 -0.2059 -2.1945
 3926TIP3    H211743   6.876   1.966   4.284 -0.9862  0.5081 -0.5347
 3927TIP3   OH211744   0.312   5.683   1.426  0.0029  0.1125 -0.2772
 3927TIP3    H111745   0.251   5.739   1.474 -0.9331 -1.9927  1.0947
 3927TIP3    H211746   0.275   5.677   1.338 -0.5504  0.6277 -0.0867
 3928TIP3   OH211747   6.276   3.416   5.328  0.8132 -0.9541 -0.6162
 3928TIP3    H111748   6.344   3.360   5.365  0.2688 -1.9255 -1.0360
 3928TIP3    H211749   6.315   3.453   5.249  1.2538 -0.5447 -0.2169
 3929TIP3   OH211750   1.963   2.544   0.297  0.1081  0.3783 -0.4299
 3929TIP3    H111751   1.913   2.617   0.332 -0.2546 -0.0474 -0.0416
 3929TIP3    H211752   2.017   2.514   0.370  1.4656  1.2644 -1.0306
 3930TIP3   OH211753   1.621   1.939   2.346  0.3188  0.0313 -0.3277
 3930TIP3    H111754   1.597   1.975   2.431  1.3435 -1.6919  0.7365
 3930TIP3    H211755   1.568   1.989   2.283 -1.9100  0.0560  1.4445
 3931TIP3   OH211756   5.608   0.148   5.758 -0.4196  0.3359  0.3316
 3931TIP3    H111757   5.660   0.082   5.713  1.7164  0.5784  2.2796
 3931TIP3    H211758   5.619   0.228   5.707  0.7028  0.2431  0.4065
 3932TIP3   OH211759   1.203   1.307   2.126  0.3592 -0.1807 -0.5034
 3932TIP3    H111760   1.121   1.355   2.115  1.0370  1.2544  0.3746
 3932TIP3    H211761   1.187   1.249   2.200  0.6839  1.4881  0.9424
 3933TIP3   OH211762   1.150   0.876   1.187 -0.0337 -0.6412 -0.0700
 3933TIP3    H111763   1.130   0.784   1.200  0.9999 -1.1159 -1.6651
 3933TIP3    H211764   1.199   0.880   1.105 -1.1085  1.4666 -0.6986
 3934TIP3   OH211765   0.231   2.137   4.631  0.2652  0.0131  0.3026
 3934TIP3    H111766   0.139   2.118   4.609  0.6733 -0.9736 -0.6151
 3934TIP3    H211767   0.258   2.202   4.567  0.6286 -0.7921 -0.3796
 3935TIP3   OH211768   0.080   3.250   0.458 -0.1333 -0.2245  0.1890
 3935TIP3    H111769   0.097   3.289   0.373 -0.4329 -0.2421  0.1220
 3935TIP3    H211770   0.072   3.156   0.441  0.5524 -0.3234  0.3452
 3936TIP3   OH211771   3.872   3.682   3.443 -0.2811 -0.6144 -0.1955
 3936TIP3    H111772   3.857   3.639   3.526 -1.6625 -0.7066 -0.4629
 3936TIP3    H211773   3.817   3.634   3.380 -1.2132  0.9695 -0.6541
 3937TIP3   OH211774   0.607   5.346   2.115  0.1032 -0.5218 -0.4013
 3937TIP3    H111775   0.550   5.333   2.039 -0.7539  2.1704 -0.3043
 3937TIP3    H211776   0.551   5.329   2.191  0.6022 -1.8991 -0.3102
 3938TIP3   OH211777   6.584   5.306   3.454 -0.2108  0.9446 -0.3405
 3938TIP3    H111778   6.650   5.323   3.386  0.4346  1.1694  0.3324
 3938TIP3    H211779   6.560   5.392   3.487  0.2274  0.7847  0.4132
 3939TIP3   OH211780   1.171   5.760   5.439  0.1144 -0.0633 -0.2508
 3939TIP3    H111781   1.200   5.684   5.389  0.1651  0.8922 -1.7235
 3939TIP3    H211782   1.076   5.763   5.426  0.2828  0.9419 -1.4310
 3940TIP3   OH211783   0.119   0.393   2.731  0.4906 -0.1417  0.0465
 3940TIP3    H111784   0.042   0.336   2.721 -0.0669  0.7393 -0.9689
 3940TIP3    H211785   0.103   0.440   2.813 -1.0953  1.4735 -1.1087
 3941TIP3   OH211786   3.663   4.530   4.030 -0.0517 -0.2462  0.3635
 3941TIP3    H111787   3.641   4.501   4.118 -1.0130 -0.5268  0.0429
 3941TIP3    H211788   3.709   4.455   3.991  1.2218  0.2239  0.9290
 3942TIP3   OH211789   1.351   1.870   5.413 -0.4045  0.1914 -0.0090
 3942TIP3    H111790   1.291   1.906   5.347  0.6109  1.0730 -0.4812
 3942TIP3    H211791   1.357   1.777   5.393 -0.4395  0.3735 -0.9014
 3943TIP3   OH211792   6.497   0.180   1.390  0.3588 -0.0568  0.2697
 3943TIP3    H111793   6.590   0.160   1.381  0.8484  2.2609 -0.7406
 3943TIP3    H211794   6.465   0.189   1.300 -0.3083  1.1653  0.5998
 3944TIP3   OH211795   3.904   5.306   1.804 -0.4660 -0.5445  0.2103
 3944TIP3    H111796   3.968   5.236   1.814 -0.2080 -0.2302  0.8453
 3944TIP3    H211797   3.932   5.373   1.867  0.8279  1.3007 -2.1669
 3945TIP3   OH211798   5.172   4.983   2.047 -0.1935  0.2731  0.5423
 3945TIP3    H111799   5.086   5.008   2.014 -1.3006 -3.6605 -0.0759
 3945TIP3    H211800   5.157   4.965   2.140  0.0166 -0.1223  0.5012
 3946TIP3   OH211801   3.587   0.507   3.177  0.0221 -0.3064  0.3082
 3946TIP3    H111802   3.587   0.602   3.167  1.4575 -0.2933  0.2469
 3946TIP3    H211803   3.503   0.488   3.220  0.0577  1.0692  1.0673
 3947TIP3   OH211804   1.669   4.354   0.897  0.0130 -0.0180  0.1941
 3947TIP3    H111805   1.596   4.398   0.942 -0.6458 -1.9322  1.1325
 3947TIP3    H211806   1.698   4.287   0.959  1.4843 -0.4026 -0.8500
 3948TIP3   OH211807   3.752   5.685   0.783  0.2090  0.5081 -0.1193
 3948TIP3    H111808   3.827   5.722   0.736  1.0221 -0.1820  0.5833
 3948TIP3    H211809   3.691   5.658   0.715  1.0535  0.1756 -0.7630
 3949TIP3   OH211810   3.326   6.556   5.531  1.0488  0.5699 -0.5525
 3949TIP3    H111811   3.237   6.586   5.514  0.4594 -1.3669 -1.1989
 3949TIP3    H211812   3.369   6.630   5.575 -0.8419  1.5734 -0.2936
 3950TIP3   OH211813   0.431   1.493   2.023  0.3023 -1.0137  0.1548
 3950TIP3    H111814   0.385   1.418   2.061 -0.4385 -0.3372  0.6177
 3950TIP3    H211815   0.508   1.504   2.078  0.3192 -1.3293  0.1956
 3951TIP3   OH211816   3.834   2.762   0.820  0.1440 -0.1647 -0.1909
 3951TIP3    H111817   3.851   2.850   0.784 -2.8107  0.1643 -1.0969
 3951TIP3    H211818   3.788   2.779   0.902 -1.6855 -0.7418 -1.0287
 3952TIP3   OH211819   3.530   0.169   5.525  0.0686 -0.2896 -0.7302
 3952TIP3    H111820   3.614   0.133   5.552 -0.1927 -1.2916 -1.2055
 3952TIP3    H211821   3.550   0.228   5.452  0.5500  0.9080  0.3356
 3953TIP3   OH211822   6.406   1.792   3.557  0.0505 -0.7635 -0.2380
 3953TIP3    H111823   6.433   1.884   3.553  0.5481 -0.8634  0.6269
 3953TIP3    H211824   6.445   1.759   3.637  2.7492 -2.6524 -2.1755
 3954TIP3   OH211825   2.317   0.456   3.736 -0.7409  0.0494  0.1964
 3954TIP3    H111826   2.226   0.445   3.707 -1.0660 -0.3733  1.2921
 3954TIP3    H211827   2.321   0.407   3.818  0.9104 -1.2409 -0.5993
 3955TIP3   OH211828   4.064   3.805   5.671 -0.5075 -0.3780 -0.7139
 3955TIP3    H111829   4.085   3.813   5.578  0.9702  0.0815 -0.3729
 3955TIP3    H211830   4.028   3.891   5.694 -0.0620 -0.1963 -0.6807
 3956TIP3   OH211831   5.182   3.481   3.504  0.0684 -0.2250 -0.0657
 3956TIP3    H111832   5.146   3.479   3.593 -0.5201  0.6873 -0.2666
 3956TIP3    H211833   5.175   3.391   3.473  1.0212 -0.7213  1.0913
 3957TIP3   OH211834   2.387   2.376   4.995  0.3181 -0.4943  0.3520
 3957TIP3    H111835   2.423   2.358   4.908 -0.2785  1.8629 -0.4735
 3957TIP3    H211836   2.301   2.414   4.978  1.0390  2.0219  1.8010
 3958TIP3   OH211837   1.571   5.585   0.218  0.3506 -0.1182  0.4452
 3958TIP3    H111838   1.627   5.661   0.226  1.0510 -0.5464 -0.3014
 3958TIP3    H211839   1.510   5.592   0.292  0.8887  0.7543  0.8134
 3959TIP3   OH211840   3.923   2.150   0.654 -0.3728  0.4744  0.0352
 3959TIP3    H111841   4.006   2.170   0.697  0.8264  0.5711 -2.1673
 3959TIP3    H211842   3.873   2.232   0.659 -0.0806  0.6096  0.8087
 3960TIP3   OH211843   1.236   5.840   0.409 -0.4561  0.4236  0.4856
 3960TIP3    H111844   1.194   5.913   0.456 -0.3687  0.6784  0.1676
 3960TIP3    H211845   1.224   5.765   0.467 -1.7432  0.3911  0.2110
 3961TIP3   OH211846   6.122   6.592   3.511  0.3015  0.0527  0.0821
 3961TIP3    H111847   6.172   6.628   3.584  1.1583 -0.0489 -0.4306
 3961TIP3    H211848   6.032   6.590   3.541  0.6646 -0.1192  1.1822
 3962TIP3   OH211849   3.736   1.291   1.180  0.8324  0.2380  0.0078
 3962TIP3    H111850   3.703   1.228   1.116 -1.5286  0.3791  0.9735
 3962TIP3    H211851   3.758   1.368   1.127  2.6845 -0.9346 -1.0402
 3963TIP3   OH211852   6.870   4.948   3.089 -0.2090 -0.3641  0.0971
 3963TIP3    H111853   6.890   4.904   3.006  1.7206 -1.2143  0.9254
 3963TIP3    H211854   6.954   4.984   3.117 -0.9685  0.4905  1.3573
 3964TIP3   OH211855   2.039   4.726   4.552 -0.1425 -0.1065  0.2148
 3964TIP3    H111856   1.976   4.654   4.555 -0.5045  0.2349  1.4028
 3964TIP3    H211857   2.000   4.789   4.491 -0.7050 -0.1274  0.5447
 3965TIP3   OH211858   0.081   4.902   0.767  0.4124 -0.5016  0.1745
 3965TIP3    H111859   0.165   4.867   0.796  1.7603  2.6697  0.4584
 3965TIP3    H211860   0.032   4.920   0.847  1.4679  2.0569  0.3377
 3966TIP3   OH211861   4.146   5.208   2.422  0.8746  0.3885 -0.2011
 3966TIP3    H111862   4.108   5.294   2.438 -0.1174 -0.3042  1.4590
 3966TIP3    H211863   4.073   5.155   2.388  1.3157  0.0353 -0.6112
 3967TIP3   OH211864   5.347   3.171   1.494 -0.5662  0.6743 -0.1219
 3967TIP3    H111865   5.377   3.254   1.530 -0.4224  1.6560 -2.3084
 3967TIP3    H211866   5.264   3.153   1.538  0.1962  1.1081  1.5503
 3968TIP3   OH211867   5.906   1.453   2.393 -0.5070  0.2633 -0.0384
 3968TIP3    H111868   5.815   1.431   2.373 -0.6816  1.5329 -0.7983
 3968TIP3    H211869   5.902   1.546   2.418  0.8092  0.9797 -2.1829
 3969TIP3   OH211870   6.485   0.732   0.882 -0.3282  0.0924  0.4497
 3969TIP3    H111871   6.401   0.723   0.926 -1.1028 -0.2337 -1.0121
 3969TIP3    H211872   6.463   0.770   0.796  0.7824 -1.5267 -0.6061
 3970TIP3   OH211873   1.084   4.837   5.585 -0.7115  0.7730 -0.3080
 3970TIP3    H111874   1.070   4.783   5.507  0.7276  0.0321 -0.0851
 3970TIP3    H211875   1.113   4.775   5.652  0.6449  1.7529  0.0533
 3971TIP3   OH211876   0.002   2.810   2.484 -0.5645  0.1631  0.1405
 3971TIP3    H111877   0.069   2.768   2.429  0.2876  0.0981  1.2080
 3971TIP3    H211878   0.002   2.902   2.455  0.0134  0.1715  0.1539
 3972TIP3   OH211879   4.573   1.324   5.480  0.1043 -0.3877 -0.5734
 3972TIP3    H111880   4.656   1.363   5.452 -0.1664  0.1034 -0.7193
 3972TIP3    H211881   4.588   1.296   5.570 -0.3339  2.1110  0.3715
 3973TIP3   OH211882   4.653   5.492   5.680 -0.2210 -0.2434  0.1639
 3973TIP3    H111883   4.627   5.549   5.608 -1.4764 -0.4949  0.4022
 3973TIP3    H211884   4.749   5.492   5.677 -0.2321 -1.3835 -2.3842
 3974TIP3   OH211885   1.619   1.668   4.685  0.1240 -0.2142 -0.4808
 3974TIP3    H111886   1.639   1.711   4.602 -1.3126  1.3113 -0.0971
 3974TIP3    H211887   1.563   1.731   4.731 -2.5867 -2.6971 -0.1111
 3975TIP3   OH211888   2.582   0.809   2.909 -0.0355 -0.1939 -0.5459
 3975TIP3    H111889   2.541   0.726   2.933 -1.5629  0.8615  0.6958
 3975TIP3    H211890   2.535   0.836   2.829 -0.7151  0.2619 -0.0032
 3976TIP3   OH211891   2.993   1.157   0.792 -0.0169  0.0213 -0.3429
 3976TIP3    H111892   2.972   1.070   0.828 -0.9269  0.0446 -0.7883
 3976TIP3    H211893   2.909   1.189   0.757  0.8508 -0.0551 -2.6123
 3977TIP3   OH211894   4.705   2.760   2.315  0.2713 -0.3476 -0.4118
 3977TIP3    H111895   4.624   2.758   2.264 -0.6269  0.8556  0.8820
 3977TIP3    H211896   4.676   2.764   2.406  1.7904 -0.0919  0.0923
 3978TIP3   OH211897   1.556   2.655   5.450 -0.2085  0.0070 -1.0934
 3978TIP3    H111898   1.491   2.622   5.512  0.7164 -1.5076 -0.8804
 3978TIP3    H211899   1.623   2.697   5.504  0.2638 -0.7248 -1.0945
 3979TIP3   OH211900   5.354   5.292   0.986  0.0693 -0.1881 -0.4556
 3979TIP3    H111901   5.332   5.202   1.009 -0.1569 -0.7303 -2.5406
 3979TIP3    H211902   5.288   5.316   0.920  1.2887  0.7858 -1.3745
 3980TIP3   OH211903   3.204   4.378   4.894 -0.3094 -0.0616  0.0614
 3980TIP3    H111904   3.265   4.427   4.949 -0.6057  0.0732  0.2736
 3980TIP3    H211905   3.259   4.339   4.826  0.0719 -0.3324  0.5212
 3981TIP3   OH211906   1.567   0.305   2.830 -0.4442  0.2347 -0.5122
 3981TIP3    H111907   1.554   0.238   2.763  0.6035  0.0092 -0.5010
 3981TIP3    H211908   1.487   0.300   2.884 -1.0180  0.0004 -1.3634
 3982TIP3   OH211909   4.265   0.731   4.585  0.3639 -0.5007  0.0312
 3982TIP3    H111910   4.360   0.737   4.581  0.3582  0.6077  1.0128
 3982TIP3    H211911   4.247   0.682   4.666  0.0899 -1.1577 -0.4116
 3983TIP3   OH211912   3.660   6.288   2.761  0.0699 -0.1973 -0.2327
 3983TIP3    H111913   3.705   6.363   2.802 -1.2000  2.0687 -2.6543
 3983TIP3    H211914   3.708   6.273   2.680 -1.9852  0.6828 -1.6926
 3984TIP3   OH211915   2.910   4.921   1.849  0.1532  0.0421 -0.5908
 3984TIP3    H111916   2.976   4.959   1.906 -0.6207  0.2654  0.1772
 3984TIP3    H211917   2.834   4.979   1.857 -0.5097 -0.7924 -0.6091
 3985TIP3   OH211918   4.194   6.585   0.280  0.0661 -0.1040  0.1748
 3985TIP3    H111919   4.136   6.515   0.250 -0.4987  0.1084  0.7334
 3985TIP3    H211920   4.274   6.541   0.309  0.1488 -0.4122 -0.5224
 3986TIP3   OH211921   5.949   3.332   3.556  0.6408  0.0598  0.3366
 3986TIP3    H111922   5.938   3.422   3.523  0.2232 -0.0302  0.2341
 3986TIP3    H211923   6.031   3.302   3.515  0.8882  0.4645  0.5314
 3987TIP3   OH211924   6.219   2.925   4.154  0.4375 -0.6166 -0.4009
 3987TIP3    H111925   6.257   2.971   4.229 -1.5265 -1.9661  1.5483
 3987TIP3    H211926   6.184   2.994   4.099 -0.0292  0.3462  1.0583
 3988TIP3   OH211927   4.601   5.905   5.526 -0.3769  0.2377  0.1837
 3988TIP3    H111928   4.578   5.962   5.452 -0.3347  0.6112  0.4552
 3988TIP3    H211929   4.579   5.817   5.496 -2.7826  0.6169  0.6578
 3989TIP3   OH211930   4.372   5.206   0.059  0.3320  0.2269  0.5005
 3989TIP3    H111931   4.279   5.221   0.043  0.2449  0.7614  1.4395
 3989TIP3    H211932   4.374   5.149   0.137  0.7481 -1.6636 -0.8095
 3990TIP3   OH211933   4.719   4.588   2.380  0.3626 -0.1394 -0.3592
 3990TIP3    H111934   4.658   4.600   2.452  0.6607  0.7746 -0.2523
 3990TIP3    H211935   4.737   4.677   2.349  1.1002 -0.4508 -0.8366
 3991TIP3   OH211936   2.384   2.550   3.416  0.0277 -0.0333  0.7708
 3991TIP3    H111937   2.461   2.497   3.398 -0.0807 -0.1200  0.5517
 3991TIP3    H211938   2.363   2.591   3.331  0.5211  0.9034  1.0933
 3992TIP3   OH211939   4.511   2.592   2.249 -0.0437 -0.2895  0.0722
 3992TIP3    H111940   4.480   2.525   2.187  2.3681 -0.2749 -1.2439
 3992TIP3    H211941   4.498   2.552   2.335 -0.3218 -1.7217 -0.5954
 3993TIP3   OH211942   1.194   2.403   3.035  0.0449  0.0722 -0.2376
 3993TIP3    H111943   1.254   2.469   2.998 -0.6134 -0.8676 -3.3262
 3993TIP3    H211944   1.195   2.333   2.970 -3.3033 -0.6189  0.3220
 3994TIP3   OH211945   5.009   3.195   1.782  0.0267  0.1809  0.1493
 3994TIP3    H111946   5.103   3.211   1.776  0.2784 -0.4866  1.7171
 3994TIP3    H211947   4.997   3.155   1.868 -1.5294 -0.9297 -0.5360
 3995TIP3   OH211948   6.763   5.147   2.680  0.1509  0.3480 -1.0044
 3995TIP3    H111949   6.732   5.222   2.630  0.7515  0.1314 -1.7135
 3995TIP3    H211950   6.739   5.168   2.771 -0.4037  1.0191 -1.2941
 3996TIP3   OH211951   3.838   6.519   4.286  0.3849  0.3261 -0.1475
 3996TIP3    H111952   3.878   6.499   4.371  0.9783 -0.3600 -0.5801
 3996TIP3    H211953   3.828   6.434   4.244 -2.7158  0.2945  0.4248
 3997TIP3   OH211954   0.991   0.184   2.752  0.3127  0.9226  0.8432
 3997TIP3    H111955   0.928   0.116   2.777  0.0472  1.2284  1.0202
 3997TIP3    H211956   1.075   0.138   2.746  0.0670  0.5063  0.5751
 3998TIP3   OH211957   2.063   0.301   5.144  0.8387 -0.4779 -0.3637
 3998TIP3    H111958   2.133   0.352   5.103 -0.5395 -0.8095 -3.4194
 3998TIP3    H211959   1.986   0.357   5.136 -0.6754 -2.7483 -3.6161
 3999TIP3   OH211960   0.204   3.412   0.208  0.3629  0.3445 -0.5618
 3999TIP3    H111961   0.233   3.330   0.167 -1.5256 -0.0725 -1.1712
 3999TIP3    H211962   0.236   3.480   0.150  1.7180  0.0462 -0.1981
 4000TIP3   OH211963   7.000   2.068   2.156  0.5117 -0.0037  0.2686
 4000TIP3    H111964   7.014   2.083   2.063 -0.7302  1.5257  0.2836
 4000TIP3    H211965   7.042   2.143   2.199 -1.4067  0.8736  0.7124
 4001TIP3   OH211966   2.699   1.361   1.137  0.1238  0.0905  0.2991
 4001TIP3    H111967   2.630   1.347   1.202 -0.6767 -0.3225 -0.6194
 4001TIP3    H211968   2.770   1.402   1.186  0.2127 -1.7541  1.8197
 4002TIP3   OH211969   0.403   4.615   2.993 -0.0230  0.2999  1.0052
 4002TIP3    H111970   0.335   4.580   2.935 -0.0229 -1.2599  1.8803
 4002TIP3    H211971   0.468   4.652   2.934 -1.0839  0.8062  0.1097
 4003TIP3   OH211972   0.191   3.999   0.212 -0.4753 -0.1253 -0.0855
 4003TIP3    H111973   0.141   4.074   0.243  1.3951  2.0932 -1.9958
 4003TIP3    H211974   0.129   3.949   0.159 -1.2528  1.2937 -0.5687
 4004TIP3   OH211975   5.173   0.954   4.583  0.0181  0.6445  0.0328
 4004TIP3    H111976   5.196   0.886   4.646 -2.1629 -1.5544 -1.3362
 4004TIP3    H211977   5.084   0.980   4.607 -0.0314  1.3512 -0.8500
 4005TIP3   OH211978   4.689   6.627   0.549 -0.1978 -0.5237  0.0608
 4005TIP3    H111979   4.713   6.719   0.535  1.8323 -0.2542  3.8256
 4005TIP3    H211980   4.602   6.630   0.588 -0.7436 -0.3929 -1.1066
 4006TIP3   OH211981   7.211   5.298   0.736 -0.8925  0.5632  0.3154
 4006TIP3    H111982   7.248   5.378   0.772 -0.3367 -0.2092  1.5482
 4006TIP3    H211983   7.121   5.296   0.768 -0.0854 -0.6692  2.7514
 4007TIP3   OH211984   1.663   6.629   5.861 -0.5927  0.0790  0.1405
 4007TIP3    H111985   1.735   6.568   5.846  0.7864  1.5508  0.4464
 4007TIP3    H211986   1.667   6.689   5.787  0.0087  1.5438  1.3065
 4008TIP3   OH211987   3.373   3.278   1.404  0.1010  0.2011 -0.1040
 4008TIP3    H111988   3.366   3.221   1.480 -0.1988  0.7667  0.2931
 4008TIP3    H211989   3.359   3.366   1.438  0.2202  0.4839 -0.7709
 4009TIP3   OH211990   1.332   1.384   5.711 -0.3566  0.9618  0.1947
 4009TIP3    H111991   1.390   1.311   5.733 -1.1531 -0.1107 -1.0863
 4009TIP3    H211992   1.354   1.452   5.774  0.4700 -0.3634  1.4101
 4010TIP3   OH211993   6.241   6.047   1.946 -0.0862 -0.1190 -0.2782
 4010TIP3    H111994   6.322   6.087   1.979 -0.9606  1.1502  0.4221
 4010TIP3    H211995   6.200   6.115   1.893 -0.5460 -0.8663 -0.8997
 4011TIP3   OH211996   4.161   3.690   0.108 -0.3632 -0.0086  0.6842
 4011TIP3    H111997   4.184   3.761   0.168 -2.2343  1.1133  0.1267
 4011TIP3    H211998   4.071   3.667   0.130 -0.3690 -1.0427 -0.2944
 4012TIP3   OH211999   0.706   1.488   5.145 -0.0068  0.3622 -0.2237
 4012TIP3    H112000   0.662   1.531   5.218  0.8504  1.1961 -0.1755
 4012TIP3    H212001   0.660   1.405   5.134 -0.3599  0.3742  1.0377
 4013TIP3   OH212002   4.064   1.979   5.499  0.5802 -0.0097  0.6080
 4013TIP3    H112003   4.065   2.007   5.590  1.7533 -0.0706  0.6283
 4013TIP3    H212004   4.014   2.047   5.453  0.0228  0.0398  1.2835
 4014TIP3   OH212005   3.757   1.155   3.227  0.5311  0.0257 -0.1969
 4014TIP3    H112006   3.714   1.171   3.311 -0.1393 -0.5831 -0.4246
 4014TIP3    H212007   3.817   1.230   3.217 -0.8178  1.1560 -0.1146
 4015TIP3   OH212008   2.709   4.383   1.494  0.0204  0.3121 -0.8586
 4015TIP3    H112009   2.659   4.384   1.576 -0.3456 -0.2639 -1.0640
 4015TIP3    H212010   2.716   4.475   1.468 -0.7090  0.4230 -0.6804
 4016TIP3   OH212011   1.834   2.141   4.971 -0.7835  0.0215 -0.0193
 4016TIP3    H112012   1.791   2.162   4.887 -1.9213  1.7494  0.9438
 4016TIP3    H212013   1.761   2.128   5.032 -0.0026 -2.2562  0.5405
 4017TIP3   OH212014   3.185   4.264   1.329  0.0144 -0.1785 -0.1580
 4017TIP3    H112015   3.096   4.245   1.301 -0.1227 -0.0609  0.1906
 4017TIP3    H212016   3.188   4.237   1.421  0.2293  0.1668 -0.0609
 4018TIP3   OH212017   1.511   4.946   3.069  0.0530 -0.4787  0.0028
 4018TIP3    H112018   1.576   5.013   3.047  0.5699 -1.3780 -1.4118
 4018TIP3    H212019   1.435   4.967   3.015  0.4107 -1.2976 -0.8516
 4019TIP3   OH212020   3.052   1.226   1.857 -0.3241  0.3158  0.3215
 4019TIP3    H112021   2.977   1.183   1.815  0.7066 -1.4687  0.1914
 4019TIP3    H212022   3.087   1.285   1.790 -1.1654  0.6190  0.1380
 4020TIP3   OH212023   6.182   0.576   1.285 -0.4355 -0.3776 -0.0109
 4020TIP3    H112024   6.269   0.548   1.312 -0.5508 -1.1498 -0.4196
 4020TIP3    H212025   6.141   0.608   1.366  0.6552  1.1672 -0.0429
 4021TIP3   OH212026   3.539   3.386   3.682  0.8151 -0.1935  0.5986
 4021TIP3    H112027   3.568   3.311   3.734  1.7467 -0.5400 -0.3751
 4021TIP3    H212028   3.618   3.439   3.672 -0.3053  2.2161  3.2737
 4022TIP3   OH212029   6.910   5.201   3.981 -0.0889 -0.2946 -0.3365
 4022TIP3    H112030   6.858   5.214   4.061  1.5638 -0.4947  0.8295
 4022TIP3    H212031   6.941   5.110   3.988  0.5858 -0.1101 -0.8821
 4023TIP3   OH212032   3.409   0.879   2.722  0.1388  0.1688 -0.3883
 4023TIP3    H112033   3.462   0.808   2.759  1.4207  1.0973 -0.4038
 4023TIP3    H212034   3.389   0.936   2.797 -1.8846 -0.7569 -0.1419
 4024TIP3   OH212035   3.933   3.231   5.264  0.7662 -0.3991 -0.2067
 4024TIP3    H112036   3.908   3.320   5.288  0.7931 -0.6191  0.6633
 4024TIP3    H212037   3.852   3.180   5.270  1.2904 -1.0472  2.3099
 4025TIP3   OH212038   0.913   5.143   2.113 -0.4814 -0.4159 -0.2545
 4025TIP3    H112039   0.934   5.153   2.206 -0.5462 -0.5940 -0.2200
 4025TIP3    H212040   0.925   5.231   2.076  2.1260 -0.8552 -0.6314
 4026TIP3   OH212041   6.299   6.353   3.768  0.2761  0.6361  0.2317
 4026TIP3    H112042   6.298   6.383   3.677  2.8071  0.1735 -0.0321
 4026TIP3    H212043   6.261   6.265   3.765 -1.3658  1.3277 -0.0358
 4027TIP3   OH212044   0.210   0.570   0.132  0.2025 -0.0440  0.0047
 4027TIP3    H112045   0.181   0.578   0.223 -0.4147 -2.0434  0.0305
 4027TIP3    H212046   0.276   0.500   0.135  0.0885 -0.2087 -1.0953
 4028TIP3   OH212047   4.305  -0.009   1.355 -0.4713 -0.5471 -0.0099
 4028TIP3    H112048   4.269   0.038   1.280  1.3206  0.7760 -0.0944
 4028TIP3    H212049   4.260   0.028   1.431 -0.1055  0.2823 -0.1963
 4029TIP3   OH212050   1.926   5.312   0.872  0.0100  0.3239 -0.1842
 4029TIP3    H112051   1.845   5.272   0.903 -0.1954  0.6447 -0.3078
 4029TIP3    H212052   1.986   5.238   0.859  0.3769  0.2321  1.7667
 4030TIP3   OH212053   5.385   6.536   4.769  0.9757  0.6930 -0.4223
 4030TIP3    H112054   5.294   6.544   4.799  1.0858 -0.2321  0.2014
 4030TIP3    H212055   5.408   6.623   4.737 -0.8873  0.4251 -2.8068
 4031TIP3   OH212056   0.518   5.298   2.676  0.5786  0.6020 -0.2542
 4031TIP3    H112057   0.486   5.216   2.638  2.5144 -0.8477  1.0576
 4031TIP3    H212058   0.439   5.341   2.710 -0.2572 -2.1083  1.5290
 4032TIP3   OH212059   5.548   2.438   0.860 -0.2901 -0.0272 -0.6630
 4032TIP3    H112060   5.564   2.448   0.766  0.0549 -2.4353 -0.9209
 4032TIP3    H212061   5.632   2.457   0.902 -0.7707  2.4256 -0.6440
 4033TIP3   OH212062   2.547   4.365   1.214 -0.5030 -0.7533 -0.1560
 4033TIP3    H112063   2.632   4.402   1.193 -2.2166  3.5223 -0.5529
 4033TIP3    H212064   2.528   4.305   1.142  2.2003 -2.0498  0.1102
 4034TIP3   OH212065   6.750   0.246   2.819  0.3483 -0.2331  0.2773
 4034TIP3    H112066   6.800   0.209   2.892 -2.1875  0.3470  2.4730
 4034TIP3    H212067   6.708   0.324   2.856 -1.4602 -0.2172 -1.6342
 4035TIP3   OH212068   5.776   0.515   3.557  0.2401  0.3445  0.1235
 4035TIP3    H112069   5.856   0.502   3.608  0.9322  1.7943 -0.5500
 4035TIP3    H212070   5.706   0.483   3.614  1.4206 -2.9761 -0.1021
 4036TIP3   OH212071   4.201   5.737   4.956 -0.4494  0.5270 -0.2073
 4036TIP3    H112072   4.175   5.645   4.944 -2.3975  0.9938  0.1773
 4036TIP3    H212073   4.238   5.739   5.045  1.4307 -0.2331 -0.9228
 4037TIP3   OH212074   2.765   2.532   4.999 -0.0053 -0.2984 -0.1201
 4037TIP3    H112075   2.795   2.461   5.055  0.8070 -0.3330 -0.5802
 4037TIP3    H212076   2.682   2.560   5.037 -0.1983 -1.3141  0.2099
 4038TIP3   OH212077   2.445   5.505   4.023 -0.2766  0.3503  0.1316
 4038TIP3    H112078   2.429   5.412   4.040 -0.7509  0.7358  2.0557
 4038TIP3    H212079   2.434   5.547   4.109 -0.0390  2.1777 -0.6893
 4039TIP3   OH212080   5.285   5.613   2.940 -0.4439 -0.3322  0.1530
 4039TIP3    H112081   5.307   5.668   2.864 -0.8913 -1.1482 -0.5864
 4039TIP3    H212082   5.301   5.670   3.016  1.8901 -0.1192 -0.4307
 4040TIP3   OH212083   5.978   6.092   0.157 -0.4733  0.0336  0.3763
 4040TIP3    H112084   6.050   6.142   0.119 -1.1841  1.7107  1.1619
 4040TIP3    H212085   5.903   6.111   0.101 -0.7021 -0.3583  0.5453
 4041TIP3   OH212086   0.907   4.556   0.385 -0.4770 -1.2071 -0.0069
 4041TIP3    H112087   0.817   4.588   0.375  0.2548  0.7439 -0.8813
 4041TIP3    H212088   0.948   4.618   0.444  1.3247  0.3545 -2.6636
 4042TIP3   OH212089   0.418   3.668   1.044 -0.1323  0.2143  0.1609
 4042TIP3    H112090   0.342   3.699   1.095 -0.8316  1.6435 -1.6236
 4042TIP3    H212091   0.494   3.692   1.097 -0.8737 -0.4118  1.5608
 4043TIP3   OH212092   0.665   6.073   0.124 -0.5882 -0.1248  0.1316
 4043TIP3    H112093   0.675   6.106   0.034  0.0690 -2.8650 -0.8866
 4043TIP3    H212094   0.743   6.020   0.139 -1.5651 -1.2170  1.6439
 4044TIP3   OH212095   3.944   6.277   3.275 -0.8965  0.2026  0.6041
 4044TIP3    H112096   4.037   6.254   3.278 -0.9193 -0.3575 -1.4569
 4044TIP3    H212097   3.900   6.206   3.322 -0.4000 -0.4084  0.1633
 4045TIP3   OH212098   5.038   2.853   4.876  0.1692 -0.4510 -0.0270
 4045TIP3    H112099   5.050   2.775   4.821  1.1792 -1.0204  0.9502
 4045TIP3    H212100   5.103   2.915   4.845  1.5211 -1.1921  1.1990
 4046TIP3   OH212101   5.819   2.490   0.277 -0.1258 -0.6352  0.1608
 4046TIP3    H112102   5.852   2.430   0.210  0.4976  0.0715 -0.1892
 4046TIP3    H212103   5.804   2.436   0.354 -1.4900 -1.5969 -0.7361
 4047TIP3   OH212104   3.275   0.801   5.838 -0.0372 -0.0110 -0.4569
 4047TIP3    H112105   3.323   0.884   5.833  0.7084 -0.4772 -1.3129
 4047TIP3    H212106   3.196   0.816   5.787  0.2883  0.0599 -0.9519
 4048TIP3   OH212107   3.205   2.282   0.236  0.3740  0.0299  0.0912
 4048TIP3    H112108   3.284   2.294   0.184  2.1179  0.1604  2.6090
 4048TIP3    H212109   3.212   2.346   0.306 -0.8878 -1.3585  1.5748
 4049TIP3   OH212110   6.770   0.009   5.451 -0.1571  0.2521 -0.0585
 4049TIP3    H112111   6.693   0.001   5.394  0.3293 -0.5003 -0.6307
 4049TIP3    H212112   6.817   0.086   5.417 -1.0296  1.1944  0.7809
 4050TIP3   OH212113   5.088   5.386   3.797 -0.3111  0.0979  0.2288
 4050TIP3    H112114   5.154   5.416   3.734  2.3189 -1.7872  1.8936
 4050TIP3    H212115   5.064   5.298   3.766  2.6405 -1.8153  2.7437
 4051TIP3   OH212116   3.768   0.131   2.378  0.7184 -0.1851 -0.3359
 4051TIP3    H112117   3.830   0.086   2.320  0.7659 -0.9918  0.3235
 4051TIP3    H212118   3.689   0.078   2.374  1.3729 -1.4898  1.9135
 4052TIP3   OH212119   4.084   1.392   2.632 -0.5478 -0.2716  1.2610
 4052TIP3    H112120   4.003   1.434   2.661 -0.5826 -0.1713  1.0152
 4052TIP3    H212121   4.125   1.456   2.573  0.2669  0.1683  2.2634
 4053TIP3   OH212122   3.972   2.956   0.657  0.1974 -0.1085  0.2327
 4053TIP3    H112123   3.930   3.041   0.641  1.1227  0.3842  0.3766
 4053TIP3    H212124   4.057   2.978   0.693  0.0382 -1.1241  1.2868
 4054TIP3   OH212125   5.068   3.114   1.435  0.0879  0.8229  0.4437
 4054TIP3    H112126   5.049   3.047   1.501  0.1826 -0.2610 -0.5767
 4054TIP3    H212127   4.990   3.113   1.378  0.8088  0.3203 -0.5699
 4055TIP3   OH212128   5.055   2.008   3.703 -0.1867  0.2146  0.2027
 4055TIP3    H112129   5.070   2.025   3.610 -1.7711  0.1483 -0.0929
 4055TIP3    H212130   5.004   1.928   3.704  0.5216 -0.2441  1.1985
 4056TIP3   OH212131   4.034   5.457   3.161 -0.2186  0.0247 -0.6447
 4056TIP3    H112132   3.944   5.479   3.136 -0.2707  0.4066 -0.1390
 4056TIP3    H212133   4.070   5.414   3.084 -0.6029  0.5331 -1.1197
 4057TIP3   OH212134   1.234   2.478   1.541  0.0130 -0.3335  0.8505
 4057TIP3    H112135   1.319   2.439   1.564  0.2484 -0.3359 -0.0030
 4057TIP3    H212136   1.199   2.422   1.472 -0.8966 -0.5818  1.4982
 4058TIP3   OH212137   5.155   2.570   5.412  0.4716 -0.4956 -0.4705
 4058TIP3    H112138   5.187   2.576   5.502 -0.4725 -2.1529  0.0395
 4058TIP3    H212139   5.139   2.660   5.386 -2.2829 -0.0179  2.2278
 4059TIP3   OH212140   2.173   3.158   2.078 -0.5643  0.0457 -0.2621
 4059TIP3    H112141   2.193   3.113   1.997 -1.7438  0.3732 -0.7542
 4059TIP3    H212142   2.088   3.123   2.105 -0.5359  0.4818  0.4295
 4060TIP3   OH212143   2.687   3.008   4.414  0.4191  0.2361  0.3182
 4060TIP3    H112144   2.627   2.944   4.453  1.4346 -1.3981 -0.6730
 4060TIP3    H212145   2.727   3.052   4.489 -0.2215 -0.3688  1.0346
 4061TIP3   OH212146   0.715   3.638   2.389  0.0422  0.5245 -0.1485
 4061TIP3    H112147   0.656   3.671   2.320  0.6156  0.2068 -0.8055
 4061TIP3    H212148   0.772   3.712   2.408 -0.6189  0.8633  0.5573
 4062TIP3   OH212149   1.672   0.037   4.583 -0.0095 -0.2171 -0.7706
 4062TIP3    H112150   1.672  -0.029   4.652  2.4240 -0.6180 -1.0661
 4062TIP3    H212151   1.641   0.117   4.626  0.9959 -0.5735  0.6904
 4063TIP3   OH212152   6.502   2.187   1.947 -0.1427 -0.1445 -0.3285
 4063TIP3    H112153   6.486   2.138   1.867 -0.3469  2.2786 -1.8829
 4063TIP3    H212154   6.421   2.236   1.962  0.2463  0.2021  0.7976
 4064TIP3   OH212155   5.143   4.944   0.502 -0.1812 -0.0449 -0.3768
 4064TIP3    H112156   5.174   4.935   0.592 -2.7252 -2.0808  0.3946
 4064TIP3    H212157   5.165   5.035   0.478  0.6273  0.5205  2.2279
 4065TIP3   OH212158   1.161   1.782   3.730 -0.0943 -0.2590 -0.4946
 4065TIP3    H112159   1.246   1.740   3.720 -1.2886 -2.5009 -2.0575
 4065TIP3    H212160   1.140   1.816   3.643 -1.1770 -0.5053 -0.3419
 4066TIP3   OH212161   6.899   5.991   3.982 -0.2215 -0.2006  0.1837
 4066TIP3    H112162   6.931   6.017   3.896 -0.1876 -0.2009  0.1963
 4066TIP3    H212163   6.838   5.919   3.965  1.0263 -1.3343  0.2766
 4067TIP3   OH212164   0.280   4.280   3.665  0.0793  0.0486 -0.2675
 4067TIP3    H112165   0.255   4.208   3.723  1.5972 -0.2374  0.0868
 4067TIP3    H212166   0.278   4.241   3.577  0.6498 -0.3745 -0.1000
 4068TIP3   OH212167   5.508   4.690   1.819 -0.0962 -0.0008 -0.6248
 4068TIP3    H112168   5.568   4.649   1.881  0.5251  0.7767 -0.6947
 4068TIP3    H212169   5.562   4.751   1.770 -1.4430  3.1767  1.4853
 4069TIP3   OH212170   2.812   0.980   1.551 -0.3068 -0.0753  0.4850
 4069TIP3    H112171   2.797   1.029   1.632 -0.1387 -0.0040  0.4744
 4069TIP3    H212172   2.862   1.040   1.496 -0.0950 -0.2577  0.4754
 4070TIP3   OH212173   2.081   3.610   3.735 -0.2582 -0.2771 -0.5922
 4070TIP3    H112174   1.995   3.609   3.777 -0.3460 -0.3523 -0.7724
 4070TIP3    H212175   2.089   3.525   3.692  0.8949 -1.2292  1.3637
 4071TIP3   OH212176   4.351   1.904   0.638  0.0998 -0.1095 -0.2572
 4071TIP3    H112177   4.261   1.875   0.620  0.6093 -2.9627  1.2373
 4071TIP3    H212178   4.395   1.897   0.553 -0.7041 -0.1994 -0.6860
 4072TIP3   OH212179   2.635   3.790   3.463  0.0356 -0.2204  0.1881
 4072TIP3    H112180   2.700   3.859   3.455  0.0860 -0.0402  1.8323
 4072TIP3    H212181   2.645   3.758   3.552 -2.4897  0.2197  0.7096
 4073TIP3   OH212182   5.275   6.094   1.284  0.3290 -0.1275 -0.5719
 4073TIP3    H112183   5.342   6.093   1.352  0.7218 -0.4066 -0.9597
 4073TIP3    H212184   5.290   6.014   1.234  0.7916  0.6400 -1.6993
 4074TIP3   OH212185   6.372   4.132   0.503 -0.4344  0.5870  0.2219
 4074TIP3    H112186   6.299   4.080   0.537 -1.0338  0.2795 -1.4488
 4074TIP3    H212187   6.394   4.091   0.420  2.5855 -0.1758  1.2631
 4075TIP3   OH212188   2.387   5.604   4.277 -0.3053  0.4792 -0.2293
 4075TIP3    H112189   2.451   5.650   4.331  0.9564  0.2640 -1.4839
 4075TIP3    H212190   2.304   5.646   4.296  0.1785  0.6937  1.5281
 4076TIP3   OH212191   6.621   2.479   3.249 -0.7455  0.0838 -0.0084
 4076TIP3    H112192   6.566   2.493   3.326 -1.3390 -2.0211  0.0228
 4076TIP3    H212193   6.680   2.408   3.276 -0.9673 -0.6875 -1.4690
 4077TIP3   OH212194   3.861   4.870   0.623 -0.0381 -0.0586 -0.6709
 4077TIP3    H112195   3.909   4.946   0.588 -0.5941  0.0745 -1.1610
 4077TIP3    H212196   3.905   4.794   0.584  0.1138  0.0379 -0.6896
 4078TIP3   OH212197   4.589   1.716   1.443  0.4081 -0.4035  0.4058
 4078TIP3    H112198   4.653   1.696   1.374 -0.8061  0.6374 -1.0715
 4078TIP3    H212199   4.632   1.782   1.497  0.2216  1.0774 -1.1955
 4079TIP3   OH212200   3.074   3.207   3.866 -0.7312 -0.2581  0.0470
 4079TIP3    H112201   3.129   3.281   3.840  1.2394 -1.8615 -0.5517
 4079TIP3    H212202   3.083   3.203   3.962 -0.2611 -0.1579  0.0089
 4080TIP3   OH212203   2.927   4.041   1.588  0.1774 -0.2252 -0.1739
 4080TIP3    H112204   2.914   4.074   1.499 -0.4830 -1.9503 -0.7542
 4080TIP3    H212205   2.912   3.947   1.581 -0.7222 -0.2853  1.9298
 4081TIP3   OH212206   2.572   2.258   3.877  0.3795 -0.4266 -0.2320
 4081TIP3    H112207   2.534   2.327   3.822  0.0055 -0.2945  0.1854
 4081TIP3    H212208   2.651   2.232   3.831  0.7593  0.5857 -0.1753
 4082TIP3   OH212209   6.970   1.688   1.996 -0.1828  0.2950 -0.0593
 4082TIP3    H112210   7.005   1.603   1.970 -2.2893 -1.0512  1.1548
 4082TIP3    H212211   6.883   1.691   1.958 -0.7236  1.2181  1.1665
 4083TIP3   OH212212   4.607   3.793   2.148 -0.2709  0.2915 -0.0724
 4083TIP3    H112213   4.525   3.779   2.195 -0.1073  0.5511  0.2851
 4083TIP3    H212214   4.664   3.837   2.210 -0.4696  1.7791 -0.9000
 4084TIP3   OH212215   2.231   3.901   5.043 -0.0998  0.2068  0.1302
 4084TIP3    H112216   2.164   3.856   5.095  0.8693 -1.7420 -0.2000
 4084TIP3    H212217   2.211   3.877   4.953  0.0393  1.0403 -0.1254
 4085TIP3   OH212218   5.212   5.148   4.364 -0.2362  0.4744 -0.2833
 4085TIP3    H112219   5.153   5.160   4.290 -1.9525  1.2057  1.1362
 4085TIP3    H212220   5.170   5.195   4.436  2.6713  2.0944  0.5186
 4086TIP3   OH212221   7.114   3.051   1.837  0.3230  0.2302 -0.3544
 4086TIP3    H112222   7.027   3.090   1.834  0.2393  0.1062  0.2602
 4086TIP3    H212223   7.104   2.973   1.892  0.9766  0.6284  0.3492
 4087TIP3   OH212224   6.550   1.690   5.223 -0.6769 -0.4583 -0.6131
 4087TIP3    H112225   6.627   1.654   5.180 -0.8319 -0.1210 -1.1781
 4087TIP3    H212226   6.476   1.651   5.177 -0.8436  0.3056 -0.9884
 4088TIP3   OH212227   2.972   5.920   5.197 -0.3095  0.4870  0.0553
 4088TIP3    H112228   2.974   5.825   5.183  0.5225  0.4704  0.2596
 4088TIP3    H212229   2.933   5.930   5.283  0.1504  0.2989  0.2871
 4089TIP3   OH212230   0.473   0.162   5.618 -0.1973  0.3121 -0.0356
 4089TIP3    H112231   0.503   0.110   5.544 -1.1058  0.4317 -0.5040
 4089TIP3    H212232   0.384   0.189   5.594 -0.6529  0.0415  1.2566
 4090TIP3   OH212233   5.032   2.577   1.157 -0.0784 -0.1801  0.1277
 4090TIP3    H112234   5.006   2.654   1.108  0.9560 -0.0567 -0.2493
 4090TIP3    H212235   5.099   2.608   1.218 -1.0939 -0.3993  1.3988
 4091TIP3   OH212236   1.269   4.337   1.722  0.0349  0.1585 -0.4094
 4091TIP3    H112237   1.276   4.374   1.634  0.2011  1.6054  0.1881
 4091TIP3    H212238   1.204   4.391   1.766  0.0565 -0.4601  0.4079
 4092TIP3   OH212239   1.374   2.757   3.929  0.2660  0.0743  0.0106
 4092TIP3    H112240   1.426   2.681   3.956 -0.1830 -0.2294  0.0356
 4092TIP3    H212241   1.284   2.731   3.945  0.1894  1.4111  2.0449
 4093TIP3   OH212242   2.434   3.767   1.728 -0.6638  0.3662  0.6843
 4093TIP3    H112243   2.518   3.727   1.705  0.5922  3.3485 -0.4329
 4093TIP3    H212244   2.450   3.810   1.812 -1.1989  0.5767  0.6840
 4094TIP3   OH212245   6.453   4.614   3.603 -0.1928 -0.3282 -0.3848
 4094TIP3    H112246   6.437   4.570   3.519  1.3261 -0.3549 -0.6717
 4094TIP3    H212247   6.384   4.680   3.608 -0.2459 -0.2575 -1.7040
 4095TIP3   OH212248   1.340   0.453   1.282  0.0491 -0.3633 -0.1290
 4095TIP3    H112249   1.256   0.450   1.329  0.0386  0.8441 -0.0436
 4095TIP3    H212250   1.335   0.381   1.220 -0.1655 -1.6839  1.3371
 4096TIP3   OH212251   2.095   3.320   4.128 -0.7392  0.1338 -0.7058
 4096TIP3    H112252   2.169   3.343   4.184 -0.6309 -0.4407 -0.6108
 4096TIP3    H212253   2.026   3.382   4.154 -1.0449 -0.8027  0.8318
 4097TIP3   OH212254   4.026   4.414   3.013  0.1820 -0.3013 -0.6858
 4097TIP3    H112255   4.014   4.442   3.104 -2.1669 -0.2761 -0.9346
 4097TIP3    H212256   3.995   4.323   3.012 -2.2456  0.4552 -1.8731
 4098TIP3   OH212257   2.847   5.329   3.254  0.6421  0.6556 -0.3327
 4098TIP3    H112258   2.925   5.283   3.224  1.4116  1.3187  0.5978
 4098TIP3    H212259   2.832   5.397   3.188 -0.1678 -0.5282 -1.4099
 4099TIP3   OH212260   1.768   6.516   4.755  0.1474  0.4881  0.1898
 4099TIP3    H112261   1.862   6.538   4.757  0.2754  0.0732 -0.7113
 4099TIP3    H212262   1.758   6.450   4.824  0.9081 -0.8314 -0.9069
 4100TIP3   OH212263   5.200   4.287   4.342  0.0449  0.8994  0.0886
 4100TIP3    H112264   5.127   4.333   4.302 -0.3104 -0.1820 -0.5552
 4100TIP3    H212265   5.233   4.347   4.409 -0.6135  1.9222 -0.4834
 4101TIP3   OH212266   1.210   3.941   4.573  0.0669  0.2204 -0.0793
 4101TIP3    H112267   1.128   3.976   4.608  0.7853  0.8585  1.0134
 4101TIP3    H212268   1.251   3.896   4.647  1.2045  0.8300 -0.3200
 4102TIP3   OH212269   5.201   5.521   1.753  0.2572  0.3048  0.0874
 4102TIP3    H112270   5.217   5.453   1.819  1.1180  0.8434  0.4383
 4102TIP3    H212271   5.151   5.588   1.799 -0.7255 -0.1402 -0.3002
 4103TIP3   OH212272   6.663   4.897   0.075 -0.1439 -0.7390  0.3214
 4103TIP3    H112273   6.577   4.856   0.063 -1.2075  1.1051  1.2191
 4103TIP3    H212274   6.662   4.926   0.167 -0.1595  2.6671 -0.6292
 4104TIP3   OH212275   3.703   0.705   5.146  0.0874  0.5983 -0.1105
 4104TIP3    H112276   3.657   0.775   5.100  0.3977  1.3679  0.6906
 4104TIP3    H212277   3.636   0.640   5.166 -0.3034  0.8861 -0.4754
 4105TIP3   OH212278   4.367   3.739   0.621 -0.0196  0.1075 -0.2945
 4105TIP3    H112279   4.307   3.758   0.549 -0.7084 -1.1168 -0.0805
 4105TIP3    H212280   4.317   3.681   0.678  1.3612 -0.9332 -0.0916
 4106TIP3   OH212281   2.368   5.054   4.467  0.7987 -1.2094  0.0031
 4106TIP3    H112282   2.357   4.971   4.421  0.6488 -1.3311  0.2538
 4106TIP3    H212283   2.454   5.048   4.509  0.8652 -1.1649 -0.1285
 4107TIP3   OH212284   2.754   1.738   0.686 -0.1172  0.1155  0.2123
 4107TIP3    H112285   2.738   1.745   0.592 -0.3206 -0.9253  0.1607
 4107TIP3    H212286   2.847   1.756   0.696 -0.2260  0.9114 -0.1001
 4108TIP3   OH212287   2.437   4.444   4.338 -0.2765  0.1821 -0.3068
 4108TIP3    H112288   2.496   4.519   4.352  0.1277  0.1418 -1.6889
 4108TIP3    H212289   2.375   4.450   4.410  1.1243  0.5060  0.9257
 4109TIP3   OH212290   4.250   1.241   2.864 -0.1359  0.1197 -0.4078
 4109TIP3    H112291   4.324   1.184   2.882 -0.0642  0.0874 -0.7797
 4109TIP3    H212292   4.245   1.243   2.768  1.0365  2.2234 -0.4743
 4110TIP3   OH212293   4.761   5.181   5.567  0.7136  0.3144 -0.0807
 4110TIP3    H112294   4.718   5.096   5.556  1.9814 -0.7509  2.4254
 4110TIP3    H212295   4.697   5.234   5.615  0.6898  0.0940  0.1315
 4111TIP3   OH212296   4.428   0.695   0.689 -0.4069  0.2675 -0.2699
 4111TIP3    H112297   4.374   0.681   0.766 -0.2405  0.7155 -0.0674
 4111TIP3    H212298   4.512   0.653   0.711 -0.3745  0.3559 -0.2216
 4112TIP3   OH212299   6.172   1.568   2.801  0.3954 -0.1064 -0.4551
 4112TIP3    H112300   6.241   1.520   2.848  0.3085 -1.0952 -1.3052
 4112TIP3    H212301   6.201   1.568   2.710 -1.0855 -1.2062 -0.9524
 4113TIP3   OH212302   1.777   5.064   2.430  0.0791 -0.9282 -0.1144
 4113TIP3    H112303   1.767   4.969   2.443 -0.6072 -0.9886 -1.0205
 4113TIP3    H212304   1.872   5.077   2.428  0.1830 -1.6008  0.0373
 4114TIP3   OH212305   3.795   4.054   0.345  0.6244  0.2595 -0.1528
 4114TIP3    H112306   3.760   3.968   0.324 -1.5215  1.1525 -0.4549
 4114TIP3    H212307   3.796   4.057   0.441 -0.3697  0.2748 -0.1296
 4115TIP3   OH212308   6.454   1.981   0.592 -0.5877  0.1836  0.0288
 4115TIP3    H112309   6.414   1.921   0.655 -0.9740  0.7363  0.3187
 4115TIP3    H212310   6.394   1.979   0.516  0.3449 -1.1775 -0.7219
 4116TIP3   OH212311   1.139   2.112   0.993  0.5833  0.0947 -0.1104
 4116TIP3    H112312   1.209   2.173   1.016  1.3914 -0.6793 -0.4604
 4116TIP3    H212313   1.144   2.104   0.898 -1.9016  2.2733 -0.5414
 4117TIP3   OH212314   1.454   3.655   1.524  0.4824 -0.0185  0.6117
 4117TIP3    H112315   1.458   3.632   1.431 -0.6233 -2.0752  0.9918
 4117TIP3    H212316   1.472   3.572   1.569  2.0565  1.1514  2.2714
 4118TIP3   OH212317   2.610   5.406   2.914  0.6566  0.5713 -0.2874
 4118TIP3    H112318   2.541   5.472   2.907  1.0341  1.0835  0.6961
 4118TIP3    H212319   2.666   5.437   2.985  1.3788 -0.3211 -0.4509
 4119TIP3   OH212320   5.593   6.014   0.294 -0.0728  0.0935  0.3859
 4119TIP3    H112321   5.534   6.079   0.332  0.4967  0.7831  0.1216
 4119TIP3    H212322   5.644   5.982   0.368  0.0047  0.3321  0.4360
 4120TIP3   OH212323   6.828   2.265   4.933 -0.6203 -0.3026 -0.3493
 4120TIP3    H112324   6.837   2.351   4.891  0.0149  0.9059  2.0820
 4120TIP3    H212325   6.892   2.210   4.888 -2.0570  0.0036 -2.9582
 4121TIP3   OH212326   4.819   3.266   3.287 -0.0502  0.0903 -0.1249
 4121TIP3    H112327   4.767   3.234   3.213  1.3243 -0.0587 -1.0445
 4121TIP3    H212328   4.758   3.262   3.361 -1.9749  1.6858 -1.4858
 4122TIP3   OH212329   3.051   2.587   5.229 -0.0778  0.7949 -0.1892
 4122TIP3    H112330   2.990   2.516   5.207 -0.8803  1.4287 -0.0458
 4122TIP3    H212331   3.091   2.611   5.146  0.0848  0.2806 -0.2628
 4123TIP3   OH212332   5.020   4.336   5.374 -0.1328  0.1936  0.2059
 4123TIP3    H112333   5.012   4.377   5.460 -0.9478  0.0412  0.2046
 4123TIP3    H212334   4.991   4.403   5.312  0.7749  0.4229  0.0092
 4124TIP3   OH212335   3.883   1.264   2.895 -0.1373  0.1306 -0.5482
 4124TIP3    H112336   3.932   1.288   2.973 -1.2951  1.9963 -0.3362
 4124TIP3    H212337   3.945   1.211   2.843  1.4621  0.8835  0.5102
 4125TIP3   OH212338   5.819   4.096   5.289  0.0062 -0.1959 -0.2281
 4125TIP3    H112339   5.802   4.155   5.216  1.9167  0.8458  0.0979
 4125TIP3    H212340   5.734   4.057   5.308 -0.7304  0.1740 -2.4023
 4126TIP3   OH212341   2.676   6.131   2.103 -0.4492  0.5314  0.5004
 4126TIP3    H112342   2.661   6.066   2.172 -1.2683  0.5429  0.3439
 4126TIP3    H212343   2.600   6.123   2.046 -0.6688  1.7744  0.5951
 4127TIP3   OH212344   4.577   2.219   1.323  0.2248 -0.0082  0.0551
 4127TIP3    H112345   4.614   2.285   1.381  1.9020 -2.1970  1.6185
 4127TIP3    H212346   4.614   2.136   1.353 -1.1793 -1.6171 -2.2921
 4128TIP3   OH212347   6.190   2.516   5.877 -0.8015 -0.6122  0.4167
 4128TIP3    H112348   6.284   2.522   5.866 -1.0537 -1.5586 -3.3478
 4128TIP3    H212349   6.175   2.428   5.911 -0.3611 -0.5050  0.8945
 4129TIP3   OH212350   2.014   5.441   4.202  0.1808 -0.2192 -0.0103
 4129TIP3    H112351   1.978   5.382   4.268 -1.6897  1.5069  0.5971
 4129TIP3    H212352   1.954   5.433   4.127  0.5585  0.0871 -0.3496
 4130TIP3   OH212353   1.079   4.893   2.048 -0.7089 -0.4070  0.6604
 4130TIP3    H112354   1.052   4.849   1.968 -1.7082  0.4142  0.5246
 4130TIP3    H212355   1.027   4.973   2.050 -0.2669 -0.1293  1.8305
 4131TIP3   OH212356   6.075   3.334   5.092 -0.1097 -0.1598  0.2530
 4131TIP3    H112357   6.152   3.287   5.126 -1.3411 -1.5492  1.2556
 4131TIP3    H212358   6.109   3.385   5.019  1.9975  0.2203  1.4087
 4132TIP3   OH212359   6.009   5.084   4.779 -0.3423 -0.4804 -0.3449
 4132TIP3    H112360   5.978   5.001   4.743 -3.9584  1.2818 -1.7447
 4132TIP3    H212361   5.989   5.148   4.711  2.2787  1.6357  0.7090
 4133TIP3   OH212362   6.058   0.514   4.295  0.4602  0.1498 -0.6130
 4133TIP3    H112363   6.104   0.592   4.263 -0.3868  1.5310  1.3175
 4133TIP3    H212364   6.020   0.542   4.379 -0.4726 -2.1503 -0.2090
 4134TIP3   OH212365   2.574   6.142   0.790 -0.0359  0.2234 -0.2117
 4134TIP3    H112366   2.647   6.204   0.788  0.0325  0.1226 -1.3450
 4134TIP3    H212367   2.503   6.191   0.833  0.8314  0.1352  1.4266
 4135TIP3   OH212368   5.890   5.160   4.119  0.3699  0.4893  0.0888
 4135TIP3    H112369   5.853   5.240   4.081 -0.5872  0.2480  0.4816
 4135TIP3    H212370   5.985   5.173   4.115  0.2413  2.2904  1.4913
 4136TIP3   OH212371   0.038   3.183   1.498  0.1198 -0.1744 -0.2779
 4136TIP3    H112372   0.069   3.112   1.553 -0.1428  0.0914  0.2269
 4136TIP3    H212373   0.005   3.248   1.560 -0.0443  0.1953 -0.7464
 4137TIP3   OH212374   0.231   1.950   0.628 -0.0042  0.3111  0.6711
 4137TIP3    H112375   0.256   2.042   0.640 -1.4673  1.0682 -1.6340
 4137TIP3    H212376   0.218   1.940   0.534 -1.9135 -1.7117  1.0631
 4138TIP3   OH212377   1.801   5.597   2.893 -0.3629 -0.6591 -0.5066
 4138TIP3    H112378   1.754   5.659   2.838  0.2525 -0.7509 -1.1583
 4138TIP3    H212379   1.894   5.618   2.879 -0.1824 -1.0181  0.1066
 4139TIP3   OH212380   4.378   0.852   2.991 -0.0962 -0.1777  0.6223
 4139TIP3    H112381   4.436   0.924   2.968  1.9571 -1.0543  2.7073
 4139TIP3    H212382   4.376   0.797   2.914  0.0902  0.9526 -0.2151
 4140TIP3   OH212383   0.648   1.854   4.467  0.2931  0.1797  0.2920
 4140TIP3    H112384   0.563   1.869   4.509 -0.0511 -3.4265  1.2292
 4140TIP3    H212385   0.632   1.780   4.408  2.6303 -0.0999 -0.0742
 4141TIP3   OH212386   2.147   2.819   0.535  0.4542 -0.3294 -0.2015
 4141TIP3    H112387   2.071   2.786   0.582 -2.8539  2.7717 -2.8550
 4141TIP3    H212388   2.209   2.844   0.604 -2.4986  0.4740  2.3850
 4142TIP3   OH212389   1.361   0.734   0.351 -0.5495  0.3971 -0.6266
 4142TIP3    H112390   1.291   0.695   0.403 -0.0783 -0.6897 -0.7777
 4142TIP3    H212391   1.425   0.764   0.415 -0.0078 -0.8652 -0.5373
 4143TIP3   OH212392   5.765   3.638   2.848  0.4773 -0.3686  0.4956
 4143TIP3    H112393   5.813   3.570   2.801 -0.0618  0.4277 -1.2825
 4143TIP3    H212394   5.816   3.653   2.927  1.9542 -1.1050 -0.2806
 4144TIP3   OH212395   5.862   4.372   2.249 -0.1921  0.1826 -0.7440
 4144TIP3    H112396   5.842   4.283   2.279 -0.5378  0.4759 -0.0921
 4144TIP3    H212397   5.844   4.370   2.155 -0.7135 -0.2933 -0.6392
 4145TIP3   OH212398   6.407   5.270   1.774  0.5921 -0.0639 -0.4397
 4145TIP3    H112399   6.340   5.248   1.838  0.3385  1.4069 -0.1676
 4145TIP3    H212400   6.488   5.278   1.825  1.0413 -1.9189 -0.7781
 4146TIP3   OH212401   3.432   5.768   3.830  0.0104  0.3349  0.4058
 4146TIP3    H112402   3.418   5.846   3.776  1.2064 -0.5355 -1.2203
 4146TIP3    H212403   3.415   5.694   3.772  2.2482 -0.6458  0.8937
 4147TIP3   OH212404   2.671   6.509   3.395  0.7504  0.4271 -0.7328
 4147TIP3    H112405   2.724   6.441   3.353 -2.6556 -1.2963 -2.6840
 4147TIP3    H212406   2.659   6.478   3.485  2.3635  0.5014 -0.4607
 4148TIP3   OH212407   7.131   4.741   3.035  0.5197  0.0111 -0.4701
 4148TIP3    H112408   7.122   4.797   3.112 -1.0380 -0.3377 -0.3548
 4148TIP3    H212409   7.130   4.802   2.961 -0.6752  0.2090 -0.3182
 4149TIP3   OH212410   1.713   3.736   2.987 -0.7603  0.0473  1.0579
 4149TIP3    H112411   1.652   3.790   2.937 -1.5405 -1.5592  0.1779
 4149TIP3    H212412   1.656   3.678   3.039 -0.0087 -1.0859  0.6544
 4150TIP3   OH212413   2.982   3.322   5.062  0.2227  0.4583 -0.0890
 4150TIP3    H112414   3.002   3.296   5.152  1.4151 -2.0601 -0.9660
 4150TIP3    H212415   2.910   3.264   5.036  1.3657 -0.4611 -1.3854
 4151TIP3   OH212416   0.381   6.653   4.160 -0.4176  0.0579 -0.8722
 4151TIP3    H112417   0.333   6.664   4.242  0.0953  0.3885 -0.6059
 4151TIP3    H212418   0.444   6.583   4.178  1.0032  1.4130 -0.3416
 4152TIP3   OH212419   4.693   2.056   5.154  0.0083 -0.1502 -0.6872
 4152TIP3    H112420   4.669   1.968   5.127 -0.1059 -0.9975  1.9008
 4152TIP3    H212421   4.610   2.105   5.153 -0.4201 -0.8117  0.3115
 4153TIP3   OH212422   2.143   2.134   2.924 -0.1003  0.1300  0.3625
 4153TIP3    H112423   2.107   2.215   2.888  0.2685  0.0764 -0.1427
 4153TIP3    H212424   2.118   2.066   2.861 -0.6590 -0.2031  0.9297
 4154TIP3   OH212425   2.839   6.092   3.568  0.1432  0.7849 -0.1393
 4154TIP3    H112426   2.919   6.093   3.620 -1.2148  1.4503  2.0446
 4154TIP3    H212427   2.793   6.171   3.592 -2.2031 -0.6413  0.3568
 4155TIP3   OH212428   0.998   6.513   0.947  0.3359  0.0192 -0.0210
 4155TIP3    H112429   0.958   6.597   0.923 -0.0582 -0.1947 -0.1061
 4155TIP3    H212430   1.088   6.536   0.971 -0.3562  0.7674  2.0297
 4156TIP3   OH212431   6.667   3.469   5.465  0.0434 -0.0301 -0.4152
 4156TIP3    H112432   6.652   3.563   5.452  2.4809  0.4414 -0.2919
 4156TIP3    H212433   6.709   3.440   5.385  0.3812 -0.7625  0.0176
 4157TIP3   OH212434   2.012   4.282   3.272 -0.3080  0.5113  0.2005
 4157TIP3    H112435   2.106   4.292   3.290  0.0208 -0.2461 -0.9382
 4157TIP3    H212436   1.985   4.206   3.324  0.1074 -0.2737 -0.6957
 4158TIP3   OH212437   5.312   6.005   3.131  0.2935 -0.2220 -0.5376
 4158TIP3    H112438   5.280   6.089   3.098 -0.8322 -0.3608  0.1635
 4158TIP3    H212439   5.255   5.985   3.205  1.7675 -0.6811  0.5194
 4159TIP3   OH212440   2.648   5.398   0.085  0.4813 -0.2681 -0.2057
 4159TIP3    H112441   2.578   5.334   0.093  0.3070 -0.0374  0.1505
 4159TIP3    H212442   2.642   5.430  -0.005  1.5330 -1.8531 -0.8865
 4160TIP3   OH212443   1.660   6.773   4.482  0.6298 -0.2057  0.2138
 4160TIP3    H112444   1.677   6.805   4.571  0.3831 -1.9402  0.9409
 4160TIP3    H212445   1.565   6.771   4.475  0.6372 -0.9377  0.2631
 4161TIP3   OH212446   5.294   6.779   2.957 -0.4239 -0.3247 -0.3472
 4161TIP3    H112447   5.208   6.779   2.914 -0.5802  0.6204 -0.0525
 4161TIP3    H212448   5.315   6.686   2.968 -1.2228 -0.5702 -0.7871
 4162TIP3   OH212449   5.903   4.367   5.059 -0.1433  0.2691 -0.0280
 4162TIP3    H112450   5.824   4.315   5.043  0.9719 -1.0096 -1.7545
 4162TIP3    H212451   5.893   4.443   5.003  1.1106 -1.3613 -2.6561
 4163TIP3   OH212452   3.202   3.644   0.094 -0.3273 -0.0314 -0.2214
 4163TIP3    H112453   3.195   3.739   0.105  2.8171  0.1615  1.0810
 4163TIP3    H212454   3.164   3.627   0.008 -2.1036  2.1887  0.0339
 4164TIP3   OH212455   2.703   0.924   3.992 -0.8361 -0.4128  0.9950
 4164TIP3    H112456   2.633   0.860   4.003  0.5375 -2.2443 -0.2609
 4164TIP3    H212457   2.758   0.888   3.923 -0.0470  2.2360  0.1018
 4165TIP3   OH212458   5.281   3.233   1.767 -0.4964 -0.5332 -0.1535
 4165TIP3    H112459   5.320   3.150   1.792 -2.4303 -1.4803 -0.0859
 4165TIP3    H212460   5.354   3.286   1.736  1.1275 -1.3970  1.9866
 4166TIP3   OH212461   5.294   5.063   2.803  0.3701 -0.3014  0.1417
 4166TIP3    H112462   5.364   5.001   2.822 -2.5590 -3.6196  1.2357
 4166TIP3    H212463   5.213   5.015   2.822 -2.2526  3.8068  0.7782
 4167TIP3   OH212464   1.207   2.010   1.244 -0.1327  0.0058 -0.0420
 4167TIP3    H112465   1.141   2.038   1.180 -0.0741  0.2578  0.0062
 4167TIP3    H212466   1.269   1.957   1.193 -0.9027 -1.0777  0.0995
 4168TIP3   OH212467   3.496   5.848   2.994  0.1190  0.6890  0.0083
 4168TIP3    H112468   3.416   5.901   2.990 -1.2324 -1.2695 -2.5546
 4168TIP3    H212469   3.501   5.807   2.907  1.1469 -3.1592  1.6696
 4169TIP3   OH212470   3.040   4.516   5.776 -0.4719  0.6608 -0.5985
 4169TIP3    H112471   3.095   4.452   5.730 -0.2694  0.4287 -0.0394
 4169TIP3    H212472   3.103   4.570   5.825 -0.8335 -1.1830  2.0899
 4170TIP3   OH212473   5.231   0.907   0.925 -0.9283 -0.1291  0.0683
 4170TIP3    H112474   5.218   0.816   0.950 -1.8255 -0.1797 -0.5183
 4170TIP3    H212475   5.262   0.903   0.835  0.2047  0.1202  0.4289
 4171TIP3   OH212476   2.559   2.141   4.374 -0.1690  0.0690  0.1794
 4171TIP3    H112477   2.464   2.139   4.363 -0.2865 -0.4323  1.1358
 4171TIP3    H212478   2.590   2.069   4.319  0.1601  2.9676 -3.8518
 4172TIP3   OH212479   6.628   5.939   1.888  0.1017  0.1563  0.2677
 4172TIP3    H112480   6.628   5.980   1.802 -0.5711 -1.4655 -0.5462
 4172TIP3    H212481   6.682   5.861   1.878 -0.7282 -0.5516  1.0416
 4173TIP3   OH212482   0.250   2.508   4.349 -0.5297  0.4915  0.4827
 4173TIP3    H112483   0.183   2.445   4.377  0.6368  0.3797  3.3032
 4173TIP3    H212484   0.291   2.538   4.430  2.7793  0.6605 -1.0862
 4174TIP3   OH212485   0.193   5.781   0.447  0.1722 -0.6628 -0.3483
 4174TIP3    H112486   0.106   5.822   0.447  0.4603 -0.0191  0.8825
 4174TIP3    H212487   0.225   5.797   0.358 -1.2951 -1.6876 -1.1179
 4175TIP3   OH212488   3.121   3.055   0.310  0.2575 -0.1925 -0.2745
 4175TIP3    H112489   3.154   2.977   0.355  1.7063 -0.9638 -2.5338
 4175TIP3    H212490   3.095   3.024   0.223 -2.3219  1.2716 -0.1389
 4176TIP3   OH212491   0.514   6.094   5.382 -0.1092  0.3684  0.5587
 4176TIP3    H112492   0.445   6.121   5.443 -1.4620 -2.0613  0.2626
 4176TIP3    H212493   0.469   6.083   5.298  0.8201 -0.4015  0.1404
 4177TIP3   OH212494   3.479   3.938   3.028  0.1717 -1.0015  0.4748
 4177TIP3    H112495   3.543   3.963   2.961  0.2104 -1.0000  0.5123
 4177TIP3    H212496   3.394   3.953   2.987  0.1946 -1.2538  0.3273
 4178TIP3   OH212497   3.876   1.900   5.242  0.2610  0.5609  0.1441
 4178TIP3    H112498   3.797   1.951   5.258 -1.3632 -1.8967  0.4465
 4178TIP3    H212499   3.887   1.847   5.322  1.5267 -0.0019 -0.3696
 4179TIP3   OH212500   0.228   3.050   4.227  0.3420 -0.0305 -0.1411
 4179TIP3    H112501   0.232   3.003   4.310 -0.3733 -2.1682 -1.2283
 4179TIP3    H212502   0.313   3.092   4.219  1.4985 -2.1184  0.4206
 4180TIP3   OH212503   3.815   5.902   2.687  0.3535 -0.2602 -0.4973
 4180TIP3    H112504   3.764   5.967   2.735  1.5363  0.2247  0.1413
 4180TIP3    H212505   3.859   5.851   2.754  1.8383  0.2611 -1.0151
 4181TIP3   OH212506   6.386   0.251   2.952 -0.5212 -0.6879 -0.3651
 4181TIP3    H112507   6.296   0.219   2.949 -0.7208 -0.7128  2.6070
 4181TIP3    H212508   6.380   0.336   2.995  0.8631 -0.6766 -0.1482
 4182TIP3   OH212509   4.393   4.306   4.629 -0.9396  0.5085  0.1609
 4182TIP3    H112510   4.434   4.256   4.699  1.4030  0.0184 -1.4342
 4182TIP3    H212511   4.396   4.397   4.657  0.6121  0.3896  0.4179
 4183TIP3   OH212512   5.628   4.537   2.270  0.3857  0.1515 -0.1917
 4183TIP3    H112513   5.713   4.502   2.297 -0.8638 -1.8872  1.4391
 4183TIP3    H212514   5.566   4.468   2.293 -1.6969  1.4563 -1.6094
 4184TIP3   OH212515   3.504   0.370   1.707  0.2128  0.1999  0.1962
 4184TIP3    H112516   3.515   0.341   1.797 -1.2293  1.0808  0.6755
 4184TIP3    H212517   3.438   0.439   1.711 -1.6152 -1.2707 -1.7916
 4185TIP3   OH212518   7.135   1.204   4.646  0.7740 -0.1169  0.1450
 4185TIP3    H112519   7.074   1.145   4.602  0.1270 -0.1921  1.1264
 4185TIP3    H212520   7.157   1.269   4.579 -1.0908  0.4497  0.0432
 4186TIP3   OH212521   2.052   3.624   5.308 -0.0758 -0.2216 -0.4540
 4186TIP3    H112522   2.080   3.696   5.252  0.1501  1.5329  1.7574
 4186TIP3    H212523   1.981   3.582   5.259  1.1607  0.1696 -2.7059
 4187TIP3   OH212524   6.046   0.972   3.193  0.1437  0.5053  0.2081
 4187TIP3    H112525   6.090   0.953   3.110 -0.7492  1.8625 -0.6220
 4187TIP3    H212526   5.956   0.942   3.180  0.6545 -2.0054  1.7906
 4188TIP3   OH212527   5.260   3.999   3.217  0.3841 -0.2499  0.1381
 4188TIP3    H112528   5.310   3.952   3.150 -0.5788  1.0918 -1.5924
 4188TIP3    H212529   5.318   4.000   3.293  1.1734 -2.5630 -0.3456
 4189TIP3   OH212530  -0.001   0.649   4.085 -0.2710 -0.0672 -0.1736
 4189TIP3    H112531   0.042   0.733   4.072  1.2821 -0.6963  0.6097
 4189TIP3    H212532   0.025   0.622   4.173 -0.5604 -1.4501 -0.4822
 4190TIP3   OH212533   0.543   5.686   5.302  0.2986  0.0731  0.1905
 4190TIP3    H112534   0.511   5.722   5.384  2.2930  0.3666  0.9131
 4190TIP3    H212535   0.490   5.608   5.286 -0.5556  0.3947  1.3932
 4191TIP3   OH212536   0.319   3.812   3.265  0.0954  0.4206  0.1460
 4191TIP3    H112537   0.287   3.887   3.214 -0.0733  0.0868 -0.2453
 4191TIP3    H212538   0.258   3.741   3.245  0.8702 -0.1327 -0.3446
 4192TIP3   OH212539   2.661   1.178   5.373  0.1262  0.2740  0.0360
 4192TIP3    H112540   2.680   1.270   5.354 -2.1109  0.3906 -2.1334
 4192TIP3    H212541   2.612   1.180   5.455 -0.2251  1.0621 -0.1846
 4193TIP3   OH212542   3.323   4.170   5.361  0.5904  0.4129 -0.5539
 4193TIP3    H112543   3.378   4.110   5.411  0.3077 -0.3288 -1.1210
 4193TIP3    H212544   3.344   4.256   5.397 -0.1058 -0.1434  1.3321
 4194TIP3   OH212545   6.996   0.652   3.528  0.0080  0.1280 -0.0714
 4194TIP3    H112546   7.006   0.719   3.596 -0.1435 -0.9242  1.0056
 4194TIP3    H212547   6.988   0.570   3.575 -1.1572 -0.5295 -1.3324
 4195TIP3   OH212548   0.723   2.198   4.012  0.3770  0.2838  0.3335
 4195TIP3    H112549   0.667   2.133   3.969 -0.4968  0.8128  0.6442
 4195TIP3    H212550   0.789   2.219   3.946 -1.3203  1.5607 -1.0637
 4196TIP3   OH212551   6.341   0.498   4.456  0.1898  0.4501 -0.9344
 4196TIP3    H112552   6.282   0.568   4.486  0.3754  0.6793 -1.1037
 4196TIP3    H212553   6.414   0.544   4.414 -0.7103  0.1137 -2.9811
 4197TIP3   OH212554   4.112   0.186   3.332  0.2851 -0.0365  0.2657
 4197TIP3    H112555   4.139   0.277   3.321 -0.4601  0.4185  1.8857
 4197TIP3    H212556   4.034   0.190   3.387  0.3684 -1.6733  0.5789
 4198TIP3   OH212557   6.510   6.331   5.343  0.3825 -0.1772  0.5085
 4198TIP3    H112558   6.576   6.279   5.297 -0.0881  0.2517 -0.6909
 4198TIP3    H212559   6.431   6.277   5.342 -0.1493  0.5848 -0.8718
 4199TIP3   OH212560   0.647   2.085   5.842  0.4099 -0.3118 -0.2293
 4199TIP3    H112561   0.684   2.160   5.796 -0.0771 -0.1487 -0.3676
 4199TIP3    H212562   0.700   2.010   5.814 -0.9724 -0.5244 -2.4997
 4200TIP3   OH212563   6.494   2.945   5.784  0.3997 -0.4594  0.4368
 4200TIP3    H112564   6.526   2.859   5.813  0.9607 -0.5349 -0.3743
 4200TIP3    H212565   6.545   2.963   5.705 -1.2976 -0.3833 -0.6732
 4201TIP3   OH212566   3.419   3.503   2.029  0.0654  0.4671  0.2304
 4201TIP3    H112567   3.380   3.461   1.953  1.3327 -1.4340  0.5487
 4201TIP3    H212568   3.349   3.559   2.064 -1.4546 -0.7369 -0.7292
 4202TIP3   OH212569   4.245   5.067   5.552 -0.3684  0.5405  0.1273
 4202TIP3    H112570   4.171   5.025   5.508  0.2773 -0.4808 -0.0213
 4202TIP3    H212571   4.214   5.156   5.572 -1.8003 -0.0236  0.5234
 4203TIP3   OH212572   3.247   6.574   1.986 -0.1010 -0.5464  0.0582
 4203TIP3    H112573   3.152   6.588   1.993 -0.2036 -0.7195 -0.8310
 4203TIP3    H212574   3.285   6.659   2.006 -0.4955 -0.2292 -0.5003
 4204TIP3   OH212575   5.840   4.215   2.010 -0.5368 -0.3070 -0.0041
 4204TIP3    H112576   5.868   4.129   2.042  0.5419 -0.3007 -0.8615
 4204TIP3    H212577   5.770   4.196   1.948 -1.4172 -0.4429  1.0186
 4205TIP3   OH212578   1.224   2.670   1.280  0.1682  0.3924  0.0353
 4205TIP3    H112579   1.185   2.674   1.367  1.2401 -1.5785  0.6716
 4205TIP3    H212580   1.156   2.703   1.222 -0.0347  3.2167  1.7134
 4206TIP3   OH212581   7.189   0.928   5.276 -0.2693  0.0571  0.6431
 4206TIP3    H112582   7.179   0.912   5.370  1.0032 -0.7627  0.6759
 4206TIP3    H212583   7.275   0.890   5.255  0.8621  2.8744 -0.2694
 4207TIP3   OH212584   7.195   1.713   0.347  0.0585  0.2888 -0.1040
 4207TIP3    H112585   7.145   1.781   0.392  0.8871  0.3653  0.7429
 4207TIP3    H212586   7.282   1.752   0.335  0.9447 -1.0245  1.5385
 4208TIP3   OH212587   6.351   2.341   0.714 -0.2185 -0.2811 -0.2041
 4208TIP3    H112588   6.438   2.302   0.712 -0.5402 -1.2565  2.0257
 4208TIP3    H212589   6.362   2.425   0.757 -0.5203 -0.9349  1.2001
 4209TIP3   OH212590   3.387   6.608   3.758 -0.6260 -0.0049  0.4169
 4209TIP3    H112591   3.374   6.553   3.835 -1.0238  0.1939  0.4979
 4209TIP3    H212592   3.477   6.638   3.764 -0.3629 -0.7505  0.3029
 4210TIP3   OH212593   5.244   6.747   5.052  0.2745  0.6558 -0.3100
 4210TIP3    H112594   5.332   6.781   5.039  0.1544  1.3385  0.5010
 4210TIP3    H212595   5.247   6.706   5.138 -0.2409  0.8691 -0.1855
 4211TIP3   OH212596   1.329   2.704   4.911 -0.3851  0.4765 -0.7857
 4211TIP3    H112597   1.381   2.680   4.835 -0.8944 -1.0387 -0.6866
 4211TIP3    H212598   1.391   2.706   4.984 -0.6586 -3.3750 -0.2624
 4212TIP3   OH212599   3.679   6.099   3.800 -0.0650  0.6347 -0.3852
 4212TIP3    H112600   3.710   6.012   3.825  0.2266  0.7006 -0.5154
 4212TIP3    H212601   3.585   6.088   3.787  0.1604  0.0399 -1.6718
 4213TIP3   OH212602   4.312   2.290   4.739  0.8185 -0.1358 -0.3413
 4213TIP3    H112603   4.379   2.359   4.746  0.6743 -0.1001  0.9424
 4213TIP3    H212604   4.303   2.275   4.645  0.8372  1.6090 -0.6588
 4214TIP3   OH212605   2.148   5.508   5.307  0.8536 -0.7819 -0.1588
 4214TIP3    H112606   2.180   5.521   5.218 -0.3660  0.0955 -0.4954
 4214TIP3    H212607   2.132   5.597   5.339  0.6673 -1.1204  0.7025
 4215TIP3   OH212608   0.992   3.300   1.260  0.3905 -0.0767 -0.5630
 4215TIP3    H112609   1.013   3.393   1.263 -1.0777  0.2431  0.8387
 4215TIP3    H212610   0.902   3.294   1.291  1.0521 -2.1215  1.2759
 4216TIP3   OH212611   6.557   0.576   3.233  0.6720 -0.4311 -0.5882
 4216TIP3    H112612   6.593   0.635   3.167  2.8264 -2.9341 -1.8023
 4216TIP3    H212613   6.619   0.581   3.306  0.6448 -0.8894 -0.5305
 4217TIP3   OH212614   5.979   3.277   1.352 -0.8565  0.4762 -0.1967
 4217TIP3    H112615   6.067   3.256   1.318  0.4768  3.1215  1.3716
 4217TIP3    H212616   5.955   3.357   1.307 -0.2790  2.4788  2.8048
 4218TIP3   OH212617   1.914   1.420   0.857  0.7047  0.2811 -0.2931
 4218TIP3    H112618   2.000   1.412   0.814  0.2000  0.0343 -1.2856
 4218TIP3    H212619   1.923   1.369   0.937  1.7315  0.8982  0.0077
 4219TIP3   OH212620   6.764   1.498   4.576  0.0748 -0.1684 -0.5700
 4219TIP3    H112621   6.684   1.540   4.547 -0.1026 -1.0554 -1.3858
 4219TIP3    H212622   6.736   1.438   4.646 -0.0465 -0.8136 -1.1663
 4220TIP3   OH212623   1.633   4.114   1.405  0.3425  0.1286 -0.7284
 4220TIP3    H112624   1.624   4.030   1.360 -2.2043  0.3893 -0.8366
 4220TIP3    H212625   1.561   4.167   1.372  1.0604  1.8886  0.3799
 4221TIP3   OH212626   3.846   3.560   3.691  0.1350  0.1378  0.4572
 4221TIP3    H112627   3.877   3.596   3.774  0.2586  0.0113  0.4676
 4221TIP3    H212628   3.865   3.466   3.697 -1.5223 -0.1937  1.0475
 4222TIP3   OH212629   5.227   5.997   0.879  0.1919  0.3492  0.4280
 4222TIP3    H112630   5.305   6.024   0.830  0.8534  0.2815  1.4329
 4222TIP3    H212631   5.233   6.044   0.962  0.9224 -2.1398  1.8902
 4223TIP3   OH212632   1.746   1.241   1.160 -0.5931  0.1891 -0.4011
 4223TIP3    H112633   1.832   1.257   1.123  0.0393 -0.9277  0.5151
 4223TIP3    H212634   1.693   1.210   1.086  0.2759 -0.7665 -0.6462
 4224TIP3   OH212635   4.030   5.032   1.202  0.0186  0.1020  0.3236
 4224TIP3    H112636   4.099   5.099   1.201 -1.0345  1.2253 -0.2078
 4224TIP3    H212637   3.988   5.042   1.287  0.3490 -0.4087  0.5471
 4225TIP3   OH212638   4.531   4.826   3.690 -0.1088 -0.0448 -0.0470
 4225TIP3    H112639   4.464   4.891   3.670  0.7760  0.9850  0.2722
 4225TIP3    H212640   4.525   4.812   3.784 -1.2288 -1.4937 -0.3059
 4226TIP3   OH212641   3.718   4.811   4.124  0.3497 -0.1321 -0.1425
 4226TIP3    H112642   3.705   4.737   4.065  0.9353  0.5866 -1.2114
 4226TIP3    H212643   3.800   4.851   4.093 -0.0303  1.0336  0.3311
 4227TIP3   OH212644   4.250   5.231   1.288  0.1069  0.0713  0.0424
 4227TIP3    H112645   4.341   5.249   1.313 -0.1972  0.9314  0.6027
 4227TIP3    H212646   4.219   5.169   1.355  0.5903 -1.1196 -0.7928
 4228TIP3   OH212647   4.651   6.709   4.181 -0.3270 -0.2927  0.0240
 4228TIP3    H112648   4.688   6.795   4.204 -2.1115  0.3139  0.8961
 4228TIP3    H212649   4.651   6.708   4.085  0.1883  0.4749  0.0044
 4229TIP3   OH212650   3.895   1.748   4.225 -0.4398 -0.4026  0.8267
 4229TIP3    H112651   3.934   1.661   4.218  1.2002  0.2235  1.7581
 4229TIP3    H212652   3.936   1.798   4.155 -0.2045  0.0352  1.2748
 4230TIP3   OH212653   3.897   6.075   3.427  0.0858 -0.0986 -0.5696
 4230TIP3    H112654   3.897   6.131   3.505  0.4806  0.0134 -0.6453
 4230TIP3    H212655   3.858   5.993   3.456 -0.9548  0.3767 -0.5814
 4231TIP3   OH212656   4.110   0.524   5.106 -0.2378 -0.0582 -0.6801
 4231TIP3    H112657   4.061   0.447   5.135 -0.7662  0.5751  0.1734
 4231TIP3    H212658   4.193   0.490   5.073 -1.0828 -1.1262 -1.7897
 4232TIP3   OH212659   2.808   3.942   5.654  0.2110  0.1644  0.3187
 4232TIP3    H112660   2.831   4.011   5.716  0.1726 -2.6218  3.7545
 4232TIP3    H212661   2.714   3.931   5.665 -0.2982  1.2267 -2.2386
 4233TIP3   OH212662   4.182   5.107   4.485 -0.2739 -0.4017 -0.1789
 4233TIP3    H112663   4.144   5.026   4.451 -1.7241  0.4182 -0.5813
 4233TIP3    H212664   4.268   5.081   4.518 -0.9193 -2.2002  0.1860
 4234TIP3   OH212665   1.605   6.614   1.553  0.2224 -0.2340 -0.5126
 4234TIP3    H112666   1.685   6.593   1.504  1.1184 -0.0112  0.8065
 4234TIP3    H212667   1.607   6.557   1.629 -1.1226 -0.5338 -0.6700
 4235TIP3   OH212668   1.275   0.712   4.442  0.1111  0.6361  0.3050
 4235TIP3    H112669   1.343   0.770   4.476  1.2270 -0.1582 -0.4944
 4235TIP3    H212670   1.281   0.721   4.347 -0.2474 -0.1586  0.1964
 4236TIP3   OH212671   0.748   3.161   2.756 -0.2145  0.1205 -0.3780
 4236TIP3    H112672   0.781   3.077   2.723  0.1111 -0.1255  0.5431
 4236TIP3    H212673   0.706   3.201   2.681  1.4038  0.0367 -1.3814
 4237TIP3   OH212674   3.068   2.709   4.758 -0.0535 -0.0774 -0.3340
 4237TIP3    H112675   3.001   2.698   4.691 -0.2022  0.2398 -0.2421
 4237TIP3    H212676   3.132   2.768   4.719 -0.6555  0.9349  0.1588
 4238TIP3   OH212677   5.849   5.231   3.102 -0.6286 -0.0046 -0.4930
 4238TIP3    H112678   5.765   5.276   3.109 -0.2136  0.7257 -0.0074
 4238TIP3    H212679   5.839   5.151   3.153 -0.8818  0.3104 -0.0441
 4239TIP3   OH212680   3.244   5.291   3.196  0.1311  0.6517  0.3971
 4239TIP3    H112681   3.290   5.260   3.118 -1.3160 -0.1672 -0.1781
 4239TIP3    H212682   3.180   5.222   3.214  2.3453 -0.7428  4.1422
 4240TIP3   OH212683   1.723   5.464   1.908  0.1693  0.0728 -0.2135
 4240TIP3    H112684   1.651   5.401   1.901 -0.9597  1.4463 -1.7523
 4240TIP3    H212685   1.681   5.545   1.938  1.7785 -0.1167  2.9450
 4241TIP3   OH212686   4.674   3.307   4.848  0.1006  0.1864 -0.2173
 4241TIP3    H112687   4.613   3.380   4.840 -2.1118 -1.6983 -1.8076
 4241TIP3    H212688   4.678   3.268   4.760 -0.8510 -3.0917  1.0221
 4242TIP3   OH212689   5.641   5.600   0.338  0.7483 -0.3799  0.5238
 4242TIP3    H112690   5.629   5.629   0.247  1.1391 -2.8212 -0.3787
 4242TIP3    H212691   5.580   5.654   0.388 -0.9048 -0.2487 -1.4675
 4243TIP3   OH212692   0.521   2.960   1.016 -0.8946  0.4581 -0.8014
 4243TIP3    H112693   0.543   2.981   1.107 -0.3131 -1.2678 -0.5095
 4243TIP3    H212694   0.427   2.942   1.018 -1.2595  2.1826 -0.9226
 4244TIP3   OH212695   0.274   3.728   1.676  0.0105  0.4949  0.2599
 4244TIP3    H112696   0.237   3.650   1.634  0.0129  0.2676  0.6844
 4244TIP3    H212697   0.271   3.795   1.607  1.8836 -0.3954 -0.8008
 4245TIP3   OH212698   3.687   4.552   4.738  0.4016  0.1667 -0.7305
 4245TIP3    H112699   3.769   4.562   4.785 -0.0712  0.3198  0.0781
 4245TIP3    H212700   3.709   4.570   4.647  1.3430 -0.1885 -0.5878
 4246TIP3   OH212701   1.861   0.454   3.990  0.5324  0.9185  0.1135
 4246TIP3    H112702   1.876   0.460   3.896  1.7571 -0.6852  0.1718
 4246TIP3    H212703   1.911   0.526   4.027  1.6622  0.3692 -0.3238
 4247TIP3   OH212704   6.225   4.808   3.627  0.2906  0.5174 -0.2384
 4247TIP3    H112705   6.189   4.873   3.567 -0.3428  0.6721  0.2998
 4247TIP3    H212706   6.159   4.799   3.696 -0.3037 -1.7473 -1.0117
 4248TIP3   OH212707   6.325   0.669   2.388 -0.2528  0.0800 -0.0714
 4248TIP3    H112708   6.353   0.748   2.434 -0.5388  0.3547 -0.3683
 4248TIP3    H212709   6.300   0.699   2.300  1.3399 -0.5844 -0.7972
 4249TIP3   OH212710   3.351   5.367   1.837  0.6941 -0.2454  0.0604
 4249TIP3    H112711   3.325   5.457   1.856  2.1031  0.2760 -0.3563
 4249TIP3    H212712   3.395   5.337   1.916  2.3066  0.2721 -0.5998
 4250TIP3   OH212713   0.435   0.109   4.561 -0.0634  0.2742  0.1135
 4250TIP3    H112714   0.450   0.177   4.495  0.7905 -0.3165 -0.3229
 4250TIP3    H212715   0.354   0.135   4.605  0.5787  1.8967  0.3810
 4251TIP3   OH212716   5.878   1.847   2.189  0.3181  0.3763 -0.4684
 4251TIP3    H112717   5.927   1.900   2.126 -0.3183 -0.9278 -2.1586
 4251TIP3    H212718   5.790   1.841   2.153 -0.3346  0.3506  1.0559
 4252TIP3   OH212719   6.026   4.645   5.202 -0.0017 -0.1647 -0.5586
 4252TIP3    H112720   6.090   4.594   5.252  0.7958  1.0851 -0.2573
 4252TIP3    H212721   5.979   4.696   5.268 -0.3765 -0.0581 -0.9032
 4253TIP3   OH212722   1.611   4.316   4.573  0.5752 -0.2217  0.0081
 4253TIP3    H112723   1.649   4.278   4.652 -0.0294 -0.7799  0.0327
 4253TIP3    H212724   1.526   4.273   4.564  1.1662 -1.1147 -1.6550
 4254TIP3   OH212725   0.826   6.170   3.555 -0.7902 -0.1385 -0.0287
 4254TIP3    H112726   0.779   6.106   3.608 -0.6066 -0.8616 -0.7278
 4254TIP3    H212727   0.918   6.162   3.583 -1.1497  2.0398  2.1304
 4255TIP3   OH212728   3.341   3.700   1.313 -0.0915 -0.0625 -0.4308
 4255TIP3    H112729   3.414   3.671   1.369 -1.9634 -2.9270  0.7300
 4255TIP3    H212730   3.268   3.714   1.374 -1.7888 -1.8357 -1.9421
 4256TIP3   OH212731   6.744   2.807   3.218 -0.4106  0.2926  0.2450
 4256TIP3    H112732   6.801   2.776   3.288 -2.7230 -2.5324  1.0829
 4256TIP3    H212733   6.707   2.888   3.251 -0.0375 -0.0300  1.4867
 4257TIP3   OH212734   6.390   2.626   0.796 -0.3143 -0.0842 -0.3565
 4257TIP3    H112735   6.355   2.653   0.881  0.6171  2.0556 -0.5801
 4257TIP3    H212736   6.444   2.700   0.768  0.7399 -1.4275 -2.0630
 4258TIP3   OH212737   3.492   6.055   4.696 -0.1732 -0.1639  0.1592
 4258TIP3    H112738   3.566   6.116   4.696 -0.4533  0.2831  2.7866
 4258TIP3    H212739   3.459   6.058   4.606  0.8715  2.2296 -0.2216
 4259TIP3   OH212740   5.833   5.938   4.025 -0.3012 -0.4239 -0.3585
 4259TIP3    H112741   5.749   5.956   4.066 -0.4529 -0.0036 -0.8493
 4259TIP3    H212742   5.867   6.023   3.998 -0.1119 -0.6644 -0.9180
 4260TIP3   OH212743   2.610   5.475   1.415 -0.3422  0.1538  0.6903
 4260TIP3    H112744   2.673   5.538   1.381  0.2116 -0.5691  0.3652
 4260TIP3    H212745   2.542   5.470   1.348  0.5512 -0.9747 -0.1602
 4261TIP3   OH212746   1.272   5.685   1.322  0.0539 -0.0295 -0.6217
 4261TIP3    H112747   1.285   5.711   1.231  0.8760  2.1005  0.0556
 4261TIP3    H212748   1.360   5.683   1.359 -0.1864 -1.7083 -0.0290
 4262TIP3   OH212749   6.577   3.602   3.108 -0.5266  0.1712 -0.0666
 4262TIP3    H112750   6.622   3.682   3.082  1.5089 -0.6201  0.8298
 4262TIP3    H212751   6.620   3.576   3.189 -1.4112 -1.6394 -0.1349
 4263TIP3   OH212752   5.902   4.906   0.371  0.2548  0.4066  0.2799
 4263TIP3    H112753   5.944   4.937   0.451  2.5017  0.8456 -0.9883
 4263TIP3    H212754   5.816   4.949   0.371  0.5227  1.0182  2.0250
 4264TIP3   OH212755   2.266   0.457   1.534 -0.1544 -0.1385  0.3773
 4264TIP3    H112756   2.244   0.543   1.569 -0.7743  0.0032 -0.3232
 4264TIP3    H212757   2.321   0.476   1.458 -2.5832 -0.1558 -1.5212
 4265TIP3   OH212758   2.224   6.483   5.505  0.0872  0.4396 -0.0692
 4265TIP3    H112759   2.268   6.410   5.461  0.4571 -0.0372  1.0602
 4265TIP3    H212760   2.274   6.497   5.585 -1.0263  0.7682  0.5899
 4266TIP3   OH212761   2.920   0.433   1.133 -0.5250 -0.3481 -0.2930
 4266TIP3    H112762   2.854   0.455   1.200  1.3298  2.0353  0.9166
 4266TIP3    H212763   2.898   0.489   1.059  0.6848  1.2774  0.5213
 4267TIP3   OH212764   6.971   0.477   2.420  0.2593 -0.3790 -0.1870
 4267TIP3    H112765   6.957   0.395   2.468 -1.1142  0.3125  0.6688
 4267TIP3    H212766   6.894   0.483   2.363  0.3258  0.3239 -0.2030
 4268TIP3   OH212767   6.369   6.093   5.106  0.0079  0.1245  0.2542
 4268TIP3    H112768   6.435   6.028   5.128 -2.1414 -1.9080  1.1776
 4268TIP3    H212769   6.381   6.110   5.012  1.4598 -0.5780  0.2914
 4269TIP3   OH212770   0.421   0.019   0.834  0.7991  0.0509  0.5517
 4269TIP3    H112771   0.503   0.006   0.882  0.4847 -0.2572  1.0176
 4269TIP3    H212772   0.448   0.054   0.749  1.5495 -1.6464  0.0443
 4270TIP3   OH212773   1.155   1.989   5.255  0.2814 -0.0773  0.7231
 4270TIP3    H112774   1.075   1.967   5.208  0.4558  1.8899 -0.6200
 4270TIP3    H212775   1.162   2.084   5.249  2.0932 -0.0700  1.8692
 4271TIP3   OH212776   0.549   3.802   3.424  0.4848 -0.2479 -0.1760
 4271TIP3    H112777   0.586   3.885   3.452  0.2131 -0.7820  1.9762
 4271TIP3    H212778   0.488   3.825   3.354  1.3765  1.1750 -0.5199
 4272TIP3   OH212779   4.870   6.457   1.086  0.4532  0.1736  0.3530
 4272TIP3    H112780   4.788   6.502   1.069  1.6989  1.4983 -2.9583
 4272TIP3    H212781   4.849   6.364   1.082 -0.9359  0.4918 -0.0409
 4273TIP3   OH212782   3.833   2.325   1.834 -0.0497 -0.0183  0.1488
 4273TIP3    H112783   3.839   2.334   1.739 -3.2029 -0.4872 -0.1969
 4273TIP3    H212784   3.740   2.329   1.853  0.3918 -1.1130  3.1348
 4274TIP3   OH212785   1.531   2.119   2.128 -0.1475 -0.3551  0.0467
 4274TIP3    H112786   1.476   2.192   2.157  0.4779  0.2198 -0.1777
 4274TIP3    H212787   1.590   2.158   2.064 -0.7664 -1.3801 -1.1714
 4275TIP3   OH212788   1.873   1.325   1.389  0.7725  0.1484 -0.0988
 4275TIP3    H112789   1.841   1.288   1.307 -0.1708 -1.3535  0.9004
 4275TIP3    H212790   1.920   1.254   1.432 -2.7068 -0.7800  2.7481
 4276TIP3   OH212791   2.884   2.434   4.744  0.3280 -0.1617  0.0672
 4276TIP3    H112792   2.862   2.486   4.821  1.0120  1.0816 -0.5497
 4276TIP3    H212793   2.800   2.400   4.713 -0.0059 -0.2664  1.0503
 4277TIP3   OH212794   1.263   4.015   0.548  0.4288 -0.2159 -0.3828
 4277TIP3    H112795   1.325   3.942   0.556  0.1874 -0.2589  1.3693
 4277TIP3    H212796   1.302   4.086   0.600 -0.7183 -0.0685  0.3050
 4278TIP3   OH212797   3.218   3.246   0.162  0.4978  0.2327  0.1910
 4278TIP3    H112798   3.133   3.288   0.150 -0.0459 -1.1041 -0.9155
 4278TIP3    H212799   3.202   3.178   0.228  1.3448  1.5930  1.8965
 4279TIP3   OH212800   1.617   0.901   2.603  0.1933  0.4142  0.2253
 4279TIP3    H112801   1.651   0.818   2.636 -0.5233  0.4877  1.2126
 4279TIP3    H212802   1.684   0.965   2.626  0.4105  0.2164  0.1372
 4280TIP3   OH212803   2.892   4.923   0.269 -0.1729  0.0974  0.1636
 4280TIP3    H112804   2.894   5.006   0.316  0.3666  0.1633  0.0211
 4280TIP3    H212805   2.823   4.934   0.204  0.6632  0.8352 -0.6066
 4281TIP3   OH212806   6.418   4.861   2.157 -0.3227  0.1973 -0.0906
 4281TIP3    H112807   6.386   4.935   2.105 -0.4207  0.2557  0.0525
 4281TIP3    H212808   6.489   4.899   2.210 -1.6944  0.6686  1.4737
 4282TIP3   OH212809   6.623   1.847   4.711 -0.5104 -0.0446  0.2408
 4282TIP3    H112810   6.672   1.916   4.666  0.7281 -0.1421  1.3888
 4282TIP3    H212811   6.661   1.843   4.798 -2.7472  0.0294  1.3001
 4283TIP3   OH212812   0.047   4.501   4.582 -0.1002 -0.6780  0.6196
 4283TIP3    H112813  -0.030   4.519   4.636 -0.3605 -0.1619  0.0899
 4283TIP3    H212814   0.044   4.568   4.514  1.2884 -0.1321  1.0840
 4284TIP3   OH212815   4.367   6.022   1.685 -0.4588  0.0856 -0.1757
 4284TIP3    H112816   4.365   6.077   1.607 -1.1769 -0.0789 -0.2811
 4284TIP3    H212817   4.453   5.979   1.683 -0.6368 -0.2367 -1.0997
 4285TIP3   OH212818   5.841   5.565   2.642  0.1609 -0.0078 -0.9011
 4285TIP3    H112819   5.918   5.577   2.586 -0.1887 -0.3655 -1.4678
 4285TIP3    H212820   5.863   5.491   2.698  1.3533  1.6279  0.9228
 4286TIP3   OH212821   0.763   1.650   1.220  0.0667 -0.2250 -0.2026
 4286TIP3    H112822   0.795   1.709   1.152 -2.7256  0.0649 -1.4301
 4286TIP3    H212823   0.689   1.605   1.180 -1.8937  0.1422  2.6493
 4287TIP3   OH212824   3.164   4.596   5.403  1.1551 -0.1532 -0.1752
 4287TIP3    H112825   3.116   4.523   5.365  0.8304 -0.2792  0.4658
 4287TIP3    H212826   3.169   4.661   5.333 -2.4062  1.0451  0.4945
 4288TIP3   OH212827   4.132   5.651   0.753  0.0808  0.4111  0.2835
 4288TIP3    H112828   4.091   5.704   0.821  1.7156  0.6244  1.1692
 4288TIP3    H212829   4.097   5.563   0.766 -0.2632  0.6302  0.8574
 4289TIP3   OH212830   6.322   3.196   2.232 -0.1010  0.1017  0.6195
 4289TIP3    H112831   6.376   3.153   2.166 -0.3150  1.8886 -0.7738
 4289TIP3    H212832   6.384   3.250   2.282 -0.3898  1.2154 -0.2001
 4290TIP3   OH212833   1.951   5.167   3.959  0.3504 -0.5041 -0.1638
 4290TIP3    H112834   2.035   5.183   4.002  0.8865 -1.5381 -0.7878
 4290TIP3    H212835   1.896   5.241   3.985  0.5989 -1.1127  2.4104
 4291TIP3   OH212836   1.182   1.805   1.005  0.3673  0.5354 -0.3411
 4291TIP3    H112837   1.270   1.843   1.015  0.5727  0.4003 -1.5255
 4291TIP3    H212838   1.199   1.713   0.984 -0.1146 -0.0745  1.6826
 4292TIP3   OH212839   5.531   0.388   1.605 -0.6114  0.3731  0.0562
 4292TIP3    H112840   5.444   0.426   1.591 -0.4758  0.7236  0.1825
 4292TIP3    H212841   5.591   0.462   1.605 -0.3042  0.1276 -0.0703
 4293TIP3   OH212842   3.270   6.051   4.217 -0.2287  0.4950 -0.4714
 4293TIP3    H112843   3.305   6.076   4.131  1.7348 -0.6041 -0.0673
 4293TIP3    H212844   3.345   6.061   4.276 -0.4914 -2.1680  0.4456
 4294TIP3   OH212845   6.415   5.882   4.062 -0.2843  0.4607 -0.2559
 4294TIP3    H112846   6.476   5.954   4.076  0.0478  0.4922 -1.6755
 4294TIP3    H212847   6.460   5.806   4.099 -1.7679  1.2942  3.7366
 4295TIP3   OH212848   6.582   0.987   3.787  0.1205  0.2415  0.5251
 4295TIP3    H112849   6.498   0.995   3.741  0.1243 -0.4277  0.3906
 4295TIP3    H212850   6.601   0.893   3.787  0.9762  0.4018  0.3582
 4296TIP3   OH212851   6.797   2.905   2.230 -0.1576 -0.1846  0.0655
 4296TIP3    H112852   6.858   2.976   2.211 -0.1933  0.0914  0.9226
 4296TIP3    H212853   6.724   2.918   2.170  0.7273 -0.6513 -1.1337
 4297TIP3   OH212854   3.988   2.427   2.066  0.4673  0.7183  0.1310
 4297TIP3    H112855   3.948   2.390   1.988 -0.0407  0.2929  0.5843
 4297TIP3    H212856   3.924   2.492   2.097  0.8699  1.2110 -0.0590
 4298TIP3   OH212857   1.410   2.352   2.218  0.1088 -0.0553 -0.2579
 4298TIP3    H112858   1.393   2.441   2.249 -0.3260 -0.5447  0.9546
 4298TIP3    H212859   1.344   2.299   2.261  0.1962 -0.9418 -1.1803
 4299TIP3   OH212860   4.227   2.879   5.019  0.0380 -0.3732 -0.4224
 4299TIP3    H112861   4.157   2.815   5.030 -0.6624  0.4022 -0.2410
 4299TIP3    H212862   4.300   2.845   5.069 -0.9585 -0.0932  1.2968
 4300TIP3   OH212863   2.811   2.463   3.759 -0.2235  0.0171  0.2503
 4300TIP3    H112864   2.773   2.461   3.847 -1.0053 -0.9320 -0.0857
 4300TIP3    H212865   2.830   2.371   3.739 -1.0412  0.0838 -0.9632
 4301TIP3   OH212866   3.584   4.268   3.845  0.2848  0.5920  0.3399
 4301TIP3    H112867   3.670   4.238   3.876  0.1590  0.4409  0.5401
 4301TIP3    H212868   3.548   4.193   3.798  0.1232  0.5519  0.5323
 4302TIP3   OH212869   3.027   0.118   5.734  0.0570 -0.2189  0.2678
 4302TIP3    H112870   3.088   0.065   5.684  0.7444 -0.5133  1.3885
 4302TIP3    H212871   3.079   0.154   5.806 -0.5224  1.5352 -0.1347
 4303TIP3   OH212872   3.859   4.286   2.348 -0.2302 -0.6254 -0.6053
 4303TIP3    H112873   3.808   4.208   2.326  1.2586 -1.1700 -2.3886
 4303TIP3    H212874   3.887   4.271   2.438 -2.4179 -0.6954  0.1354
 4304TIP3   OH212875   3.588   1.712   3.795  0.0440 -0.2502  0.3890
 4304TIP3    H112876   3.500   1.740   3.820 -0.1896 -0.2634 -0.3757
 4304TIP3    H212877   3.621   1.665   3.872 -0.9139 -0.9097  0.4196
 4305TIP3   OH212878   0.337   5.135   0.782  0.6441 -0.2484  0.3463
 4305TIP3    H112879   0.301   5.123   0.695  1.0546  2.1200 -0.2052
 4305TIP3    H212880   0.262   5.162   0.836  0.5688 -0.8198  0.5414
 4306TIP3   OH212881   5.360   5.674   3.224 -0.4257 -0.1970 -0.2845
 4306TIP3    H112882   5.438   5.716   3.189 -0.3090  0.9587  1.2787
 4306TIP3    H212883   5.322   5.739   3.283 -2.4104 -0.8413 -0.7701
 4307TIP3   OH212884   1.469   0.840   2.872 -0.3012 -0.0902  0.1384
 4307TIP3    H112885   1.546   0.840   2.815  0.8326 -2.4096  1.5330
 4307TIP3    H212886   1.410   0.775   2.834 -0.8954  0.5458 -0.0489
 4308TIP3   OH212887   0.403   4.603   0.298 -0.4380  0.2980  0.1182
 4308TIP3    H112888   0.480   4.604   0.355  0.5475  0.8825 -1.1731
 4308TIP3    H212889   0.354   4.681   0.324 -1.7989 -1.2076  2.4385
 4309TIP3   OH212890   3.659   1.851   5.710  0.3596  0.4242  0.5546
 4309TIP3    H112891   3.703   1.769   5.684 -0.7631  0.0468 -0.2273
 4309TIP3    H212892   3.625   1.886   5.628 -1.6801  0.1705  1.2517
 4310TIP3   OH212893   6.749   0.084   3.156 -0.3853  0.7748 -0.1792
 4310TIP3    H112894   6.696   0.158   3.184  0.6309  1.3462  0.2816
 4310TIP3    H212895   6.694   0.038   3.092 -1.5976  1.0961  0.5933
 4311TIP3   OH212896   1.466   5.713   2.263  0.7896 -0.0846  0.5175
 4311TIP3    H112897   1.518   5.637   2.291 -0.7133 -1.0778  0.6984
 4311TIP3    H212898   1.439   5.692   2.174 -0.6522 -0.3471  0.9907
 4312TIP3   OH212899   1.505   3.474   2.783  0.3379 -0.5070 -0.1995
 4312TIP3    H112900   1.557   3.501   2.708  0.0396  0.8293  0.0547
 4312TIP3    H212901   1.454   3.551   2.807 -0.5545 -1.3019  0.5666
 4313TIP3   OH212902   3.431   2.122   2.701 -0.1330 -0.5646  0.4589
 4313TIP3    H112903   3.449   2.216   2.706 -2.3640 -0.0963  0.6396
 4313TIP3    H212904   3.434   2.102   2.607 -0.4368 -0.1298  0.3526
 4314TIP3   OH212905   6.798   5.553   5.448  0.8214 -0.5590 -0.1795
 4314TIP3    H112906   6.854   5.631   5.440 -1.6268  1.2223 -1.3182
 4314TIP3    H212907   6.821   5.499   5.373  0.6867  0.4061 -0.9390
 4315TIP3   OH212908   4.657   5.516   5.105  0.4689  0.9294 -0.0415
 4315TIP3    H112909   4.717   5.485   5.038 -0.5123  0.2500 -0.6418
 4315TIP3    H212910   4.653   5.611   5.092  1.8368  1.0615  0.3966
 4316TIP3   OH212911   6.705   1.754   1.184 -0.2504 -0.6937  0.0593
 4316TIP3    H112912   6.656   1.815   1.129 -1.0548 -0.1283  1.3586
 4316TIP3    H212913   6.638   1.707   1.233  0.4708 -0.7989  0.9691
 4317TIP3   OH212914   3.014   0.596   5.763  0.1860 -0.4194 -0.4526
 4317TIP3    H112915   2.929   0.632   5.736  1.1059  0.5711 -2.1583
 4317TIP3    H212916   3.034   0.641   5.845 -1.1546 -1.0654  0.2718
 4318TIP3   OH212917   4.874   0.364   4.745 -0.3852 -0.2565 -0.5355
 4318TIP3    H112918   4.816   0.407   4.682 -0.2294  0.2729 -0.3195
 4318TIP3    H212919   4.955   0.414   4.741  0.4880 -1.6711 -1.6747
 4319TIP3   OH212920   4.009   3.358   1.340  0.2843 -0.2912  0.4237
 4319TIP3    H112921   4.087   3.348   1.285 -0.6532  2.9984 -1.8830
 4319TIP3    H212922   3.958   3.279   1.325  0.5154  0.0367 -2.9411
 4320TIP3   OH212923   1.766   5.142   2.999 -0.4799 -0.1979 -0.4057
 4320TIP3    H112924   1.858   5.168   3.002 -0.7396  1.0552 -1.8832
 4320TIP3    H212925   1.755   5.100   2.914 -0.7329 -2.7553  0.8053
 4321TIP3   OH212926   1.918   5.955   2.642 -0.2156 -0.0281 -0.0144
 4321TIP3    H112927   1.874   5.871   2.627  1.3551 -0.9561  0.3803
 4321TIP3    H212928   1.887   5.983   2.728  0.1496 -0.8003  0.3757
 4322TIP3   OH212929   0.569   0.268   4.809  0.3866  0.2258  0.4875
 4322TIP3    H112930   0.507   0.311   4.867  0.2576 -0.0755  0.5767
 4322TIP3    H212931   0.542   0.176   4.809 -0.7038  0.4939 -1.4163
 4323TIP3   OH212932   4.337   2.852   1.008  0.1049 -0.0258 -0.1605
 4323TIP3    H112933   4.421   2.841   1.052 -0.0634 -1.3536 -0.1317
 4323TIP3    H212934   4.275   2.870   1.079  0.3832  1.1764 -0.2031
 4324TIP3   OH212935   0.230   1.169   2.721  0.6771  0.6836 -0.4367
 4324TIP3    H112936   0.186   1.196   2.640 -1.1910 -0.4004  0.1745
 4324TIP3    H212937   0.244   1.251   2.768 -1.6267  1.0200 -0.2210
 4325TIP3   OH212938   5.572   5.951   0.903  0.5008  0.4048 -0.2701
 4325TIP3    H112939   5.543   6.042   0.892  2.0817  1.1631  1.3564
 4325TIP3    H212940   5.668   5.956   0.898  0.7835 -0.7251  2.4720
 4326TIP3   OH212941   5.467   5.565   1.955 -0.1729  0.6987 -0.2921
 4326TIP3    H112942   5.465   5.542   2.047  0.2630 -0.3020 -0.5238
 4326TIP3    H212943   5.429   5.653   1.951 -1.5479  0.1722  0.6601
 4327TIP3   OH212944   3.292   3.517   4.802  0.0981  0.3272 -0.1759
 4327TIP3    H112945   3.329   3.604   4.789 -0.6671  0.5666 -0.7932
 4327TIP3    H212946   3.200   3.526   4.779  0.0428 -0.6802 -0.4066
 4328TIP3   OH212947   5.838   0.181   4.081 -0.3438  0.3253 -0.1239
 4328TIP3    H112948   5.885   0.211   4.159 -1.0933  1.2256 -0.0030
 4328TIP3    H212949   5.755   0.146   4.114 -1.3356  2.1137 -0.6094
 4329TIP3   OH212950   2.376   0.831   1.340 -0.1921 -0.0765  0.9535
 4329TIP3    H112951   2.421   0.809   1.422  0.9800 -3.4778 -0.4209
 4329TIP3    H212952   2.442   0.818   1.273 -0.6828  4.0149 -0.6341
 4330TIP3   OH212953   1.174   6.761   2.942  0.0585 -0.0850  0.1692
 4330TIP3    H112954   1.260   6.802   2.953  0.8881 -1.3067 -1.4037
 4330TIP3    H212955   1.183   6.705   2.866 -2.7114  1.2606 -1.3276
 4331TIP3   OH212956   2.336   3.195   2.876  0.3493 -0.4105 -0.0124
 4331TIP3    H112957   2.306   3.120   2.927  1.5561 -1.1042 -0.2765
 4331TIP3    H212958   2.256   3.231   2.838 -0.5537 -0.0863  2.0377
 4332TIP3   OH212959   2.773   3.485   4.092 -0.5325  0.1824  0.2403
 4332TIP3    H112960   2.844   3.545   4.069 -1.0428  1.1275  1.0173
 4332TIP3    H212961   2.698   3.542   4.107 -0.9901 -0.6359  1.1827
 4333TIP3   OH212962   5.494   2.807   5.779  0.3567  0.3669  0.4274
 4333TIP3    H112963   5.566   2.861   5.746 -0.7141  1.1614 -0.6429
 4333TIP3    H212964   5.415   2.849   5.748 -0.5499 -1.7489 -0.3603
 4334TIP3   OH212965   6.139   3.980   3.717 -0.3058 -0.1708 -0.2141
 4334TIP3    H112966   6.157   3.972   3.624  1.3569  1.1766 -0.0569
 4334TIP3    H212967   6.070   4.046   3.723  1.2961  1.5943 -0.4204
 4335TIP3   OH212968   3.559   3.074   5.224  0.0914  0.3800 -0.5633
 4335TIP3    H112969   3.601   3.086   5.309  0.7709 -1.3875 -0.6003
 4335TIP3    H212970   3.571   3.158   5.180  0.9446  0.8879  0.5745
 4336TIP3   OH212971   5.430   2.926   3.413  0.0309  0.4233  0.4647
 4336TIP3    H112972   5.457   2.876   3.336  0.2328 -0.6789  1.2252
 4336TIP3    H212973   5.476   2.884   3.486 -1.0904  0.6633  1.3342
 4337TIP3   OH212974   3.215   0.519   2.588  0.0856 -0.0968  0.1515
 4337TIP3    H112975   3.226   0.560   2.673 -0.1256 -0.4301  0.3439
 4337TIP3    H212976   3.245   0.428   2.601 -0.1866 -0.2179 -0.0604
 4338TIP3   OH212977   3.458   6.131   4.441 -0.2148  0.4854  0.1009
 4338TIP3    H112978   3.548   6.140   4.410 -0.6510  0.6349 -1.1757
 4338TIP3    H212979   3.421   6.219   4.433 -1.0172  0.0622 -1.2097
 4339TIP3   OH212980   4.747   5.629   1.013 -0.4056 -0.1601  0.0682
 4339TIP3    H112981   4.818   5.614   1.075 -1.5244 -0.6731  1.2869
 4339TIP3    H212982   4.712   5.715   1.037  1.4901  1.4057 -2.3181
 4340TIP3   OH212983   3.996   0.278   5.174 -0.4831 -0.0835  0.5701
 4340TIP3    H112984   3.933   0.271   5.245 -1.6729  1.0696 -0.3322
 4340TIP3    H212985   4.021   0.188   5.154 -1.2283 -0.4995  1.4721
 4341TIP3   OH212986   5.015   0.220   1.986 -0.9995  0.3343 -0.4102
 4341TIP3    H112987   4.923   0.197   1.989 -1.2630  1.3778  0.0065
 4341TIP3    H212988   5.022   0.281   1.913 -0.2325 -1.3567 -1.8107
 4342TIP3   OH212989   1.188   4.183   2.158  0.1646  0.3078  0.4969
 4342TIP3    H112990   1.213   4.181   2.066  1.7426 -1.3900  0.8951
 4342TIP3    H212991   1.099   4.147   2.160 -0.9878  2.8571 -0.5694
 4343TIP3   OH212992   3.653   6.622   2.739 -0.0342 -0.0881  0.3091
 4343TIP3    H112993   3.598   6.699   2.725  1.0729  0.6587 -0.0773
 4343TIP3    H212994   3.630   6.592   2.827 -0.2306  0.9155  0.6164
 4344TIP3   OH212995   4.553   1.800   0.063 -0.3848 -0.1383  0.0452
 4344TIP3    H112996   4.533   1.761  -0.022  2.6366  1.6458 -1.6730
 4344TIP3    H212997   4.507   1.884   0.062  0.2524  0.2180 -0.2115
 4345TIP3   OH212998   4.453   1.471   2.498  0.5546  0.4705  0.2454
 4345TIP3    H112999   4.523   1.534   2.516 -0.4663  1.9702 -0.8401
 4345TIP3    H213000   4.372   1.522   2.507 -0.3821 -1.0435  0.7380
 4346TIP3   OH213001   4.225   5.727   5.787 -0.6955 -0.2563  0.5920
 4346TIP3    H113002   4.295   5.787   5.815  1.2154 -1.5420 -1.1584
 4346TIP3    H213003   4.232   5.653   5.848  0.8063 -1.2396 -0.6996
 4347TIP3   OH213004   0.245   5.965   4.796 -0.0382 -0.1220 -0.1359
 4347TIP3    H113005   0.274   5.973   4.704  1.4603 -0.9584  0.2229
 4347TIP3    H213006   0.195   5.883   4.799 -0.8466  0.3567 -0.3758
 4348TIP3   OH213007   0.217   1.601   0.965  0.5228  0.3762 -0.4852
 4348TIP3    H113008   0.170   1.645   0.894  0.1393 -0.1362 -0.5549
 4348TIP3    H213009   0.289   1.660   0.986  0.8998  0.3387 -1.5993
 4349TIP3   OH213010   6.482   6.264   0.357 -0.3918 -0.2320 -0.1779
 4349TIP3    H113011   6.533   6.344   0.373  0.3983 -0.5844 -0.9035
 4349TIP3    H213012   6.533   6.195   0.398 -1.2320 -0.3417  0.7212
 4350TIP3   OH213013   2.710   3.128   0.717 -0.1449  0.4558  0.3148
 4350TIP3    H113014   2.733   3.048   0.763 -1.2279 -1.2808 -1.9745
 4350TIP3    H213015   2.746   3.198   0.771 -0.0091 -1.4884  2.9161
 4351TIP3   OH213016   6.453   1.286   4.983  0.6924 -0.2955  0.5384
 4351TIP3    H113017   6.424   1.272   5.073 -1.9541 -1.4397 -0.4019
 4351TIP3    H213018   6.470   1.199   4.949  3.1050  0.2043  0.2787
 4352TIP3   OH213019   0.431   6.054   3.764 -0.1868  0.8651 -0.3032
 4352TIP3    H113020   0.410   6.123   3.826  1.1674  1.1745 -0.1641
 4352TIP3    H213021   0.500   6.090   3.709  2.3124 -1.1119  1.2912
 4353TIP3   OH213022   4.638   1.710   2.074 -0.2212 -0.2486  0.1529
 4353TIP3    H113023   4.665   1.787   2.123 -2.6723  0.4635  0.5350
 4353TIP3    H213024   4.610   1.647   2.141 -0.6489 -0.4632 -0.2172
 4354TIP3   OH213025   3.847   4.564   2.246  0.1523  0.2645  0.3200
 4354TIP3    H113026   3.827   4.470   2.247  0.0634  0.2865  0.7538
 4354TIP3    H213027   3.920   4.572   2.184  0.2603 -0.1123  0.3953
 4355TIP3   OH213028   5.426   0.913   2.517 -0.3716  0.4163 -0.0038
 4355TIP3    H113029   5.371   0.923   2.439 -2.2598  2.1298  1.4156
 4355TIP3    H213030   5.374   0.953   2.587  1.7631  0.0184  1.9024
 4356TIP3   OH213031   0.448   1.720   4.288  0.0416 -0.7079  0.0197
 4356TIP3    H113032   0.428   1.639   4.241 -1.6211 -1.0852  1.2741
 4356TIP3    H213033   0.453   1.787   4.220 -0.2543 -1.5765 -0.8788
 4357TIP3   OH213034   4.989   1.259   4.999  0.2976  0.2302  0.2273
 4357TIP3    H113035   4.919   1.309   4.958  0.8714 -0.0980 -1.2246
 4357TIP3    H213036   5.037   1.220   4.926  2.0746  0.5365  1.1634
 4358TIP3   OH213037   2.495   6.750   4.881 -0.5789  0.3070  0.1250
 4358TIP3    H113038   2.472   6.820   4.943  1.1618  1.3686 -0.3586
 4358TIP3    H213039   2.482   6.789   4.795  1.1486  0.3519 -0.1538
 4359TIP3   OH213040   0.865   3.429   2.316 -0.1828 -0.3036  0.2197
 4359TIP3    H113041   0.804   3.357   2.335 -1.1852  0.3590 -0.3773
 4359TIP3    H213042   0.811   3.508   2.320 -0.0499  0.1087 -3.0096
 4360TIP3   OH213043   3.890   1.839   0.354 -0.1610  0.6066  0.3775
 4360TIP3    H113044   3.858   1.835   0.264  2.7625  0.1552 -0.7692
 4360TIP3    H213045   3.854   1.760   0.396 -0.5137  0.1326 -0.7880
 4361TIP3   OH213046   0.147   1.124   0.960  0.2981 -0.3251 -0.6526
 4361TIP3    H113047   0.086   1.165   1.022  0.2145 -1.2874 -0.0843
 4361TIP3    H213048   0.162   1.191   0.893 -2.9927 -0.6885 -1.9505
 4362TIP3   OH213049   6.877   4.737   3.839 -0.4363  0.2321  0.0057
 4362TIP3    H113050   6.900   4.823   3.875  0.1759 -0.1904  0.6571
 4362TIP3    H213051   6.909   4.675   3.904 -0.9792 -0.4908 -0.4020
 4363TIP3   OH213052   1.205   3.849   2.905 -0.4507 -0.0775 -0.1962
 4363TIP3    H113053   1.218   3.912   2.834  1.2137 -1.0975 -0.8756
 4363TIP3    H213054   1.241   3.891   2.983 -1.4190  0.6718 -0.1325
 4364TIP3   OH213055   1.607   4.375   0.637 -0.0571 -0.3454  0.3221
 4364TIP3    H113056   1.668   4.323   0.585 -0.1553  0.2128 -0.3599
 4364TIP3    H213057   1.630   4.355   0.728  0.6428 -0.7136  0.0693
 4365TIP3   OH213058   2.957   3.390   1.097 -0.0191 -0.3968 -0.1707
 4365TIP3    H113059   3.006   3.360   1.174  1.2224  0.3893 -0.6154
 4365TIP3    H213060   3.004   3.468   1.068 -1.5783  0.4133 -0.6244
 4366TIP3   OH213061   1.283   3.288   3.836 -0.4964  0.1468 -0.6196
 4366TIP3    H113062   1.372   3.295   3.871 -0.9613 -1.4425  1.0336
 4366TIP3    H213063   1.261   3.195   3.845 -1.9162  0.3102 -2.0747
 4367TIP3   OH213064   3.580   3.126   4.429 -0.2657 -0.4502  0.0165
 4367TIP3    H113065   3.514   3.177   4.381  0.3269  1.1774  0.8614
 4367TIP3    H213066   3.585   3.169   4.514  2.5486  0.0815 -0.3262
 4368TIP3   OH213067   3.531   3.788   5.038 -0.5037  0.3528 -0.5737
 4368TIP3    H113068   3.505   3.752   4.953 -0.3181 -1.1970 -0.0076
 4368TIP3    H213069   3.464   3.854   5.057  0.1536  1.6431 -2.4770
 4369TIP3   OH213070   3.423   2.547   2.618 -0.0779 -0.7112  0.6543
 4369TIP3    H113071   3.439   2.550   2.524 -0.8616  2.3796  0.5129
 4369TIP3    H213072   3.488   2.605   2.656 -1.1154 -0.2284  1.7723
 4370TIP3   OH213073   6.110   4.681   1.402 -0.2191  0.2962 -0.3756
 4370TIP3    H113074   6.106   4.587   1.385 -0.3952  0.4475 -1.1933
 4370TIP3    H213075   6.030   4.700   1.450  0.0485 -0.0490  0.2251
 4371TIP3   OH213076   6.977   5.305   4.642 -0.7249  0.1997  0.3765
 4371TIP3    H113077   6.906   5.369   4.649 -2.3556 -1.6014  1.0492
 4371TIP3    H213078   6.976   5.258   4.726  0.7519 -0.3991  0.0956
 4372TIP3   OH213079   3.989   4.616   1.994 -0.1394  0.7798 -0.3559
 4372TIP3    H113080   4.012   4.680   1.926  0.4868  0.2874 -0.6187
 4372TIP3    H213081   4.046   4.541   1.976 -0.6929  0.2455  0.0983
 4373TIP3   OH213082   4.266   3.579   0.848 -0.0892  0.1844  0.3698
 4373TIP3    H113083   4.234   3.492   0.823  1.3665 -1.0655  2.4507
 4373TIP3    H213084   4.360   3.566   0.863 -0.2436  1.4912  3.0639
 4374TIP3   OH213085   1.597   2.173   3.605  0.2484  0.1544 -0.1029
 4374TIP3    H113086   1.577   2.109   3.673 -0.3845 -0.5672 -0.9474
 4374TIP3    H213087   1.567   2.256   3.640  1.1774  0.0231  1.0544
 4375TIP3   OH213088   6.228   1.985   3.175 -0.1977 -0.0726  0.2160
 4375TIP3    H113089   6.135   1.994   3.194 -0.9084 -2.3822 -1.7116
 4375TIP3    H213090   6.264   2.073   3.189 -2.8954  1.2181 -0.2873
 4376TIP3   OH213091   3.416   2.710   0.677  0.0956  0.1405  0.3755
 4376TIP3    H113092   3.437   2.798   0.708 -0.7913  0.8842 -1.0149
 4376TIP3    H213093   3.342   2.683   0.732 -1.3370  1.3631 -0.8585
 4377TIP3   OH213094   4.519   1.623   1.853 -0.4528  0.2106  0.4711
 4377TIP3    H113095   4.553   1.654   1.937  1.3601 -0.6267  0.0923
 4377TIP3    H213096   4.597   1.613   1.798 -1.0216 -3.6203  0.1329
 4378TIP3   OH213097   6.053   0.450   2.072  0.5512  0.1223  0.7497
 4378TIP3    H113098   6.059   0.431   1.978  2.1249 -1.2610  1.0829
 4378TIP3    H213099   6.025   0.541   2.076 -0.1320  0.0325 -1.0506
 4379TIP3   OH213100   3.031   0.785   1.113  0.1958  0.2080 -0.4132
 4379TIP3    H113101   3.074   0.700   1.099  1.9154  1.0713 -0.6928
 4379TIP3    H213102   2.957   0.766   1.170 -0.0547 -1.6268 -1.2663
 4380TIP3   OH213103   5.806   2.155   0.184 -0.5815  0.0547  0.5229
 4380TIP3    H113104   5.874   2.202   0.135 -0.2034  0.3620  1.3272
 4380TIP3    H213105   5.817   2.064   0.158 -0.8265  0.2997 -0.4738
 4381TIP3   OH213106   3.875   2.169   5.451 -0.5638 -0.1056  0.5205
 4381TIP3    H113107   3.844   2.243   5.503  0.5120  1.0533 -0.4273
 4381TIP3    H213108   3.803   2.149   5.391 -1.0118 -0.0929  1.0487
 4382TIP3   OH213109   2.104   6.130   0.446  0.5413 -0.1981  0.2154
 4382TIP3    H113110   2.102   6.048   0.495 -0.2193 -0.4020 -0.1356
 4382TIP3    H213111   2.091   6.197   0.513 -0.8409 -0.4953  0.2832
 4383TIP3   OH213112   6.916   6.404   1.239  0.1654  0.1012 -0.3617
 4383TIP3    H113113   6.979   6.445   1.298 -0.4247  0.0415  0.3172
 4383TIP3    H213114   6.957   6.321   1.214 -0.3295 -0.7271  1.4012
 4384TIP3   OH213115   3.833   4.308   5.438 -0.4687 -0.2225 -0.5938
 4384TIP3    H113116   3.794   4.394   5.455  0.6044  0.2531 -0.4606
 4384TIP3    H213117   3.876   4.284   5.520 -0.6765 -0.8584 -0.6618
 4385TIP3   OH213118   6.916   5.302   3.737 -0.2445 -0.7505 -0.4260
 4385TIP3    H113119   6.933   5.259   3.820 -0.8357 -2.0809 -0.9746
 4385TIP3    H213120   6.842   5.255   3.699 -0.2249  0.0616 -1.5434
 4386TIP3   OH213121   6.680   6.497   3.630 -0.3804 -0.4796 -0.2156
 4386TIP3    H113122   6.623   6.512   3.554  2.2993 -1.3361 -2.6012
 4386TIP3    H213123   6.645   6.419   3.671 -1.5242 -0.3965 -0.9759
 4387TIP3   OH213124   4.945   3.788   0.942  0.4962  0.3428 -0.0604
 4387TIP3    H113125   4.932   3.873   0.900 -0.5632  0.2286  0.0090
 4387TIP3    H213126   4.966   3.809   1.033  0.2949  0.5376 -0.0572
 4388TIP3   OH213127   2.696   0.371   4.828 -0.4132 -0.7385  0.4179
 4388TIP3    H113128   2.766   0.343   4.768 -1.3776  0.0760 -1.1748
 4388TIP3    H213129   2.709   0.319   4.907  2.2756 -0.2686  0.3735
 4389TIP3   OH213130   2.020   0.899   2.851  0.3786 -0.1201  0.3867
 4389TIP3    H113131   2.005   0.893   2.757 -2.0716 -0.5860  0.7514
 4389TIP3    H213132   1.983   0.819   2.887  0.1839  0.5877  1.8569
 4390TIP3   OH213133   2.872   0.717   1.514 -0.4722  0.3855 -0.6160
 4390TIP3    H113134   2.921   0.692   1.592 -3.4516 -2.5952  0.5167
 4390TIP3    H213135   2.871   0.813   1.516  1.3991  0.4383  1.7345
 4391TIP3   OH213136   6.316   3.549   4.605  0.1324  0.1084 -0.3414
 4391TIP3    H113137   6.395   3.577   4.651  0.9260 -1.5455 -0.6577
 4391TIP3    H213138   6.317   3.600   4.524  0.6433  0.4081 -0.1510
 4392TIP3   OH213139   1.096   1.636   5.112 -0.1563 -0.0320  0.2471
 4392TIP3    H113140   1.050   1.686   5.179  3.4433  0.6265  2.4617
 4392TIP3    H213141   1.026   1.594   5.062 -3.1130  0.8905  3.2349
 4393TIP3   OH213142   2.383   0.674   3.354  0.4403 -1.3508 -0.2806
 4393TIP3    H113143   2.376   0.588   3.312 -1.6413 -1.5245  0.3142
 4393TIP3    H213144   2.385   0.655   3.448  0.6540 -0.7648 -0.1645
 4394TIP3   OH213145   4.576   3.488   3.846  0.7704 -0.7700 -1.0248
 4394TIP3    H113146   4.601   3.499   3.938 -0.8299 -0.9866 -0.5285
 4394TIP3    H213147   4.634   3.419   3.814 -0.4594 -2.6756  0.6332
 4395TIP3   OH213148   1.928   1.594   1.381 -1.0636 -0.2083  0.1642
 4395TIP3    H113149   2.023   1.604   1.383 -1.0281 -0.5331  0.0700
 4395TIP3    H213150   1.914   1.500   1.368 -1.3930 -0.3385  1.2960
 4396TIP3   OH213151   0.430   1.887   3.152 -0.0655  0.0265  0.0758
 4396TIP3    H113152   0.336   1.871   3.155 -0.2366  1.0292  0.4779
 4396TIP3    H213153   0.445   1.927   3.066 -0.0063 -0.1589  0.0007
 4397TIP3   OH213154   2.372   5.309   5.686  0.3110  0.5393 -0.3126
 4397TIP3    H113155   2.401   5.308   5.594  0.2655  0.1086 -0.3221
 4397TIP3    H213156   2.354   5.218   5.707  3.7987  0.0463  1.2190
 4398TIP3   OH213157   1.984   6.259   1.087 -0.1831 -0.2342 -0.1047
 4398TIP3    H113158   1.959   6.309   1.010 -1.7124 -0.0398  0.4716
 4398TIP3    H213159   2.061   6.303   1.122 -1.4959  1.7680  0.3990
 4399TIP3   OH213160   6.480   5.550   3.577  0.3917 -0.4619 -0.5552
 4399TIP3    H113161   6.511   5.632   3.539 -0.5422  0.7633  1.1792
 4399TIP3    H213162   6.502   5.556   3.670 -2.1091 -0.8929  0.1470
 4400TIP3   OH213163   7.122   5.539   2.620 -0.4289  0.4104 -0.0046
 4400TIP3    H113164   7.161   5.476   2.680 -0.5049  1.2031  0.9070
 4400TIP3    H213165   7.173   5.619   2.632 -0.7647  0.7293 -0.6353
 4401TIP3   OH213166   0.969   4.017   5.250  0.1751  0.1178 -0.3661
 4401TIP3    H113167   1.042   4.014   5.312  0.9321 -0.6286 -1.2507
 4401TIP3    H213168   0.912   3.945   5.277 -1.5542  2.1855  1.8213
 4402TIP3   OH213169   4.686   0.098   0.226  0.0499  0.7530  0.0761
 4402TIP3    H113170   4.617   0.032   0.214 -0.6730  1.5667 -0.4221
 4402TIP3    H213171   4.754   0.054   0.275 -0.6676 -0.1982  0.2352
 4403TIP3   OH213172   2.973   1.580   4.168 -0.6489 -0.4974 -0.3907
 4403TIP3    H113173   3.009   1.495   4.193 -0.3737  0.2118  1.8620
 4403TIP3    H213174   2.882   1.562   4.143  0.1126 -1.7758 -2.5881
 4404TIP3   OH213175   6.374   5.366   2.194  0.1560 -0.1497 -0.2889
 4404TIP3    H113176   6.404   5.439   2.141  0.9575  0.5937  1.1468
 4404TIP3    H213177   6.335   5.305   2.131 -1.1408  1.7888 -1.4502
 4405TIP3   OH213178   2.118   0.545   5.390 -0.2711 -0.3861  0.4283
 4405TIP3    H113179   2.176   0.535   5.466  0.1781  0.2213  0.1733
 4405TIP3    H213180   2.051   0.478   5.402 -1.1933  0.7584  2.2620
 4406TIP3   OH213181   1.395   6.572   3.059 -0.0095 -0.0477  0.0988
 4406TIP3    H113182   1.302   6.565   3.083  0.1913 -2.4665  0.4569
 4406TIP3    H213183   1.403   6.659   3.020 -2.5365  0.0430 -0.4181
 4407TIP3   OH213184   1.820   4.035   2.201  0.1209  0.3117 -0.2403
 4407TIP3    H113185   1.741   3.990   2.170 -0.7001  0.9821  0.8205
 4407TIP3    H213186   1.891   3.972   2.186 -0.5346 -0.1424 -1.5933
 4408TIP3   OH213187   4.753   1.939   1.321 -0.3254 -0.4931 -0.0073
 4408TIP3    H113188   4.760   1.845   1.305 -1.1259 -0.4707 -0.5563
 4408TIP3    H213189   4.734   1.947   1.415  0.3829 -0.8376  0.1706
 4409TIP3   OH213190   2.053   6.089   4.096 -0.1334 -0.0558  0.2868
 4409TIP3    H113191   2.079   6.004   4.134  0.1066  0.1768  0.6565
 4409TIP3    H213192   2.050   6.073   4.002  1.7269 -0.0253  0.1738
 4410TIP3   OH213193   6.699   0.376   1.232 -0.2947 -0.1904  0.1791
 4410TIP3    H113194   6.681   0.301   1.176  0.2531 -0.0211 -0.2222
 4410TIP3    H213195   6.629   0.438   1.212  0.0007 -0.0600 -0.4375
 4411TIP3   OH213196   6.119   4.617   2.668 -0.3569  0.5510 -0.8052
 4411TIP3    H113197   6.141   4.550   2.733  1.0005  2.3199  0.6508
 4411TIP3    H213198   6.065   4.571   2.603  1.4456 -2.2096 -0.4985
 4412TIP3   OH213199   1.199   4.991   0.013 -0.2155 -0.5068 -0.4923
 4412TIP3    H113200   1.148   4.917  -0.022 -0.6527 -0.6451  0.4086
 4412TIP3    H213201   1.254   4.952   0.081  1.1723 -0.3718 -1.4751
 4413TIP3   OH213202   6.442   5.549   0.305 -0.2187  0.0531 -0.0233
 4413TIP3    H113203   6.447   5.572   0.212 -0.3669 -0.7767 -0.2411
 4413TIP3    H213204   6.349   5.552   0.326 -0.3661 -1.4357 -0.3501
 4414TIP3   OH213205   2.759   5.447   1.048  0.5122  0.0487 -0.6761
 4414TIP3    H113206   2.698   5.519   1.058  0.6976  0.4424 -2.1798
 4414TIP3    H213207   2.799   5.461   0.962  1.5302 -1.0970 -0.4160
 4415TIP3   OH213208   4.049   6.773   1.562  0.4880  0.2841 -0.2040
 4415TIP3    H113209   3.978   6.767   1.625  0.1471  0.0104 -0.6153
 4415TIP3    H213210   4.038   6.858   1.521 -0.6363 -0.4547 -1.4903
 4416TIP3   OH213211   3.558   3.641   5.647  0.4500  0.4325 -0.2817
 4416TIP3    H113212   3.588   3.634   5.738 -0.2953 -1.0328 -0.1103
 4416TIP3    H213213   3.619   3.702   5.606  1.7975 -0.1354  0.7860
 4417TIP3   OH213214   4.670   4.645   3.453 -0.1011  0.2530 -0.0987
 4417TIP3    H113215   4.741   4.692   3.410 -1.9654  2.4863 -0.9531
 4417TIP3    H213216   4.656   4.692   3.535  1.7156 -2.4125  1.9012
 4418TIP3   OH213217   2.374   5.022   5.664 -0.3592 -0.0059 -0.0001
 4418TIP3    H113218   2.447   4.981   5.617  0.3871  1.0277  0.2294
 4418TIP3    H213219   2.307   5.034   5.597 -0.7615 -1.9161  0.0017
 4419TIP3   OH213220   5.280   6.076   0.580  0.1451 -0.0329  0.7536
 4419TIP3    H113221   5.228   6.075   0.500  1.2693  0.6507 -0.0209
 4419TIP3    H213222   5.245   6.148   0.631  1.9938  2.2860 -0.9880
 4420TIP3   OH213223   5.738   5.141   2.398  0.0770  0.4450  0.3100
 4420TIP3    H113224   5.815   5.184   2.362  0.8134  0.0256  1.3148
 4420TIP3    H213225   5.681   5.125   2.323  0.4458  1.8171 -0.2770
 4421TIP3   OH213226   7.209   3.962   1.683 -0.4010 -0.3866 -0.3332
 4421TIP3    H113227   7.219   3.900   1.755  2.4135  2.0559  1.5768
 4421TIP3    H213228   7.124   4.004   1.698 -0.5274 -0.9714  0.6276
 4422TIP3   OH213229   7.248   1.609   5.624 -0.0717 -0.4415  0.0702
 4422TIP3    H113230   7.201   1.586   5.544 -0.6262 -0.2660  0.3442
 4422TIP3    H213231   7.182   1.605   5.693  0.2538  0.0813  0.4186
 4423TIP3   OH213232   5.827   4.954   3.250  0.5618  0.6166  0.6731
 4423TIP3    H113233   5.885   4.920   3.319  0.5822 -1.2767 -0.2041
 4423TIP3    H213234   5.822   4.883   3.187 -1.1076  1.5338 -0.2833
 4424TIP3   OH213235   3.956   4.901   4.345  0.0737 -0.4106  0.3389
 4424TIP3    H113236   3.963   4.954   4.266 -0.3676  0.8907  1.1249
 4424TIP3    H213237   4.037   4.849   4.347  0.6644  0.4498 -0.3251
 4425TIP3   OH213238   2.518   4.209   1.001  0.3901  0.0931  0.0067
 4425TIP3    H113239   2.605   4.198   0.962  0.4054  1.3601 -0.3459
 4425TIP3    H213240   2.465   4.245   0.930  0.5001  2.8086  1.1825
 4426TIP3   OH213241   1.174   4.209   3.611  0.2175  0.1312 -0.0503
 4426TIP3    H113242   1.241   4.238   3.673  1.5347  0.9511 -1.7695
 4426TIP3    H213243   1.123   4.288   3.592 -0.1090 -0.0924 -0.1160
 4427TIP3   OH213244   6.733   3.317   5.807  0.4026 -0.3107  0.2448
 4427TIP3    H113245   6.727   3.261   5.885  0.4897  0.0321  0.5023
 4427TIP3    H213246   6.670   3.387   5.823 -0.4127 -0.8593 -0.5227
 4428TIP3   OH213247   0.177   5.264   0.542  0.1924  0.2241  0.0669
 4428TIP3    H113248   0.107   5.267   0.607 -0.8261  1.7231 -1.0281
 4428TIP3    H213249   0.136   5.224   0.465  0.7722  0.4114 -0.3443
 4429TIP3   OH213250   3.091   1.849   1.543 -0.0810 -0.2039 -0.4646
 4429TIP3    H113251   3.167   1.796   1.568  0.6165  0.7421 -0.5312
 4429TIP3    H213252   3.095   1.853   1.447 -2.0602 -2.8090 -0.7618
 4430TIP3   OH213253   5.273   1.232   2.448  0.1929  0.1761  0.4316
 4430TIP3    H113254   5.190   1.259   2.488  0.8196  0.0915  1.8371
 4430TIP3    H213255   5.338   1.244   2.517  1.3155 -0.0548 -0.5538
 4431TIP3   OH213256   5.712   5.384   4.396 -0.0685 -0.0890 -0.6100
 4431TIP3    H113257   5.707   5.474   4.430 -2.0496 -0.3636 -0.0495
 4431TIP3    H213258   5.714   5.394   4.301  1.3607  0.5682 -0.5380
 4432TIP3   OH213259   0.584   2.793   2.048  0.0038 -0.4879 -0.0196
 4432TIP3    H113260   0.663   2.839   2.021  0.4364 -0.8471  0.6150
 4432TIP3    H213261   0.558   2.836   2.130  1.4722 -2.5315  1.6057
 4433TIP3   OH213262   2.207   4.169   0.765 -0.5309 -0.4304  0.4273
 4433TIP3    H113263   2.154   4.107   0.716 -1.4689 -0.4373  1.4059
 4433TIP3    H213264   2.145   4.211   0.826  0.4681  0.0067  1.1756
 4434TIP3   OH213265   5.857   2.307   0.964 -0.2509  0.1513  0.1941
 4434TIP3    H113266   5.885   2.328   1.054  0.5049 -0.5101  0.1245
 4434TIP3    H213267   5.929   2.339   0.909 -0.4095 -0.0414 -0.1278
 4435TIP3   OH213268   3.977   1.674   5.084 -0.6683  0.3065  0.2962
 4435TIP3    H113269   3.928   1.728   5.145 -1.7283 -1.7120  1.3575
 4435TIP3    H213270   3.952   1.706   4.997  0.1055  2.5801  0.8661
 4436TIP3   OH213271   3.730   4.426   2.581  0.4244 -0.4615 -0.2645
 4436TIP3    H113272   3.680   4.478   2.643 -0.1790 -1.4580  0.1171
 4436TIP3    H213273   3.810   4.476   2.565 -0.5341  1.0103 -0.6275
 4437TIP3   OH213274   6.301   3.666   5.636 -0.9046  0.0730 -0.5668
 4437TIP3    H113275   6.361   3.593   5.655  0.0710  0.0484 -3.2393
 4437TIP3    H213276   6.283   3.705   5.721  3.9853  0.9174  0.3828
 4438TIP3   OH213277   1.033   2.959   2.878 -0.1812 -0.3349  0.0570
 4438TIP3    H113278   1.125   2.955   2.901 -0.1768  1.0556  0.3590
 4438TIP3    H213279   0.990   2.993   2.957 -0.5997  1.3898 -0.8660
 4439TIP3   OH213280   4.545   4.201   4.044  0.9841  0.1349  0.0922
 4439TIP3    H113281   4.600   4.137   3.999  0.6148 -1.0516  1.2405
 4439TIP3    H213282   4.554   4.179   4.137  0.8325  1.7718  0.5291
 4440TIP3   OH213283   2.558   1.555   4.216  0.4167  0.3058  0.4758
 4440TIP3    H113284   2.567   1.557   4.311 -1.4900  0.9095  0.6909
 4440TIP3    H213285   2.465   1.537   4.201  0.4529  1.3350 -1.2598
 4441TIP3   OH213286   7.105   1.314   2.680  0.3227 -0.5419 -0.0754
 4441TIP3    H113287   7.160   1.391   2.695  0.0652 -0.4058  0.1598
 4441TIP3    H213288   7.121   1.258   2.756  0.5352 -0.7388 -0.2623
 4442TIP3   OH213289   6.552   4.067   1.162  0.4091 -0.3496 -0.5200
 4442TIP3    H113290   6.529   3.995   1.222 -1.9568 -0.2709 -1.2708
 4442TIP3    H213291   6.538   4.031   1.075  2.1935  0.0929 -1.0371
 4443TIP3   OH213292   6.148   5.268   0.285  0.2677 -0.0035 -0.2879
 4443TIP3    H113293   6.162   5.351   0.331 -3.2710 -1.1166  3.4298
 4443TIP3    H213294   6.197   5.204   0.336 -1.0473 -0.8401 -0.0339
 4444TIP3   OH213295   5.458   1.003   3.614  0.2908 -0.2770 -0.0134
 4444TIP3    H113296   5.393   1.012   3.684 -0.1239  0.2564 -0.4595
 4444TIP3    H213297   5.439   0.918   3.574 -0.1017 -0.1508 -0.1033
 4445TIP3   OH213298   2.383   5.932   4.429  0.6961 -0.6493  0.2450
 4445TIP3    H113299   2.459   5.875   4.433  0.9534 -0.3511 -0.3336
 4445TIP3    H213300   2.402   6.002   4.491  1.5346  0.1907 -0.9419
 4446TIP3   OH213301   5.311   5.395   5.558 -0.0866 -0.1599 -0.7676
 4446TIP3    H113302   5.236   5.393   5.499 -0.7572  1.5910 -0.0578
 4446TIP3    H213303   5.381   5.434   5.505 -0.5322  0.8997 -0.6095
 4447TIP3   OH213304   5.477   1.715   0.169  0.6345 -0.2293  0.0185
 4447TIP3    H113305   5.401   1.660   0.189 -0.5295  1.7706  1.5439
 4447TIP3    H213306   5.541   1.693   0.236 -0.6359  1.5982  1.9890
 4448TIP3   OH213307   4.567   6.550   1.102  0.2444 -0.1525  0.2358
 4448TIP3    H113308   4.548   6.625   1.045  1.1190 -0.2796 -0.2608
 4448TIP3    H213309   4.483   6.524   1.137  0.0674  1.8961  1.4882
 4449TIP3   OH213310   7.156   5.966   5.083 -0.2470 -0.5056  0.2469
 4449TIP3    H113311   7.183   6.052   5.114 -1.7016  0.7468 -1.7066
 4449TIP3    H213312   7.147   5.977   4.988  3.9550 -4.0672 -0.8921
 4450TIP3   OH213313   4.313   2.578   0.985  0.3453  0.0017 -0.4091
 4450TIP3    H113314   4.307   2.566   1.080  1.5134 -0.8133 -0.4073
 4450TIP3    H213315   4.333   2.671   0.973  0.4764  0.0504  0.1697
 4451TIP3   OH213316   1.192   6.379   5.335  0.3094  0.2050  0.2895
 4451TIP3    H113317   1.178   6.322   5.411 -1.4939  0.2723  0.0621
 4451TIP3    H213318   1.115   6.435   5.333 -0.3314 -0.6056 -2.2671
 4452TIP3   OH213319   2.641   6.736   5.318  0.0087 -0.1591 -0.1074
 4452TIP3    H113320   2.643   6.707   5.227  0.2534  2.9473 -1.2232
 4452TIP3    H213321   2.551   6.767   5.331  0.7459  2.4657 -0.5063
 4453TIP3   OH213322   4.956   2.539   0.248  0.1132 -0.5147  0.2784
 4453TIP3    H113323   4.987   2.542   0.157 -0.2096  0.7332  0.1889
 4453TIP3    H213324   5.030   2.571   0.299 -0.3236  0.6131  0.2484
 4454TIP3   OH213325   6.625   1.812   3.026  0.4012  0.0860 -0.8103
 4454TIP3    H113326   6.655   1.877   2.962  0.8226 -1.7328 -2.5764
 4454TIP3    H213327   6.529   1.822   3.027  0.1444 -1.1365 -3.3624
 4455TIP3   OH213328   1.691   6.074   0.372 -0.1120 -0.5181  0.1171
 4455TIP3    H113329   1.679   6.102   0.463  0.3775 -1.3136  0.4390
 4455TIP3    H213330   1.603   6.054   0.341 -0.4338  0.9867 -0.0121
 4456TIP3   OH213331   0.095   3.887   4.726  0.4297 -0.3011  0.0246
 4456TIP3    H113332   0.166   3.847   4.676  0.3816 -0.6811  0.2517
 4456TIP3    H213333   0.070   3.965   4.676  0.9336 -0.2276 -0.1109
 4457TIP3   OH213334   3.170   3.054   1.183 -0.1289 -0.2095  0.2842
 4457TIP3    H113335   3.221   3.090   1.255  0.5941  0.7688 -0.6975
 4457TIP3    H213336   3.161   2.961   1.205 -0.8296  0.2540  2.1506
 4458TIP3   OH213337   1.668   6.001   3.560  0.2003  0.1792  0.1480
 4458TIP3    H113338   1.660   6.048   3.476 -3.5194  0.1517  0.3302
 4458TIP3    H213339   1.749   5.951   3.551 -0.1667 -0.0849 -3.6187
 4459TIP3   OH213340   3.843   3.271   3.731 -0.4013  0.1058  0.1240
 4459TIP3    H113341   3.787   3.198   3.757  0.0540  0.0992  1.1202
 4459TIP3    H213342   3.931   3.245   3.758 -0.1154  0.6932 -0.2195
 4460TIP3   OH213343   1.353   6.698   0.103 -0.0135  0.4451  0.2539
 4460TIP3    H113344   1.336   6.792   0.108 -1.4154  0.2396 -0.2518
 4460TIP3    H213345   1.309   6.670   0.023  1.1942 -0.4968 -0.1204
 4461TIP3   OH213346   4.721   5.201   3.352  0.2677  0.2290 -0.0756
 4461TIP3    H113347   4.703   5.248   3.270 -0.8207 -0.3936 -0.2122
 4461TIP3    H213348   4.635   5.172   3.383  0.6152  0.7743  1.4989
 4462TIP3   OH213349   5.348   2.718   4.304 -0.3918 -0.1687  0.1578
 4462TIP3    H113350   5.401   2.689   4.230 -2.5707 -1.8596 -0.8671
 4462TIP3    H213351   5.328   2.638   4.352 -0.6264  0.6493  1.4788
 4463TIP3   OH213352   1.405   3.132   4.833  0.3258 -0.0511 -0.4445
 4463TIP3    H113353   1.386   3.070   4.903 -0.5145  1.5653  0.8292
 4463TIP3    H213354   1.499   3.147   4.839 -0.0524  1.9837  2.1196
 4464TIP3   OH213355   5.252   5.734   4.946 -0.0547  0.7449 -0.2879
 4464TIP3    H113356   5.187   5.724   4.877 -1.6685 -1.5084  1.4309
 4464TIP3    H213357   5.206   5.712   5.027  2.5937  0.0214  1.1596
 4465TIP3   OH213358   6.509   5.349   0.492  0.0323  0.0549  0.2111
 4465TIP3    H113359   6.431   5.296   0.504 -0.0654  0.5842  2.3528
 4465TIP3    H213360   6.492   5.400   0.413 -1.8946  0.3530  0.7820
 4466TIP3   OH213361   6.943   6.072   4.812  0.0959 -0.5584  0.9000
 4466TIP3    H113362   6.991   6.146   4.776  0.3328 -0.9202  0.4599
 4466TIP3    H213363   6.915   6.022   4.736 -2.4850  0.5425  1.0275
 4467TIP3   OH213364   5.208   1.517   5.705  0.4346 -0.1487 -0.0062
 4467TIP3    H113365   5.294   1.476   5.706  0.7965  0.5838 -0.1485
 4467TIP3    H213366   5.210   1.575   5.629  0.0265  0.2975  0.3179
 4468TIP3   OH213367   6.208   3.325   4.470  1.1768  0.0430  0.7218
 4468TIP3    H113368   6.129   3.301   4.518  0.9249  0.1125  0.3449
 4468TIP3    H213369   6.261   3.375   4.533  1.1064 -0.3521  1.0989
 4469TIP3   OH213370   2.345   0.243   0.857 -0.1130 -0.6238 -0.0171
 4469TIP3    H113371   2.403   0.167   0.863 -0.6379 -0.9653  1.0602
 4469TIP3    H213372   2.358   0.289   0.940 -1.4258 -0.7414  0.2703
 4470TIP3   OH213373   0.621   0.607   0.045  0.2137 -0.3396 -0.0893
 4470TIP3    H113374   0.592   0.581   0.132  0.2033  0.3585  0.1262
 4470TIP3    H213375   0.658   0.695   0.058  0.8868 -0.5322 -0.6559
 4471TIP3   OH213376   6.810   1.201   0.249  0.3422 -0.3626 -0.0139
 4471TIP3    H113377   6.726   1.197   0.294 -0.5951  1.2655 -1.4939
 4471TIP3    H213378   6.860   1.127   0.285 -1.6793 -1.3483  0.9439
 4472TIP3   OH213379   6.798   4.722   4.494 -0.0249 -0.2623  0.3201
 4472TIP3    H113380   6.889   4.745   4.474 -0.0162  0.0424  0.6941
 4472TIP3    H213381   6.787   4.634   4.457 -0.2540  0.5664 -1.7590
 4473TIP3   OH213382   5.102   2.926   1.936 -0.0451  0.3222 -0.4703
 4473TIP3    H113383   5.025   2.888   1.978  0.2386 -1.0889 -1.1748
 4473TIP3    H213384   5.154   2.962   2.008 -2.1337  2.9318 -0.0735
 4474TIP3   OH213385   6.151   2.915   1.784  0.2846  0.6158 -0.7912
 4474TIP3    H113386   6.196   2.835   1.811 -0.5563  0.4066  0.0090
 4474TIP3    H213387   6.131   2.961   1.865 -1.2045  0.5690 -1.1005
 4475TIP3   OH213388   0.820   5.863   2.622  0.9008  0.3102  0.2085
 4475TIP3    H113389   0.751   5.807   2.657 -1.7272  2.4068 -1.2756
 4475TIP3    H213390   0.803   5.865   2.528  2.9288  1.0559 -0.1972
 4476TIP3   OH213391   0.042   0.660   0.373  0.2363  0.1323  0.0096
 4476TIP3    H113392   0.102   0.729   0.399  0.4226 -0.1578  0.3674
 4476TIP3    H213393  -0.034   0.706   0.336 -0.0740  0.5643  1.1545
 4477TIP3   OH213394   6.206   6.292   1.855 -0.4568 -0.1921 -0.3175
 4477TIP3    H113395   6.137   6.288   1.788  0.2698 -0.6047 -1.0544
 4477TIP3    H213396   6.279   6.336   1.812 -0.1386 -0.0363  0.3614
 4478TIP3   OH213397   2.651   5.951   5.651  0.4570  0.0820 -0.3950
 4478TIP3    H113398   2.608   5.980   5.731  1.3239 -0.2454  0.2105
 4478TIP3    H213399   2.623   6.013   5.584 -0.2090  0.4124  0.1746
 4479TIP3   OH213400   7.074   4.557   3.748  0.5279 -0.0784 -0.3724
 4479TIP3    H113401   7.020   4.634   3.764 -1.0253 -0.5868 -2.7106
 4479TIP3    H213402   7.112   4.536   3.834  0.3884  2.7894  0.4691
 4480TIP3   OH213403   1.441   2.314   2.513 -0.5200  0.4081  0.2884
 4480TIP3    H113404   1.369   2.251   2.520 -1.1899  1.1928  0.5822
 4480TIP3    H213405   1.397   2.399   2.503  0.3647  0.7442 -0.9531
 4481TIP3   OH213406   1.592   2.480   3.009  0.6179  0.6408  0.4461
 4481TIP3    H113407   1.509   2.473   2.961  0.7929 -0.4640  0.2859
 4481TIP3    H213408   1.595   2.572   3.038 -2.3593 -0.0351  3.5340
 4482TIP3   OH213409   5.298   3.730   1.138  0.0119 -0.2454 -0.0562
 4482TIP3    H113410   5.367   3.682   1.185 -0.2738  0.7046  1.3848
 4482TIP3    H213411   5.240   3.661   1.106  0.4885 -0.9639  0.5665
 4483TIP3   OH213412   4.388   5.726   1.151 -0.1154 -0.8324  0.4377
 4483TIP3    H113413   4.293   5.732   1.138  0.0574 -0.0753 -0.5346
 4483TIP3    H213414   4.420   5.677   1.076  0.5614  1.2029 -0.6661
 4484TIP3   OH213415   2.955   4.094   0.249  0.2775  0.0840  0.2271
 4484TIP3    H113416   3.009   4.135   0.316  0.1582 -0.9348  0.9630
 4484TIP3    H213417   3.003   4.015   0.225 -0.9199 -0.9089  0.9874
 4485TIP3   OH213418   0.148   3.849   5.398 -0.2915 -0.2319 -0.2439
 4485TIP3    H113419   0.075   3.900   5.432  1.3608  1.4030  1.1055
 4485TIP3    H213420   0.189   3.907   5.333 -0.3486 -1.2297 -1.1876
 4486TIP3   OH213421   0.597   0.471   1.121 -0.3192 -0.4830 -0.0146
 4486TIP3    H113422   0.629   0.519   1.197  0.6102 -0.3692 -0.4634
 4486TIP3    H213423   0.666   0.482   1.055  0.4441 -3.2624  0.2012
 4487TIP3   OH213424   5.821   0.498   5.876 -0.2663 -0.1624 -0.0306
 4487TIP3    H113425   5.895   0.559   5.865 -0.2718 -0.2828 -0.7836
 4487TIP3    H213426   5.757   0.527   5.811 -0.5224 -0.5934  0.0308
 4488TIP3   OH213427   4.877   3.555   4.711  0.0886 -0.2829  0.3995
 4488TIP3    H113428   4.790   3.533   4.678 -0.2433  1.0799  0.2749
 4488TIP3    H213429   4.883   3.511   4.796 -0.4051 -1.0384  0.0442
 4489TIP3   OH213430   1.098   2.496   2.433 -0.1555  0.2644  0.2622
 4489TIP3    H113431   1.118   2.518   2.524 -2.0627  2.1681  0.2809
 4489TIP3    H213432   1.039   2.421   2.438  1.0529 -0.7228  0.4593
 4490TIP3   OH213433   1.609   3.049   3.896  0.1050 -0.2997 -0.0784
 4490TIP3    H113434   1.695   3.078   3.866 -0.1936 -1.0930 -1.8394
 4490TIP3    H213435   1.559   3.035   3.815 -1.4892 -0.4314  0.8863
 4491TIP3   OH213436   3.370   4.992   1.719  0.0100  1.2213 -0.0420
 4491TIP3    H113437   3.297   4.931   1.705  2.2142 -2.1881  1.9468
 4491TIP3    H213438   3.335   5.059   1.778 -1.7931  0.3727 -0.0992
 4492TIP3   OH213439   0.655   6.802   1.217 -0.2811  0.6820  0.2958
 4492TIP3    H113440   0.670   6.762   1.131  0.6257 -0.1653  0.8242
 4492TIP3    H213441   0.655   6.728   1.278  0.1387  1.3683  1.1438
 4493TIP3   OH213442   2.196   1.875   2.780  0.0736  0.2148 -0.2355
 4493TIP3    H113443   2.227   1.900   2.693  0.4610 -1.1237 -0.5075
 4493TIP3    H213444   2.127   1.811   2.763  0.2321 -0.1410  0.4499
 4494TIP3   OH213445   0.852   5.013   0.133  0.1687  0.1356  0.4562
 4494TIP3    H113446   0.915   4.959   0.180  0.1756  0.1642  0.4797
 4494TIP3    H213447   0.845   5.093   0.185  0.7204  0.4693  0.0155
 4495TIP3   OH213448   4.959   6.526   5.417  0.2765  0.4904 -0.1308
 4495TIP3    H113449   4.870   6.496   5.430  0.2686 -0.2404 -1.7143
 4495TIP3    H213450   4.952   6.597   5.354  0.7747  0.8008  0.1467
 4496TIP3   OH213451   5.521   3.163   2.799  0.1168 -0.0812 -0.4378
 4496TIP3    H113452   5.564   3.078   2.805 -0.7043 -0.5120 -0.5453
 4496TIP3    H213453   5.448   3.149   2.739 -2.2709 -0.2552  2.2905
 4497TIP3   OH213454   4.716   4.044   0.652  0.2363 -0.5462 -0.3343
 4497TIP3    H113455   4.789   4.003   0.604  0.7901 -0.4507  0.4106
 4497TIP3    H213456   4.668   4.092   0.585 -0.0043 -1.8067 -1.1061
 4498TIP3   OH213457   0.228   4.148   4.397 -0.5055 -0.3315 -0.1493
 4498TIP3    H113458   0.294   4.168   4.463 -0.9454 -1.4802  0.6761
 4498TIP3    H213459   0.275   4.096   4.331 -0.4185 -0.4996  0.0450
 4499TIP3   OH213460   6.223   1.175   1.567 -0.3187 -0.0293  0.2180
 4499TIP3    H113461   6.220   1.081   1.549 -3.3682 -0.0354  0.1600
 4499TIP3    H213462   6.227   1.217   1.481  0.3608 -0.0836  0.2182
 4500TIP3   OH213463   2.217   1.969   0.751  0.3452  0.3786 -0.5061
 4500TIP3    H113464   2.261   2.034   0.698 -0.4196  0.3819 -1.1606
 4500TIP3    H213465   2.139   2.013   0.784  1.1889  0.6265  1.2930
 4501TIP3   OH213466   4.970   2.985   1.154  0.5444 -0.3642 -0.2101
 4501TIP3    H113467   4.962   3.005   1.061  1.0224 -0.7359 -0.3381
 4501TIP3    H213468   4.882   2.957   1.181  0.2284  0.4551 -0.3701
 4502TIP3   OH213469   7.215   3.327   3.321  0.7634 -0.3254  0.2879
 4502TIP3    H113470   7.157   3.310   3.246  0.6063 -1.1070  0.5721
 4502TIP3    H213471   7.264   3.405   3.296  0.7408 -0.5971 -0.6527
 4503TIP3   OH213472   4.659   1.589   3.655  0.1338 -0.3309  0.1174
 4503TIP3    H113473   4.569   1.567   3.679 -0.6714  0.9159 -1.5843
 4503TIP3    H213474   4.688   1.515   3.602  0.5072 -1.2000  1.4731
 4504TIP3   OH213475   0.042   6.571   3.624 -0.2608 -0.3848 -0.1526
 4504TIP3    H113476   0.003   6.522   3.697  1.2208  0.3249  1.1657
 4504TIP3    H213477  -0.032   6.613   3.581 -1.3139 -1.9122  0.0894
 4505TIP3   OH213478   3.136   2.973   2.117 -0.0569 -0.3137  0.6722
 4505TIP3    H113479   3.202   2.989   2.184  1.0989  0.4701 -0.6182
 4505TIP3    H213480   3.159   3.031   2.045 -1.6549 -0.6507 -0.1637
 4506TIP3   OH213481   0.855   4.914   1.233  0.3043  0.9130 -0.0512
 4506TIP3    H113482   0.838   5.007   1.219  0.5185  1.0022  0.2648
 4506TIP3    H213483   0.794   4.888   1.302  0.0730  0.7580 -0.3096
 4507TIP3   OH213484   4.946   1.408   2.219  0.0572  0.4193  0.1951
 4507TIP3    H113485   4.968   1.456   2.299  0.8145  1.4066 -0.5762
 4507TIP3    H213486   4.873   1.457   2.180 -0.1463  0.0886  0.1599
 4508TIP3   OH213487   0.930   1.961   5.504  0.7961 -0.6858 -0.0632
 4508TIP3    H113488   0.966   1.921   5.425  0.4620 -2.0136  0.4356
 4508TIP3    H213489   0.988   1.931   5.575  0.4663 -0.3762  0.3449
 4509TIP3   OH213490   5.360   0.736   3.569  0.0895 -0.6456 -0.4465
 4509TIP3    H113491   5.324   0.723   3.657  1.1901 -0.0355  0.1271
 4509TIP3    H213492   5.366   0.648   3.533  1.1777 -1.1106  0.7597
 4510TIP3   OH213493   3.111   0.027   3.873  0.8097  0.2013  0.2216
 4510TIP3    H113494   3.023  -0.004   3.896 -0.1574  2.6831  0.2095
 4510TIP3    H213495   3.161   0.018   3.954  0.5520 -1.1271  0.2637
 4511TIP3   OH213496   1.709   3.690   1.990  0.3803  0.1645 -0.2945
 4511TIP3    H113497   1.733   3.671   1.899 -0.3151 -2.1336 -0.0559
 4511TIP3    H213498   1.705   3.786   1.994  1.4168  0.3564 -2.4024
 4512TIP3   OH213499   5.640   5.656   4.302  0.5332  0.2712  0.1944
 4512TIP3    H113500   5.633   5.690   4.391 -1.1269  0.4746  0.0114
 4512TIP3    H213501   5.628   5.733   4.246  0.5780 -0.0179 -0.2183
 4513TIP3   OH213502   5.070   6.626   1.592 -0.3663 -0.3820 -0.1355
 4513TIP3    H113503   5.075   6.598   1.500 -1.5797 -2.0180  0.2454
 4513TIP3    H213504   4.986   6.670   1.599 -0.8434 -1.3502  0.4323
 4514TIP3   OH213505   0.266   1.003   2.961 -0.0874  0.3870 -0.5060
 4514TIP3    H113506   0.312   0.918   2.959  2.0000  1.4415 -0.1346
 4514TIP3    H213507   0.227   1.011   2.874  0.2237 -0.6727 -0.7620
 4515TIP3   OH213508   2.883   5.976   2.476 -0.0407 -0.1313  0.5518
 4515TIP3    H113509   2.877   5.894   2.525  0.3981 -0.6285 -0.1973
 4515TIP3    H213510   2.795   5.991   2.443 -0.3961  0.3354  1.6750
 4516TIP3   OH213511   3.996   4.648   0.524 -0.0460  0.0784  0.9209
 4516TIP3    H113512   4.073   4.623   0.472 -0.5963 -2.2938  1.1404
 4516TIP3    H213513   3.955   4.565   0.549 -2.0861  1.2415  1.7395
 4517TIP3   OH213514   1.459   0.607   5.370  0.0659  0.7476  0.2963
 4517TIP3    H113515   1.367   0.582   5.363  0.5260 -0.9001 -0.1981
 4517TIP3    H213516   1.457   0.693   5.412 -1.6718  0.5162  0.7606
 4518TIP3   OH213517   4.686   2.087   4.107  0.2651  0.4459 -0.3502
 4518TIP3    H113518   4.659   1.996   4.094  1.6594 -0.0152 -0.2146
 4518TIP3    H213519   4.769   2.095   4.059  1.3994  0.9486  1.5900
 4519TIP3   OH213520   2.555   2.873   0.602 -0.2333 -0.5436 -0.1721
 4519TIP3    H113521   2.464   2.859   0.627 -0.1515  1.7126  1.7424
 4519TIP3    H213522   2.558   2.962   0.568  1.1095 -0.9209 -1.1374
 4520TIP3   OH213523   5.852   4.627   4.896  0.5817  0.3200  0.1096
 4520TIP3    H113524   5.821   4.668   4.977 -0.9576 -0.8384  0.1466
 4520TIP3    H213525   5.838   4.694   4.829 -1.0075  0.2222  0.3172
 4521TIP3   OH213526   3.803   5.787   0.485  0.5450 -0.2153 -0.3435
 4521TIP3    H113527   3.896   5.788   0.507  0.4711  0.3440 -0.0326
 4521TIP3    H213528   3.799   5.739   0.403  1.1792  0.2507 -0.6581
 4522TIP3   OH213529   5.769   2.179   4.007 -0.2509  0.2840 -0.6291
 4522TIP3    H113530   5.731   2.154   3.922 -0.0225 -2.2246 -0.0852
 4522TIP3    H213531   5.695   2.175   4.067  0.2131 -1.5326 -0.1191
 4523TIP3   OH213532   0.868   1.125   2.845 -0.3286 -0.2017  0.7291
 4523TIP3    H113533   0.871   1.172   2.928 -2.6198  0.7693  0.3505
 4523TIP3    H213534   0.823   1.043   2.866 -2.9488  0.9709  0.1813
 4524TIP3   OH213535   0.024   4.307   4.367  0.4082  0.5544  0.4971
 4524TIP3    H113536   0.002   4.354   4.447  0.3086  1.6766 -0.1625
 4524TIP3    H213537   0.086   4.240   4.394 -0.7069 -0.0158  1.7307
 4525TIP3   OH213538   0.754   0.857   4.284  0.6874 -0.9508  0.2525
 4525TIP3    H113539   0.844   0.827   4.300  0.6411  0.3505  3.7177
 4525TIP3    H213540   0.760   0.952   4.279 -0.3595 -0.9173 -1.0816
 4526TIP3   OH213541   2.795   3.463   5.652  0.2652  0.9716  0.1908
 4526TIP3    H113542   2.740   3.453   5.575  1.8176  2.6383 -1.2072
 4526TIP3    H213543   2.875   3.415   5.631  0.1913  0.2760  1.3696
 4527TIP3   OH213544   4.437   4.022   3.462 -0.8712  0.1616 -0.0517
 4527TIP3    H113545   4.342   4.010   3.451 -0.8238 -1.2347  0.7671
 4527TIP3    H213546   4.470   3.933   3.474  0.4283  0.7141  0.5672
 4528TIP3   OH213547   4.412   5.556   0.168 -0.4239  0.1929 -0.5776
 4528TIP3    H113548   4.369   5.496   0.228  0.1063  1.0478  0.7087
 4528TIP3    H213549   4.433   5.503   0.091  0.7356 -1.4969  0.8200
 4529TIP3   OH213550   6.385   3.602   3.375 -0.3094 -0.3521  0.1578
 4529TIP3    H113551   6.295   3.631   3.387 -0.4159 -0.5272 -0.2028
 4529TIP3    H213552   6.426   3.673   3.325 -0.7438 -1.0947 -1.2995
 4530TIP3   OH213553   3.659   2.184   0.176 -0.1634  0.0831  0.3200
 4530TIP3    H113554   3.674   2.183   0.271  1.1389 -1.8417  0.1548
 4530TIP3    H213555   3.699   2.265   0.146  2.4600 -0.8599  1.0370
 4531TIP3   OH213556   0.902   6.648   5.025  0.2730  0.2231  0.3103
 4531TIP3    H113557   0.923   6.731   4.981  1.1378  0.2780  0.8095
 4531TIP3    H213558   0.934   6.659   5.114  1.3919 -1.0219  0.1075
 4532TIP3   OH213559   5.555   0.929   5.529 -0.5012 -0.3724 -0.2564
 4532TIP3    H113560   5.623   0.871   5.562 -0.6718 -1.0671 -1.0852
 4532TIP3    H213561   5.600   0.984   5.464 -0.6741 -0.6915 -0.6529
 4533TIP3   OH213562   6.537   0.055   4.412  0.0047  0.2769 -0.1792
 4533TIP3    H113563   6.490   0.006   4.344 -0.0666  0.9281 -0.6093
 4533TIP3    H213564   6.508   0.145   4.400  2.4778  0.9708 -1.4157
 4534TIP3   OH213565   5.536   4.467   1.391  0.2335 -0.0004 -0.0536
 4534TIP3    H113566   5.458   4.495   1.344  0.7821  1.8906  0.0882
 4534TIP3    H213567   5.567   4.546   1.436  3.4972 -0.0569 -1.9101
 4535TIP3   OH213568   1.072   5.847   1.374  0.1125  0.0920 -1.0046
 4535TIP3    H113569   1.155   5.804   1.355  0.5811  1.1235 -1.3498
 4535TIP3    H213570   1.014   5.820   1.303  0.3538 -0.0810 -1.1377
 4536TIP3   OH213571   1.864   5.901   5.773 -0.3856 -0.1130  0.2627
 4536TIP3    H113572   1.937   5.954   5.805 -0.5516 -1.2633  2.8024
 4536TIP3    H213573   1.786   5.946   5.805 -0.5292 -1.7358  2.3888
 4537TIP3   OH213574   2.728   6.718   0.437  0.4027  0.3432  0.3157
 4537TIP3    H113575   2.637   6.712   0.468 -0.0798  0.4492 -0.9972
 4537TIP3    H213576   2.748   6.812   0.439  0.3552  0.3545  0.2540
 4538TIP3   OH213577   5.429   4.729   5.235  0.2640 -0.1785  0.1109
 4538TIP3    H113578   5.444   4.646   5.191 -1.3892 -0.7035  0.4518
 4538TIP3    H213579   5.341   4.720   5.274  0.9217  0.9102  2.0023
 4539TIP3   OH213580   5.335   4.759   2.953 -0.4412  0.3739 -0.3283
 4539TIP3    H113581   5.286   4.784   3.031 -0.8607  0.6463 -0.6778
 4539TIP3    H213582   5.426   4.784   2.973 -0.4863  0.1233  0.2051
 4540TIP3   OH213583   5.049   2.172   0.241  0.7254 -0.2823 -0.0673
 4540TIP3    H113584   5.015   2.082   0.248  0.5771 -0.2518 -0.4202
 4540TIP3    H213585   5.024   2.213   0.324  1.0767 -0.6638  0.2358
 4541TIP3   OH213586   3.011   3.779   2.412 -0.1488 -0.3582  0.0204
 4541TIP3    H113587   3.000   3.806   2.503  0.4023 -0.2580  0.0620
 4541TIP3    H213588   2.922   3.769   2.379 -0.3515  0.3615  0.3411
 4542TIP3   OH213589   3.534   0.399   2.906  0.4357  0.3644  0.1347
 4542TIP3    H113590   3.476   0.323   2.899  1.3504 -0.2925 -0.5348
 4542TIP3    H213591   3.557   0.403   2.999 -0.4285  0.4511  0.3539
 4543TIP3   OH213592   1.698   2.155   4.371 -0.3875 -0.0074  0.0095
 4543TIP3    H113593   1.760   2.143   4.443  0.6835 -0.7679 -1.0050
 4543TIP3    H213594   1.613   2.135   4.410  0.3085 -1.8378  0.7454
 4544TIP3   OH213595   2.261   3.053   3.078 -0.1469  0.1291 -0.0051
 4544TIP3    H113596   2.224   3.123   3.131  0.6256 -1.3401  2.6669
 4544TIP3    H213597   2.339   3.025   3.127  1.3280 -0.5963 -2.5465
 4545TIP3   OH213598   5.075   3.372   1.418  0.0748  0.3479  0.4862
 4545TIP3    H113599   5.088   3.278   1.429 -1.2808 -0.0633 -1.0877
 4545TIP3    H213600   5.045   3.382   1.328 -0.3369  2.2329  0.7934
 4546TIP3   OH213601   4.442   1.749   0.366  0.0899 -0.3469  0.1161
 4546TIP3    H113602   4.352   1.776   0.350 -0.2560 -1.8141 -0.5231
 4546TIP3    H213603   4.494   1.828   0.349 -0.8929 -0.0092 -1.4950
 4547TIP3   OH213604   3.161   1.887   0.583 -0.1879  0.0820 -0.1105
 4547TIP3    H113605   3.240   1.834   0.577  0.4034  0.9008  0.2818
 4547TIP3    H213606   3.113   1.852   0.658 -1.3683 -1.9203 -1.6982
 4548TIP3   OH213607   6.498   2.801   5.510  0.0016 -0.3484  0.4432
 4548TIP3    H113608   6.579   2.760   5.537 -0.0441 -2.0565 -1.7079
 4548TIP3    H213609   6.440   2.792   5.585  1.3527 -0.3423  1.5195
 4549TIP3   OH213610   1.836   0.877   3.716  0.4263 -0.5872 -0.2429
 4549TIP3    H113611   1.778   0.853   3.645 -1.1757  0.2144  0.7418
 4549TIP3    H213612   1.786   0.938   3.769  1.4351 -1.3744  1.7489
 4550TIP3   OH213613   3.476   1.626   2.647  0.2593  0.1933  0.5464
 4550TIP3    H113614   3.552   1.570   2.663  1.3264  1.5142  0.2689
 4550TIP3    H213615   3.513   1.710   2.620 -1.2475  1.5247  2.3773
 4551TIP3   OH213616   0.057   5.557   1.616 -0.3501 -0.0794  0.0980
 4551TIP3    H113617   0.078   5.627   1.678 -2.6150  0.9940 -0.2494
 4551TIP3    H213618  -0.009   5.505   1.661 -1.5271  0.3199 -1.1190
 4552TIP3   OH213619   6.188   5.629   1.378  0.1713  0.2097 -0.0315
 4552TIP3    H113620   6.182   5.606   1.471 -1.1760  0.7548  0.0333
 4552TIP3    H213621   6.265   5.582   1.347  0.3491 -0.3850  1.2428
 4553TIP3   OH213622   2.712   1.678   5.528  0.3708 -0.3276 -0.6959
 4553TIP3    H113623   2.640   1.680   5.592 -0.2309  0.1374 -1.3649
 4553TIP3    H213624   2.676   1.722   5.451  2.3930  2.8543 -0.0243
 4554TIP3   OH213625   3.936   3.668   0.425  0.2204 -0.0533 -0.6598
 4554TIP3    H113626   4.005   3.723   0.388 -0.3240  1.0624 -0.0864
 4554TIP3    H213627   3.864   3.675   0.361  0.3016 -0.4594 -0.7988
 4555TIP3   OH213628   4.894   5.525   5.356 -0.2824  0.2583  0.1126
 4555TIP3    H113629   4.967   5.555   5.410  0.8001 -2.2741  0.1753
 4555TIP3    H213630   4.834   5.600   5.353  0.7381  1.2967  2.8016
 4556TIP3   OH213631   3.889   2.655   3.824 -0.3610  0.1426 -0.1138
 4556TIP3    H113632   3.927   2.667   3.736  1.0844 -1.2262  0.2692
 4556TIP3    H213633   3.952   2.598   3.869 -1.3471  0.3855  1.6429
 4557TIP3   OH213634   4.795   4.332  -0.002 -0.3929  0.4751  0.2361
 4557TIP3    H113635   4.725   4.391  -0.030 -3.7278 -2.5610  1.4138
 4557TIP3    H213636   4.810   4.355   0.090 -0.3037  0.6639  0.1761
 4558TIP3   OH213637   4.254   2.422   5.169 -0.2991 -0.1755 -0.0934
 4558TIP3    H113638   4.213   2.361   5.108  1.8757  0.1631 -2.0768
 4558TIP3    H213639   4.314   2.472   5.114 -1.1416  2.9834  1.6703
 4559TIP3   OH213640   2.583   0.298   1.301 -0.9227 -0.4136  0.4783
 4559TIP3    H113641   2.641   0.364   1.339 -2.5608  0.9575  0.7585
 4559TIP3    H213642   2.614   0.215   1.336  1.1858  0.1896  0.1507
 4560TIP3   OH213643   4.060   0.580   5.383 -0.0509 -0.3462 -0.7322
 4560TIP3    H113644   4.076   0.592   5.289 -2.2558  0.1899 -1.0841
 4560TIP3    H213645   3.982   0.631   5.401  0.2862 -0.5090  1.4157
 4561TIP3   OH213646   1.021   0.446   4.232  0.7175  0.2651  0.5644
 4561TIP3    H113647   1.046   0.354   4.224  1.2970  0.4014  0.7295
 4561TIP3    H213648   0.977   0.453   4.316  2.3557  0.4924  1.4336
 4562TIP3   OH213649   0.947   2.501   2.178 -0.5945  0.4677 -0.5740
 4562TIP3    H113650   1.007   2.482   2.250 -0.8345  2.5274  0.2486
 4562TIP3    H213651   0.862   2.512   2.221 -1.1501 -0.3115 -1.4468
 4563TIP3   OH213652   6.187   0.103   4.124  0.5757  0.2434 -0.1110
 4563TIP3    H113653   6.253   0.061   4.179  0.7745  2.4643  1.5105
 4563TIP3    H213654   6.122   0.136   4.187 -1.5970 -1.0011 -1.5825
 4564TIP3   OH213655   1.249   6.514   1.093  0.1685 -0.7652  0.3247
 4564TIP3    H113656   1.318   6.568   1.131  2.0265 -1.1194 -2.2655
 4564TIP3    H213657   1.274   6.424   1.117 -1.0588 -0.7533  1.7947
 4565TIP3   OH213658   3.407   0.768   3.199 -0.4401  0.3093  0.4280
 4565TIP3    H113659   3.370   0.789   3.113 -1.6601 -0.0091  0.8432
 4565TIP3    H213660   3.500   0.787   3.191 -0.7498  1.5756 -0.5563
 4566TIP3   OH213661   6.940   0.686   0.647 -0.3492  1.0848 -0.6232
 4566TIP3    H113662   6.882   0.735   0.705 -1.1429 -0.2754 -0.2308
 4566TIP3    H213663   6.989   0.627   0.705  0.2900  1.1097 -1.1215
 4567TIP3   OH213664   3.358   3.898   2.074 -0.1725  0.3144  0.2457
 4567TIP3    H113665   3.308   3.817   2.087  0.9707 -0.3129  0.9752
 4567TIP3    H213666   3.426   3.894   2.142  2.0191  0.2025 -1.8334
 4568TIP3   OH213667   2.544   1.724   2.792  0.1055 -0.0008  0.2413
 4568TIP3    H113668   2.492   1.674   2.729  0.0194  1.3276 -0.7821
 4568TIP3    H213669   2.621   1.670   2.808  0.4076 -0.1179 -1.4584
 4569TIP3   OH213670   1.067   6.120   1.333 -0.3670  0.1281 -0.6681
 4569TIP3    H113671   1.050   6.123   1.427  1.2297  1.5860 -0.3711
 4569TIP3    H213672   1.104   6.033   1.318  0.1237  0.1737  0.2059
 4570TIP3   OH213673   1.868   0.132   3.546  0.6627 -0.2745  0.2178
 4570TIP3    H113674   1.949   0.081   3.536 -0.0698 -1.8805  1.8195
 4570TIP3    H213675   1.801   0.080   3.502  0.3388  0.6040 -0.3417
 4571TIP3   OH213676   6.801   5.018   1.507 -0.2751  0.2894  0.0335
 4571TIP3    H113677   6.852   4.940   1.524 -1.7070 -1.2728 -2.2207
 4571TIP3    H213678   6.710   4.988   1.509 -1.1048  2.5668  2.0456
 4572TIP3   OH213679   1.547   2.105   0.598 -0.4419  0.0138  0.2843
 4572TIP3    H113680   1.571   2.020   0.634  2.1070  1.1487  1.5149
 4572TIP3    H213681   1.608   2.119   0.526  0.1697  1.3868  1.0311
 4573TIP3   OH213682   6.260   3.864   4.042 -0.2167 -0.6952 -0.3039
 4573TIP3    H113683   6.335   3.870   3.983  1.5250  4.1554  1.8811
 4573TIP3    H213684   6.287   3.799   4.107  0.3260 -1.8249 -1.5894
 4574TIP3   OH213685   5.026   1.841   1.944 -0.3741  0.4254  0.0513
 4574TIP3    H113686   5.063   1.786   1.875 -0.8289  0.5263 -0.2802
 4574TIP3    H213687   5.099   1.895   1.974  0.0758 -0.3527  0.3785
 4575TIP3   OH213688   5.934   5.491   2.263 -0.0601 -0.2394 -0.8136
 4575TIP3    H113689   5.910   5.572   2.308  1.0962  0.6456 -1.7380
 4575TIP3    H213690   6.005   5.516   2.204  3.1831 -2.6093  1.6655
 4576TIP3   OH213691   3.318   4.560   0.454  0.7832  0.6053  0.0846
 4576TIP3    H113692   3.227   4.575   0.480  0.7127  0.2415  0.0493
 4576TIP3    H213693   3.320   4.578   0.360  0.7993  0.8312  0.1261
 4577TIP3   OH213694   1.876   6.327   1.694 -0.3331 -0.0812 -0.1758
 4577TIP3    H113695   1.805   6.329   1.758  1.6397  2.2790  2.1533
 4577TIP3    H213696   1.854   6.396   1.632 -1.0533 -0.7404 -0.6705
 4578TIP3   OH213697   4.936   1.554   5.685  0.2349  0.1952 -0.3647
 4578TIP3    H113698   4.960   1.632   5.634  0.2079  0.8832  0.6434
 4578TIP3    H213699   5.018   1.525   5.725  0.1257  0.0878 -0.2178
 4579TIP3   OH213700   4.190   4.238   3.378 -0.7216 -0.2748  0.1589
 4579TIP3    H113701   4.123   4.301   3.354 -0.5311 -0.7263 -1.7250
 4579TIP3    H213702   4.163   4.156   3.337  0.8187 -0.5300 -0.4291
 4580TIP3   OH213703   3.902   1.541   4.739  0.2184  0.0856  0.5418
 4580TIP3    H113704   3.980   1.541   4.684  0.4637 -0.0640  0.8856
 4580TIP3    H213705   3.894   1.631   4.770 -1.3003  0.7919 -1.6543
 4581TIP3   OH213706   0.142   3.675   4.418  0.0033  0.0908 -0.2113
 4581TIP3    H113707   0.138   3.597   4.363 -0.1025 -1.0003  1.2912
 4581TIP3    H213708   0.231   3.675   4.454 -0.4729 -0.2527  1.0343
 4582TIP3   OH213709   4.806   2.054   4.773 -0.0225  0.7962 -0.4152
 4582TIP3    H113710   4.750   2.109   4.719 -0.7127  0.6274  0.1099
 4582TIP3    H213711   4.860   2.115   4.823 -0.5099  0.9947 -0.1246
 4583TIP3   OH213712   3.403   4.156   5.661 -0.2962  0.3065 -0.0340
 4583TIP3    H113713   3.375   4.073   5.699 -0.3116  0.8506  1.1784
 4583TIP3    H213714   3.464   4.193   5.725 -1.3330  1.8719  0.1064
 4584TIP3   OH213715   1.952   0.689   4.390 -0.5471  0.0638  0.0623
 4584TIP3    H113716   1.937   0.659   4.480  0.3822 -2.9977 -0.6844
 4584TIP3    H213717   2.016   0.759   4.399 -0.0881 -0.5143  1.7635
 4585TIP3   OH213718   6.753   1.851   4.292 -0.0477  0.1271  0.3321
 4585TIP3    H113719   6.780   1.805   4.372  1.0001 -0.0714 -0.1247
 4585TIP3    H213720   6.657   1.851   4.297 -0.0320 -0.8005  1.0757
 4586TIP3   OH213721   7.008   1.088   5.078 -0.3847  0.3068 -0.0906
 4586TIP3    H113722   6.996   1.027   5.005  0.1259  0.1387 -0.0341
 4586TIP3    H213723   7.059   1.040   5.143 -0.6333  0.5368  0.2800
 4587TIP3   OH213724   2.412   2.298   0.862 -0.0241 -0.4521  0.4445
 4587TIP3    H113725   2.409   2.310   0.957 -2.5279  1.3930  0.2560
 4587TIP3    H213726   2.484   2.355   0.833 -0.3629  0.3536  1.1287
 4588TIP3   OH213727   1.455   5.605   4.893  0.0032 -0.5328 -0.7003
 4588TIP3    H113728   1.457   5.519   4.936  0.8584 -0.2078 -0.0587
 4588TIP3    H213729   1.476   5.667   4.963 -0.2628  0.1776 -1.2330
 4589TIP3   OH213730   2.925   6.463   3.588 -0.3736 -0.3344  0.5501
 4589TIP3    H113731   2.918   6.445   3.494  0.9348  2.0040 -0.0809
 4589TIP3    H213732   2.874   6.393   3.629  1.2471 -3.0555 -1.6987
 4590TIP3   OH213733   3.307   2.306   0.877  0.9475  0.0979 -0.0077
 4590TIP3    H113734   3.243   2.236   0.874 -0.2329  1.1378 -0.1341
 4590TIP3    H213735   3.385   2.271   0.835  0.7452 -1.4682  0.8641
 4591TIP3   OH213736   5.190   1.047   2.825 -0.4249  0.1835  0.2655
 4591TIP3    H113737   5.233   1.132   2.818  1.3385 -0.7213 -0.9778
 4591TIP3    H213738   5.157   1.030   2.736 -1.7183  0.0165  0.7599
 4592TIP3   OH213739   6.687   5.561   1.091 -0.1374 -0.3651 -0.4595
 4592TIP3    H113740   6.764   5.519   1.128  0.0868  1.0016  0.7033
 4592TIP3    H213741   6.684   5.531   1.000  1.8417 -0.3377 -0.5643
 4593TIP3   OH213742   3.626   3.496   4.435 -0.1387 -0.0933 -0.0585
 4593TIP3    H113743   3.582   3.531   4.357 -0.2942 -0.4457 -0.1313
 4593TIP3    H213744   3.688   3.564   4.460  1.7564 -1.0108 -1.9895
 4594TIP3   OH213745   3.058   2.126   2.397  0.2028  0.1799  0.0095
 4594TIP3    H113746   3.120   2.180   2.445 -0.6556  0.6077  0.6568
 4594TIP3    H213747   3.021   2.184   2.331 -0.6018  0.3667  0.6030
 4595TIP3   OH213748   3.992   3.130   3.208  0.8158  0.5246 -0.3110
 4595TIP3    H113749   4.017   3.038   3.220  1.8348  0.5913 -1.7443
 4595TIP3    H213750   3.981   3.140   3.114  0.3794  1.8113 -0.1398
 4596TIP3   OH213751   1.544   6.280   5.295 -0.3109 -0.6887 -0.3287
 4596TIP3    H113752   1.531   6.334   5.373  0.0893  0.5179 -1.0797
 4596TIP3    H213753   1.456   6.268   5.260 -0.1886  2.4454 -2.0697
 4597TIP3   OH213754   0.793   4.997   3.411 -0.3184 -0.2946 -0.3822
 4597TIP3    H113755   0.777   5.088   3.433 -0.7166  0.0829 -2.0960
 4597TIP3    H213756   0.709   4.964   3.379 -0.7626 -1.9241  2.1858
 4598TIP3   OH213757   2.233   4.514   2.631 -0.0305  0.0251  0.0505
 4598TIP3    H113758   2.152   4.521   2.681 -0.6048 -0.2948 -0.8102
 4598TIP3    H213759   2.279   4.440   2.670 -0.4005 -0.1164  0.2210
 4599TIP3   OH213760   3.496   6.670   1.593 -0.0289  0.2291 -0.1863
 4599TIP3    H113761   3.463   6.722   1.666  2.1268 -0.5178  1.4205
 4599TIP3    H213762   3.570   6.720   1.559  0.4055 -0.5366 -0.3787
 4600TIP3   OH213763   2.861   6.162   4.682  0.4530 -0.6281 -0.3309
 4600TIP3    H113764   2.882   6.086   4.626 -0.0006 -0.2555 -1.0265
 4600TIP3    H213765   2.810   6.220   4.625  1.1820  0.4186  0.0555
 4601TIP3   OH213766   5.608   4.998   1.311  0.0908 -1.0054  0.1417
 4601TIP3    H113767   5.699   4.974   1.324  0.4248  0.4570  0.7106
 4601TIP3    H213768   5.575   4.935   1.247  2.0531 -0.3389 -1.6289
 4602TIP3   OH213769   2.104   5.922   0.623  0.4737 -0.4907  0.6868
 4602TIP3    H113770   2.086   5.984   0.693 -0.9571  0.0789 -0.1474
 4602TIP3    H213771   2.105   5.836   0.666  0.4424 -0.0810  1.5192
 4603TIP3   OH213772   3.981   6.145   1.959  0.2296 -0.2892 -0.0181
 4603TIP3    H113773   3.993   6.226   2.009  0.6957 -0.7582  0.6403
 4603TIP3    H213774   3.903   6.105   1.997  0.7747 -0.8095  0.5714
 4604TIP3   OH213775   0.764   4.154   3.209 -0.0466  0.8324 -0.5772
 4604TIP3    H113776   0.792   4.205   3.285 -1.6937  0.7507  0.1313
 4604TIP3    H213777   0.772   4.214   3.135  0.2399  1.3687 -0.1177
 4605TIP3   OH213778   2.210   1.344   2.271 -0.0243  0.6337  0.1866
 4605TIP3    H113779   2.155   1.420   2.255 -0.8940  0.1283  0.6879
 4605TIP3    H213780   2.258   1.332   2.189 -2.0659 -0.0283 -0.9908
 4606TIP3   OH213781   1.624   4.361   4.294 -0.6194 -0.3854  0.5603
 4606TIP3    H113782   1.632   4.368   4.389  1.0257  2.1585  0.3299
 4606TIP3    H213783   1.551   4.420   4.272 -2.1312 -2.2462  0.3075
 4607TIP3   OH213784   5.914   1.414   3.170 -0.2239 -0.0214  0.3698
 4607TIP3    H113785   5.992   1.362   3.149 -0.3555 -0.5375  1.1184
 4607TIP3    H213786   5.937   1.504   3.146  0.8843 -0.0468  1.2917
 4608TIP3   OH213787   3.808   1.706   1.804  0.4031 -0.3703 -0.2674
 4608TIP3    H113788   3.713   1.704   1.792  0.7109 -1.2987 -3.0304
 4608TIP3    H213789   3.829   1.800   1.810 -0.5670 -0.1202 -0.5538
 4609TIP3   OH213790   0.877   0.499   1.027  0.3072  0.3052 -0.5537
 4609TIP3    H113791   0.871   0.424   1.087 -3.7357  1.4352  0.7727
 4609TIP3    H213792   0.917   0.568   1.080 -0.0279  0.2995 -0.2863
 4610TIP3   OH213793   6.517   3.113   3.575 -0.4868  0.1993  0.0757
 4610TIP3    H113794   6.534   3.073   3.489 -2.3520 -0.9471  0.1831
 4610TIP3    H213795   6.567   3.194   3.574 -1.1814  0.6884 -2.4897
 4611TIP3   OH213796   1.686   5.713   5.789 -0.0319 -0.4422  0.4305
 4611TIP3    H113797   1.757   5.778   5.788  0.1162 -0.5985 -0.4370
 4611TIP3    H213798   1.607   5.765   5.802 -0.0658  0.1135 -1.6016
 4612TIP3   OH213799   3.871   6.071   2.456  0.3870  0.2451 -0.7941
 4612TIP3    H113800   3.870   6.014   2.533 -0.5847  0.6266 -0.4999
 4612TIP3    H213801   3.941   6.133   2.472  0.1936  0.3196 -0.2104
 4613TIP3   OH213802   2.504   5.948   5.266  0.3217 -1.3930 -0.0167
 4613TIP3    H113803   2.523   5.997   5.346  0.5394 -2.1123  0.3853
 4613TIP3    H213804   2.413   5.967   5.247  0.0279 -1.8284  0.8600
 4614TIP3   OH213805   4.915   2.625   2.104  0.2942 -0.2668 -0.0650
 4614TIP3    H113806   4.863   2.552   2.071 -0.8414 -0.2246  1.5529
 4614TIP3    H213807   4.873   2.703   2.067 -1.0973 -0.2063  1.5608
 4615TIP3   OH213808   4.070   3.341   4.459 -0.3701 -0.0875 -0.3766
 4615TIP3    H113809   4.153   3.389   4.462 -0.5852  0.2284  0.8218
 4615TIP3    H213810   4.013   3.397   4.406  0.3314 -0.5924 -1.7314
 4616TIP3   OH213811   5.816   0.266   1.521 -0.1924 -0.2670 -0.0659
 4616TIP3    H113812   5.769   0.331   1.573  0.8151 -0.1707  0.7544
 4616TIP3    H213813   5.840   0.198   1.583 -0.5693 -1.0664 -0.7753
 4617TIP3   OH213814   4.284   3.053   2.413  0.3486  0.4022  0.0724
 4617TIP3    H113815   4.197   3.069   2.449 -0.5082 -1.5198 -1.0163
 4617TIP3    H213816   4.299   2.959   2.426  1.4380  0.3148 -1.4914
 4618TIP3   OH213817   4.490   2.676   5.727  0.0832 -0.0085  0.2667
 4618TIP3    H113818   4.425   2.747   5.734 -0.7412 -0.7766  0.6799
 4618TIP3    H213819   4.466   2.616   5.797  1.7843  0.0868  0.9798
 4619TIP3   OH213820   6.741   1.801   0.373  0.5024 -0.2692  0.0064
 4619TIP3    H113821   6.702   1.756   0.298  0.8084 -1.0270  0.2966
 4619TIP3    H213822   6.768   1.731   0.432 -0.8117  0.3182  1.3747
 4620TIP3   OH213823   6.179   6.718   5.552  0.2399  0.3741 -0.0312
 4620TIP3    H113824   6.198   6.631   5.518 -0.5250 -0.8653  2.4510
 4620TIP3    H213825   6.239   6.776   5.505  1.5917 -1.6446 -0.9402
 4621TIP3   OH213826   1.890   3.048   0.196  0.2186  0.1507 -0.1481
 4621TIP3    H113827   1.858   3.089   0.116  0.4951  1.0820  0.2076
 4621TIP3    H213828   1.818   3.057   0.259  0.1540 -0.2142 -0.1679
 4622TIP3   OH213829   6.480   1.489   2.409 -0.1556 -0.3399  0.3063
 4622TIP3    H113830   6.421   1.558   2.441 -1.1490 -1.1265  0.1999
 4622TIP3    H213831   6.517   1.451   2.489 -1.1856 -1.0345  0.4799
 4623TIP3   OH213832   1.395   2.684   5.218 -0.0015  0.2055 -1.0041
 4623TIP3    H113833   1.363   2.617   5.278  0.7301  0.6110 -0.1269
 4623TIP3    H213834   1.450   2.740   5.273  0.1864  0.9499 -1.9315
 4624TIP3   OH213835   3.424   4.802   2.859 -0.7300 -0.0734 -0.2929
 4624TIP3    H113836   3.451   4.788   2.768 -1.3716  0.9163 -0.6477
 4624TIP3    H213837   3.412   4.714   2.894 -0.6758 -0.4657 -1.2226
 4625TIP3   OH213838   4.142   4.498   0.327 -0.0688  0.3473 -0.2348
 4625TIP3    H113839   4.203   4.520   0.257 -0.1124  1.3508  0.0120
 4625TIP3    H213840   4.197   4.482   0.404  0.0121 -1.3129 -0.6094
 4626TIP3   OH213841   6.339   5.210   3.670 -0.4165 -0.1811  0.0803
 4626TIP3    H113842   6.400   5.159   3.617  0.0550 -0.3255  0.7533
 4626TIP3    H213843   6.324   5.157   3.748 -1.2684 -0.0681  0.0139
 4627TIP3   OH213844   3.519   1.173   5.289 -0.2697  0.3083 -0.1897
 4627TIP3    H113845   3.467   1.107   5.244  0.9662 -0.8924  0.0922
 4627TIP3    H213846   3.565   1.219   5.219 -0.3865  0.2309 -0.3183
 4628TIP3   OH213847   3.052   5.256   2.953  0.0371 -0.6458  0.1516
 4628TIP3    H113848   3.053   5.304   3.035 -1.9647  0.2930 -0.3013
 4628TIP3    H213849   3.062   5.324   2.885 -0.6843 -1.1085 -0.4355
 4629TIP3   OH213850   3.179   5.479   4.317  0.4989  0.4035  0.3447
 4629TIP3    H113851   3.169   5.534   4.240 -0.1628  1.6847  1.3089
 4629TIP3    H213852   3.266   5.439   4.308  0.8272  1.3071 -0.5693
 4630TIP3   OH213853   5.294   5.398   4.061 -0.3825  0.2747 -0.2268
 4630TIP3    H113854   5.234   5.367   3.994  1.1096  1.0080 -1.9959
 4630TIP3    H213855   5.298   5.493   4.047 -0.9648  0.6244  1.7298
 4631TIP3   OH213856   5.842   5.153   1.228  0.3011  0.8829 -0.0598
 4631TIP3    H113857   5.753   5.180   1.207 -0.5016 -0.4040  1.4621
 4631TIP3    H213858   5.864   5.088   1.162 -0.3940  0.2808  0.2890
 4632TIP3   OH213859   2.675   2.888   1.179  0.1515  0.8962  0.2353
 4632TIP3    H113860   2.733   2.957   1.149 -1.3890  1.1230 -2.4838
 4632TIP3    H213861   2.707   2.809   1.134 -0.7339  0.7303 -0.1089
 4633TIP3   OH213862   6.183   1.624   4.151  0.2277  0.0295  0.2149
 4633TIP3    H113863   6.270   1.632   4.112  0.9314 -2.6405  1.0811
 4633TIP3    H213864   6.123   1.649   4.081  1.6159  1.0209 -0.6743
 4634TIP3   OH213865   1.255   0.944   1.598  0.2783 -0.3895  0.1643
 4634TIP3    H113866   1.260   0.986   1.684  0.3881  0.9126 -0.4554
 4634TIP3    H213867   1.345   0.949   1.564  0.2686 -1.0329  0.0371
 4635TIP3   OH213868   2.970   0.224   1.358 -0.3045  0.1357 -0.4294
 4635TIP3    H113869   2.875   0.219   1.355 -0.3986  1.9249 -2.3535
 4635TIP3    H213870   2.999   0.137   1.329 -1.3282 -0.3663 -0.0092
 4636TIP3   OH213871   5.239   5.514   0.119  0.4447  0.3133 -0.1341
 4636TIP3    H113872   5.230   5.549   0.207  1.5718 -0.6805  0.3880
 4636TIP3    H213873   5.322   5.549   0.087  0.5002 -0.1001 -0.4521
 4637TIP3   OH213874   4.637   6.045   2.161 -0.2063 -0.2877 -0.0264
 4637TIP3    H113875   4.705   6.103   2.195  0.7031 -0.6456 -1.1662
 4637TIP3    H213876   4.562   6.059   2.219  0.6407  0.5508  0.9042
 4638TIP3   OH213877   1.143   5.563   3.899 -0.3983  0.0173  0.2569
 4638TIP3    H113878   1.202   5.489   3.884 -1.4135 -0.8944  0.6492
 4638TIP3    H213879   1.201   5.635   3.923  0.6376 -0.5573 -0.4222
 4639TIP3   OH213880   3.680   4.864   5.917  0.0642 -0.2693  0.2439
 4639TIP3    H113881   3.628   4.788   5.890 -0.2667 -0.3938  1.2156
 4639TIP3    H213882   3.683   4.919   5.839 -0.2788 -0.9530 -0.2625
 4640TIP3   OH213883   4.356   5.655   4.707 -0.0323 -0.2022  0.4364
 4640TIP3    H113884   4.343   5.571   4.751  0.1798 -0.4927 -0.0557
 4640TIP3    H213885   4.449   5.657   4.685  0.1961  0.6260  1.3770
 4641TIP3   OH213886   0.402   5.402   5.342  0.1840  0.3071  0.8883
 4641TIP3    H113887   0.324   5.393   5.397 -0.2179 -0.7764  0.1915
 4641TIP3    H213888   0.472   5.362   5.394 -0.2776 -1.1012  0.4818
 4642TIP3   OH213889   4.451   1.446   2.905  0.5138  0.3549  0.3687
 4642TIP3    H113890   4.410   1.360   2.901  0.6781  0.3044 -0.3388
 4642TIP3    H213891   4.425   1.489   2.824  1.2041  0.6235  0.2849
 4643TIP3   OH213892   6.377   6.537   1.719  0.0203 -0.3335  0.0816
 4643TIP3    H113893   6.394   6.492   1.636 -0.9153  3.0804 -2.1908
 4643TIP3    H213894   6.324   6.613   1.694 -2.7828 -0.5890  4.2315
 4644TIP3   OH213895   6.219   3.235   2.983  0.7774  0.8233  0.2956
 4644TIP3    H113896   6.257   3.178   3.050  0.0915  2.2436  1.9746
 4644TIP3    H213897   6.124   3.225   2.996  0.6497  1.5616 -0.0631
 4645TIP3   OH213898   0.047   5.254   4.311 -0.1339  0.4432 -0.2952
 4645TIP3    H113899  -0.034   5.300   4.287  0.0327  1.6409  1.2910
 4645TIP3    H213900   0.045   5.174   4.258 -2.3008  0.4972 -0.3854
 4646TIP3   OH213901   6.205   2.881   3.020 -0.2093 -0.1290  0.8031
 4646TIP3    H113902   6.195   2.947   2.950  2.0264  0.2728  0.8068
 4646TIP3    H213903   6.228   2.932   3.097  0.9761 -0.8590  0.9434
 4647TIP3   OH213904   3.464   1.937   4.125 -0.0838 -0.1988  0.0733
 4647TIP3    H113905   3.555   1.946   4.095 -0.3430  2.4515 -0.1234
 4647TIP3    H213906   3.467   1.866   4.190  2.7672  1.7211  2.3010
 4648TIP3   OH213907   1.974   0.889   0.312  0.7778 -0.0071 -0.0135
 4648TIP3    H113908   1.956   0.951   0.383 -0.0078  1.8456 -1.7226
 4648TIP3    H213909   1.893   0.840   0.301  1.0070 -0.5270  0.5529
 4649TIP3   OH213910   4.079   5.260   0.079 -0.5603 -0.1415  0.3296
 4649TIP3    H113911   4.050   5.276   0.169  1.4701 -2.4309  1.4973
 4649TIP3    H213912   4.035   5.179   0.053 -0.4150  0.0057 -0.4091
 4650TIP3   OH213913   7.046   4.815   4.485  0.3255  0.2129  0.7218
 4650TIP3    H113914   7.118   4.835   4.545  1.1628 -2.6558  0.7983
 4650TIP3    H213915   7.088   4.783   4.406 -0.8575  0.8456 -0.2033
 4651TIP3   OH213916   4.991   4.330   1.763 -0.1149 -0.3438  0.1766
 4651TIP3    H113917   4.965   4.405   1.818 -0.3622  0.0272 -0.4417
 4651TIP3    H213918   5.079   4.353   1.733 -0.0348 -0.4848  0.3008
 4652TIP3   OH213919   7.074   1.848   2.825  0.1523 -0.1978  0.2150
 4652TIP3    H113920   6.995   1.830   2.773 -0.3094 -1.3034  1.2654
 4652TIP3    H213921   7.049   1.920   2.883  0.5243  0.7224 -0.7307
 4653TIP3   OH213922   3.164   3.113   4.764  0.4173  0.4068 -0.0159
 4653TIP3    H113923   3.112   3.161   4.699  1.2892  0.7356 -0.4850
 4653TIP3    H213924   3.192   3.034   4.719 -0.5372 -0.3014  0.5784
 4654TIP3   OH213925   4.146   3.406   4.121 -0.0309 -0.1046  0.2225
 4654TIP3    H113926   4.210   3.377   4.056  0.3105 -0.0397  0.5308
 4654TIP3    H213927   4.081   3.335   4.123  0.3508 -0.4582  0.3500
 4655TIP3   OH213928   1.575   1.291   1.848 -0.2005 -0.1675  0.1894
 4655TIP3    H113929   1.610   1.310   1.761  0.3139 -0.3993  0.3427
 4655TIP3    H213930   1.653   1.274   1.902 -0.5228 -0.1653  0.6588
 4656TIP3   OH213931   6.596   3.858   3.361  0.0532  0.0603 -0.2278
 4656TIP3    H113932   6.633   3.787   3.413 -1.1619  0.1143  0.7546
 4656TIP3    H213933   6.644   3.936   3.389  0.1542 -0.0815 -0.0050
 4657TIP3   OH213934   1.598   4.123   0.513  0.3799  0.2584 -1.0552
 4657TIP3    H113935   1.524   4.175   0.480 -0.5225  0.6438  1.3726
 4657TIP3    H213936   1.639   4.088   0.434 -3.4903 -1.5189 -2.5711
 4658TIP3   OH213937   6.843   2.591   4.513  0.3014  0.5374  0.4455
 4658TIP3    H113938   6.892   2.673   4.522  2.2580 -0.7215  2.3778
 4658TIP3    H213939   6.906   2.530   4.475  0.1510 -1.0259  2.5443
 4659TIP3   OH213940   6.988   0.674   5.157  0.6951 -0.3267  0.1213
 4659TIP3    H113941   6.931   0.706   5.227  2.6526 -0.7182  2.0092
 4659TIP3    H213942   7.053   0.619   5.202  2.3240 -0.2341 -1.9506
 4660TIP3   OH213943   2.124   5.606   2.660  0.3262  0.2324  0.0037
 4660TIP3    H113944   2.052   5.637   2.606  1.2570  3.0741  0.2342
 4660TIP3    H213945   2.184   5.564   2.598 -0.5642 -0.3131 -0.5002
 4661TIP3   OH213946   4.025   2.496   0.065 -0.4079  0.4190  0.0899
 4661TIP3    H113947   4.115   2.464   0.070 -0.4368  0.4103  0.6605
 4661TIP3    H213948   4.018   2.559   0.136 -1.2105 -0.4965  0.8530
 4662TIP3   OH213949   0.259   4.517   5.581  0.4473 -0.2151  0.4740
 4662TIP3    H113950   0.339   4.552   5.541 -0.5515  2.4805  0.5757
 4662TIP3    H213951   0.191   4.532   5.516 -0.4986  0.5204  1.5824
 4663TIP3   OH213952   1.313   3.279  -0.027  0.0035 -0.5062  0.3222
 4663TIP3    H113953   1.363   3.211   0.017  0.1945 -0.2729  0.4719
 4663TIP3    H213954   1.343   3.361   0.013 -0.1525 -0.3274  0.0799
 4664TIP3   OH213955   3.938   3.578   1.917 -0.4602 -0.1447  0.6934
 4664TIP3    H113956   3.909   3.628   1.993 -0.6576 -0.3031  0.7225
 4664TIP3    H213957   3.970   3.644   1.856 -0.4513 -0.0046  0.8479
 4665TIP3   OH213958   5.694   6.519   1.087  0.3470 -0.3815 -0.0642
 4665TIP3    H113959   5.621   6.579   1.094 -0.6731 -1.5486 -0.2995
 4665TIP3    H213960   5.700   6.478   1.173 -1.0796 -2.2488 -0.7778
 4666TIP3   OH213961   2.320   0.881   5.411 -0.0631 -0.6396 -0.4857
 4666TIP3    H113962   2.247   0.929   5.451  0.7328 -2.1632  3.2318
 4666TIP3    H213963   2.367   0.946   5.360 -1.6731  1.3781  0.4671
 4667TIP3   OH213964   1.277   2.403   4.436  0.2123 -0.1083  0.7036
 4667TIP3    H113965   1.235   2.372   4.516 -1.5252  0.6831  0.1351
 4667TIP3    H213966   1.229   2.360   4.366 -0.2115  1.4630  0.0045
 4668TIP3   OH213967   0.657   4.816   0.157 -0.1034  0.6771  0.3951
 4668TIP3    H113968   0.687   4.749   0.095 -0.2542  1.5809 -0.6749
 4668TIP3    H213969   0.725   4.883   0.156 -0.5809  1.1699  0.4677
 4669TIP3   OH213970   3.986   3.696   4.922 -0.7302  0.1996  0.0816
 4669TIP3    H113971   4.000   3.742   5.005  0.2486 -0.5875  0.3713
 4669TIP3    H213972   4.060   3.636   4.915 -1.8041 -1.1282 -0.4244
 4670TIP3   OH213973   5.398   3.421   3.864 -0.0228  0.3314 -0.1760
 4670TIP3    H113974   5.401   3.423   3.769  0.9126  2.5041 -0.1446
 4670TIP3    H213975   5.422   3.509   3.892 -1.6794  0.1802  2.0630
 4671TIP3   OH213976   0.634   3.129   4.433 -0.6728  0.1011 -0.1747
 4671TIP3    H113977   0.617   3.125   4.339 -0.4361  0.1061 -0.2188
 4671TIP3    H213978   0.720   3.087   4.444  0.3863  2.1234 -0.2491
 4672TIP3   OH213979   1.801   5.558   1.100  0.6162 -0.1812  0.3623
 4672TIP3    H113980   1.884   5.560   1.147  0.3302 -0.8271  0.9078
 4672TIP3    H213981   1.784   5.650   1.079  2.3204 -0.2028 -1.3189
 4673TIP3   OH213982   2.006   4.323   1.645  0.1240  1.0481 -0.1776
 4673TIP3    H113983   2.027   4.255   1.581 -0.2002  0.7524  0.0285
 4673TIP3    H213984   1.929   4.290   1.691  1.1263  0.6432  1.2823
 4674TIP3   OH213985   0.915   0.479   5.026 -0.3830 -0.0204  0.0079
 4674TIP3    H113986   0.953   0.412   5.082  2.3651  1.4266  0.0344
 4674TIP3    H213987   0.894   0.433   4.944  3.2149 -0.7077 -0.7128
 4675TIP3   OH213988   6.912   2.248   3.065 -0.0597  0.1298  0.1098
 4675TIP3    H113989   6.972   2.295   3.007  0.1664  0.1856  0.3859
 4675TIP3    H213990   6.946   2.265   3.153 -0.4077  0.0557  0.2582
 4676TIP3   OH213991   4.234   4.081   0.570  0.2661 -0.0460 -0.4349
 4676TIP3    H113992   4.190   4.166   0.563  0.4160  0.2017  1.1734
 4676TIP3    H213993   4.209   4.049   0.656  0.7324 -1.3525 -0.7720
 4677TIP3   OH213994   1.938   4.437   3.576 -0.8027  0.5308  0.0279
 4677TIP3    H113995   1.875   4.394   3.518  0.2260 -0.3298 -0.4958
 4677TIP3    H213996   1.898   4.433   3.663 -1.1141 -0.7324 -0.1610
 4678TIP3   OH213997   6.305   0.689   5.771  0.3667  0.5713  0.3894
 4678TIP3    H113998   6.376   0.626   5.781  0.5478  0.9862  1.9608
 4678TIP3    H213999   6.339   0.756   5.712  1.1748  0.6129  0.8951
 4679TIP3   OH214000   2.273   6.391   0.550  0.1195 -0.3408 -0.0916
 4679TIP3    H114001   2.200   6.343   0.589  0.4895 -0.3355  0.6372
 4679TIP3    H214002   2.349   6.364   0.602  0.3972  0.7461  0.1002
 4680TIP3   OH214003   2.834   2.648   3.568 -0.3914  0.0635  0.2800
 4680TIP3    H114004   2.924   2.660   3.597 -0.1632  0.7567 -0.6578
 4680TIP3    H214005   2.804   2.569   3.612  0.9013 -0.5645  0.0690
 4681TIP3   OH214006   1.244   5.561   2.458  0.4621 -0.1443  0.4576
 4681TIP3    H114007   1.191   5.632   2.423  1.1633 -0.4657 -1.3823
 4681TIP3    H214008   1.282   5.519   2.381  2.4858 -0.6333  1.6459
 4682TIP3   OH214009   3.052   2.443   3.232 -0.0520 -0.1784 -0.7787
 4682TIP3    H114010   3.065   2.462   3.325 -2.1497 -1.7630 -0.0885
 4682TIP3    H214011   3.036   2.528   3.192  0.5250  0.4864  0.3433
 4683TIP3   OH214012   5.463   0.619   2.280  0.1144 -0.2162 -0.1557
 4683TIP3    H114013   5.534   0.556   2.269 -0.5431 -1.2265  1.1688
 4683TIP3    H214014   5.403   0.600   2.207  0.2068 -0.7304 -0.1025
 4684TIP3   OH214015   1.855   2.798   0.378 -0.1679 -0.1808  0.1810
 4684TIP3    H114016   1.767   2.804   0.341  0.4802 -2.4631 -1.9774
 4684TIP3    H214017   1.911   2.844   0.316  0.2841  1.1148  1.4594
 4685TIP3   OH214018   2.786   1.288   1.429 -0.0477  0.0470 -0.1846
 4685TIP3    H114019   2.782   1.352   1.500  0.4190  2.0607 -1.8549
 4685TIP3    H214020   2.875   1.253   1.432 -0.2467 -0.3997  0.6312
 4686TIP3   OH214021   6.516   2.696   3.162  0.6140 -0.2036 -0.3661
 4686TIP3    H114022   6.590   2.749   3.191  0.8963 -0.1661 -1.1402
 4686TIP3    H214023   6.545   2.606   3.170 -0.1274 -0.3191  1.6762
 4687TIP3   OH214024   5.225   5.449   3.287  0.6356 -0.0691  0.6616
 4687TIP3    H114025   5.286   5.505   3.239 -0.1533 -0.2620 -0.6261
 4687TIP3    H214026   5.267   5.363   3.287 -0.3170 -0.6248 -1.7401
 4688TIP3   OH214027   3.251   1.992   5.719 -0.1023 -0.1511 -0.1705
 4688TIP3    H114028   3.177   2.036   5.677  0.8868 -0.1069 -1.9835
 4688TIP3    H214029   3.260   1.909   5.671 -0.5250 -1.3371  1.7043
 4689TIP3   OH214030   0.322   3.247   1.594 -1.3208  0.6436  0.3787
 4689TIP3    H114031   0.328   3.242   1.499 -2.6719 -0.9008  0.3305
 4689TIP3    H214032   0.374   3.173   1.626 -1.3114  0.8372  0.8271
 4690TIP3   OH214033   4.156   4.080   1.245 -0.1315 -0.6740 -0.3481
 4690TIP3    H114034   4.200   4.136   1.181  1.8251 -1.1828  0.4488
 4690TIP3    H214035   4.075   4.126   1.266  1.7703  2.4049  0.9567
 4691TIP3   OH214036   3.881   1.053   5.393 -0.3576  0.0044  0.6232
 4691TIP3    H114037   3.972   1.071   5.369  0.2347 -0.9836  1.9674
 4691TIP3    H214038   3.830   1.117   5.344  1.1033  0.9395  0.2492
 4692TIP3   OH214039   0.083   3.769   4.969 -0.9584 -0.3920 -0.3421
 4692TIP3    H114040   0.058   3.686   4.929 -0.2096 -0.6545 -0.2708
 4692TIP3    H214041   0.124   3.819   4.898 -1.4344 -0.0660 -0.3937
 4693TIP3   OH214042   6.328   3.968   2.845  0.1491 -0.1775  0.4103
 4693TIP3    H114043   6.339   4.042   2.904 -0.9884  0.0501  0.3447
 4693TIP3    H214044   6.308   3.894   2.903  2.1904 -0.6779  0.5624
 4694TIP3   OH214045   1.267   1.244   3.880  0.4545  0.1154  0.2246
 4694TIP3    H114046   1.244   1.172   3.938 -0.9236  0.3094 -0.0292
 4694TIP3    H214047   1.240   1.214   3.793  1.0753  0.4301 -0.0834
 4695TIP3   OH214048   4.531   6.698   2.897  0.2270  0.9777  0.6996
 4695TIP3    H114049   4.597   6.646   2.943 -0.8661 -0.5710  0.6111
 4695TIP3    H214050   4.455   6.696   2.954 -1.0900 -0.8142 -0.9666
 4696TIP3   OH214051   3.437   5.607   1.506 -0.0644 -0.4059 -0.2327
 4696TIP3    H114052   3.362   5.607   1.564 -0.4301  0.3800 -0.6918
 4696TIP3    H214053   3.400   5.606   1.418  0.4268  0.8134 -0.4781
 4697TIP3   OH214054   1.357   6.020   4.198 -0.6395  0.0530 -0.5323
 4697TIP3    H114055   1.419   6.066   4.142 -1.4515  0.3751 -1.1828
 4697TIP3    H214056   1.323   6.088   4.257 -1.8808  0.3232 -1.5306
 4698TIP3   OH214057   5.582   2.076   5.848 -0.5570  0.5420  0.0501
 4698TIP3    H114058   5.500   2.124   5.840 -1.2591 -0.8172 -1.5997
 4698TIP3    H214059   5.580   2.039   5.936 -2.3367 -0.4425 -0.3408
 4699TIP3   OH214060   1.800   0.972   4.119  0.0848  0.2043  0.1827
 4699TIP3    H114061   1.746   1.004   4.047  0.5836  1.0829  0.1766
 4699TIP3    H214062   1.888   1.005   4.100  0.5079 -0.7170  0.4853
 4700TIP3   OH214063   0.972   0.935   0.796 -0.0118 -0.4153  0.3408
 4700TIP3    H114064   1.012   1.004   0.849 -0.0214 -0.7773  0.8369
 4700TIP3    H214065   0.898   0.977   0.752 -1.1805 -0.5183  2.0916
 4701TIP3   OH214066   2.584   1.068   4.633  0.1169 -0.1540 -0.0473
 4701TIP3    H114067   2.520   1.134   4.607  0.3585  0.0775 -0.0634
 4701TIP3    H214068   2.619   1.100   4.717 -0.1850 -0.5614  0.2391
 4702TIP3   OH214069   1.511   1.284   0.848 -0.2082 -0.0360  0.4175
 4702TIP3    H114070   1.476   1.373   0.854  0.7758  0.5072 -1.2976
 4702TIP3    H214071   1.495   1.246   0.935 -2.9074  0.9355  0.4340
 4703TIP3   OH214072   5.152   6.404   5.077 -0.6032 -0.2681 -0.2113
 4703TIP3    H114073   5.145   6.411   5.172 -0.1198 -2.7276  0.0700
 4703TIP3    H214074   5.070   6.441   5.044 -0.9720  0.2108  1.1912
 4704TIP3   OH214075   6.023   2.786   1.173 -0.5253  0.0995  0.6124
 4704TIP3    H114076   5.951   2.733   1.137 -0.8495  0.4992  0.6622
 4704TIP3    H214077   6.010   2.873   1.135 -0.8455  0.5182  1.6286
 4705TIP3   OH214078   6.070   0.858   2.944 -0.7866 -0.3210 -0.3868
 4705TIP3    H114079   6.029   0.924   2.888  0.1924 -0.9098 -1.8591
 4705TIP3    H214080   6.052   0.774   2.900 -0.6492 -0.8885  0.5991
 4706TIP3   OH214081   3.821   5.553   3.599  0.2005  0.1770 -0.5171
 4706TIP3    H114082   3.824   5.471   3.650  0.4786  1.0252  0.8944
 4706TIP3    H214083   3.879   5.612   3.647 -0.4489  1.3816 -1.1984
 4707TIP3   OH214084   5.947   2.369   0.069  0.0133 -0.0472 -0.4295
 4707TIP3    H114085   6.021   2.378   0.009 -0.0856  2.8514 -0.2783
 4707TIP3    H214086   5.870   2.368   0.012  0.0307  0.0504 -0.4543
 4708TIP3   OH214087   2.594   4.735   1.449  0.3043 -1.0942 -0.2876
 4708TIP3    H114088   2.648   4.675   1.398  1.7187  0.1807 -0.3591
 4708TIP3    H214089   2.555   4.793   1.383  0.5441 -0.6856 -0.0699
 4709TIP3   OH214090   5.190   6.290   0.747 -0.3130  0.6222 -0.1177
 4709TIP3    H114091   5.169   6.264   0.837 -1.2362  1.5084 -0.0608
 4709TIP3    H214092   5.211   6.383   0.753 -0.1544  0.6358 -0.7882
 4710TIP3   OH214093   0.850   3.161   3.810  0.3704  0.4748  0.2809
 4710TIP3    H114094   0.873   3.096   3.744 -1.4410 -0.4733  0.5157
 4710TIP3    H214095   0.791   3.222   3.763  1.3500  1.4650  0.2955
 4711TIP3   OH214096   0.326   1.540   3.358 -0.4321 -0.0842 -0.5164
 4711TIP3    H114097   0.387   1.530   3.430 -0.1524 -1.3105 -0.9019
 4711TIP3    H214098   0.248   1.578   3.397  0.3057  0.8330  0.1105
 4712TIP3   OH214099   1.171   6.729   2.339  0.5710 -0.1510 -0.3186
 4712TIP3    H114100   1.190   6.677   2.261  0.7558 -0.5738  0.0077
 4712TIP3    H214101   1.126   6.669   2.398  2.5350 -0.5391  0.8700
 4713TIP3   OH214102   6.046   3.546   2.026  0.4325 -0.5535 -0.1922
 4713TIP3    H114103   6.086   3.592   2.099  1.8356 -1.2471 -0.4822
 4713TIP3    H214104   6.034   3.456   2.057  1.8352 -1.0730 -1.0513
 4714TIP3   OH214105   0.712   2.831   2.714 -0.2566  0.3418 -0.6087
 4714TIP3    H114106   0.722   2.826   2.809  0.9097  0.2052 -0.7161
 4714TIP3    H214107   0.796   2.800   2.680 -0.1787  1.6274 -1.6650
 4715TIP3   OH214108   1.086   4.663   4.037 -0.2510  0.0746  0.2798
 4715TIP3    H114109   0.999   4.653   3.997 -0.2708  0.7255  0.1486
 4715TIP3    H214110   1.075   4.733   4.102  0.4646  1.0687 -0.6378
 4716TIP3   OH214111   2.742   2.523   2.267 -0.8426 -0.3351 -0.2152
 4716TIP3    H114112   2.675   2.539   2.333  0.0309  1.0804  0.3757
 4716TIP3    H214113   2.766   2.610   2.235 -0.1698 -0.8939 -1.3129
 4717TIP3   OH214114   6.762   5.031   1.822 -0.2918 -0.4630  0.0996
 4717TIP3    H114115   6.791   5.036   1.731 -1.2069  0.0096 -0.1784
 4717TIP3    H214116   6.843   5.032   1.874  0.2721 -1.4083 -0.7231
 4718TIP3   OH214117   4.365   2.870   5.335  0.0769 -0.6514 -0.3664
 4718TIP3    H114118   4.396   2.914   5.256  2.6922 -0.2327  0.7758
 4718TIP3    H214119   4.400   2.923   5.407 -0.7773 -1.9529  1.0823
 4719TIP3   OH214120   2.463   3.786   5.204 -0.4698  0.0477  0.3516
 4719TIP3    H114121   2.369   3.807   5.209 -0.9731 -2.1985  1.8316
 4719TIP3    H214122   2.502   3.834   5.277 -0.5603  0.4961  0.1108
 4720TIP3   OH214123   0.921   1.499   2.057 -0.7080 -0.0249 -0.3158
 4720TIP3    H114124   0.943   1.561   1.987  0.0340 -0.1690 -0.2266
 4720TIP3    H214125   0.832   1.522   2.083 -0.0563  1.7993  0.5221
 4721TIP3   OH214126   3.740   1.238   0.406  0.0723  0.0050 -0.3639
 4721TIP3    H114127   3.799   1.297   0.454  0.5208 -0.5964 -0.1672
 4721TIP3    H214128   3.797   1.188   0.349 -0.1565 -1.0675  0.3248
 4722TIP3   OH214129   5.547   5.942   3.538 -0.3159  0.0960 -0.0859
 4722TIP3    H114130   5.574   6.024   3.579  0.8465  0.6488 -1.8335
 4722TIP3    H214131   5.610   5.878   3.569 -1.0195 -0.0777  1.0149
 4723TIP3   OH214132   5.286   4.519   4.107  0.4939  0.7976  0.0668
 4723TIP3    H114133   5.333   4.438   4.125  0.8779  0.8378 -0.7268
 4723TIP3    H214134   5.199   4.505   4.145  0.4479 -0.1150 -0.3481
 4724TIP3   OH214135   6.668   6.385   2.460  0.8517  0.1771 -0.1846
 4724TIP3    H114136   6.747   6.422   2.420 -0.1326  0.3073 -2.1111
 4724TIP3    H214137   6.626   6.336   2.390 -0.8996  0.2680  0.7431
 4725TIP3   OH214138   3.507   1.992   1.769  0.2801  0.0203 -0.0949
 4725TIP3    H114139   3.518   1.897   1.780  1.8455  0.2955  1.0725
 4725TIP3    H214140   3.585   2.030   1.810 -2.3338  2.0101  3.6356
 4726TIP3   OH214141   3.307   5.238   1.159  0.0010 -0.3389  0.6011
 4726TIP3    H114142   3.291   5.155   1.114 -0.1074 -0.2057  0.3930
 4726TIP3    H214143   3.297   5.217   1.252  2.1199 -1.0492  0.7237
 4727TIP3   OH214144   6.069   4.997   0.161 -0.2365  0.0172 -0.2207
 4727TIP3    H114145   6.103   5.079   0.198  1.1904  0.1018 -1.6246
 4727TIP3    H214146   6.031   4.951   0.237  0.6004  1.1437  0.9324
 4728TIP3   OH214147   4.446   0.956   5.576 -0.2746  0.2308 -0.0357
 4728TIP3    H114148   4.484   1.031   5.622  0.2930 -0.0203 -0.0872
 4728TIP3    H214149   4.459   0.975   5.483  0.0501 -0.0231 -0.0428
 4729TIP3   OH214150   6.236   2.075   2.825 -0.3604  0.5687  0.5547
 4729TIP3    H114151   6.217   2.154   2.775  0.3207  0.8226  0.6935
 4729TIP3    H214152   6.162   2.067   2.885 -0.5371  0.9835  0.3958
 4730TIP3   OH214153   1.387   6.678   4.981 -0.0529 -0.2752 -0.1210
 4730TIP3    H114154   1.295   6.650   4.983 -0.0941 -0.1335 -0.0378
 4730TIP3    H214155   1.388   6.759   5.032  0.0236  0.0079 -0.5743
 4731TIP3   OH214156   4.376   3.618   5.511 -0.0860  0.1306  0.2611
 4731TIP3    H114157   4.290   3.584   5.537  0.1691 -0.8563 -0.1331
 4731TIP3    H214158   4.403   3.673   5.584 -1.4869  1.2860 -0.0316
 4732TIP3   OH214159   1.538   0.404   5.567  0.8932  0.0939 -0.0706
 4732TIP3    H114160   1.622   0.429   5.606  1.9628 -1.3078 -1.3271
 4732TIP3    H214161   1.529   0.462   5.491 -1.0433  2.6189  1.9071
 4733TIP3   OH214162   0.434   5.373   4.751 -0.1101  0.1949  0.5332
 4733TIP3    H114163   0.530   5.368   4.755 -0.1886 -3.2367  0.6865
 4733TIP3    H214164   0.416   5.419   4.669  1.6977 -0.4029 -0.2536
 4734TIP3   OH214165   6.162   1.775   0.582 -0.2319 -0.4294  0.0264
 4734TIP3    H114166   6.178   1.840   0.515  0.5791  1.4896  1.9528
 4734TIP3    H214167   6.070   1.788   0.607  0.1986  0.7661  1.1130
 4735TIP3   OH214168   2.077   6.196   5.576  0.2555  0.1394 -0.6124
 4735TIP3    H114169   2.161   6.236   5.557  0.5388 -0.4824 -0.7041
 4735TIP3    H214170   2.093   6.143   5.655  0.1096 -0.4601 -0.9796
 4736TIP3   OH214171   2.353   0.504   1.274 -0.1164  0.4366  0.6249
 4736TIP3    H114172   2.408   0.427   1.260 -1.5144 -0.2893 -1.3500
 4736TIP3    H214173   2.350   0.547   1.189 -1.9163  0.8760  0.8677
 4737TIP3   OH214174   3.721   4.640   5.125  0.3311 -0.0842 -0.0840
 4737TIP3    H114175   3.773   4.560   5.112 -0.3759 -0.2368 -2.4293
 4737TIP3    H214176   3.747   4.697   5.053  1.7855  2.4452  2.2505
 4738TIP3   OH214177   1.406   5.368   0.586  0.0108  0.2654 -0.0423
 4738TIP3    H114178   1.369   5.409   0.664  1.1065  0.2246  0.5123
 4738TIP3    H214179   1.481   5.318   0.618  0.5576  0.3623 -1.1402
 4739TIP3   OH214180   4.156   2.236   4.990 -0.4440 -0.2662 -0.2086
 4739TIP3    H114181   4.079   2.284   4.959 -0.7444 -0.7531 -0.2343
 4739TIP3    H214182   4.217   2.238   4.915 -0.4560  0.0582 -0.2126
 4740TIP3   OH214183   0.507   0.413   1.702 -0.1016 -0.1351  0.0082
 4740TIP3    H114184   0.576   0.347   1.706 -0.3898 -0.6154 -1.9383
 4740TIP3    H214185   0.541   0.480   1.644  0.1559  1.4728  1.9090
 4741TIP3   OH214186   1.766   6.030   2.117 -0.6294 -0.2405 -0.1571
 4741TIP3    H114187   1.672   6.016   2.105 -0.2233 -1.0288 -3.5295
 4741TIP3    H214188   1.803   5.942   2.118  0.0247 -0.0533  3.1882
 4742TIP3   OH214189   3.059   4.061   1.004 -0.8179  0.8620 -0.0433
 4742TIP3    H114190   3.001   4.002   0.955 -1.8296  2.1369 -0.4415
 4742TIP3    H214191   3.139   4.065   0.952 -1.0955  0.5851 -0.5017
 4743TIP3   OH214192   1.796   6.271   3.091  0.0896  0.3173  0.2878
 4743TIP3    H114193   1.742   6.345   3.064  0.9030  0.1996 -1.9131
 4743TIP3    H214194   1.757   6.196   3.046  0.8330 -0.1279  0.3747
 4744TIP3   OH214195   4.388   2.123   3.631 -1.0932  0.0140 -0.2513
 4744TIP3    H114196   4.302   2.139   3.590 -0.0317  2.9695 -1.6470
 4744TIP3    H214197   4.401   2.199   3.688 -0.5654 -1.8360  2.2462
 4745TIP3   OH214198   1.332   2.873   0.299  0.2926  0.1763 -0.3453
 4745TIP3    H114199   1.331   2.781   0.273 -2.3083  0.0262 -0.0324
 4745TIP3    H214200   1.283   2.874   0.381 -0.5554  1.9440 -0.8346
 4746TIP3   OH214201   3.859   1.904   2.096 -0.2578 -0.6287 -0.2814
 4746TIP3    H114202   3.779   1.853   2.084 -0.4007 -0.8291  1.2624
 4746TIP3    H214203   3.898   1.869   2.176 -0.2247  1.4684  0.6865
 4747TIP3   OH214204   5.889   3.591   5.711  0.1193  0.2870  0.5973
 4747TIP3    H114205   5.849   3.671   5.676 -0.8530 -0.0221  0.9529
 4747TIP3    H214206   5.945   3.559   5.641  2.0101  2.2693  1.1150
 4748TIP3   OH214207   4.020   0.264   3.933  0.3113 -0.2195  0.4867
 4748TIP3    H114208   3.973   0.317   3.868  0.5731  1.1793  1.3895
 4748TIP3    H214209   3.956   0.247   4.002  0.5714  0.0075  0.7911
 4749TIP3   OH214210   4.011   4.163   2.540 -0.0855  0.8858 -0.4144
 4749TIP3    H114211   4.000   4.198   2.628  1.3442  0.1935  0.0895
 4749TIP3    H214212   4.093   4.202   2.509 -0.5918  1.1484 -1.4672
 4750TIP3   OH214213   5.323   1.511   1.836 -0.1620 -0.0064  0.1742
 4750TIP3    H114214   5.286   1.435   1.881 -1.6577 -0.1436 -1.1691
 4750TIP3    H214215   5.412   1.484   1.811 -0.1798 -0.7877  0.9260
 4751TIP3   OH214216   4.788   1.669   1.284 -0.3342  0.1252  0.2639
 4751TIP3    H114217   4.815   1.598   1.342 -0.5063  0.4059  0.6865
 4751TIP3    H214218   4.823   1.644   1.198  1.8509  0.7886  0.9006
 4752TIP3   OH214219   3.847   3.649   5.505 -0.7072 -0.2009 -0.6128
 4752TIP3    H114220   3.790   3.726   5.507  0.8243  1.0116 -1.0948
 4752TIP3    H214221   3.862   3.633   5.412  0.7419  0.3264 -0.4971
 4753TIP3   OH214222   2.461   1.963   0.510  0.3223 -0.2969 -0.4905
 4753TIP3    H114223   2.466   1.887   0.452 -0.4507 -0.4216 -0.4126
 4753TIP3    H214224   2.504   2.033   0.462  2.8690 -1.2464  0.2510
 4754TIP3   OH214225   4.178   1.710   3.152  0.2454 -0.1447  0.4647
 4754TIP3    H114226   4.191   1.732   3.244 -0.2336 -1.5633  0.9002
 4754TIP3    H214227   4.144   1.790   3.112  0.7600  0.5793  1.4463
 4755TIP3   OH214228   3.035   0.323   1.873 -0.0313 -0.0839 -0.1936
 4755TIP3    H114229   3.065   0.318   1.783  0.0213  0.0386 -0.1832
 4755TIP3    H214230   2.942   0.342   1.866  0.1481  0.8086 -0.2159
 4756TIP3   OH214231   2.252   5.686   0.200  0.0273  0.5030 -0.6568
 4756TIP3    H114232   2.191   5.713   0.269  0.6781  1.8826 -0.5937
 4756TIP3    H214233   2.322   5.751   0.204  0.7454 -0.1897 -1.7342
 4757TIP3   OH214234   4.336   2.664   2.798  0.3365 -0.1041 -0.0420
 4757TIP3    H114235   4.424   2.697   2.781  0.6011 -1.8097 -2.5703
 4757TIP3    H214236   4.278   2.734   2.768  0.7294  1.2983  2.2284
 4758TIP3   OH214237   1.503   0.398   0.493 -0.1008  0.3435 -0.1004
 4758TIP3    H114238   1.484   0.475   0.545 -0.8848  0.3597 -0.3952
 4758TIP3    H214239   1.425   0.386   0.439 -0.8635 -1.8261  1.3592
 4759TIP3   OH214240   6.554   1.588   0.860 -0.1207  0.4330  0.2453
 4759TIP3    H114241   6.590   1.538   0.933  0.0422  1.5291  0.9288
 4759TIP3    H214242   6.626   1.643   0.830 -0.4840  0.7419 -0.0704
 4760TIP3   OH214243   5.933   4.218   3.683 -0.1355  0.1952  0.4904
 4760TIP3    H114244   5.887   4.217   3.767 -0.3442  1.9053  0.4339
 4760TIP3    H214245   5.903   4.298   3.640  0.3618 -0.3850 -1.0035
 4761TIP3   OH214246   0.039   4.768   1.547  0.4582  0.0142 -0.2693
 4761TIP3    H114247   0.008   4.690   1.502  0.5615  0.3406 -0.9261
 4761TIP3    H214248   0.093   4.813   1.482 -1.0617  1.5526 -0.5435
 4762TIP3   OH214249   4.861   3.393   1.579 -0.3874 -0.1608 -0.1342
 4762TIP3    H114250   4.945   3.397   1.534 -0.8085  0.6405 -0.9006
 4762TIP3    H214251   4.798   3.422   1.513 -1.0759  0.6596  0.8464
 4763TIP3   OH214252   2.000   1.841   2.350 -0.1430  0.1613 -0.2867
 4763TIP3    H114253   1.929   1.777   2.345  0.6290 -0.9045  1.3495
 4763TIP3    H214254   1.962   1.917   2.393 -0.4991 -0.0774 -0.1805
 4764TIP3   OH214255   2.693   3.761   3.965 -0.5816  0.2811  0.0694
 4764TIP3    H114256   2.768   3.757   4.024  0.2897  1.2146 -0.9079
 4764TIP3    H214257   2.659   3.850   3.976 -2.5867 -0.5937  1.6628
 4765TIP3   OH214258   0.200   4.529   1.148  0.2743 -0.5361  0.0849
 4765TIP3    H114259   0.258   4.548   1.074  0.5112 -2.2136 -0.2111
 4765TIP3    H214260   0.258   4.528   1.224  0.3839 -0.8038 -0.0022
 4766TIP3   OH214261   0.834   2.480   1.463  0.3209  0.0194  0.1813
 4766TIP3    H114262   0.761   2.507   1.408  0.0851 -0.8541  0.0527
 4766TIP3    H214263   0.870   2.562   1.497 -0.7621  0.4507  0.3172
 4767TIP3   OH214264   2.942   3.921   3.633 -0.5784 -0.0182 -0.0138
 4767TIP3    H114265   2.962   3.956   3.720 -1.0226  0.9458 -0.2888
 4767TIP3    H214266   2.912   3.996   3.583 -5.3963 -1.3128  0.4785
 4768TIP3   OH214267   3.208   1.597   2.592 -0.1016 -0.3912  0.2785
 4768TIP3    H114268   3.302   1.614   2.598 -0.3061  0.9826  0.0477
 4768TIP3    H214269   3.175   1.665   2.533 -1.0717 -1.5566 -0.5573
 4769TIP3   OH214270   4.524   3.082   4.852  0.0794  0.6105 -0.1009
 4769TIP3    H114271   4.562   3.020   4.790  1.1032 -0.4923  1.5682
 4769TIP3    H214272   4.571   3.164   4.836  0.1638  0.4050 -0.9319
 4770TIP3   OH214273   4.225   5.997   0.900  0.0346  0.3284 -0.0506
 4770TIP3    H114274   4.284   6.029   0.969 -0.9341  2.5346 -0.1672
 4770TIP3    H214275   4.283   5.954   0.838  1.2620  0.5693  0.8731
 4771TIP3   OH214276   1.136   6.039   1.592 -0.2933  0.3284 -0.4644
 4771TIP3    H114277   1.118   5.949   1.565 -1.9360 -0.2897  2.3074
 4771TIP3    H214278   1.196   6.031   1.666  0.0864  1.5807 -0.6031
 4772TIP3   OH214279   6.087   6.426   5.374  0.4978 -0.4217  0.0551
 4772TIP3    H114280   6.112   6.346   5.421  1.0265 -0.9882 -1.1637
 4772TIP3    H214281   6.080   6.400   5.283 -1.6365  0.4094 -0.0781
 4773TIP3   OH214282   3.804   3.737   1.150 -0.7461 -0.0885 -0.1987
 4773TIP3    H114283   3.809   3.756   1.057  0.0499  0.5535 -0.0343
 4773TIP3    H214284   3.785   3.643   1.154  1.0854 -0.5383 -1.0141
 4774TIP3   OH214285   6.866   2.820   5.514 -0.1548  0.1531  0.1126
 4774TIP3    H114286   6.804   2.748   5.528  0.5547 -0.3124  0.9876
 4774TIP3    H214287   6.935   2.781   5.461 -0.0630  0.3617  0.0786
 4775TIP3   OH214288   3.487   2.637   0.959 -0.5710 -0.7802  0.4533
 4775TIP3    H114289   3.486   2.731   0.940 -0.5527 -1.1875 -1.8388
 4775TIP3    H214290   3.543   2.600   0.891 -0.7528 -2.4818  1.2015
 4776TIP3   OH214291   1.068   0.487   3.857 -0.1006  0.2799 -0.4120
 4776TIP3    H114292   1.041   0.427   3.788 -0.1507  0.9910 -1.0308
 4776TIP3    H214293   0.986   0.515   3.898 -0.1362  0.5179 -0.6405
 4777TIP3   OH214294   5.014   5.114   4.164 -0.1685  0.3993  0.0548
 4777TIP3    H114295   4.998   5.207   4.149  2.2753  0.6154 -1.9606
 4777TIP3    H214296   5.034   5.079   4.077 -0.4450 -1.9082  0.8468
 4778TIP3   OH214297   5.239   6.087   1.972  0.7740  0.3003 -0.4139
 4778TIP3    H114298   5.181   6.100   2.047  0.6107 -0.8553 -0.3299
 4778TIP3    H214299   5.195   6.130   1.899  1.3594  2.2476  0.3115
 4779TIP3   OH214300   1.296   1.374   0.276 -0.2531 -0.2267  0.4747
 4779TIP3    H114301   1.386   1.354   0.304 -0.3137 -3.7660 -1.3238
 4779TIP3    H214302   1.307   1.417   0.191 -0.2627 -0.4026  0.3848
 4780TIP3   OH214303   7.113   5.729   0.223  0.3887  0.2176  0.0131
 4780TIP3    H114304   7.080   5.646   0.190  0.9019 -0.4418  1.1228
 4780TIP3    H214305   7.105   5.723   0.318  1.1393  1.1355  0.1541
 4781TIP3   OH214306   5.653   3.473   1.781 -0.2686  0.4552 -0.1260
 4781TIP3    H114307   5.661   3.560   1.821 -1.0144  0.7194 -0.5269
 4781TIP3    H214308   5.735   3.461   1.733  1.0474 -0.2251  2.1044
 4782TIP3   OH214309   1.040   2.685   2.008 -0.8544 -0.1799 -0.0910
 4782TIP3    H114310   1.088   2.737   2.072  2.1963 -1.4685 -1.1701
 4782TIP3    H214311   1.001   2.614   2.060 -0.5999  0.2151  0.6525
 4783TIP3   OH214312   6.333   4.951   1.874 -0.1297  0.3048  0.6551
 4783TIP3    H114313   6.288   4.910   1.801 -2.3753  2.1580  0.8804
 4783TIP3    H214314   6.418   4.909   1.877 -0.3985 -0.6396 -2.2798
 4784TIP3   OH214315   4.635   4.017   0.918 -0.2171  0.6132 -0.0573
 4784TIP3    H114316   4.647   4.036   0.825 -1.9040 -0.0747 -0.4376
 4784TIP3    H214317   4.544   3.989   0.926  0.3945 -1.1483  1.5092
 4785TIP3   OH214318   3.999   4.312   4.847 -0.0668 -0.3654 -0.3283
 4785TIP3    H114319   3.968   4.329   4.758  0.9359  1.7718 -0.3334
 4785TIP3    H214320   4.000   4.216   4.854 -1.2827 -0.5673 -2.1907
 4786TIP3   OH214321   0.988   6.551   1.926 -0.0506 -0.6508 -0.2264
 4786TIP3    H114322   1.055   6.573   1.991 -1.8505 -0.9748  1.9036
 4786TIP3    H214323   1.012   6.463   1.897  0.9089 -0.4290 -0.1480
 4787TIP3   OH214324   2.286   4.747   0.424  0.5582 -0.5858 -0.1854
 4787TIP3    H114325   2.214   4.789   0.377  1.3246  0.8173 -0.1285
 4787TIP3    H214326   2.269   4.767   0.516  0.6236 -0.8854 -0.1075
 4788TIP3   OH214327   1.100   5.470   1.331  0.1380  0.1468 -0.0296
 4788TIP3    H114328   1.181   5.521   1.344  0.3626 -0.0189 -0.7397
 4788TIP3    H214329   1.036   5.534   1.300 -0.8758  0.8919  3.2140
 4789TIP3   OH214330   3.278   0.132   1.359  0.1705  0.2352 -0.2842
 4789TIP3    H114331   3.212   0.161   1.297 -0.7610 -0.8102  0.1858
 4789TIP3    H214332   3.230   0.079   1.423  1.0627  1.4216  1.4470
 4790TIP3   OH214333   3.617   6.203   5.833 -0.7169  0.0003 -0.1605
 4790TIP3    H114334   3.547   6.243   5.883 -2.1189 -0.7646 -1.4280
 4790TIP3    H214335   3.651   6.134   5.889  0.0279  1.2797  1.0307
 4791TIP3   OH214336   3.365   0.560   0.450 -0.5006  0.5408 -0.0151
 4791TIP3    H114337   3.338   0.495   0.515 -0.4712  2.0757  1.5793
 4791TIP3    H214338   3.312   0.637   0.468  1.4699  1.9789  0.0480
 4792TIP3   OH214339   4.267   6.525   5.120 -0.3332 -0.1424  0.0403
 4792TIP3    H114340   4.236   6.475   5.196 -1.1369  0.6920  0.2931
 4792TIP3    H214341   4.360   6.541   5.137 -0.7785  1.1330  1.5232
 4793TIP3   OH214342   1.712   1.576   1.086 -0.4387  0.0322 -0.3984
 4793TIP3    H114343   1.796   1.565   1.042 -0.8111 -1.5249 -0.7539
 4793TIP3    H214344   1.710   1.669   1.111  2.7219 -0.4479  2.3437
 4794TIP3   OH214345   4.403   2.816   2.042 -0.3498  0.1400  0.5297
 4794TIP3    H114346   4.387   2.723   2.054 -0.0225  0.0740  0.4533
 4794TIP3    H214347   4.489   2.821   2.001 -1.0692  0.3965 -1.0133
 4795TIP3   OH214348   4.375   2.390   0.786 -0.3289 -0.6453 -0.2755
 4795TIP3    H114349   4.348   2.462   0.843 -2.1982  0.1563 -2.0344
 4795TIP3    H214350   4.449   2.350   0.831 -0.4602  1.1577  1.7061
 4796TIP3   OH214351   0.087   0.117   4.040 -0.0636  0.4306 -0.5631
 4796TIP3    H114352  -0.002   0.114   4.004  0.1151 -2.6169 -1.0346
 4796TIP3    H214353   0.117   0.206   4.023 -2.2418  0.9205 -2.3416
 4797TIP3   OH214354   4.394   4.082   5.463 -0.4800 -0.1833 -0.2553
 4797TIP3    H114355   4.489   4.077   5.449 -0.5712 -0.8556 -0.6748
 4797TIP3    H214356   4.360   4.004   5.420 -1.2198  0.0177 -0.0362
 4798TIP3   OH214357   2.306   4.382   2.382  0.7064  0.3779 -0.5199
 4798TIP3    H114358   2.224   4.333   2.374  0.5476  0.6179 -0.4035
 4798TIP3    H214359   2.291   4.442   2.455  1.5312 -0.6127  0.4843
 4799TIP3   OH214360   5.351   0.197   5.615 -0.1306  0.1247  0.2306
 4799TIP3    H114361   5.405   0.257   5.667 -0.6100  0.5028  0.2982
 4799TIP3    H214362   5.262   0.211   5.647 -0.2810 -0.4469  0.0703
 4800TIP3   OH214363   4.046   3.912   1.477 -0.6717 -0.0756 -0.5367
 4800TIP3    H114364   4.114   3.953   1.424 -0.7554 -0.4469 -0.9442
 4800TIP3    H214365   4.062   3.943   1.566  0.5256 -0.7722 -0.4821
 4801TIP3   OH214366   5.709   0.514   2.252 -0.5663  0.0489  0.2963
 4801TIP3    H114367   5.705   0.589   2.193 -1.7896  0.3256  0.7192
 4801TIP3    H214368   5.754   0.547   2.330 -1.5381  0.4949  0.6813
 4802TIP3   OH214369   3.734   3.027   0.936  0.1440 -0.3308  0.4406
 4802TIP3    H114370   3.752   2.990   1.022  0.5015  0.5794  0.7681
 4802TIP3    H214371   3.804   3.091   0.922 -0.6127  0.4410  0.0388
 4803TIP3   OH214372   2.626   6.424   3.905 -0.3010 -0.4418 -0.0319
 4803TIP3    H114373   2.571   6.473   3.844 -0.4237  0.8256  1.0715
 4803TIP3    H214374   2.564   6.374   3.958 -0.3610  0.3663  0.6771
 4804TIP3   OH214375   6.154   4.545   4.605 -0.3611  0.0693 -0.1634
 4804TIP3    H114376   6.157   4.552   4.700  1.1021  0.5798 -0.2304
 4804TIP3    H214377   6.196   4.624   4.573 -0.2927 -0.3777 -1.2293
 4805TIP3   OH214378   5.980   4.338   3.337 -0.0476  0.1944 -0.2306
 4805TIP3    H114379   5.992   4.429   3.365 -0.6547  0.0840  0.4172
 4805TIP3    H214380   5.903   4.340   3.280  1.1832  0.4183 -1.9574
 4806TIP3   OH214381   2.862   2.364   5.287  0.1211  0.7007 -0.1065
 4806TIP3    H114382   2.827   2.284   5.324  1.3997 -0.5246 -1.4225
 4806TIP3    H214383   2.839   2.432   5.350 -1.2224 -0.6369  0.9094
 4807TIP3   OH214384   6.584   3.113   4.876  0.0530 -0.2163 -0.4045
 4807TIP3    H114385   6.614   3.074   4.958 -0.5324 -0.7819 -0.4536
 4807TIP3    H214386   6.563   3.203   4.898  0.1382 -0.2988  0.0124
 4808TIP3   OH214387   3.044   0.017   2.029  0.2294 -0.0555 -0.0017
 4808TIP3    H114388   2.973   0.009   2.093  0.2052  2.4005  0.3725
 4808TIP3    H214389   3.000   0.015   1.944 -0.0874 -0.2877  0.1656
 4809TIP3   OH214390   5.303   4.843   0.121  0.1355  0.5036  0.6326
 4809TIP3    H114391   5.284   4.786   0.195  1.5651 -0.5062  0.2465
 4809TIP3    H214392   5.384   4.888   0.145  0.1320  0.8261  0.0627
 4810TIP3   OH214393   4.653   2.235   4.650  0.0924  0.1603  0.2549
 4810TIP3    H114394   4.690   2.319   4.674  0.7466  0.0429 -0.3159
 4810TIP3    H214395   4.594   2.254   4.576 -1.1140  0.3652  1.2376
 4811TIP3   OH214396   5.348   5.968   5.281 -0.0249 -0.7478 -0.1364
 4811TIP3    H114397   5.291   5.992   5.354 -0.6155 -1.4348 -0.3617
 4811TIP3    H214398   5.326   5.877   5.262  0.3508 -0.6737 -0.9594
 4812TIP3   OH214399   1.736   5.992   1.810  0.3435 -0.0182 -0.4021
 4812TIP3    H114400   1.655   6.003   1.860 -0.3609  0.4535 -1.5977
 4812TIP3    H214401   1.793   5.941   1.867 -0.6382  0.0246  0.6426
 4813TIP3   OH214402   6.533   0.617   4.265 -0.1846 -0.4432 -0.0320
 4813TIP3    H114403   6.511   0.709   4.279 -0.8381 -0.2893 -1.8011
 4813TIP3    H214404   6.612   0.620   4.211 -0.2325 -0.9210 -0.1298
 4814TIP3   OH214405   0.538   4.696   3.590 -0.0672  0.2137 -0.0624
 4814TIP3    H114406   0.456   4.743   3.605 -0.8029 -1.3416  1.0812
 4814TIP3    H214407   0.602   4.743   3.643 -0.3816  0.9384 -0.3002
 4815TIP3   OH214408   6.884   0.510   1.857  0.3390 -0.0815 -0.6892
 4815TIP3    H114409   6.855   0.600   1.873 -1.3917 -0.8320  0.7054
 4815TIP3    H214410   6.847   0.487   1.772 -1.1378 -0.1911 -0.0436
 4816TIP3   OH214411   1.660   3.199   4.189 -0.3895 -0.6174  0.5370
 4816TIP3    H114412   1.588   3.169   4.244 -0.7470  0.7158  0.8453
 4816TIP3    H214413   1.708   3.119   4.165 -1.0249 -1.3569  1.6522
 4817TIP3   OH214414   1.517   3.484   5.104 -0.2153  0.2811  0.2008
 4817TIP3    H114415   1.441   3.428   5.120 -0.0591 -0.2212 -0.7267
 4817TIP3    H214416   1.492   3.569   5.140 -0.8560 -0.1164  0.7208
 4818TIP3   OH214417   6.465   1.932   5.872  0.0925 -0.4662  0.2499
 4818TIP3    H114418   6.454   1.928   5.777 -1.3078 -0.2947  0.3826
 4818TIP3    H214419   6.377   1.949   5.906  0.7841  0.8819  1.4942
 4819TIP3   OH214420   3.595   5.677   3.168  0.3124  0.2753  0.0483
 4819TIP3    H114421   3.544   5.730   3.105 -2.1004 -1.4679  0.3959
 4819TIP3    H214422   3.545   5.683   3.249  2.0030  0.3807  1.1222
 4820TIP3   OH214423   0.765   2.100   3.230  0.1813 -0.1562  0.8648
 4820TIP3    H114424   0.683   2.091   3.279  1.2686 -2.3489  2.4324
 4820TIP3    H214425   0.799   2.185   3.257 -1.7878  1.0721 -0.2587
 4821TIP3   OH214426   0.372   3.999   4.812 -0.0787  0.1471  0.4712
 4821TIP3    H114427   0.340   3.959   4.732  0.8589 -0.1321  0.2292
 4821TIP3    H214428   0.367   3.929   4.877  1.7004 -0.4361  0.0136
 4822TIP3   OH214429   6.091   1.008   5.338 -0.0130  0.1165  0.1788
 4822TIP3    H114430   6.082   0.926   5.289  0.2027 -0.9873  1.8937
 4822TIP3    H214431   6.016   1.060   5.310  0.9681  0.2601 -2.5259
 4823TIP3   OH214432   4.792   0.830   5.255  0.3044  0.6357  0.1665
 4823TIP3    H114433   4.823   0.769   5.188  0.0841 -0.1463  0.7661
 4823TIP3    H214434   4.831   0.914   5.231 -0.6934  0.6490 -1.6177
 4824TIP3   OH214435   1.834   3.646   3.842  0.0915 -0.5882  0.3525
 4824TIP3    H114436   1.784   3.623   3.920 -0.6939 -0.1809 -0.0251
 4824TIP3    H214437   1.773   3.634   3.769  0.5324 -0.0605 -0.1138
 4825TIP3   OH214438   3.338   6.193   3.985  0.1069  0.1509  0.4103
 4825TIP3    H114439   3.319   6.280   3.951  0.5470  0.1813  0.2250
 4825TIP3    H214440   3.425   6.201   4.025  1.4856 -0.8437 -2.1274
 4826TIP3   OH214441   2.474   4.589   2.896 -0.3196  0.0668 -0.3309
 4826TIP3    H114442   2.477   4.609   2.803 -0.4342  0.5103 -0.2447
 4826TIP3    H214443   2.555   4.626   2.931  1.4076 -3.0280 -0.7772
 4827TIP3   OH214444   6.203   5.784   0.654  0.0117  0.0299 -0.2628
 4827TIP3    H114445   6.256   5.834   0.592 -0.6171  2.7690  1.2399
 4827TIP3    H214446   6.113   5.795   0.623 -0.6846  3.8941  2.4201
 4828TIP3   OH214447   0.762   3.973   1.182 -0.2961 -0.6503 -0.5553
 4828TIP3    H114448   0.731   3.991   1.093  0.0219  3.1694 -0.0348
 4828TIP3    H214449   0.712   4.032   1.238  2.8661  0.6703  1.1615
 4829TIP3   OH214450   1.128   3.480   0.975 -0.5066  0.1570  0.6247
 4829TIP3    H114451   1.139   3.558   1.028  4.4619 -0.2680  0.7328
 4829TIP3    H214452   1.134   3.407   1.038 -1.1735 -0.3560  0.1139
 4830TIP3   OH214453   5.456   2.102   3.842  0.0123  0.5981 -0.6161
 4830TIP3    H114454   5.477   2.190   3.810  1.1143  1.1930  1.5732
 4830TIP3    H214455   5.456   2.110   3.937 -0.8703 -1.5701 -0.3710
 4831TIP3   OH214456   6.285   4.221   2.985 -0.1657  0.2240 -0.1198
 4831TIP3    H114457   6.193   4.194   2.994  0.3147 -0.9455  1.8114
 4831TIP3    H214458   6.292   4.300   3.038 -0.0008  0.1943 -0.0998
 4832TIP3   OH214459   4.128   3.317   1.990  0.2136 -0.6794 -0.5781
 4832TIP3    H114460   4.101   3.391   2.045  0.7854  0.3197 -1.5909
 4832TIP3    H214461   4.220   3.304   2.012  0.2194 -0.8273 -0.6907
 4833TIP3   OH214462   1.387   3.917   3.760 -0.3423  0.4832  0.1370
 4833TIP3    H114463   1.337   3.836   3.769  1.5076 -0.9334 -1.4418
 4833TIP3    H214464   1.406   3.943   3.850 -1.5370 -0.4563  0.6996
 4834TIP3   OH214465   6.357   6.551   0.871  0.0448  0.0217  0.1722
 4834TIP3    H114466   6.296   6.498   0.819  0.5119 -0.6077  0.2436
 4834TIP3    H214467   6.409   6.598   0.807 -1.1686  1.3465  0.1219
 4835TIP3   OH214468   5.905   3.522   1.648 -0.6886 -0.4938 -0.3156
 4835TIP3    H114469   5.920   3.563   1.563 -0.6548  1.5275  0.6014
 4835TIP3    H214470   5.987   3.535   1.696  0.2262 -3.8080 -0.7208
 4836TIP3   OH214471   1.486   4.094   0.226  0.2830  0.0688 -0.7215
 4836TIP3    H114472   1.401   4.129   0.252  1.3400  2.2664  0.0598
 4836TIP3    H214473   1.526   4.164   0.173  1.8794 -0.5601 -0.4190
 4837TIP3   OH214474   1.414   4.526   4.675 -0.2533 -0.0374  0.1151
 4837TIP3    H114475   1.357   4.593   4.637 -0.3010 -0.0230  0.2112
 4837TIP3    H214476   1.500   4.545   4.638 -0.2269  0.1969  0.2898
 4838TIP3   OH214477   2.783   5.713   4.018  0.0804  0.1484 -0.1213
 4838TIP3    H114478   2.830   5.639   4.056  0.3609  0.5038  0.2304
 4838TIP3    H214479   2.743   5.678   3.939 -1.4127 -0.9087  1.0450
 4839TIP3   OH214480   4.894   3.959   0.295  0.2983  0.3092  0.0239
 4839TIP3    H114481   4.938   3.894   0.240  0.4482  0.4604 -0.0343
 4839TIP3    H214482   4.963   4.017   0.324  0.2435  0.1439  0.4978
 4840TIP3   OH214483   5.976   3.971   2.060 -0.1822 -0.4227  0.3227
 4840TIP3    H114484   6.067   3.985   2.035 -0.1156 -0.2421  0.6604
 4840TIP3    H214485   5.973   3.882   2.094 -0.6756 -1.4189 -2.1592
 4841TIP3   OH214486   6.989   5.886   5.822 -0.0647 -0.5510  0.0460
 4841TIP3    H114487   6.943   5.915   5.901 -2.3964 -1.5651 -0.8392
 4841TIP3    H214488   7.053   5.955   5.805 -1.5094  1.1629  1.1788
 4842TIP3   OH214489   2.954   6.357   3.912 -0.1651 -0.3169 -0.8306
 4842TIP3    H114490   2.971   6.437   3.961  2.0954 -0.6682 -0.9195
 4842TIP3    H214491   2.984   6.287   3.969  2.0220 -0.7677 -2.3728
 4843TIP3   OH214492   3.831   1.101   0.149 -0.4197  0.2686 -0.0745
 4843TIP3    H114493   3.766   1.154   0.104  0.0621  1.9482  1.0960
 4843TIP3    H214494   3.915   1.140   0.125 -0.0685  0.2455  1.0528
 4844TIP3   OH214495   4.055   5.990   2.269  0.5053 -0.4707 -0.7038
 4844TIP3    H114496   4.041   6.084   2.256 -1.3854 -0.6837 -0.4393
 4844TIP3    H214497   3.990   5.965   2.334  0.5378 -2.1033 -1.2714
 4845TIP3   OH214498   2.732   6.299   3.669 -0.0077  0.1974 -0.3712
 4845TIP3    H114499   2.729   6.335   3.757 -0.5670  1.1237 -0.7590
 4845TIP3    H214500   2.641   6.283   3.645 -0.0106  1.6332 -1.4361
 4846TIP3   OH214501   6.797   4.605   4.849 -0.6978  0.5331 -0.5457
 4846TIP3    H114502   6.816   4.697   4.827  0.4102  0.0437 -1.8544
 4846TIP3    H214503   6.736   4.576   4.781 -0.8695  0.2348 -0.2677
 4847TIP3   OH214504   2.439   4.941   4.032 -1.0241 -0.5863 -0.1749
 4847TIP3    H114505   2.344   4.938   4.020 -1.0226  1.1222 -0.9395
 4847TIP3    H214506   2.465   4.850   4.039 -2.6754 -1.1085 -0.3667
 4848TIP3   OH214507   6.733   1.373   4.814  0.2894 -0.4167 -0.1714
 4848TIP3    H114508   6.803   1.419   4.860  0.9758 -0.4476 -1.1451
 4848TIP3    H214509   6.656   1.384   4.869  0.7232  0.8539  0.2073
 4849TIP3   OH214510   0.949   6.351   5.677 -0.2939  0.7524 -0.1406
 4849TIP3    H114511   0.891   6.380   5.748  0.0164  1.9403 -0.3489
 4849TIP3    H214512   1.009   6.290   5.718 -1.0817  0.2534  0.2887
 4850TIP3   OH214513   5.060   2.338   3.513 -0.0942 -0.2388 -0.0068
 4850TIP3    H114514   5.015   2.300   3.589 -0.2399  0.1055  0.0837
 4850TIP3    H214515   4.994   2.393   3.471  0.3812  0.7023  0.4370
 4851TIP3   OH214516   2.514   0.485   5.710 -0.0597 -0.4112  0.3741
 4851TIP3    H114517   2.510   0.402   5.757 -2.0587  0.2269  1.4551
 4851TIP3    H214518   2.490   0.551   5.775  0.1918  0.8895 -0.7824
 4852TIP3   OH214519   4.589   6.646   5.483  0.4826 -0.0436  0.2808
 4852TIP3    H114520   4.501   6.649   5.519  0.3003  0.3443 -0.1956
 4852TIP3    H214521   4.646   6.637   5.560  0.0617  0.2444  0.6282
 4853TIP3   OH214522   3.581   3.116   0.415 -0.1652 -0.4551  0.4756
 4853TIP3    H114523   3.502   3.070   0.442  0.6047  0.0524  4.2224
 4853TIP3    H214524   3.554   3.207   0.405 -0.5501 -0.7191 -1.1675
 4854TIP3   OH214525   2.043   5.916   0.113 -0.2750 -0.1622 -0.0451
 4854TIP3    H114526   2.021   6.001   0.151 -0.8839  0.2468 -1.2412
 4854TIP3    H214527   2.018   5.852   0.180  0.6567  0.5984  1.0751
 4855TIP3   OH214528   7.209   0.759   3.348 -0.1855  0.1746 -0.0744
 4855TIP3    H114529   7.238   0.687   3.292 -0.1240 -1.2416  1.6978
 4855TIP3    H214530   7.135   0.723   3.397  1.4376  0.3849  2.7167
 4856TIP3   OH214531   3.466   1.279   0.521 -0.1732 -0.2166  0.2383
 4856TIP3    H114532   3.504   1.364   0.546 -0.5553  0.3886 -1.1584
 4856TIP3    H214533   3.428   1.245   0.602  0.2528  0.8046  0.8843
 4857TIP3   OH214534   2.189   6.244   2.452 -0.5519  0.1453  0.0686
 4857TIP3    H114535   2.122   6.312   2.460  0.9969  1.9989 -1.5370
 4857TIP3    H214536   2.254   6.266   2.518 -0.1619  0.0823 -0.2875
 4858TIP3   OH214537   5.556   0.067   0.590 -0.4828 -0.5118  0.5406
 4858TIP3    H114538   5.564   0.120   0.511  0.0924  0.4818  1.2402
 4858TIP3    H214539   5.627   0.003   0.584  2.1462  2.0018  2.0145
 4859TIP3   OH214540   1.135   5.239   0.147 -0.6744  0.1055 -0.6928
 4859TIP3    H114541   1.041   5.260   0.149 -1.1100 -1.6862 -0.0173
 4859TIP3    H214542   1.138   5.151   0.110  0.7322  0.0267 -0.4126
 4860TIP3   OH214543   0.427   2.633   1.383 -0.1539  0.0973 -0.3379
 4860TIP3    H114544   0.370   2.637   1.460 -0.3983 -0.9795 -0.4485
 4860TIP3    H214545   0.492   2.702   1.399 -2.6165  2.8485 -1.2195
 4861TIP3   OH214546   0.159   3.178   0.071 -0.0884  0.4519 -0.2169
 4861TIP3    H114547   0.100   3.250   0.050  1.3477  1.4967 -0.7836
 4861TIP3    H214548   0.109   3.099   0.048 -0.4288  1.3734 -2.9789
 4862TIP3   OH214549   1.790   4.274   2.602  0.2416  0.1688  0.8434
 4862TIP3    H114550   1.750   4.208   2.545 -0.0311 -0.0942  1.3315
 4862TIP3    H214551   1.720   4.336   2.619  0.4722  0.5385  0.4643
 4863TIP3   OH214552   1.427   5.635   3.208 -0.0701  0.0394  0.0905
 4863TIP3    H114553   1.463   5.599   3.127  0.3680  0.8660 -0.1016
 4863TIP3    H214554   1.332   5.634   3.196 -0.0144 -0.0715 -0.3263
 4864TIP3   OH214555   6.591   3.500   2.724  0.2501  0.6602 -0.4221
 4864TIP3    H114556   6.625   3.497   2.634 -0.8087 -0.7118 -0.8125
 4864TIP3    H214557   6.502   3.466   2.717  0.1699  0.4614  1.1636
 4865TIP3   OH214558   2.584   4.985   2.766 -0.0961  0.1879  0.1763
 4865TIP3    H114559   2.608   4.914   2.825  0.3865  1.3335  1.4038
 4865TIP3    H214560   2.506   5.024   2.804  1.9733  2.9590  1.9665
 4866TIP3   OH214561   3.242   1.636   2.896 -0.0726 -0.0930 -0.6586
 4866TIP3    H114562   3.272   1.725   2.919 -0.7447 -0.0682  0.1466
 4866TIP3    H214563   3.227   1.640   2.801  0.9461  0.3358 -0.8257
 4867TIP3   OH214564   4.791   6.586   2.371  0.0231 -0.3572  0.4232
 4867TIP3    H114565   4.884   6.588   2.345 -0.1865 -0.5451 -0.3734
 4867TIP3    H214566   4.756   6.669   2.338 -0.2775 -0.6570 -0.0255
 4868TIP3   OH214567   0.959   0.163   3.942 -0.0416  0.0669  0.0045
 4868TIP3    H114568   0.911   0.198   3.867 -0.0468 -1.6381 -0.8462
 4868TIP3    H214569   0.890   0.135   4.003 -0.1529 -1.2808 -0.6949
 4869TIP3   OH214570   1.002   6.243   0.718 -0.2028 -0.4986  0.0066
 4869TIP3    H114571   0.908   6.246   0.705 -0.0969  1.3027 -0.7072
 4869TIP3    H214572   1.035   6.319   0.670  1.6137 -1.0741  0.2568
 4870TIP3   OH214573   1.852   5.202   1.226  0.6237  0.0378 -0.2488
 4870TIP3    H114574   1.920   5.135   1.234  0.7545  0.3108  1.0333
 4870TIP3    H214575   1.888   5.265   1.164  1.0116 -0.4505 -0.5291
 4871TIP3   OH214576   2.631   4.991   3.695 -0.2911 -0.2681 -0.1301
 4871TIP3    H114577   2.598   4.903   3.714  1.2465 -0.6963  0.6592
 4871TIP3    H214578   2.554   5.038   3.660 -1.1619 -1.8652 -0.4562
 4872TIP3   OH214579   3.897   0.006   2.954  0.1942  0.4707 -0.5238
 4872TIP3    H114580   3.903   0.089   3.001 -0.7759 -0.0647  0.5977
 4872TIP3    H214581   3.926   0.027   2.865  2.4460  1.4336  0.3614
 4873TIP3   OH214582   3.921   4.340   0.412 -0.1088  0.0102  0.3698
 4873TIP3    H114583   3.990   4.374   0.356  0.3589 -0.7177  0.4801
 4873TIP3    H214584   3.858   4.300   0.352 -1.3377  2.1766  0.1433
 4874TIP3   OH214585   4.612   5.541   4.240  0.4699 -0.5772 -0.7073
 4874TIP3    H114586   4.533   5.551   4.294 -0.2745 -0.1262 -1.8299
 4874TIP3    H214587   4.630   5.629   4.208  0.1418 -1.0168 -2.1844
 4875TIP3   OH214588   3.617   6.210   1.251  0.2750  0.3514 -0.5284
 4875TIP3    H114589   3.580   6.205   1.163 -1.7442 -0.8202  0.3193
 4875TIP3    H214590   3.668   6.129   1.259  0.3875  0.4163 -0.5853
 4876TIP3   OH214591   6.894   1.736   4.514 -0.3829 -0.0492  0.3754
 4876TIP3    H114592   6.847   1.664   4.555 -0.2125  0.8989  2.3181
 4876TIP3    H214593   6.914   1.796   4.585  1.2940  0.9453 -0.8539
 4877TIP3   OH214594   5.155   2.844   5.378  0.3796 -0.1100  0.1520
 4877TIP3    H114595   5.094   2.906   5.339 -0.0338  0.3496  1.4642
 4877TIP3    H214596   5.240   2.869   5.343  0.3417  1.7336  1.2176
 4878TIP3   OH214597   5.576   0.220   3.942  1.0468  0.1553  0.3884
 4878TIP3    H114598   5.513   0.169   3.993 -1.4670  1.8596 -0.8230
 4878TIP3    H214599   5.602   0.161   3.871 -0.2555 -0.1463  0.1382
 4879TIP3   OH214600   0.318   4.777   1.707  0.3646  0.4070  0.0362
 4879TIP3    H114601   0.288   4.696   1.748  1.2200 -0.5975 -1.2033
 4879TIP3    H214602   0.239   4.829   1.695 -0.1579 -0.1079  1.1377
 4880TIP3   OH214603   6.967   4.275   3.395  0.1387 -0.1788 -0.1303
 4880TIP3    H114604   7.026   4.240   3.328  0.8734  0.0983  0.3549
 4880TIP3    H214605   7.023   4.288   3.471 -0.1351  1.7609 -0.1954
 4881TIP3   OH214606   2.399   0.418   3.227  0.3029  0.3517  0.0237
 4881TIP3    H114607   2.472   0.390   3.171 -1.0515 -1.8240 -0.7905
 4881TIP3    H214608   2.405   0.362   3.304 -0.3464  0.2876  0.0374
 4882TIP3   OH214609   4.295   4.543   2.266  0.5313  0.8956  0.0601
 4882TIP3    H114610   4.276   4.487   2.190 -0.3690  1.6908 -0.3328
 4882TIP3    H214611   4.309   4.630   2.228  1.1979  1.0788  0.7193
 4883TIP3   OH214612   5.200   2.337   2.517  0.2897 -0.2365  0.0283
 4883TIP3    H114613   5.154   2.322   2.599 -1.1700 -0.2207 -0.7431
 4883TIP3    H214614   5.165   2.270   2.458  0.0842  0.7743 -1.0325
 4884TIP3   OH214615   5.498   0.081   2.855 -0.1809 -0.0030 -0.0966
 4884TIP3    H114616   5.469   0.083   2.763 -0.0543  1.1144 -0.1350
 4884TIP3    H214617   5.423   0.048   2.903  0.0100 -1.3314 -0.6840
 4885TIP3   OH214618   3.040   3.599   0.303  0.1085  0.4296  0.1893
 4885TIP3    H114619   3.104   3.617   0.235 -0.0028  0.0377 -0.0225
 4885TIP3    H214620   3.024   3.505   0.297 -1.0057  0.6277 -0.2350
 4886TIP3   OH214621   6.683   0.517   2.850  0.4879 -0.2923  0.0312
 4886TIP3    H114622   6.731   0.557   2.923  0.1736  1.0222 -0.4617
 4886TIP3    H214623   6.718   0.560   2.772 -0.9391  0.1455 -0.4004
 4887TIP3   OH214624   0.685   0.038   5.031  0.0845  0.0704  0.3685
 4887TIP3    H114625   0.659   0.030   4.939  1.4309 -2.5717  0.1203
 4887TIP3    H214626   0.779   0.019   5.031 -0.0696 -0.9734  2.3762
 4888TIP3   OH214627   7.001   0.874   3.146 -0.1676  0.4791 -0.5320
 4888TIP3    H114628   6.996   0.831   3.232 -0.5675 -0.2069 -0.8900
 4888TIP3    H214629   7.092   0.903   3.139 -0.3113  1.2106  0.4352
 4889TIP3   OH214630   1.102   1.175   0.260  0.1654 -0.2286  1.1722
 4889TIP3    H114631   1.178   1.128   0.225 -1.3499 -0.6937 -1.8779
 4889TIP3    H214632   1.133   1.265   0.273  1.5443 -0.6778  1.1757
 4890TIP3   OH214633   1.791   3.255   4.484 -0.3631 -0.4597  0.3412
 4890TIP3    H114634   1.731   3.232   4.413 -1.6096  0.6003  1.0085
 4890TIP3    H214635   1.803   3.174   4.533 -0.8210 -0.8118 -0.1191
 4891TIP3   OH214636   5.682   2.004   2.845  0.1019 -0.4141 -0.3140
 4891TIP3    H114637   5.728   2.087   2.832 -1.8040  0.7287 -0.1581
 4891TIP3    H214638   5.664   1.973   2.757  0.6100 -0.5635 -0.3711
 4892TIP3   OH214639   5.570   2.710   2.079  0.2775  0.4649  0.1341
 4892TIP3    H114640   5.642   2.672   2.129  0.3914  0.1141 -0.3000
 4892TIP3    H214641   5.610   2.739   1.997 -0.1829 -0.2568 -0.3535
 4893TIP3   OH214642   4.020   5.997   3.971  0.1822  0.0206  0.1184
 4893TIP3    H114643   4.078   6.045   4.031 -0.2056  0.5382  0.0857
 4893TIP3    H214644   4.056   6.013   3.884  1.0064 -1.0975  0.2431
 4894TIP3   OH214645   5.420   0.412   0.124 -0.6628 -0.5826  0.4626
 4894TIP3    H114646   5.417   0.385   0.032 -1.3913  0.8042  0.0483
 4894TIP3    H214647   5.390   0.335   0.172  0.7899 -1.7137 -0.3460
 4895TIP3   OH214648   0.497   0.980   4.376  0.2053 -0.3631  0.1779
 4895TIP3    H114649   0.576   0.927   4.363  0.5238  0.4770 -1.6986
 4895TIP3    H214650   0.489   0.988   4.471  2.0247 -1.0043  0.4313
 4896TIP3   OH214651   2.171   0.303   4.155 -0.8829 -0.1389 -0.1151
 4896TIP3    H114652   2.100   0.338   4.209 -0.6212 -0.9306  0.7841
 4896TIP3    H214653   2.152   0.209   4.150  0.1322 -0.3749  0.2104
 4897TIP3   OH214654   5.913   5.481   3.233 -0.2510  0.1213 -0.0715
 4897TIP3    H114655   5.969   5.473   3.309  1.7900  1.3684 -1.3496
 4897TIP3    H214656   5.917   5.395   3.191  0.0473 -0.0426  0.2950
 4898TIP3   OH214657   3.199   2.724   2.991  0.4056 -0.4112 -0.1045
 4898TIP3    H114658   3.131   2.688   3.047  0.1502  1.6146  0.9542
 4898TIP3    H214659   3.181   2.686   2.904 -1.9709 -0.0362  0.1681
 4899TIP3   OH214660   6.781   4.292   1.090 -0.3057 -0.0264  0.2461
 4899TIP3    H114661   6.853   4.294   1.154  0.3251  0.2274 -0.4660
 4899TIP3    H214662   6.768   4.199   1.073 -1.3339 -0.1836  1.6770
 4900TIP3   OH214663   3.143   3.688   1.081  0.0168 -0.4619  0.1162
 4900TIP3    H114664   3.202   3.726   1.146  0.7252  0.8378 -1.2127
 4900TIP3    H214665   3.072   3.751   1.074  2.0365  1.8001 -3.3496
 4901TIP3   OH214666   3.739   4.023   1.569 -0.1371  0.5066 -0.3354
 4901TIP3    H114667   3.818   3.970   1.557 -0.2036  0.6481 -1.6158
 4901TIP3    H214668   3.700   4.027   1.481 -2.0048 -0.2118  0.4290
 4902TIP3   OH214669   3.767   0.488   5.795 -0.2076 -0.8725  0.0306
 4902TIP3    H114670   3.674   0.510   5.793 -0.0674 -0.2718 -0.1636
 4902TIP3    H214671   3.782   0.454   5.884 -0.4028  0.0210  0.4176
 4903TIP3   OH214672   3.047   5.078   2.055 -0.0187  0.5207  0.3917
 4903TIP3    H114673   3.041   5.171   2.073  1.0896  0.5199  0.8625
 4903TIP3    H214674   3.029   5.036   2.139 -1.0105  0.2775  0.0736
 4904TIP3   OH214675   4.335   4.464   0.519  0.2464 -0.3612 -0.1884
 4904TIP3    H114676   4.395   4.391   0.504  0.3188 -0.5505  0.8948
 4904TIP3    H214677   4.387   4.528   0.567 -0.5202 -0.7426  1.2105
 4905TIP3   OH214678   5.697   4.603   2.008  0.8246 -0.0587 -0.8527
 4905TIP3    H114679   5.772   4.548   1.984  1.3458 -0.7435  1.9733
 4905TIP3    H214680   5.691   4.595   2.103  0.0719  3.7482 -0.4303
 4906TIP3   OH214681   5.604   1.753   3.333  0.2870  0.2982  0.0194
 4906TIP3    H114682   5.647   1.669   3.319  2.6776  1.1511  1.5670
 4906TIP3    H214683   5.511   1.732   3.338  0.8293 -2.3263  0.7312
 4907TIP3   OH214684   3.881   2.659   3.446 -0.4674  0.1467  0.4685
 4907TIP3    H114685   3.801   2.631   3.491 -0.5580  0.6494  0.6260
 4907TIP3    H214686   3.908   2.582   3.396 -1.0288 -0.0435  0.4462
 4908TIP3   OH214687   1.150   1.090   3.343 -0.1357 -0.0279  0.4538
 4908TIP3    H114688   1.236   1.106   3.306 -0.3583  0.8800  0.3033
 4908TIP3    H214689   1.161   1.100   3.438  0.0566 -0.5696  0.4918
 4909TIP3   OH214690   6.952   5.911   1.942 -0.1092  0.3623 -0.0025
 4909TIP3    H114691   6.874   5.929   1.996 -0.8553 -1.1448 -0.5240
 4909TIP3    H214692   6.992   5.834   1.982  0.6288  0.6097 -0.2570
 4910TIP3   OH214693   3.377   6.433   4.630  0.2983 -0.0599  0.0530
 4910TIP3    H114694   3.322   6.424   4.708 -0.0932 -0.6347 -0.2811
 4910TIP3    H214695   3.465   6.450   4.664 -0.2018  1.5947  0.5861
 4911TIP3   OH214696   3.950   0.907   3.245  0.4071 -0.3761 -0.2326
 4911TIP3    H114697   4.037   0.926   3.210 -0.0825  0.6002 -0.9649
 4911TIP3    H214698   3.902   0.990   3.237 -0.8066 -1.0781 -0.4652
 4912TIP3   OH214699   4.495   3.237   2.455  0.3775  0.0093 -0.5930
 4912TIP3    H114700   4.424   3.176   2.436  0.6527 -0.3721 -0.4242
 4912TIP3    H214701   4.561   3.217   2.388  0.1817  0.6036 -0.9674
 4913TIP3   OH214702   6.305   5.996   3.566  0.0708  0.3955  0.5548
 4913TIP3    H114703   6.228   5.939   3.556  0.5683 -0.1820 -0.1091
 4913TIP3    H214704   6.276   6.081   3.532 -0.8222  0.7019  1.9839
 4914TIP3   OH214705   3.858   0.100   1.649  0.1218 -0.3876 -0.3736
 4914TIP3    H114706   3.871   0.105   1.744  1.4958  1.3950 -0.5978
 4914TIP3    H214707   3.873   0.008   1.628 -0.7395 -0.9236  1.1807
 4915TIP3   OH214708   5.831   5.744   3.405  0.6040  0.6017 -0.3943
 4915TIP3    H114709   5.851   5.817   3.347  2.7838 -0.3967 -0.9778
 4915TIP3    H214710   5.835   5.667   3.349 -0.1278 -0.1286  0.5225
 4916TIP3   OH214711   3.933   5.062   0.946 -0.4489 -0.2728 -0.0478
 4916TIP3    H114712   3.975   5.043   1.030  1.1222  0.8607 -0.5410
 4916TIP3    H214713   4.005   5.065   0.883 -1.6884 -1.9856 -1.6399
 4917TIP3   OH214714   0.051   4.308   4.839  0.2329 -0.5046  0.4041
 4917TIP3    H114715   0.009   4.222   4.839 -1.4523  0.2607 -1.1877
 4917TIP3    H214716   0.018   4.351   4.761  2.2715  1.0376  0.3153
 4918TIP3   OH214717   0.613   5.809   3.923  0.2080 -0.3671  0.0487
 4918TIP3    H114718   0.528   5.853   3.931 -0.0293 -0.9113  0.6271
 4918TIP3    H214719   0.621   5.758   4.004  1.5488  0.4691  0.4777
 4919TIP3   OH214720   5.383   4.121   2.944 -0.5581 -0.3563  0.2968
 4919TIP3    H114721   5.388   4.190   3.010  1.9112  2.1812 -2.1950
 4919TIP3    H214722   5.393   4.040   2.993 -0.1115  1.2623  3.1199
 4920TIP3   OH214723   3.820   3.450   4.983  0.3797  0.5446  0.1722
 4920TIP3    H114724   3.802   3.532   5.029  0.9987  0.9387 -0.2773
 4920TIP3    H214725   3.866   3.476   4.904  0.2962 -0.2175 -0.1385
 4921TIP3   OH214726   6.962   6.007   3.253  0.0399  0.0971  0.4549
 4921TIP3    H114727   7.034   5.960   3.211  0.0917  0.6836 -0.1355
 4921TIP3    H214728   6.887   5.992   3.196  0.0210  0.6016  0.3428
 4922TIP3   OH214729   2.327   5.322   4.561  0.1109 -0.7258 -0.1993
 4922TIP3    H114730   2.355   5.234   4.535  0.0358 -0.0586 -2.7595
 4922TIP3    H214731   2.392   5.381   4.522 -0.4301  0.4244  0.5776
 4923TIP3   OH214732   1.656   0.031   3.413  0.6040 -0.4243 -0.8281
 4923TIP3    H114733   1.597   0.077   3.353 -0.2877 -0.1886  0.1781
 4923TIP3    H214734   1.609   0.033   3.497  1.9096 -0.5265 -0.0737
 4924TIP3   OH214735   1.928   3.582   0.836  0.2118 -0.1958  0.0063
 4924TIP3    H114736   1.966   3.510   0.785  3.1602  1.0149  0.2522
 4924TIP3    H214737   1.922   3.547   0.925 -1.2879 -1.0770 -0.4182
 4925TIP3   OH214738   5.975   1.358   4.547 -0.6878 -0.1438  0.0633
 4925TIP3    H114739   6.066   1.369   4.520 -0.1822 -0.8735  1.3807
 4925TIP3    H214740   5.929   1.435   4.511  0.4425  0.2551 -0.5652
 4926TIP3   OH214741   1.054   2.478   1.812  0.4482  0.0137  0.0698
 4926TIP3    H114742   1.063   2.518   1.725 -0.3874 -0.0200 -0.0487
 4926TIP3    H214743   1.058   2.552   1.873 -1.9040  0.4620 -0.1957
 4927TIP3   OH214744   2.215   5.487   2.175 -0.1755  0.2265  0.1824
 4927TIP3    H114745   2.154   5.484   2.101  0.3587  0.6573 -0.2868
 4927TIP3    H214746   2.299   5.460   2.138  0.1839  0.8190  0.5388
 4928TIP3   OH214747   6.349   0.647   0.003  0.7111  0.2616  0.2531
 4928TIP3    H114748   6.269   0.623   0.049 -0.0029 -0.7021 -1.3818
 4928TIP3    H214749   6.420   0.633   0.066 -0.3129  0.1317  1.3925
 4929TIP3   OH214750   0.634   2.278   2.599  0.0018  0.2981 -0.1888
 4929TIP3    H114751   0.599   2.227   2.672  0.4807 -1.3688 -1.0923
 4929TIP3    H214752   0.599   2.235   2.521  0.4850  1.3190 -0.9914
 4930TIP3   OH214753   6.189   3.056   0.892 -0.0726 -0.3238 -0.2967
 4930TIP3    H114754   6.167   3.006   0.813  0.9356 -1.0827 -0.1148
 4930TIP3    H214755   6.217   3.141   0.860 -1.4895  0.0428 -0.6341
 4931TIP3   OH214756   6.427   2.049   3.527 -0.0331 -0.0700 -0.1930
 4931TIP3    H114757   6.515   2.087   3.522  0.6702 -1.6560 -0.7966
 4931TIP3    H214758   6.379   2.107   3.585  1.3639  0.9393  0.0148
 4932TIP3   OH214759   4.122   5.691   1.157 -0.5131 -0.5125  0.1363
 4932TIP3    H114760   4.108   5.759   1.222 -0.7382  0.7483 -1.1812
 4932TIP3    H214761   4.046   5.695   1.100 -0.0966 -1.2442 -0.5023
 4933TIP3   OH214762   3.068   5.051   3.257  0.1116  0.1471 -0.5647
 4933TIP3    H114763   3.047   5.058   3.350  0.7531  0.9622 -0.4729
 4933TIP3    H214764   3.022   4.972   3.229  1.8708 -1.5422  0.9900
 4934TIP3   OH214765   5.086   5.922   0.033 -1.0460  0.5261  0.3659
 4934TIP3    H114766   5.174   5.906   0.067 -0.9853  1.2841  0.5976
 4934TIP3    H214767   5.032   5.852   0.068 -0.6679  0.4408  0.7776
 4935TIP3   OH214768   4.772   0.756   2.263 -0.2833  0.0024  0.8142
 4935TIP3    H114769   4.743   0.692   2.328  0.1681 -0.2192  0.7956
 4935TIP3    H214770   4.690   0.793   2.229 -0.6068 -1.3296  0.0438
 4936TIP3   OH214771   1.851   6.614   5.066 -0.2516  0.0133  0.5609
 4936TIP3    H114772   1.776   6.561   5.039 -0.0209  0.1850 -0.4447
 4936TIP3    H214773   1.812   6.693   5.103 -0.5731 -0.0772  0.4218
 4937TIP3   OH214774   5.367   3.315   0.255 -0.8690 -0.1672 -0.2965
 4937TIP3    H114775   5.378   3.220   0.250 -0.4412 -0.2891  1.7295
 4937TIP3    H214776   5.305   3.328   0.327 -1.6156  1.0800 -1.1356
 4938TIP3   OH214777   2.585   0.683   0.380  0.2235 -0.5926  0.9198
 4938TIP3    H114778   2.601   0.624   0.453 -1.2209 -2.0232  0.1584
 4938TIP3    H214779   2.501   0.654   0.344  0.3583  0.7786 -0.6308
 4939TIP3   OH214780   0.310   6.304   5.439 -0.1177  0.5145 -0.2137
 4939TIP3    H114781   0.377   6.345   5.384  1.5005  0.2685  1.4902
 4939TIP3    H214782   0.273   6.377   5.489 -0.1340  0.4662 -0.1550
 4940TIP3   OH214783   6.031   0.630   5.726  0.8315 -0.3281  0.4239
 4940TIP3    H114784   6.005   0.722   5.728  3.0889  0.3708  0.3138
 4940TIP3    H214785   6.124   0.631   5.751  1.6292 -2.2664 -2.0181
 4941TIP3   OH214786   1.628   2.902   2.902 -0.2199 -0.4799 -0.5442
 4941TIP3    H114787   1.562   2.970   2.913  1.8809  2.0560 -2.2592
 4941TIP3    H214788   1.631   2.886   2.808  0.1562 -2.1437 -0.2869
 4942TIP3   OH214789   6.290   4.136   1.467 -0.8981  0.2176 -0.5387
 4942TIP3    H114790   6.283   4.174   1.380 -1.0382  0.2088 -0.5322
 4942TIP3    H214791   6.337   4.201   1.519  3.0261 -1.4396 -1.6354
 4943TIP3   OH214792   0.147   5.962   5.835 -0.1333 -0.0879 -0.1029
 4943TIP3    H114793   0.062   6.005   5.830  0.2774  0.7478 -0.0888
 4943TIP3    H214794   0.210   6.030   5.811  0.6650 -0.2428  1.4027
 4944TIP3   OH214795   6.700   5.844   2.505  0.2664  0.6627  0.5672
 4944TIP3    H114796   6.773   5.901   2.481  0.1916  0.3143 -0.5768
 4944TIP3    H214797   6.633   5.863   2.439 -0.1907  0.0907  0.8645
 4945TIP3   OH214798   2.515   1.065   1.194 -0.3241  0.1460 -0.2334
 4945TIP3    H114799   2.419   1.064   1.199 -0.3366  0.5415 -0.3550
 4945TIP3    H214800   2.542   1.126   1.263 -0.1177 -0.5624  0.3245
 4946TIP3   OH214801   6.939   1.418   5.388  0.3406  0.3547  0.2265
 4946TIP3    H114802   6.892   1.473   5.451 -0.8923 -0.9325  0.4798
 4946TIP3    H214803   6.967   1.342   5.439  1.3788  0.3953 -0.2730
 4947TIP3   OH214804   3.752   2.352   1.552  1.1455  0.2305 -0.8546
 4947TIP3    H114805   3.827   2.391   1.506  1.5519  0.0990 -0.3212
 4947TIP3    H214806   3.678   2.407   1.528  1.5754  0.8979 -0.6864
 4948TIP3   OH214807   3.736   3.736   4.511 -0.5618  0.7526  0.4787
 4948TIP3    H114808   3.692   3.799   4.455 -0.3936 -0.0300 -0.5534
 4948TIP3    H214809   3.828   3.742   4.487 -0.3912  0.8552  1.1243
 4949TIP3   OH214810   5.665   3.184   3.905  0.4620 -0.3547  0.5781
 4949TIP3    H114811   5.606   3.197   3.979  0.8900 -0.5167  0.9514
 4949TIP3    H214812   5.634   3.103   3.864  0.8752 -0.8516  1.2171
 4950TIP3   OH214813   6.063   6.147   3.187 -0.4375 -0.5945  0.0974
 4950TIP3    H114814   6.131   6.124   3.250  3.5744  2.1121 -2.8216
 4950TIP3    H214815   6.010   6.213   3.232  2.0054  0.9197  0.9203
 4951TIP3   OH214816   4.341   5.032   2.532  0.2868  0.3072 -0.6888
 4951TIP3    H114817   4.273   4.971   2.503 -1.7485  1.5381  1.1405
 4951TIP3    H214818   4.340   5.026   2.628 -0.0886  3.1794 -0.4091
 4952TIP3   OH214819   2.320   1.060   3.985  0.5546  0.0153 -0.2715
 4952TIP3    H114820   2.401   1.110   3.975  1.1913 -0.8528  0.3204
 4952TIP3    H214821   2.348   0.968   3.980 -0.2016 -0.3268  1.1433
 4953TIP3   OH214822   0.143   2.628  -0.003 -0.0649  0.4232  0.4161
 4953TIP3    H114823   0.098   2.666   0.072  2.2028  0.9509  1.6312
 4953TIP3    H214824   0.160   2.537   0.022 -0.6213  0.1727 -0.1073
 4954TIP3   OH214825   2.835   4.163   3.869 -0.2732 -0.4046  0.0377
 4954TIP3    H114826   2.883   4.242   3.893 -0.3527 -0.3537  0.0309
 4954TIP3    H214827   2.883   4.092   3.910  0.5161 -0.4800 -0.9912
 4955TIP3   OH214828   6.799   3.753   0.569 -0.1411 -0.0785  0.1708
 4955TIP3    H114829   6.861   3.682   0.553 -0.2380  0.0558 -0.8365
 4955TIP3    H214830   6.847   3.833   0.546 -0.2713  0.1382  0.6204
 4956TIP3   OH214831   5.115   6.666   4.529  0.1415 -0.0178  0.0673
 4956TIP3    H114832   5.127   6.651   4.623 -1.6277 -0.1108  0.3190
 4956TIP3    H214833   5.141   6.757   4.516 -1.1554  0.5222  1.0057
 4957TIP3   OH214834   5.403   4.742   4.512 -0.4550 -0.2005  0.5432
 4957TIP3    H114835   5.372   4.770   4.426 -0.7045 -1.6388  0.1501
 4957TIP3    H214836   5.378   4.814   4.570  0.5417  1.2214 -0.7065
 4958TIP3   OH214837   5.041   4.194   1.061 -0.0056 -0.4779  0.0937
 4958TIP3    H114838   4.988   4.178   1.139  1.4699 -2.7287  0.7290
 4958TIP3    H214839   5.004   4.135   0.994  0.8929 -1.1672  0.1850
 4959TIP3   OH214840   3.137   4.779   0.239  0.5366  0.1499 -0.1160
 4959TIP3    H114841   3.170   4.836   0.308  0.7953  0.0605 -0.1664
 4959TIP3    H214842   3.045   4.803   0.231  0.5003  0.1524  0.2690
 4960TIP3   OH214843   5.095   3.435   3.803  0.5458  0.1156 -0.2284
 4960TIP3    H114844   5.112   3.515   3.853  1.5587  0.6037 -1.2853
 4960TIP3    H214845   5.173   3.381   3.819 -0.4985 -1.0613  1.1520
 4961TIP3   OH214846   6.156   0.249   3.897 -0.0904  0.0089  0.2983
 4961TIP3    H114847   6.212   0.319   3.930  1.3671 -0.3562 -1.2660
 4961TIP3    H214848   6.143   0.190   3.972  0.2387  0.9592  1.1097
 4962TIP3   OH214849   1.857   3.824   4.390 -0.5190 -0.7698 -0.2773
 4962TIP3    H114850   1.842   3.915   4.415  2.7904 -0.5375  1.3915
 4962TIP3    H214851   1.949   3.808   4.410 -0.7725 -4.3033 -1.2118
 4963TIP3   OH214852   5.539   6.337   2.068  0.0756 -0.8407  0.4846
 4963TIP3    H114853   5.450   6.370   2.056  0.5734  0.0151 -1.2244
 4963TIP3    H214854   5.552   6.275   1.996  0.6240 -1.5133  1.1472
 4964TIP3   OH214855   6.644   3.392   3.902 -0.3845  0.1501 -0.7609
 4964TIP3    H114856   6.587   3.461   3.936 -0.5559 -0.1319 -0.4736
 4964TIP3    H214857   6.609   3.311   3.940  1.7722  0.1930  1.5788
 4965TIP3   OH214858   3.619   2.632   1.736 -0.5668  0.1235 -0.4787
 4965TIP3    H114859   3.627   2.599   1.647 -0.4226 -1.7857  0.1857
 4965TIP3    H214860   3.697   2.686   1.749  0.3213 -1.0024 -0.9654
 4966TIP3   OH214861   0.540   2.120   5.514 -0.0795  0.1120 -0.4915
 4966TIP3    H114862   0.474   2.190   5.512 -0.8127 -0.5573 -0.0659
 4966TIP3    H214863   0.623   2.167   5.520 -0.6524  0.9485  2.1778
 4967TIP3   OH214864   6.393   6.523   4.471  0.3075  0.5080 -0.0175
 4967TIP3    H114865   6.398   6.464   4.546 -0.1615 -0.6291 -0.8435
 4967TIP3    H214866   6.433   6.605   4.501  0.8247 -0.1760  1.2101
 4968TIP3   OH214867   6.061   2.543   5.558 -0.5443 -0.3299  0.1548
 4968TIP3    H114868   6.143   2.518   5.514 -0.8557 -0.8862 -0.1252
 4968TIP3    H214869   6.067   2.503   5.645 -0.6731 -0.6870  0.0036
 4969TIP3   OH214870   4.050   2.474   3.248  0.1796 -0.3474 -0.2432
 4969TIP3    H114871   4.076   2.505   3.161 -0.9718 -0.1742 -0.5408
 4969TIP3    H214872   4.062   2.379   3.244  1.8665 -0.1800  0.0331
 4970TIP3   OH214873   0.070   1.456   4.035  0.6461  0.3979 -0.5257
 4970TIP3    H114874  -0.022   1.440   4.016  0.0143  2.8001  0.1059
 4970TIP3    H214875   0.101   1.509   3.962  1.3872  0.0608 -0.4623
 4971TIP3   OH214876   2.875   0.868   4.780 -0.6121  0.2088 -0.0059
 4971TIP3    H114877   2.841   0.889   4.867 -0.5064 -0.3436  0.1769
 4971TIP3    H214878   2.907   0.951   4.745  0.1572  0.2839  0.8369
 4972TIP3   OH214879   5.602   5.365   3.095 -0.6077 -0.2788  0.4464
 4972TIP3    H114880   5.598   5.321   3.009  1.8390 -0.0781  0.1581
 4972TIP3    H214881   5.576   5.455   3.076  0.7181 -0.0281 -0.2799
 4973TIP3   OH214882   2.476   6.203   4.540 -0.4087  0.0090  0.1521
 4973TIP3    H114883   2.532   6.261   4.592 -1.4265  0.0613  1.2268
 4973TIP3    H214884   2.537   6.153   4.486  0.5362  1.5957 -0.3269
 4974TIP3   OH214885   1.576   3.193   2.693  0.1263 -0.1423  0.4422
 4974TIP3    H114886   1.531   3.222   2.614  2.7091  2.9965 -0.0749
 4974TIP3    H214887   1.556   3.261   2.758  2.1588  0.1230  0.8642
 4975TIP3   OH214888   3.370   5.276   2.757 -0.2552  0.3565  0.2831
 4975TIP3    H114889   3.338   5.363   2.736  2.7418  1.2416 -1.1026
 4975TIP3    H214890   3.378   5.275   2.853 -0.1030  1.6720  0.2918
 4976TIP3   OH214891   5.583   3.495   0.097  0.2123  0.2730  0.0817
 4976TIP3    H114892   5.635   3.567   0.131  0.1719 -0.0682  0.8815
 4976TIP3    H214893   5.526   3.469   0.170 -1.4837  0.9905 -0.9068
 4977TIP3   OH214894   4.671   3.140   0.264 -0.2765 -0.0859 -0.6520
 4977TIP3    H114895   4.646   3.219   0.312 -0.5276 -1.3715  1.4886
 4977TIP3    H214896   4.649   3.159   0.173 -2.3319  1.5254  0.1041
 4978TIP3   OH214897   4.155   0.287   5.819  0.4384 -0.1867  0.1766
 4978TIP3    H114898   4.170   0.317   5.729 -0.6441  1.7558  0.5771
 4978TIP3    H214899   4.220   0.334   5.871 -0.0348  0.0147  0.5961
 4979TIP3   OH214900   1.183   4.692   0.420  0.0724 -0.5566  0.8105
 4979TIP3    H114901   1.265   4.735   0.397 -0.4702 -0.4435 -1.0001
 4979TIP3    H214902   1.197   4.600   0.399  0.1352 -0.7580  1.6728
 4980TIP3   OH214903   6.768   0.692   4.453 -0.3573  0.2727  0.3770
 4980TIP3    H114904   6.685   0.646   4.461  0.7730 -1.6798  1.8906
 4980TIP3    H214905   6.832   0.624   4.433  0.9467  1.6823 -0.5030
 4981TIP3   OH214906   0.431   0.386   5.022  0.6337  0.5350  0.1094
 4981TIP3    H114907   0.346   0.413   4.986  0.3893 -0.9033 -0.4756
 4981TIP3    H214908   0.451   0.451   5.089 -0.8292  1.0292  0.0990
 4982TIP3   OH214909   1.170   0.576   5.374 -0.6485  0.0623 -0.6171
 4982TIP3    H114910   1.175   0.490   5.416 -0.6821 -0.6202 -1.9720
 4982TIP3    H214911   1.167   0.638   5.447 -0.2245 -1.0561  0.3789
 4983TIP3   OH214912   1.816   3.312   0.337 -0.5399  0.4458 -0.1322
 4983TIP3    H114913   1.797   3.244   0.401 -1.0718  0.1031 -0.6378
 4983TIP3    H214914   1.731   3.335   0.300 -0.1856  0.1748 -1.1614
 4984TIP3   OH214915   1.731   2.326   2.275  0.3412 -0.3467  0.0134
 4984TIP3    H114916   1.638   2.320   2.297  0.8307 -1.8108  2.0175
 4984TIP3    H214917   1.735   2.392   2.206 -1.9207  1.5402  1.4940
 4985TIP3   OH214918   2.135   5.126   4.351 -0.1595 -0.1857 -0.2271
 4985TIP3    H114919   2.205   5.098   4.409 -0.0636 -0.9649 -0.6953
 4985TIP3    H214920   2.126   5.220   4.367  1.5757  0.1098 -0.7778
 4986TIP3   OH214921   5.145   3.643   0.843  0.3188  0.1991 -0.0635
 4986TIP3    H114922   5.200   3.621   0.918 -0.7718 -0.8558  0.4556
 4986TIP3    H214923   5.068   3.685   0.882  1.0517  2.3795 -0.8322
 4987TIP3   OH214924   6.603   0.287   5.315 -0.0098  0.2794 -0.0943
 4987TIP3    H114925   6.545   0.218   5.347  0.6538 -0.2292  0.0423
 4987TIP3    H214926   6.587   0.290   5.221 -0.5877  0.4649  0.0068
 4988TIP3   OH214927   6.356   1.577   5.073  0.1354 -0.9693  0.0444
 4988TIP3    H114928   6.386   1.489   5.050 -1.1465 -1.2725 -0.6131
 4988TIP3    H214929   6.327   1.614   4.989 -0.5877 -0.4420  0.5184
 4989TIP3   OH214930   1.292   4.327   3.289  0.2773 -0.5750  0.1229
 4989TIP3    H114931   1.385   4.347   3.278 -0.0332  0.6534 -0.3936
 4989TIP3    H214932   1.247   4.406   3.261 -1.0068 -1.8456 -1.5507
 4990TIP3   OH214933   0.033   5.076   4.085 -0.0162  0.4129  0.0018
 4990TIP3    H114934   0.059   5.160   4.047  1.0594  0.6043  1.0930
 4990TIP3    H214935   0.096   5.013   4.050 -0.4794  0.1539 -0.3758
 4991TIP3   OH214936   3.068   4.805   0.985  0.2959  0.0969  0.1551
 4991TIP3    H114937   2.987   4.844   0.952  0.5042 -0.0215 -0.5025
 4991TIP3    H214938   3.081   4.727   0.931  0.3242 -0.4315  0.9137
 4992TIP3   OH214939   3.102   2.415   1.905  0.1507  0.1488  0.3395
 4992TIP3    H114940   3.038   2.473   1.945  0.6484  0.3348  0.8822
 4992TIP3    H214941   3.186   2.442   1.943  0.3214 -1.3023  1.0409
 4993TIP3   OH214942   4.760   5.312   4.271 -0.5009  0.0937  0.2263
 4993TIP3    H114943   4.838   5.335   4.221  0.4135 -0.5611  1.2970
 4993TIP3    H214944   4.699   5.384   4.256  0.1600  0.4347 -0.9258
 4994TIP3   OH214945   1.907   5.862   1.141  0.6809 -0.1479 -0.2761
 4994TIP3    H114946   1.968   5.926   1.178  1.3119 -0.3806 -0.8971
 4994TIP3    H214947   1.880   5.808   1.216 -0.1898  1.0813  0.3392
 4995TIP3   OH214948   3.114   6.053   4.734  0.0120  0.2185  0.3241
 4995TIP3    H114949   3.022   6.077   4.741  0.3091  1.1283  1.5689
 4995TIP3    H214950   3.143   6.090   4.651 -0.7709 -0.2281 -0.1603
 4996TIP3   OH214951   4.917   6.476   4.985  0.3570 -0.4480 -0.1692
 4996TIP3    H114952   4.886   6.537   4.919  0.8473 -1.5597 -1.4627
 4996TIP3    H214953   4.893   6.390   4.952 -0.2583 -0.9990  1.5845
 4997TIP3   OH214954   0.989   1.026   4.303 -0.3479 -0.4618 -0.0597
 4997TIP3    H114955   0.971   1.003   4.394 -1.7297 -1.3524 -0.5266
 4997TIP3    H214956   0.981   1.121   4.299  1.4667 -0.2133  1.0815
 4998TIP3   OH214957   6.230   3.983   1.937  0.6120  0.2711 -0.0234
 4998TIP3    H114958   6.262   3.894   1.946  1.7700  0.8573  2.3494
 4998TIP3    H214959   6.286   4.022   1.869  0.6020 -0.5739 -0.5266
 4999TIP3   OH214960   3.449   4.821   2.370 -0.0773  0.8496 -0.6577
 4999TIP3    H114961   3.525   4.817   2.311  0.0912  0.0543 -0.3925
 4999TIP3    H214962   3.418   4.911   2.362  1.1246  1.3033 -0.4808
 5000TIP3   OH214963   3.688   4.118   2.246  0.4496 -0.2159 -1.0617
 5000TIP3    H114964   3.653   4.153   2.165 -0.8391  0.3656 -0.2849
 5000TIP3    H214965   3.633   4.042   2.265 -0.4233  0.6891  0.1590
 5001TIP3   OH214966   5.970   1.107   2.009 -0.1979  0.4900  0.0837
 5001TIP3    H114967   5.948   1.029   2.059  1.7684  0.5273  1.0913
 5001TIP3    H214968   6.041   1.149   2.058  2.0949  0.3429 -2.8297
 5002TIP3   OH214969   4.063   0.999   3.494  0.2311 -0.0362 -0.4657
 5002TIP3    H114970   4.057   1.095   3.494 -0.0308 -0.0466  0.1635
 5002TIP3    H214971   4.014   0.972   3.417 -0.3023  0.3025 -0.2527
 5003TIP3   OH214972   6.606   6.721   4.093  0.1057 -0.1226  0.0135
 5003TIP3    H114973   6.667   6.764   4.153  1.2043  0.0625 -1.1857
 5003TIP3    H214974   6.584   6.639   4.137  0.6888  0.1139  0.7826
 5004TIP3   OH214975   4.133   1.235   1.682  0.4480  0.1601  0.1581
 5004TIP3    H114976   4.105   1.317   1.643  0.2362 -0.6185 -1.3871
 5004TIP3    H214977   4.183   1.191   1.614 -0.0036 -1.2789  0.7076
 5005TIP3   OH214978   4.803   1.475   4.944 -0.5457  0.5749  0.1865
 5005TIP3    H114979   4.723   1.506   4.902 -0.3640  0.7277 -0.0474
 5005TIP3    H214980   4.799   1.512   5.032 -0.5501  0.8917  0.0545
 5006TIP3   OH214981   2.056   6.113   3.150 -0.0445  0.0215  0.0445
 5006TIP3    H114982   2.103   6.064   3.083  0.7826 -0.6585  1.0873
 5006TIP3    H214983   1.964   6.108   3.123  0.0701 -1.6581 -0.1878
 5007TIP3   OH214984   0.511   4.230   2.356  0.5361  0.5099  0.3459
 5007TIP3    H114985   0.569   4.157   2.333  0.6453  0.9613 -0.8629
 5007TIP3    H214986   0.459   4.245   2.277  0.1290  1.3900  0.7687
 5008TIP3   OH214987   5.982   4.074   4.952  0.0007  0.1225 -0.9449
 5008TIP3    H114988   6.041   4.021   5.007 -1.5647 -1.8867 -1.0805
 5008TIP3    H214989   5.980   4.159   4.996  0.9835 -0.5550  0.5294
 5009TIP3   OH214990   4.607   4.764   1.392 -0.1990  0.2518 -0.5064
 5009TIP3    H114991   4.562   4.702   1.449  2.3858 -0.5850  0.8042
 5009TIP3    H214992   4.611   4.720   1.307 -0.5093 -0.3104 -0.2356
 5010TIP3   OH214993   0.717   1.395   1.663 -0.5969 -0.2093 -0.3270
 5010TIP3    H114994   0.802   1.394   1.619  0.2515  1.0391  1.1455
 5010TIP3    H214995   0.706   1.486   1.692 -2.4616 -0.3384 -0.5046
 5011TIP3   OH214996   3.684   4.507   0.497  0.6594 -0.2898  0.4813
 5011TIP3    H114997   3.738   4.528   0.573  0.1534 -0.9006  1.0251
 5011TIP3    H214998   3.743   4.463   0.436  0.6820 -1.4127  1.2847
 5012TIP3   OH214999   4.953   4.771   2.496 -0.1681 -0.9355 -0.4380
 5012TIP3    H115000   5.011   4.709   2.452 -0.0267 -1.8708  0.9739
 5012TIP3    H215001   4.966   4.753   2.590 -1.8834 -0.3749 -0.0532
 5013TIP3   OH215002   5.312   5.300   5.818  0.0339 -0.3692  0.6973
 5013TIP3    H115003   5.373   5.368   5.848 -1.0642  0.3797  1.2862
 5013TIP3    H215004   5.289   5.325   5.729  0.0534 -0.2647  0.7217
 5014TIP3   OH215005   6.748   4.558   3.602  0.1672  0.2358 -0.3091
 5014TIP3    H115006   6.653   4.551   3.615  0.1415  0.4791 -0.3795
 5014TIP3    H215007   6.783   4.483   3.651  0.0668  1.1118  1.1773
 5015TIP3   OH215008   6.188   3.014   5.729  0.0722 -0.4789 -0.0776
 5015TIP3    H115009   6.192   3.029   5.634 -0.9662 -0.6075 -0.1529
 5015TIP3    H215010   6.105   3.055   5.756  0.3838 -0.4014  0.7863
 5016TIP3   OH215011   4.282   3.247   0.230  0.0389  0.0330  0.6893
 5016TIP3    H115012   4.359   3.282   0.185 -0.9436 -0.9635 -1.9368
 5016TIP3    H215013   4.304   3.157   0.250 -0.0211  0.0892  1.0163
 5017TIP3   OH215014   7.190   5.754   3.479  0.3744 -0.1270 -0.1777
 5017TIP3    H115015   7.215   5.664   3.498  1.1164  0.0897 -0.0855
 5017TIP3    H215016   7.202   5.764   3.385 -1.1831 -0.5589 -0.4428
 5018TIP3   OH215017   6.190   0.175   0.534  0.0478  0.2536  0.6594
 5018TIP3    H115018   6.189   0.251   0.591  0.3632  1.5560 -0.9842
 5018TIP3    H215019   6.207   0.211   0.447 -0.4075 -1.6420 -0.2597
 5019TIP3   OH215020   0.648   5.975   2.145 -0.4452  0.2265  0.0533
 5019TIP3    H115021   0.732   5.975   2.192 -0.2389  1.4326 -0.2664
 5019TIP3    H215022   0.670   5.950   2.056 -0.6908 -1.0880  0.3410
 5020TIP3   OH215023   6.585   1.211   1.590 -0.1914  0.0595 -0.4776
 5020TIP3    H115024   6.660   1.252   1.632 -0.5172  0.9410 -0.7144
 5020TIP3    H215025   6.510   1.235   1.645 -0.1157 -2.2468  0.7236
 5021TIP3   OH215026   1.439   1.241   2.344 -0.0359  0.4955  0.2784
 5021TIP3    H115027   1.429   1.335   2.327 -0.9569  0.5448  0.9997
 5021TIP3    H215028   1.387   1.226   2.423 -1.5716 -0.9854 -0.9369
 5022TIP3   OH215029   1.388   6.247   0.500  0.0947  0.2396  0.1155
 5022TIP3    H115030   1.412   6.182   0.434  1.1763  0.1159  0.6209
 5022TIP3    H215031   1.298   6.223   0.525 -0.7639  0.9332 -2.0538
 5023TIP3   OH215032   2.553   0.426   1.040  0.0792  0.6149  0.3595
 5023TIP3    H115033   2.579   0.411   1.131  1.1511  0.1295 -0.0062
 5023TIP3    H215034   2.607   0.366   0.989 -0.8827  0.5070 -0.5672
 5024TIP3   OH215035   1.635   0.212   0.735 -0.3953  0.1860 -0.2860
 5024TIP3    H115036   1.609   0.257   0.815 -0.1362  0.0169 -0.1058
 5024TIP3    H215037   1.691   0.141   0.765  0.7990  0.9178 -0.7059
 5025TIP3   OH215038   1.833   2.614   3.229 -0.4085 -0.4894  1.1871
 5025TIP3    H115039   1.797   2.556   3.296 -0.8659 -0.2305  1.1704
 5025TIP3    H215040   1.758   2.668   3.202  0.4384  1.5748  2.7198
 5026TIP3   OH215041   1.899   5.253   5.139  0.8511 -0.5434  0.5551
 5026TIP3    H115042   1.804   5.247   5.150  0.6464 -0.3295 -0.9477
 5026TIP3    H215043   1.914   5.342   5.108  1.0773 -1.7244 -3.1386
 5027TIP3   OH215044   1.688   5.459   5.662  0.0521  0.3025  0.1483
 5027TIP3    H115045   1.738   5.450   5.581  1.4203 -1.5631  1.1128
 5027TIP3    H215046   1.708   5.547   5.694 -1.1276  1.3653 -1.8732
 5028TIP3   OH215047   4.269   4.111   1.511  0.0863  0.1602  0.4138
 5028TIP3    H115048   4.236   4.121   1.422 -0.0605 -2.7375  0.0372
 5028TIP3    H215049   4.331   4.184   1.523 -1.0266  1.4854 -1.4560
 5029TIP3   OH215050   5.384   5.890   4.060 -0.1141 -0.0499 -0.1447
 5029TIP3    H115051   5.450   5.920   4.123 -1.0645  1.5130  0.1630
 5029TIP3    H215052   5.333   5.968   4.040  0.7625 -0.2424 -3.6761
 5030TIP3   OH215053   6.714   0.451   4.855 -0.1391  0.1820  0.7350
 5030TIP3    H115054   6.697   0.456   4.761 -0.8691  1.1253  0.9007
 5030TIP3    H215055   6.722   0.543   4.883 -0.0503 -0.0844  1.6155
 5031TIP3   OH215056   5.562   4.196   0.855  0.5277 -0.7094  0.0030
 5031TIP3    H115057   5.516   4.117   0.885  0.5778 -0.3506  1.0448
 5031TIP3    H215058   5.577   4.180   0.762  0.8379 -2.0910  0.2665
 5032TIP3   OH215059   1.536   0.997   4.896  0.2581  0.1808 -0.2334
 5032TIP3    H115060   1.583   0.969   4.975 -1.2114  0.4341  0.7608
 5032TIP3    H215061   1.471   1.060   4.927 -0.5463  0.0788 -1.6181
 5033TIP3   OH215062   6.168   1.239   2.689 -0.5720 -0.3623  0.4999
 5033TIP3    H115063   6.236   1.189   2.735 -0.5211 -1.3880 -0.6241
 5033TIP3    H215064   6.087   1.215   2.734 -0.2857  0.4311  1.4873
 5034TIP3   OH215065   6.874   6.685   3.056 -0.7264  0.0957  0.0249
 5034TIP3    H115066   6.889   6.653   2.966 -0.4762 -0.6605  0.3239
 5034TIP3    H215067   6.918   6.770   3.058  0.6261 -0.5708 -0.1290
 5035TIP3   OH215068   2.367   1.398   2.623  0.2765 -0.1079  0.3065
 5035TIP3    H115069   2.398   1.355   2.703  0.1732 -1.1387 -0.1937
 5035TIP3    H215070   2.362   1.327   2.558  0.8476  0.7990 -0.7584
 5036TIP3   OH215071   4.449   4.949   4.816  0.2217 -0.1667 -0.3637
 5036TIP3    H115072   4.479   4.994   4.737  2.8056  1.2319  1.2709
 5036TIP3    H215073   4.410   4.868   4.784 -0.8811  1.3023 -3.1820
 5037TIP3   OH215074   5.276   6.425   1.907  0.3334 -0.3300  0.0293
 5037TIP3    H115075   5.299   6.358   1.843 -1.2259 -0.0251 -0.9036
 5037TIP3    H215076   5.181   6.432   1.901  0.2346  0.2866  1.8240
 5038TIP3   OH215077   6.429   3.427   0.656  0.4592 -0.6503  0.1029
 5038TIP3    H115078   6.499   3.473   0.609 -1.0482  2.4035  0.5769
 5038TIP3    H215079   6.418   3.476   0.737 -1.8622 -1.3138  0.2671
 5039TIP3   OH215080   4.161   2.892   2.792  0.0240 -0.2392 -0.3699
 5039TIP3    H115081   4.177   2.984   2.769 -1.0949  0.0661 -0.0329
 5039TIP3    H215082   4.121   2.896   2.879 -0.1716 -1.0308 -0.4186
 5040TIP3   OH215083   5.171   5.019   3.381  0.1794  0.0696  0.3174
 5040TIP3    H115084   5.079   5.023   3.356  0.1207 -0.0237  0.5161
 5040TIP3    H215085   5.170   5.023   3.477  0.4426  1.0834  0.2855
 5041TIP3   OH215086   0.652   5.457   1.702 -0.2424 -0.4904 -0.4244
 5041TIP3    H115087   0.618   5.545   1.690  1.1916  0.3671  1.3171
 5041TIP3    H215088   0.591   5.415   1.763 -0.1244 -0.1912 -0.1006
 5042TIP3   OH215089   2.864   3.133   0.329  0.8686 -0.2878 -0.2874
 5042TIP3    H115090   2.815   3.053   0.311 -0.4040  0.9908 -3.0782
 5042TIP3    H215091   2.955   3.110   0.308  0.4649 -0.9091 -1.4666
 5043TIP3   OH215092   0.146   5.282   5.850  0.4185  0.3081  0.0251
 5043TIP3    H115093   0.112   5.194   5.868  0.2400  0.7963  2.3680
 5043TIP3    H215094   0.229   5.267   5.805  0.0146 -1.0343 -0.3136
 5044TIP3   OH215095   0.450   1.360   3.827 -0.1929 -0.6667 -0.4741
 5044TIP3    H115096   0.457   1.288   3.889 -0.4327 -0.5712 -0.3347
 5044TIP3    H215097   0.537   1.399   3.824 -0.4285 -0.0352  0.5730
 5045TIP3   OH215098   7.182   0.342   4.138  0.4288  0.5548 -0.0993
 5045TIP3    H115099   7.219   0.325   4.224  1.0517  1.5860 -0.1493
 5045TIP3    H215100   7.111   0.278   4.129  0.4328  0.3628  1.1259
 5046TIP3   OH215101   4.332   5.779   0.023 -0.3738 -0.2736  0.4091
 5046TIP3    H115102   4.388   5.709   0.055 -1.9067 -1.9637 -0.4392
 5046TIP3    H215103   4.285   5.810   0.101  1.5282  1.0515  1.0961
 5047TIP3   OH215104   0.556   5.939   3.031 -0.1738 -0.2320  0.6514
 5047TIP3    H115105   0.472   5.973   3.001  0.3225  0.0573 -0.4645
 5047TIP3    H215106   0.534   5.881   3.104 -1.0665  2.1868  2.4255
 5048TIP3   OH215107   5.828   4.460   3.601  0.1164  0.5222  0.6427
 5048TIP3    H115108   5.828   4.551   3.630 -1.8187  0.8662 -0.2467
 5048TIP3    H215109   5.811   4.465   3.507  1.4327 -0.7288  0.3038
 5049TIP3   OH215110   3.851   3.117   1.239  0.3376  0.3271 -0.5220
 5049TIP3    H115111   3.763   3.155   1.237  0.1000 -0.1953 -0.2569
 5049TIP3    H215112   3.881   3.121   1.148  0.4553  1.4411 -0.4549
 5050TIP3   OH215113   0.281   2.942   1.474 -0.0085  1.1170  0.0881
 5050TIP3    H115114   0.200   2.915   1.517  1.0185 -1.3392  0.6895
 5050TIP3    H215115   0.339   2.965   1.547  0.7277  0.0130 -0.1232
 5051TIP3   OH215116   3.667   5.012   5.686 -0.0542 -0.5246 -0.5647
 5051TIP3    H115117   3.708   5.084   5.636 -0.2176  1.0418  1.4404
 5051TIP3    H215118   3.574   5.023   5.670 -0.3011  1.3255  1.6260
 5052TIP3   OH215119   0.414   0.699   1.593 -0.2030  0.2005  0.9278
 5052TIP3    H115120   0.368   0.668   1.670  1.1948 -0.4656  1.5247
 5052TIP3    H215121   0.345   0.719   1.530 -1.3767  0.8297  2.3546
 5053TIP3   OH215122   2.927   5.858   5.788 -0.8698  0.5630 -0.3658
 5053TIP3    H115123   2.852   5.914   5.767 -0.9049  1.1050  1.1033
 5053TIP3    H215124   2.890   5.786   5.839 -0.3824  0.9832  0.6178
 5054TIP3   OH215125   6.808   4.105   5.234 -0.4895 -0.7626 -0.0376
 5054TIP3    H115126   6.852   4.053   5.167 -1.0055 -0.3487 -0.7110
 5054TIP3    H215127   6.715   4.097   5.213 -0.7164 -1.2720  1.1058
 5055TIP3   OH215128   4.970   5.608   3.650 -0.4640  0.1936 -0.1860
 5055TIP3    H115129   4.949   5.515   3.659  1.1618 -0.1427  0.4085
 5055TIP3    H215130   4.891   5.653   3.682 -0.9236 -0.9752  0.3969
 5056TIP3   OH215131   4.629   0.445   1.411 -0.4289 -0.1921  0.4345
 5056TIP3    H115132   4.534   0.451   1.427 -0.5022  0.1373 -0.1299
 5056TIP3    H215133   4.640   0.475   1.321  0.0722 -1.3422  0.0880
 5057TIP3   OH215134   3.062   6.688   3.420  0.7492 -0.1724  0.7231
 5057TIP3    H115135   3.129   6.724   3.362  1.1514 -1.0869  0.5919
 5057TIP3    H215136   3.073   6.593   3.412  1.0302 -0.3300  2.5501
 5058TIP3   OH215137   6.104   2.367   1.505  0.7442 -0.3324 -0.7803
 5058TIP3    H115138   6.134   2.388   1.416 -0.2182  0.2796 -0.9623
 5058TIP3    H215139   6.131   2.441   1.558 -1.0734  0.6130 -1.0923
 5059TIP3   OH215140   0.187   2.519   0.683 -0.1695 -0.5593  0.1600
 5059TIP3    H115141   0.188   2.472   0.766 -0.1230 -0.2346  0.3426
 5059TIP3    H215142   0.212   2.453   0.618  1.4412 -0.4384  0.6130
 5060TIP3   OH215143   2.816   1.875   5.688  0.2349 -0.4804  0.3445
 5060TIP3    H115144   2.797   1.818   5.614  1.2073  0.6314 -0.8248
 5060TIP3    H215145   2.883   1.829   5.738 -1.0414 -1.6262  1.0402
 5061TIP3   OH215146   3.386   4.755   0.085 -0.1581  0.5483 -0.4518
 5061TIP3    H115147   3.307   4.802   0.111  0.5426  2.1800 -1.1446
 5061TIP3    H215148   3.448   4.770   0.157  0.3956  1.5677 -1.1180
 5062TIP3   OH215149   1.636   3.919   4.959 -0.0889  0.1672 -1.0519
 5062TIP3    H115150   1.661   3.925   5.052 -0.3654  1.4255 -1.0404
 5062TIP3    H215151   1.717   3.895   4.914  0.3859  0.9130 -0.6323
 5063TIP3   OH215152   6.612   5.850   5.533  0.1948 -0.2290 -0.5885
 5063TIP3    H115153   6.581   5.760   5.527  2.1428 -0.9501 -0.3850
 5063TIP3    H215154   6.626   5.877   5.442 -0.8690  0.0758 -0.6780
 5064TIP3   OH215155   3.352   2.441   3.134 -0.2604 -0.3337  0.3915
 5064TIP3    H115156   3.385   2.365   3.086  0.5296 -0.3331  0.9132
 5064TIP3    H215157   3.257   2.432   3.131 -0.2254 -0.4602 -0.9586
 5065TIP3   OH215158   5.698   2.775   1.843 -0.3129  0.1708  0.5068
 5065TIP3    H115159   5.746   2.842   1.892 -1.4224  0.3300  1.4243
 5065TIP3    H215160   5.658   2.823   1.771 -0.8870  0.4664  1.0091
 5066TIP3   OH215161   3.173   6.462   0.425 -0.4027  0.0769 -0.2228
 5066TIP3    H115162   3.236   6.533   0.440 -0.7004  0.1159  0.9540
 5066TIP3    H215163   3.106   6.501   0.369  1.0788 -0.2498 -2.3576
 5067TIP3   OH215164   5.981   2.501   2.374 -0.2733 -0.7059  0.5296
 5067TIP3    H115165   6.004   2.414   2.343  0.0330 -0.9228  1.3551
 5067TIP3    H215166   5.899   2.488   2.423 -1.2069 -0.2343 -0.8465
 5068TIP3   OH215167   1.561   4.212   2.072 -0.0891  0.2554  0.1006
 5068TIP3    H115168   1.481   4.235   2.119 -0.4081  0.6239 -0.6247
 5068TIP3    H215169   1.541   4.225   1.980  1.4769  2.5265 -0.0212
 5069TIP3   OH215170   6.936   6.461   5.058 -0.4326  0.1186  0.3592
 5069TIP3    H115171   6.967   6.426   5.141 -0.0658 -0.4826 -0.0283
 5069TIP3    H215172   6.983   6.543   5.047  1.3901 -0.9820 -0.4307
 5070TIP3   OH215173   1.291   4.678   1.686 -0.3152  0.0432 -0.0612
 5070TIP3    H115174   1.375   4.648   1.653  1.4165  1.7979  2.3933
 5070TIP3    H215175   1.285   4.769   1.659 -2.4337 -0.5290 -1.8517
 5071TIP3   OH215176   3.114   2.087   2.928 -0.9025  0.6537 -0.1127
 5071TIP3    H115177   3.085   2.124   3.012 -0.4367  1.0340 -0.1185
 5071TIP3    H215178   3.107   2.159   2.866  3.8174  2.0763  0.6278
 5072TIP3   OH215179   6.915   2.917   5.761  0.2863  0.5261  0.5254
 5072TIP3    H115180   7.003   2.940   5.789  1.1898 -0.0886 -1.6057
 5072TIP3    H215181   6.925   2.887   5.670 -2.3966  2.5854 -0.6102
 5073TIP3   OH215182   5.432   0.118   1.888  0.6426 -0.2845 -0.2759
 5073TIP3    H115183   5.483   0.039   1.870 -0.4754 -0.5427 -2.6647
 5073TIP3    H215184   5.357   0.112   1.830 -0.7015  1.4428  1.1646
 5074TIP3   OH215185   6.149   1.710   2.179 -0.0708 -0.1883 -0.1579
 5074TIP3    H115186   6.171   1.716   2.272 -1.8370  0.2612  0.2767
 5074TIP3    H215187   6.165   1.799   2.145 -2.5245  0.6012  0.5266
 5075TIP3   OH215188   5.461   4.492   3.046  0.1406  0.0090 -0.9062
 5075TIP3    H115189   5.429   4.490   2.956  0.2376 -0.4375 -0.9379
 5075TIP3    H215190   5.450   4.402   3.076  3.8883 -0.9337 -1.8373
 5076TIP3   OH215191   2.923   2.775   4.973 -0.3155 -0.1325  0.0713
 5076TIP3    H115192   2.995   2.756   4.913 -0.8923 -1.0117 -0.3730
 5076TIP3    H215193   2.856   2.710   4.951 -0.2764 -0.9452  2.1446
 5077TIP3   OH215194   4.114   5.189   4.237 -0.2933  0.7336 -0.1770
 5077TIP3    H115195   4.182   5.228   4.181 -0.0403  1.5476  0.6882
 5077TIP3    H215196   4.144   5.204   4.326 -0.7597 -0.4468  0.2073
 5078TIP3   OH215197   4.605   4.889   3.987 -0.5235  0.4533 -0.1730
 5078TIP3    H115198   4.680   4.903   3.930 -0.5934  1.2332 -0.0882
 5078TIP3    H215199   4.540   4.952   3.957 -0.4567  1.0825  0.9344
 5079TIP3   OH215200   0.954   2.322   5.388  0.1197 -0.3638  0.7176
 5079TIP3    H115201   0.972   2.312   5.482 -1.3210  0.0771  1.0687
 5079TIP3    H215202   0.900   2.400   5.382 -0.5958 -0.9089 -0.3742
 5080TIP3   OH215203   6.498   2.591   2.086 -0.2514 -0.6630  0.2566
 5080TIP3    H115204   6.556   2.521   2.054 -1.9473 -1.8989 -0.2130
 5080TIP3    H215205   6.486   2.570   2.179  0.6656  0.0618  0.5539
 5081TIP3   OH215206   6.511   3.659   4.808 -0.0101 -0.1994 -0.9813
 5081TIP3    H115207   6.572   3.712   4.859  0.9879  0.2472 -2.5559
 5081TIP3    H215208   6.564   3.590   4.770 -1.0116 -1.3998 -0.2572
 5082TIP3   OH215209   4.125   6.244   0.756  0.1501  0.0248 -0.1466
 5082TIP3    H115210   4.050   6.224   0.700 -1.7044  0.4263  2.0276
 5082TIP3    H215211   4.152   6.160   0.791 -0.2845  0.0431  0.2390
 5083TIP3   OH215212   2.722   2.835   1.858 -0.3956  0.5676  0.2890
 5083TIP3    H115213   2.762   2.852   1.943  2.6443 -0.9244 -0.6731
 5083TIP3    H215214   2.766   2.895   1.798  0.6268 -1.2226 -0.8491
 5084TIP3   OH215215   1.044   6.076   5.146 -0.6044  0.2853 -0.2599
 5084TIP3    H115216   1.043   6.149   5.084 -0.3635  1.1875  0.7644
 5084TIP3    H215217   0.960   6.082   5.192 -0.4717  0.0881  0.0135
 5085TIP3   OH215218   1.853   4.189   3.048 -0.2158 -0.3108 -0.1616
 5085TIP3    H115219   1.902   4.217   3.125 -1.5851 -0.7499  0.9225
 5085TIP3    H215220   1.852   4.093   3.054  0.4719 -0.3956 -1.2609
 5086TIP3   OH215221   5.884   6.445   3.765 -0.2875  0.4528 -0.1249
 5086TIP3    H115222   5.870   6.478   3.676  0.0704  0.9319 -0.0059
 5086TIP3    H215223   5.796   6.442   3.803 -0.4898 -0.1277 -0.6200
 5087TIP3   OH215224   1.482   6.277   1.601  0.0894  0.1955 -0.1031
 5087TIP3    H115225   1.518   6.295   1.514  1.0250 -0.9725  0.0173
 5087TIP3    H215226   1.516   6.190   1.623 -0.9621  0.0486  1.0046
 5088TIP3   OH215227   6.176   4.523   5.404 -0.7964 -0.3930 -0.3560
 5088TIP3    H115228   6.214   4.514   5.491 -0.8650 -0.3260 -0.3185
 5088TIP3    H215229   6.095   4.472   5.408 -2.0881  1.5874  0.4039
 5089TIP3   OH215230   7.017   2.376   4.745  0.3096  0.3373  0.0339
 5089TIP3    H115231   7.067   2.394   4.824  0.6023 -1.2190  0.2507
 5089TIP3    H215232   7.022   2.456   4.694  1.1804  0.9428  1.0309
 5090TIP3   OH215233   5.280   6.114   3.775  0.6149 -0.2787 -0.2788
 5090TIP3    H115234   5.290   6.149   3.686  0.6355  1.9335  0.5355
 5090TIP3    H215235   5.246   6.026   3.762  0.2519  0.1179 -2.4699
 5091TIP3   OH215236   6.900   2.193   5.522  0.3079 -0.2539 -0.2755
 5091TIP3    H115237   6.991   2.168   5.535  0.3766  0.1169 -0.0464
 5091TIP3    H215238   6.880   2.253   5.594  0.2001  0.5067 -0.9170
 5092TIP3   OH215239   5.541   4.400   3.692 -0.2415 -0.5699 -0.3358
 5092TIP3    H115240   5.534   4.489   3.725 -1.0278 -0.8738  0.3606
 5092TIP3    H215241   5.605   4.405   3.621  2.6290 -0.0772  2.0595
 5093TIP3   OH215242   2.088   5.303   5.827  0.2989  0.4400  0.5634
 5093TIP3    H115243   2.163   5.251   5.855 -0.4767 -0.4992  0.9196
 5093TIP3    H215244   2.017   5.240   5.816 -1.1873  1.5864  2.7676
 5094TIP3   OH215245   2.225   1.645   0.552  0.2905  0.1938 -0.4797
 5094TIP3    H115246   2.229   1.665   0.458  1.3672 -1.4188 -0.8212
 5094TIP3    H215247   2.132   1.644   0.572 -0.0367 -0.8540 -1.8931
 5095TIP3   OH215248   5.800   1.831   4.804  0.5029 -0.3019 -0.1426
 5095TIP3    H115249   5.814   1.771   4.877 -0.5329  0.2357  0.5090
 5095TIP3    H215250   5.756   1.907   4.842  1.2311  0.6243 -1.0646
 5096TIP3   OH215251   2.189   2.929   5.296  0.0773 -0.0110 -0.1660
 5096TIP3    H115252   2.165   2.894   5.382  1.8943 -1.5203 -0.1846
 5096TIP3    H215253   2.195   3.023   5.309 -2.2205  0.0806  0.6556
 5097TIP3   OH215254   4.171   2.267   2.202 -0.6017 -0.0790 -0.2014
 5097TIP3    H115255   4.098   2.304   2.152  0.1342  0.9821 -0.5271
 5097TIP3    H215256   4.140   2.180   2.230 -1.8513  0.2205 -0.6082
 5098TIP3   OH215257   3.785   4.236   1.945  0.2871 -0.3135  0.1412
 5098TIP3    H115258   3.794   4.141   1.951  2.0551 -0.1432  1.1564
 5098TIP3    H215259   3.729   4.251   1.869 -0.9761 -2.1816  0.6586
 5099TIP3   OH215260   4.103   3.398   3.781 -0.4551 -0.6488  0.1495
 5099TIP3    H115261   4.178   3.371   3.834 -0.8043 -0.4804  0.7388
 5099TIP3    H215262   4.059   3.465   3.834 -0.1636  0.3658 -0.8590
 5100TIP3   OH215263   1.048   4.786   3.183 -0.9163  0.1393  0.2036
 5100TIP3    H115264   0.990   4.859   3.163 -1.0696 -0.3332 -1.2545
 5100TIP3    H215265   1.134   4.825   3.198 -0.5787  0.5415 -2.3799
 5101TIP3   OH215266   0.475   3.436   4.922  0.7953 -0.2417  0.2041
 5101TIP3    H115267   0.454   3.347   4.892  1.2881 -0.2291 -0.1963
 5101TIP3    H215268   0.399   3.462   4.973 -0.0745 -0.2779 -1.0124
 5102TIP3   OH215269   0.187   2.470   4.739 -0.3079 -1.0878 -0.2376
 5102TIP3    H115270   0.133   2.452   4.815  0.6259 -1.4609  0.3534
 5102TIP3    H215271   0.232   2.387   4.721  0.9320 -0.4904 -0.0020
 5103TIP3   OH215272   1.818   1.504   0.396 -0.1859  0.0466 -0.0881
 5103TIP3    H115273   1.725   1.519   0.408 -0.7805 -1.3717 -2.2653
 5103TIP3    H215274   1.832   1.509   0.302  1.2838 -2.8387 -0.1445
 5104TIP3   OH215275   0.761   5.490   3.810 -0.4265 -0.5476  0.1806
 5104TIP3    H115276   0.692   5.516   3.748 -0.7441 -1.0447  0.3286
 5104TIP3    H215277   0.781   5.571   3.857 -0.8540 -0.3817  0.0862
 5105TIP3   OH215278   0.819   0.342   4.792 -0.0528  0.0623  0.4760
 5105TIP3    H115279   0.724   0.348   4.783 -0.2028  2.5666  2.6105
 5105TIP3    H215280   0.853   0.386   4.714 -0.6668 -0.2373  0.0349
 5106TIP3   OH215281   5.518   2.101   4.364 -0.3841  0.6694  0.0489
 5106TIP3    H115282   5.437   2.051   4.354 -0.4559  1.0875 -1.6013
 5106TIP3    H215283   5.516   2.131   4.455 -2.7282  1.7299 -0.2798
 5107TIP3   OH215284   3.471   2.625   1.233  0.6038 -0.3337  0.1211
 5107TIP3    H115285   3.424   2.542   1.221  1.4196 -0.7708 -0.1064
 5107TIP3    H215286   3.476   2.662   1.145 -0.4920  0.3807  0.3348
 5108TIP3   OH215287   5.536   6.461   3.272  0.3458  0.1142  0.2286
 5108TIP3    H115288   5.526   6.373   3.307  0.6336 -0.1212 -0.2699
 5108TIP3    H215289   5.448   6.498   3.272  0.3912  0.2463  1.5091
 5109TIP3   OH215290   6.922   6.523   2.802 -0.2479 -0.6099 -0.8661
 5109TIP3    H115291   6.839   6.533   2.755 -0.0890  0.2191 -0.9733
 5109TIP3    H215292   6.980   6.587   2.761  0.1689 -0.5327 -0.1511
 5110TIP3   OH215293   0.876   0.092   4.731 -0.0087 -0.0092  0.0523
 5110TIP3    H115294   0.869   0.184   4.756 -0.1791  0.0076 -0.0611
 5110TIP3    H215295   0.890   0.046   4.813 -1.7302 -0.0897  0.3269
 5111TIP3   OH215296   2.214   5.757   4.643 -0.3926 -0.2191 -0.3527
 5111TIP3    H115297   2.146   5.824   4.653  0.0315  0.2298 -0.4330
 5111TIP3    H215298   2.177   5.695   4.580 -1.0675 -0.4298  0.2477
 5112TIP3   OH215299   1.813   3.052   4.685 -0.2129  0.3914 -0.0930
 5112TIP3    H115300   1.747   2.984   4.695 -1.3066  1.3740 -0.5070
 5112TIP3    H215301   1.889   3.007   4.647 -0.1420 -1.0119  1.6065
 5113TIP3   OH215302   3.242   4.387   5.166  0.3901  0.3373  0.5018
 5113TIP3    H115303   3.214   4.474   5.137 -0.5482 -0.1343 -0.0406
 5113TIP3    H215304   3.167   4.353   5.215  0.3162 -0.6187 -0.2568
 5114TIP3   OH215305   6.119   6.017   1.334  1.0124 -0.2563 -0.4367
 5114TIP3    H115306   6.080   6.053   1.255  1.3026  0.5109 -0.2307
 5114TIP3    H215307   6.056   6.038   1.404  0.4854 -1.4155 -0.5366
 5115TIP3   OH215308   5.504   3.593   2.955 -0.2793 -0.2963 -0.3985
 5115TIP3    H115309   5.567   3.575   3.025  0.6854 -0.0985 -1.2037
 5115TIP3    H215310   5.424   3.549   2.984  0.4930 -1.3578  0.2013
 5116TIP3   OH215311   5.313   0.497   5.785 -0.2454 -0.8435  0.7330
 5116TIP3    H115312   5.223   0.471   5.804 -0.1928 -1.6870 -0.1297
 5116TIP3    H215313   5.367   0.434   5.832 -0.1165 -1.5184 -0.2912
 5117TIP3   OH215314   3.122   0.287   4.020  0.2829 -0.3110  0.1154
 5117TIP3    H115315   3.202   0.253   4.060 -0.2264  0.7730  2.1686
 5117TIP3    H215316   3.097   0.220   3.956  0.7095 -2.5394  2.1490
 5118TIP3   OH215317   5.637   4.165   3.391  0.3061 -0.0646  0.0124
 5118TIP3    H115318   5.637   4.255   3.424  1.5778 -0.2899  0.6634
 5118TIP3    H215319   5.597   4.114   3.461 -1.1387  0.0781 -0.6743
 5119TIP3   OH215320   6.631   5.908   5.266 -0.6967 -0.7024  0.2054
 5119TIP3    H115321   6.722   5.885   5.244 -1.5026 -0.1716 -4.6897
 5119TIP3    H215322   6.628   6.003   5.260 -1.4020 -0.6299  1.4143
 5120TIP3   OH215323   1.410   2.483   1.242  0.1377 -0.3257 -0.0960
 5120TIP3    H115324   1.445   2.450   1.325 -0.0795  0.7772  0.4408
 5120TIP3    H215325   1.351   2.554   1.267 -0.0354 -0.0691 -1.1898
 5121TIP3   OH215326   5.023   3.367   5.798  0.2532  0.6688 -0.2853
 5121TIP3    H115327   4.935   3.401   5.814 -0.2484 -0.5237 -0.3856
 5121TIP3    H215328   5.016   3.273   5.816  1.4048  0.4794 -0.7159
 5122TIP3   OH215329   1.434   4.536   4.277  0.0467  0.0125  0.1240
 5122TIP3    H115330   1.355   4.541   4.223  0.7152  1.3569 -0.7902
 5122TIP3    H215331   1.454   4.627   4.298  1.3998 -0.3024  0.2860
 5123TIP3   OH215332   3.062   4.252   0.431 -0.2238  0.3879  0.2959
 5123TIP3    H115333   3.098   4.260   0.519 -2.0505 -0.5921  1.1827
 5123TIP3    H215334   3.027   4.339   0.412  0.9284  0.8393  0.1597
 5124TIP3   OH215335   2.057   2.207   4.553  0.4303  0.3742  0.4555
 5124TIP3    H115336   2.094   2.248   4.632  1.0808 -1.5555  1.2032
 5124TIP3    H215337   1.998   2.140   4.587  1.9580 -1.6078 -0.6413
 5125TIP3   OH215338   0.424   2.317   4.545  0.5999 -0.1057  0.0432
 5125TIP3    H115339   0.468   2.390   4.503 -0.8573 -0.3388 -2.0530
 5125TIP3    H215340   0.448   2.324   4.637 -0.4591  3.7181  0.1701
 5126TIP3   OH215341   5.935   3.882   0.989 -0.1637 -0.0403 -0.1786
 5126TIP3    H115342   5.868   3.949   1.000 -0.6336 -0.5275 -0.0364
 5126TIP3    H215343   5.996   3.897   1.062 -0.0393  0.4869 -0.3859
 5127TIP3   OH215344   4.609   5.860   1.065  0.1368 -0.0374 -0.0421
 5127TIP3    H115345   4.577   5.949   1.082 -1.4889 -0.3922 -1.0491
 5127TIP3    H215346   4.539   5.803   1.099 -0.2019 -0.8571 -2.0103
 5128TIP3   OH215347   3.479   4.749   1.842 -0.1304  0.6408 -0.0932
 5128TIP3    H115348   3.413   4.734   1.910 -0.7939 -0.9974 -1.0246
 5128TIP3    H215349   3.459   4.836   1.808 -0.4129  1.0673  1.1306
 5129TIP3   OH215350   0.887   1.871   0.590 -0.2418 -0.1654 -0.1423
 5129TIP3    H115351   0.840   1.791   0.567  0.2777 -0.0511 -1.6726
 5129TIP3    H215352   0.976   1.842   0.607 -0.4800 -0.1600  1.2125
 5130TIP3   OH215353   0.470   5.030   2.273 -0.4538  0.5621 -0.3420
 5130TIP3    H115354   0.447   5.015   2.181 -0.9031 -0.5344 -0.0743
 5130TIP3    H215355   0.553   4.983   2.284 -0.3126  0.8386 -0.2311
 5131TIP3   OH215356   1.725   1.323   1.610  0.4710 -0.1437  0.1257
 5131TIP3    H115357   1.658   1.338   1.543  0.7852  0.0252 -0.1568
 5131TIP3    H215358   1.804   1.304   1.560  0.7653  0.2103  0.4480
 5132TIP3   OH215359   0.433   3.529   2.933  0.3811  0.0981  0.0544
 5132TIP3    H115360   0.351   3.538   2.981 -0.0580  0.5854 -0.7776
 5132TIP3    H215361   0.455   3.618   2.907  0.3251 -0.2205 -1.1249
 5133TIP3   OH215362   1.650   3.546   4.052  0.3103  0.0674  0.4969
 5133TIP3    H115363   1.707   3.535   4.128 -1.1892  0.0757  1.6638
 5133TIP3    H215364   1.629   3.456   4.025  2.1672  0.0254 -0.9960
 5134TIP3   OH215365   2.469   6.516   1.033  1.0214  0.1941  0.0928
 5134TIP3    H115366   2.496   6.528   0.942  1.6379  0.3584  0.2910
 5134TIP3    H215367   2.462   6.605   1.068  1.3203  0.1180  0.3515
 5135TIP3   OH215368   3.580   5.183   3.303  0.2582 -0.2368  0.4300
 5135TIP3    H115369   3.616   5.111   3.354  1.4289  0.5565  0.7575
 5135TIP3    H215370   3.605   5.262   3.351  0.0074  0.4483 -0.5306
 5136TIP3   OH215371   5.997   3.229   5.755 -0.0112 -0.4664  0.3546
 5136TIP3    H115372   6.005   3.258   5.664 -0.4456  2.7129  1.1941
 5136TIP3    H215373   5.903   3.222   5.770  0.0804 -2.5308  0.1903
 5137TIP3   OH215374   5.279   3.584   2.115  0.0247  0.0039 -0.0431
 5137TIP3    H115375   5.201   3.588   2.170  0.8536 -1.1842  1.2993
 5137TIP3    H215376   5.332   3.658   2.144 -0.6971  1.0161 -1.1896
 5138TIP3   OH215377   3.866   0.225   5.635 -0.2450 -0.2216 -0.2423
 5138TIP3    H115378   3.938   0.282   5.610  0.7187 -1.6388 -0.7762
 5138TIP3    H215379   3.833   0.263   5.717  0.2943  1.1411 -0.6249
 5139TIP3   OH215380   6.127   5.599   2.077  0.1027  0.1986 -0.8471
 5139TIP3    H115381   6.089   5.666   2.020 -0.1922 -0.0613 -0.9561
 5139TIP3    H215382   6.139   5.523   2.021 -0.6920 -0.2362 -0.4439
 5140TIP3   OH215383   6.950   3.832   2.081  0.0070 -0.2360  0.0333
 5140TIP3    H115384   6.980   3.815   1.991 -2.3725 -0.8389 -0.7028
 5140TIP3    H215385   6.897   3.911   2.074  0.5168  0.2171  1.1123
 5141TIP3   OH215386   1.587   2.082   5.391 -0.1030 -0.5349 -0.4940
 5141TIP3    H115387   1.641   2.004   5.379 -0.4554 -0.7212 -0.8876
 5141TIP3    H215388   1.538   2.065   5.472 -1.4720 -1.5012 -1.4736
 5142TIP3   OH215389   0.269   1.430   2.444 -0.3526  0.7007  0.2049
 5142TIP3    H115390   0.346   1.425   2.500 -1.3270  0.1947  1.5398
 5142TIP3    H215391   0.296   1.389   2.361  1.0048  1.1717  0.3919
 5143TIP3   OH215392   4.667   5.913   3.245  0.2445  0.1653 -0.2778
 5143TIP3    H115393   4.579   5.912   3.281  1.0195 -1.9483  1.8328
 5143TIP3    H215394   4.656   5.942   3.155 -2.9430 -2.1547 -0.8164
 5144TIP3   OH215395   5.555   2.864   3.010  0.4441 -0.1014 -0.0178
 5144TIP3    H115396   5.594   2.785   3.048  1.8386  0.7354  0.4065
 5144TIP3    H215397   5.556   2.848   2.916  1.0109 -0.4702  0.0437
 5145TIP3   OH215398   5.814   0.571   4.898  0.3176 -0.0964 -0.4116
 5145TIP3    H115399   5.864   0.636   4.849  0.0191  0.2478 -0.2609
 5145TIP3    H215400   5.748   0.540   4.836 -0.7370  1.1048  0.0855
 5146TIP3   OH215401   2.269   2.612   0.876 -0.4255 -0.1367  0.0321
 5146TIP3    H115402   2.309   2.583   0.958  1.2716 -0.3338 -0.8337
 5146TIP3    H215403   2.184   2.568   0.874 -0.1107 -0.8401  1.2571
 5147TIP3   OH215404   4.610   2.796   0.945 -0.4567 -0.4706 -0.2132
 5147TIP3    H115405   4.623   2.714   0.993  0.2642 -0.0010  0.4175
 5147TIP3    H215406   4.673   2.791   0.873  1.0168  0.3726  0.9647
 5148TIP3   OH215407   0.635   1.462   4.330  0.0634  0.3320 -0.1892
 5148TIP3    H115408   0.560   1.457   4.389 -0.8976 -0.1593 -1.3954
 5148TIP3    H215409   0.705   1.498   4.383 -1.0471  0.8844  0.9599
 5149TIP3   OH215410   2.800   3.338   0.879 -0.2550 -0.4022 -0.4574
 5149TIP3    H115411   2.840   3.364   0.962 -0.8806 -0.2914 -0.1797
 5149TIP3    H215412   2.717   3.387   0.877 -0.7844 -1.2824 -0.5979
 5150TIP3   OH215413   5.945   6.615   0.449  0.4007  0.2259 -0.5492
 5150TIP3    H115414   6.012   6.568   0.400  0.2799 -0.1336 -0.3707
 5150TIP3    H215415   5.925   6.692   0.395  0.6838  0.1359 -0.7828
 5151TIP3   OH215416   6.025   2.091   0.702 -0.1500  0.1243  0.3373
 5151TIP3    H115417   5.953   2.064   0.646 -0.2947  0.8442  0.1688
 5151TIP3    H215418   6.038   2.017   0.762  0.4589 -0.9521 -1.0650
 5152TIP3   OH215419   5.234   6.237   0.255 -0.5823 -0.2928 -0.4258
 5152TIP3    H115420   5.329   6.244   0.265 -0.8297  0.7656  1.8933
 5152TIP3    H215421   5.209   6.317   0.208 -0.2959 -0.8739 -1.6035
 5153TIP3   OH215422   5.076   0.339   5.803 -0.1638  0.0005  0.0608
 5153TIP3    H115423   4.996   0.377   5.838 -0.2131  0.7462 -0.8137
 5153TIP3    H215424   5.059   0.245   5.797 -0.0971 -0.1779  2.1309
 5154TIP3   OH215425   5.723   4.063   1.058 -0.2569  0.6010  0.5027
 5154TIP3    H115426   5.662   4.022   1.119 -1.2812  1.1193 -0.1361
 5154TIP3    H215427   5.676   4.140   1.026  1.0044  1.4079  0.4973
 5155TIP3   OH215428   4.220   6.426   4.224  0.0607  0.7829 -0.5708
 5155TIP3    H115429   4.304   6.453   4.187 -0.6513  1.4330 -1.7818
 5155TIP3    H215430   4.158   6.433   4.151 -0.5868 -2.2453 -0.4422
 5156TIP3   OH215431   4.458   0.704   3.273 -0.2662  0.4287 -0.5966
 5156TIP3    H115432   4.365   0.717   3.293 -0.2053  1.0599 -0.7126
 5156TIP3    H215433   4.477   0.767   3.204  0.2717  0.3556 -0.5196
 5157TIP3   OH215434   4.060   2.018   1.478 -0.4977  0.5538 -0.0503
 5157TIP3    H115435   4.113   2.090   1.514  0.0182  0.1388  0.0304
 5157TIP3    H215436   4.106   1.939   1.505 -2.0839  0.1098  1.4977
 5158TIP3   OH215437   5.361   0.432   3.582 -0.3164  0.5036 -0.5543
 5158TIP3    H115438   5.310   0.387   3.650  3.3658 -3.2610  0.1166
 5158TIP3    H215439   5.348   0.380   3.503  2.1053 -0.4506 -0.4127
 5159TIP3   OH215440   5.002   3.077   4.052  0.8562  0.1259  0.2525
 5159TIP3    H115441   5.031   3.026   4.128  2.5362 -1.6007 -1.4355
 5159TIP3    H215442   5.071   3.143   4.040  0.7520  0.1981  0.0453
 5160TIP3   OH215443   2.903   0.684   2.369  0.0915 -0.5162  0.4208
 5160TIP3    H115444   2.900   0.755   2.304 -0.5981 -0.6319  0.3204
 5160TIP3    H215445   2.994   0.654   2.368  0.1915 -0.1982 -0.1475
 5161TIP3   OH215446   2.491   4.288   0.708 -0.3944  0.0011  0.3109
 5161TIP3    H115447   2.560   4.284   0.642  0.0948  1.3024  0.7047
 5161TIP3    H215448   2.435   4.213   0.689  0.0632  0.0090 -1.2014
 5162TIP3   OH215449   1.969   2.595   3.720  0.3303  0.5922  0.1985
 5162TIP3    H115450   2.027   2.648   3.666  1.4793  0.9703  1.7532
 5162TIP3    H215451   1.935   2.656   3.785 -0.6805  0.0436  0.2079
 5163TIP3   OH215452   5.699   5.550   1.014 -0.5082  0.3474  0.8712
 5163TIP3    H115453   5.710   5.639   1.047 -0.3697  0.9100 -0.6266
 5163TIP3    H215454   5.780   5.505   1.040 -0.8942  0.4126  2.2863
 5164TIP3   OH215455   0.395   5.202   3.011 -0.3341 -0.3441  0.0134
 5164TIP3    H115456   0.432   5.218   3.098 -0.7721 -0.0210  0.1434
 5164TIP3    H215457   0.470   5.173   2.958  0.7093  2.8627 -0.4591
 5165TIP3   OH215458   2.207   2.791   1.770 -0.0453  0.0927  0.3014
 5165TIP3    H115459   2.300   2.779   1.791  0.5137  1.1120 -1.4237
 5165TIP3    H215460   2.178   2.704   1.741  0.5509 -0.0728  0.1837
 5166TIP3   OH215461   3.560   2.548   1.490 -0.6734  0.4193 -0.4964
 5166TIP3    H115462   3.493   2.481   1.479 -1.2187  0.3921  2.4242
 5166TIP3    H215463   3.537   2.615   1.425 -2.9399 -0.0729 -0.2909
 5167TIP3   OH215464   6.210   2.216   1.963  0.3648  0.1927  0.5653
 5167TIP3    H115465   6.144   2.269   2.007 -1.5941 -2.2572  0.7916
 5167TIP3    H215466   6.190   2.224   1.870 -1.1005 -1.4246  0.6804
 5168TIP3   OH215467   3.989   1.491   4.241  0.0131  0.1510 -0.3591
 5168TIP3    H115468   4.084   1.493   4.239  0.0469  0.6578  0.7164
 5168TIP3    H215469   3.968   1.402   4.268  0.2306  0.3390  0.4611
 5169TIP3   OH215470   3.945   5.284   0.349 -0.0451 -0.3660 -0.7246
 5169TIP3    H115471   3.957   5.365   0.398 -0.9908 -0.3519 -0.5068
 5169TIP3    H215472   3.934   5.216   0.416  0.4579 -0.6348 -0.9085
 5170TIP3   OH215473   2.986   6.005   1.332  0.0228  0.4537  0.0774
 5170TIP3    H115474   3.075   6.035   1.316  0.1527 -1.0018 -2.5901
 5170TIP3    H215475   2.992   5.910   1.331 -1.6249  0.3171 -0.8734
 5171TIP3   OH215476   7.182   3.463   2.771 -0.1715 -0.4797 -0.1881
 5171TIP3    H115477   7.122   3.510   2.829  0.0333 -0.0126 -0.3502
 5171TIP3    H215478   7.246   3.528   2.745 -0.8395 -0.3975 -1.7634
 5172TIP3   OH215479   5.309   1.815   5.659  0.3408  1.0007 -0.3366
 5172TIP3    H115480   5.251   1.802   5.734  1.2011  2.3814  0.6028
 5172TIP3    H215481   5.397   1.798   5.693  0.7012  1.1555 -1.1646
 5173TIP3   OH215482   5.456   5.981   5.627  0.5034 -0.2057 -0.3191
 5173TIP3    H115483   5.517   5.949   5.693  1.8865 -0.3061 -1.5995
 5173TIP3    H215484   5.463   6.077   5.632 -1.1785 -0.1144  1.2581
 5174TIP3   OH215485   6.679   6.539   2.691 -0.8619 -0.1794 -0.1152
 5174TIP3    H115486   6.679   6.463   2.633 -0.4261 -0.6911  0.5447
 5174TIP3    H215487   6.640   6.507   2.772 -0.2176  0.1735  0.3365
 5175TIP3   OH215488   3.886   1.785   4.854  0.2036 -0.1385 -0.3982
 5175TIP3    H115489   3.813   1.812   4.798  0.5799 -2.0078 -1.8923
 5175TIP3    H215490   3.919   1.867   4.890 -2.0379  0.8379 -0.4006
 5176TIP3   OH215491   0.803   3.839   0.214 -0.7513  0.1430 -0.2663
 5176TIP3    H115492   0.714   3.814   0.189 -1.1848 -1.0626  2.1790
 5176TIP3    H215493   0.856   3.825   0.135 -2.7273  1.1180 -1.8432
 5177TIP3   OH215494   7.174   1.998   1.002 -0.1351  0.7035 -0.2864
 5177TIP3    H115495   7.211   2.086   1.002  0.7091  0.3650  0.3459
 5177TIP3    H215496   7.233   1.947   1.058 -0.3739 -0.3563 -0.9651
 5178TIP3   OH215497   3.944   6.752   3.779 -0.1794 -0.2593  0.3160
 5178TIP3    H115498   3.944   6.796   3.864 -0.4019  1.8410 -0.7132
 5178TIP3    H215499   3.961   6.821   3.716  1.3326 -1.9872 -1.2913
 5179TIP3   OH215500   3.892   6.338   2.964 -0.1843  0.1029  0.5502
 5179TIP3    H115501   3.934   6.367   3.045 -0.7020 -2.8366  2.0022
 5179TIP3    H215502   3.818   6.285   2.993  0.4493 -2.2577 -1.7929
 5180TIP3   OH215503   5.420   0.271   0.358  0.1239  0.1240 -0.0832
 5180TIP3    H115504   5.349   0.211   0.383  0.2175 -0.1973 -0.5743
 5180TIP3    H215505   5.435   0.324   0.437 -1.6960  1.2436 -0.4180
 5181TIP3   OH215506   6.179   5.142   5.261 -0.2604 -0.3166  0.1130
 5181TIP3    H115507   6.124   5.076   5.218 -1.1743  0.0892  0.6363
 5181TIP3    H215508   6.227   5.183   5.189 -1.4640  0.0710 -0.4814
 5182TIP3   OH215509   6.359   4.660   2.538  0.1274 -0.2709  0.4840
 5182TIP3    H115510   6.281   4.618   2.574 -1.0693 -2.4445 -3.8533
 5182TIP3    H215511   6.334   4.752   2.527 -1.1557 -0.5669  0.7863
 5183TIP3   OH215512   0.434   2.570   5.778  0.2693 -0.1027  0.2102
 5183TIP3    H115513   0.455   2.661   5.801 -0.9342  0.4557 -0.7537
 5183TIP3    H215514   0.390   2.536   5.856 -0.3068  0.5267  0.1737
 5184TIP3   OH215515   1.073   1.265   5.053 -0.3135 -0.6264  0.4858
 5184TIP3    H115516   1.025   1.296   5.130 -1.3338 -0.2406 -0.2668
 5184TIP3    H215517   1.023   1.300   4.979  0.9575 -0.5037 -0.3533
 5185TIP3   OH215518   3.376   6.500   2.809 -0.5718  0.0294  0.2518
 5185TIP3    H115519   3.304   6.464   2.758  0.6483 -1.0891 -0.7523
 5185TIP3    H215520   3.445   6.434   2.805  2.1471  2.6664 -2.4490
 5186TIP3   OH215521   3.289   1.194   1.524 -0.1592  0.3550  0.3077
 5186TIP3    H115522   3.320   1.106   1.547 -1.0786 -0.3564 -1.0380
 5186TIP3    H215523   3.355   1.228   1.463  1.2782  1.4761  2.3737
 5187TIP3   OH215524   4.190   5.093   0.318 -0.0533 -0.2598  0.0265
 5187TIP3    H115525   4.156   5.167   0.369  1.0816  0.0959  0.2896
 5187TIP3    H215526   4.112   5.044   0.293 -0.7492  0.4344  0.7646
 5188TIP3   OH215527   3.623   4.495   1.399 -0.4822  0.2894 -0.0507
 5188TIP3    H115528   3.585   4.583   1.400 -0.8253  0.1667 -0.8528
 5188TIP3    H215529   3.563   4.442   1.450 -0.4263  0.4663  0.1983
 5189TIP3   OH215530   2.546   3.427   2.187  0.3597 -0.2264  0.1660
 5189TIP3    H115531   2.522   3.376   2.265  1.0076 -1.8960 -0.6911
 5189TIP3    H215532   2.616   3.485   2.217  1.3263 -1.5808  0.6253
 5190TIP3   OH215533   4.575   5.976   4.682 -0.3588  0.2480  0.0410
 5190TIP3    H115534   4.571   5.910   4.612  0.7803  0.7890 -0.5546
 5190TIP3    H215535   4.487   5.977   4.718 -1.0337  0.0706 -1.5029
 5191TIP3   OH215536   2.582   0.516   1.727  0.2858  0.2046  0.9614
 5191TIP3    H115537   2.644   0.488   1.795 -1.8674 -1.6187  2.3008
 5191TIP3    H215538   2.533   0.437   1.705  0.0569  1.0295 -1.8952
 5192TIP3   OH215539   2.072   2.235   1.166 -0.0743 -0.1238 -0.3672
 5192TIP3    H115540   2.101   2.222   1.076 -1.4055 -2.0266 -0.5655
 5192TIP3    H215541   1.978   2.249   1.160 -0.2286 -0.5875  0.7446
 5193TIP3   OH215542   3.620   2.441   2.020 -0.4981  0.5849  0.4430
 5193TIP3    H115543   3.578   2.397   1.946  1.6497 -0.2909 -0.3701
 5193TIP3    H215544   3.569   2.415   2.096 -0.0440 -2.4849 -0.1608
 5194TIP3   OH215545   0.805   3.631   1.454 -0.2879  0.4269 -0.0156
 5194TIP3    H115546   0.825   3.724   1.446  1.1904  0.1504  0.0841
 5194TIP3    H215547   0.763   3.622   1.540  0.3125  0.8961  0.3343
 5195TIP3   OH215548   6.389   2.244   5.812 -0.1109  0.0946  0.5978
 5195TIP3    H115549   6.418   2.334   5.827 -0.4021  0.0852  1.2296
 5195TIP3    H215550   6.294   2.251   5.802  0.0955  0.1745 -1.8547
 5196TIP3   OH215551   1.330   2.132   5.515  0.5049 -0.6931 -0.3445
 5196TIP3    H115552   1.339   2.153   5.608 -2.1208 -0.0796 -0.1251
 5196TIP3    H215553   1.333   2.036   5.512  0.8866 -0.7109  0.3306
 5197TIP3   OH215554   4.557   2.291   3.386  0.0432 -0.0681 -0.6104
 5197TIP3    H115555   4.501   2.213   3.376  0.5134 -0.5074  0.0914
 5197TIP3    H215556   4.574   2.319   3.296 -0.4671 -0.5365 -0.8636
 5198TIP3   OH215557   2.148   2.397   3.150 -0.5573  0.0686 -0.1196
 5198TIP3    H115558   2.105   2.390   3.065 -0.9499  1.4376 -0.0530
 5198TIP3    H215559   2.089   2.352   3.210 -0.5526 -0.4167 -0.4672
 5199TIP3   OH215560   1.208   5.159   2.832  0.3363  0.0713  0.1159
 5199TIP3    H115561   1.127   5.144   2.782  1.0143 -2.0093 -0.4501
 5199TIP3    H215562   1.232   5.249   2.812 -0.2921 -0.1759 -2.0527
 5200TIP3   OH215563   1.825   6.185   2.483 -0.1149  0.4770 -0.5411
 5200TIP3    H115564   1.883   6.260   2.474 -1.3743  1.8015  1.5456
 5200TIP3    H215565   1.878   6.118   2.525  0.2796  1.2073  0.1499
 5201TIP3   OH215566   2.878   0.419   5.110 -0.3627 -0.4792 -0.7526
 5201TIP3    H115567   2.854   0.493   5.054 -2.2833  0.6188  1.3618
 5201TIP3    H215568   2.969   0.402   5.088 -0.1423  1.8551 -2.0576
 5202TIP3   OH215569   0.636   1.693   3.087  0.1349 -0.1345  0.3771
 5202TIP3    H115570   0.605   1.651   3.008 -0.1950  1.0388 -0.1421
 5202TIP3    H215571   0.567   1.756   3.110  1.7165  2.0167 -0.4017
 5203TIP3   OH215572   2.048   0.366   1.030  0.5733 -0.3405 -0.0699
 5203TIP3    H115573   1.992   0.428   1.077 -0.0092 -0.8873 -0.0346
 5203TIP3    H215574   2.135   0.379   1.069  0.9297  1.8146 -1.3662
 5204TIP3   OH215575   5.279   0.378   4.654  0.1506  0.2478 -0.2998
 5204TIP3    H115576   5.253   0.316   4.722  0.8832  1.3116  0.9983
 5204TIP3    H215577   5.281   0.463   4.699  3.3934  0.6076 -0.8689
 5205TIP3   OH215578   0.303   5.873   3.964  0.0848  0.4761  0.6778
 5205TIP3    H115579   0.351   5.925   3.900  0.2329  0.6949  0.9625
 5205TIP3    H215580   0.239   5.933   4.001 -1.0046 -0.0461 -0.3219
 5206TIP3   OH215581   0.071   3.143   1.114  0.2065  0.2249  0.4965
 5206TIP3    H115582   0.121   3.077   1.067  1.9475  0.3580  2.0646
 5206TIP3    H215583  -0.011   3.099   1.138  0.3361 -0.5917 -0.4997
 5207TIP3   OH215584   1.714   2.481   2.029 -0.4644 -0.4342  0.5493
 5207TIP3    H115585   1.680   2.558   2.075 -1.1966 -0.3793 -0.0636
 5207TIP3    H215586   1.780   2.516   1.969 -0.9480 -0.2549  0.1196
 5208TIP3   OH215587   3.077   5.532   0.583  0.6666  0.6839 -0.1946
 5208TIP3    H115588   3.095   5.592   0.511 -1.2506 -0.1512 -1.4472
 5208TIP3    H215589   3.005   5.477   0.552  2.0519 -2.0324  1.0502
 5209TIP3   OH215590   3.104   1.104   2.288  0.3269 -0.4747 -0.0074
 5209TIP3    H115591   3.182   1.141   2.329  0.2553  0.0715 -0.3508
 5209TIP3    H215592   3.043   1.091   2.361  0.2539  0.3525  0.0931
 5210TIP3   OH215593   2.095   2.310   4.867 -0.6671 -1.0566  0.4985
 5210TIP3    H115594   2.116   2.260   4.946 -1.5253  0.5095  1.8040
 5210TIP3    H215595   2.004   2.336   4.879 -1.7405 -2.9973 -2.3398
 5211TIP3   OH215596   4.385   2.759   4.675  0.3955 -0.5111 -0.3634
 5211TIP3    H115597   4.468   2.798   4.646 -0.1830  1.3079  0.2538
 5211TIP3    H215598   4.326   2.834   4.682 -1.2422 -1.7483 -0.5715
 5212TIP3   OH215599   2.633   3.632   5.329 -0.3585  0.2215  0.1044
 5212TIP3    H115600   2.600   3.676   5.250  0.2036 -2.3158 -1.6586
 5212TIP3    H215601   2.555   3.612   5.380 -0.7834  1.3698 -0.0720
 5213TIP3   OH215602   0.812   6.608   3.725  0.6673  0.4326  0.1645
 5213TIP3    H115603   0.775   6.617   3.637  0.5542  0.3026  0.1974
 5213TIP3    H215604   0.772   6.678   3.775  1.0990  0.8053 -0.0075
 5214TIP3   OH215605   1.084   0.454   0.027  0.9789  0.1772 -0.0441
 5214TIP3    H115606   1.020   0.472  -0.042  1.1431 -0.0316 -0.2519
 5214TIP3    H215607   1.120   0.540   0.050  0.6365  0.2933  0.0644
 5215TIP3   OH215608   3.706   1.331   3.790  0.1276 -0.3616  0.2500
 5215TIP3    H115609   3.798   1.342   3.815  0.3790 -1.5759 -0.0510
 5215TIP3    H215610   3.662   1.306   3.871  0.3158 -1.0126  0.1620
 5216TIP3   OH215611   2.213   1.170   2.005  0.5829 -0.4625  0.2525
 5216TIP3    H115612   2.298   1.145   2.041  1.3424 -0.7231 -1.5875
 5216TIP3    H215613   2.225   1.260   1.976  0.7248 -0.9363 -1.2767
 5217TIP3   OH215614   5.980   4.916   1.842  0.4214 -0.1875  0.1722
 5217TIP3    H115615   6.055   4.871   1.804 -1.3686 -2.5117 -0.8761
 5217TIP3    H215616   5.954   4.862   1.916 -0.1399  0.6946  0.6482
 5218TIP3   OH215617   0.661   6.290   0.641 -0.3859  0.3239  0.3457
 5218TIP3    H115618   0.665   6.263   0.549  2.0841 -3.1408  1.2559
 5218TIP3    H215619   0.600   6.228   0.681  0.5923  0.0178  1.4338
 5219TIP3   OH215620   1.476   4.240   5.209 -0.4359 -0.3348 -0.2998
 5219TIP3    H115621   1.390   4.234   5.168 -0.9068  1.3157  0.3456
 5219TIP3    H215622   1.534   4.266   5.138 -0.7368 -0.1623 -0.4881
 5220TIP3   OH215623   4.867   2.911   2.072 -0.1394  0.3679  0.1821
 5220TIP3    H115624   4.801   2.978   2.056 -1.7978 -1.1465  0.3151
 5220TIP3    H215625   4.838   2.867   2.153  0.1561 -1.3220 -0.5795
 5221TIP3   OH215626   2.275   3.144   1.784 -0.0692  0.0652  0.6135
 5221TIP3    H115627   2.329   3.070   1.810  2.3256  1.9655  1.3781
 5221TIP3    H215628   2.323   3.221   1.814 -1.7721  2.0107 -1.2988
 5222TIP3   OH215629   5.213   5.700   4.510 -0.0591  0.4295 -0.1379
 5222TIP3    H115630   5.203   5.786   4.552  0.1867  0.5177 -0.2597
 5222TIP3    H215631   5.284   5.658   4.557  0.2520  0.5495 -0.4981
 5223TIP3   OH215632   2.439   4.901   0.064 -0.2479  0.4900  0.0701
 5223TIP3    H115633   2.445   4.851  -0.017  0.9948  1.2989 -0.3659
 5223TIP3    H215634   2.353   4.880   0.099  0.0607 -1.5837 -0.3209
 5224TIP3   OH215635   1.928   1.536   5.789 -0.3082  0.0681  0.0908
 5224TIP3    H115636   1.942   1.614   5.842  0.8392  0.4879 -0.7712
 5224TIP3    H215637   1.922   1.569   5.699 -2.6325 -0.5781 -0.0588
 5225TIP3   OH215638   1.425   5.485   2.640  0.0490 -0.2456  0.7942
 5225TIP3    H115639   1.354   5.445   2.691 -1.9225 -1.3199 -2.4904
 5225TIP3    H215640   1.382   5.518   2.562  2.7341  2.3004  0.2422
 5226TIP3   OH215641   5.915   6.247   0.392 -0.2225  0.6148 -0.2167
 5226TIP3    H115642   5.918   6.183   0.464  0.7887 -0.8222 -1.4712
 5226TIP3    H215643   5.925   6.194   0.313 -0.5657  2.2331 -1.3959
 5227TIP3   OH215644   3.935   6.093   0.612  0.5787 -0.2589 -0.1853
 5227TIP3    H115645   3.894   6.050   0.687  1.8884 -1.7182 -0.2638
 5227TIP3    H215646   3.865   6.101   0.548 -1.2051  3.0851  1.9050
 5228TIP3   OH215647   3.278   4.706   3.823 -0.4059  0.3882 -0.3304
 5228TIP3    H115648   3.368   4.697   3.852  0.5541  1.0174 -2.8807
 5228TIP3    H215649   3.275   4.789   3.777 -1.1293 -1.4684 -3.9693
 5229TIP3   OH215650   1.420   5.466   0.887 -0.6192  0.3034 -0.0211
 5229TIP3    H115651   1.447   5.556   0.903  1.1124  0.3324 -2.5634
 5229TIP3    H215652   1.359   5.446   0.958 -1.6167  3.6991  0.2429
 5230TIP3   OH215653   4.140  -0.011   0.419  0.3029  0.1942  0.2038
 5230TIP3    H115654   4.233   0.004   0.436  0.3441 -0.6321  0.7636
 5230TIP3    H215655   4.123   0.032   0.335  2.0034 -2.6531 -1.7379
 5231TIP3   OH215656   6.300   3.915   5.245 -0.7160 -0.2306  0.5059
 5231TIP3    H115657   6.223   3.959   5.279 -0.5180  0.1004  0.5270
 5231TIP3    H215658   6.289   3.823   5.272 -0.6064  0.0076  1.3842
 5232TIP3   OH215659   3.399   2.128   1.201 -0.2218 -0.1739 -0.3978
 5232TIP3    H115660   3.492   2.112   1.190 -0.1791 -2.1039  1.8977
 5232TIP3    H215661   3.360   2.098   1.119  0.9595 -2.0870 -0.3212
 5233TIP3   OH215662   2.265   4.264   2.753 -0.5639 -0.2900  0.1756
 5233TIP3    H115663   2.182   4.243   2.796 -0.2720 -2.4317 -0.1911
 5233TIP3    H215664   2.331   4.245   2.820 -0.3027  0.3369  0.1011
 5234TIP3   OH215665   0.177   1.207   4.102 -0.1207  0.2865  0.0968
 5234TIP3    H115666   0.237   1.246   4.166  0.8929 -0.2948 -0.4629
 5234TIP3    H215667   0.138   1.281   4.057 -0.2514  0.6866  0.8511
 5235TIP3   OH215668   6.885   4.525   1.937  0.0696 -0.0175  0.0207
 5235TIP3    H115669   6.858   4.499   2.025  3.1505 -0.9934  0.7800
 5235TIP3    H215670   6.812   4.498   1.881 -1.8754  0.4332  2.1825
 5236TIP3   OH215671   4.647   0.544   2.446 -0.2427 -0.0826  0.1017
 5236TIP3    H115672   4.629   0.534   2.539 -0.0351  0.2548  0.1791
 5236TIP3    H215673   4.736   0.513   2.435  0.4279  1.6342  0.3525
 5237TIP3   OH215674   1.892   4.703   0.533  0.4002  0.0862 -0.2268
 5237TIP3    H115675   1.845   4.738   0.609  0.2377  1.5533 -0.9470
 5237TIP3    H215676   1.959   4.645   0.570  1.5343  2.1606  1.1937
 5238TIP3   OH215677   2.736   1.383   3.442  0.3902 -0.2036  0.6304
 5238TIP3    H115678   2.653   1.341   3.422  0.4081  0.3730 -0.8319
 5238TIP3    H215679   2.778   1.393   3.356  1.8343 -0.2170  1.3119
 5239TIP3   OH215680   5.035   2.622   4.360  0.4461 -0.4818 -0.2224
 5239TIP3    H115681   5.006   2.643   4.272  1.3572  1.9443 -0.0304
 5239TIP3    H215682   5.090   2.544   4.350 -0.9617 -1.3502 -1.4806
 5240TIP3   OH215683   1.669   1.906   1.957 -0.2349  0.1317 -0.0284
 5240TIP3    H115684   1.749   1.956   1.973 -0.9775  2.1023 -1.9255
 5240TIP3    H215685   1.609   1.934   2.027  0.2539 -0.2810  0.5659
 5241TIP3   OH215686   3.206   6.626   1.060 -0.5507  0.9610 -0.3957
 5241TIP3    H115687   3.204   6.574   1.141 -1.2538 -0.2790 -1.1792
 5241TIP3    H215688   3.294   6.665   1.059 -0.4488  0.8216  0.8405
 5242TIP3   OH215689   5.612   4.779   0.135 -0.5569 -0.0898 -0.0390
 5242TIP3    H115690   5.656   4.791   0.051  0.2930 -0.2484  0.3682
 5242TIP3    H215691   5.562   4.698   0.125  0.5029 -0.7784 -0.0180
 5243TIP3   OH215692   5.605   1.842   2.064  0.2970 -0.0084  0.8125
 5243TIP3    H115693   5.547   1.790   2.008  0.8256  0.7445 -0.4779
 5243TIP3    H215694   5.552   1.862   2.141 -0.5647 -0.7896  0.4440
 5244TIP3   OH215695   5.197   2.188   4.351 -0.2280  0.4370 -0.0983
 5244TIP3    H115696   5.228   2.098   4.340  0.1217  0.2799  1.8639
 5244TIP3    H215697   5.144   2.205   4.273 -0.6622 -1.6271 -0.2936
 5245TIP3   OH215698   3.708   1.196   1.628 -0.3005  0.2302 -0.4914
 5245TIP3    H115699   3.684   1.288   1.617 -0.6306  0.3732  1.0943
 5245TIP3    H215700   3.685   1.176   1.719  0.2335 -1.2824 -0.6532
 5246TIP3   OH215701   4.950   4.569   5.198 -0.1160  0.1429  0.1850
 5246TIP3    H115702   4.866   4.564   5.152  0.0555 -0.2814 -0.0743
 5246TIP3    H215703   4.941   4.648   5.253 -0.2339  0.7790 -0.7228
 5247TIP3   OH215704   2.782   0.885   5.026 -0.1068  0.2346  0.3273
 5247TIP3    H115705   2.777   0.974   5.062  1.9070  0.5525 -0.0566
 5247TIP3    H215706   2.804   0.830   5.101 -1.9744 -0.0768  0.6879
 5248TIP3   OH215707   0.361   5.241  -0.004 -0.4912  0.2761 -0.5049
 5248TIP3    H115708   0.319   5.326   0.007  1.7902  1.2316  2.1125
 5248TIP3    H215709   0.297   5.179   0.030 -0.6106  1.5009  1.7411
 5249TIP3   OH215710   0.406   5.023   2.577  0.2597 -0.1101 -0.2642
 5249TIP3    H115711   0.457   4.967   2.635 -0.9746 -1.0178 -0.0062
 5249TIP3    H215712   0.405   4.977   2.494  0.8176  0.4798 -0.6079
 5250TIP3   OH215713   0.142   0.007   5.882  0.0360  0.4411  0.1728
 5250TIP3    H115714   0.078   0.002   5.952  1.0671 -4.6992  1.1418
 5250TIP3    H215715   0.091   0.028   5.804 -2.6667 -1.7837  1.1747
 5251TIP3   OH215716   3.600   1.770   4.996  0.4043  0.1583 -0.3548
 5251TIP3    H115717   3.617   1.860   5.022 -0.6221  0.3037 -0.1542
 5251TIP3    H215718   3.592   1.774   4.901 -1.1710  0.5668 -0.2308
 5252TIP3   OH215719   3.591   5.159   0.402 -0.5411 -0.3818  0.1853
 5252TIP3    H115720   3.639   5.230   0.444 -0.9961  1.3613 -2.0151
 5252TIP3    H215721   3.499   5.186   0.406 -0.6033 -0.1709 -1.7667
 5253TIP3   OH215722   4.528   3.530   4.792 -0.3104  0.1422  0.2477
 5253TIP3    H115723   4.434   3.520   4.778 -0.2674 -0.2044  0.1868
 5253TIP3    H215724   4.560   3.572   4.713 -0.3566 -0.0975  0.0992
 5254TIP3   OH215725   4.613   4.006   4.841  0.2829 -0.4288  0.1457
 5254TIP3    H115726   4.536   3.951   4.854 -0.6883  0.7446 -0.4325
 5254TIP3    H215727   4.578   4.095   4.837  1.7837  0.2297  0.8479
 5255TIP3   OH215728   4.897   3.717   2.409  0.2577 -0.2106  0.4211
 5255TIP3    H115729   4.940   3.638   2.442 -0.1602 -0.5989  0.0490
 5255TIP3    H215730   4.820   3.685   2.362  0.3352  0.3893 -0.1356
 5256TIP3   OH215731   5.400   1.122   0.719 -0.0651  0.4457  0.4779
 5256TIP3    H115732   5.380   1.127   0.625  0.7188  0.1628  0.2873
 5256TIP3    H215733   5.356   1.198   0.757 -0.9558  0.1910 -0.0131
 5257TIP3   OH215734   4.757   4.331   1.616  0.4015 -0.0209 -0.2679
 5257TIP3    H115735   4.838   4.292   1.647 -0.1787 -0.4931  0.7232
 5257TIP3    H215736   4.726   4.383   1.690  0.0601  0.5741 -0.8161
 5258TIP3   OH215737   2.170   4.361   0.104  0.4777 -0.0324 -0.3176
 5258TIP3    H115738   2.176   4.403   0.190  0.0248 -2.2545  0.8695
 5258TIP3    H215739   2.214   4.277   0.115 -1.1404 -1.1373 -1.7423
 5259TIP3   OH215740   5.485   3.508   2.672 -0.0267  0.0768 -0.1863
 5259TIP3    H115741   5.527   3.422   2.684 -3.4809 -1.9811 -1.2567
 5259TIP3    H215742   5.457   3.507   2.580 -1.9679  1.4539  0.3435
 5260TIP3   OH215743   0.848   6.513   0.410 -0.2460  0.3751  0.1995
 5260TIP3    H115744   0.841   6.453   0.335 -1.9783 -2.0079  2.1067
 5260TIP3    H215745   0.809   6.594   0.380 -0.6024 -0.4060 -1.5813
 5261TIP3   OH215746   6.204   1.873   4.326 -0.2889  0.0238  0.0282
 5261TIP3    H115747   6.171   1.949   4.279 -0.9727 -0.3800 -0.1619
 5261TIP3    H215748   6.167   1.798   4.280 -1.2569 -0.3767  1.3905
 5262TIP3   OH215749   3.853   3.236   2.278 -0.0350  0.5235 -0.7784
 5262TIP3    H115750   3.913   3.284   2.222  1.2216  0.4505  0.4423
 5262TIP3    H215751   3.833   3.296   2.350  1.1111 -0.5361  0.4724
 5263TIP3   OH215752   3.573   5.041   4.127 -0.1872 -0.3670  0.4138
 5263TIP3    H115753   3.630   5.067   4.199  0.7133 -2.0984  0.3914
 5263TIP3    H215754   3.601   4.952   4.105 -2.3943 -1.0086 -0.1159
 5264TIP3   OH215755   0.814   5.196   4.390  0.7253 -0.1731  0.2840
 5264TIP3    H115756   0.772   5.140   4.455  1.3633 -0.6042  0.3356
 5264TIP3    H215757   0.777   5.167   4.306 -0.6485  0.8793  0.4949
 5265TIP3   OH215758   6.216   3.381   1.791  0.2273 -0.7227 -0.2242
 5265TIP3    H115759   6.231   3.333   1.710 -1.7590 -2.9786  0.6145
 5265TIP3    H215760   6.128   3.355   1.818  0.6272  0.3407  2.3873
 5266TIP3   OH215761   4.125   0.352   5.551  0.1681 -0.8770 -0.3105
 5266TIP3    H115762   4.090   0.414   5.487  0.5017 -0.1094  0.2404
 5266TIP3    H215763   4.214   0.333   5.521  1.0875  1.0414  0.9509
 5267TIP3   OH215764   6.251   4.228   0.842  0.2035  0.8295 -0.1310
 5267TIP3    H115765   6.301   4.308   0.857  0.9256  0.1161  1.5217
 5267TIP3    H215766   6.195   4.221   0.919  0.0499 -0.1837 -0.3289
 5268TIP3   OH215767   2.637   6.197   1.483 -0.1291 -0.9255 -0.2393
 5268TIP3    H115768   2.558   6.181   1.534  0.4243  1.9343  1.7449
 5268TIP3    H215769   2.625   6.286   1.448  1.7939 -0.7818 -0.6437
 5269TIP3   OH215770   5.544   3.796   3.304  0.3794  0.3941  0.3688
 5269TIP3    H115771   5.488   3.861   3.347  1.8916  0.7322  1.9548
 5269TIP3    H215772   5.499   3.713   3.319  0.9114  0.4589  2.9578
 5270TIP3   OH215773   2.953   6.153   2.860  0.2263  0.0212 -0.4568
 5270TIP3    H115774   2.933   6.241   2.829 -0.9329 -0.8540 -2.3359
 5270TIP3    H215775   2.867   6.115   2.882  0.8278 -0.1088  1.9836
 5271TIP3   OH215776   0.237   2.505   3.210 -0.4503  0.3617  0.6876
 5271TIP3    H115777   0.143   2.493   3.223 -0.5020 -1.2510 -0.7607
 5271TIP3    H215778   0.245   2.578   3.149 -0.8578 -0.3311 -0.2141
 5272TIP3   OH215779   3.339   6.585   0.792  0.1209 -0.2067 -0.0342
 5272TIP3    H115780   3.266   6.567   0.851  1.8112  1.3540  2.7457
 5272TIP3    H215781   3.376   6.499   0.772  0.6990 -0.7663  2.9510
 5273TIP3   OH215782   3.358   5.075   4.280 -0.7695 -0.0147  0.1448
 5273TIP3    H115783   3.432   5.051   4.225  0.4448 -2.2473  2.5580
 5273TIP3    H215784   3.360   5.171   4.282  1.2530  0.0180 -0.9254
 5274TIP3   OH215785   1.335   0.610   2.784 -0.0873  0.2252  0.2180
 5274TIP3    H115786   1.332   0.588   2.691  1.8160  0.1053  0.1426
 5274TIP3    H215787   1.337   0.526   2.830 -1.0083  0.2833  0.3949
 5275TIP3   OH215788   4.131   0.113   2.406  0.4153  0.2254 -0.3054
 5275TIP3    H115789   4.091   0.198   2.424  2.5905  1.6399 -1.6184
 5275TIP3    H215790   4.173   0.089   2.489  1.4336  1.4462 -0.4240
 5276TIP3   OH215791   0.516   2.771   4.751  0.2387  0.2287  0.1424
 5276TIP3    H115792   0.447   2.822   4.793  1.3591  2.9421 -1.0961
 5276TIP3    H215793   0.572   2.836   4.709  3.7770 -1.7455  1.3369
 5277TIP3   OH215794   6.282   5.116   4.870  0.1165  0.7301  0.1697
 5277TIP3    H115795   6.326   5.171   4.805  0.5247  0.4706  0.2222
 5277TIP3    H215796   6.197   5.094   4.830  0.8976 -0.5246 -0.8661
 5278TIP3   OH215797   1.385   3.514   0.140 -0.6559 -0.2154 -0.5534
 5278TIP3    H115798   1.430   3.597   0.157 -1.3851  0.0923 -0.0566
 5278TIP3    H215799   1.293   3.539   0.131 -1.3118 -1.2823  2.3833
 5279TIP3   OH215800   1.862   5.417   5.407 -0.1222 -0.1003  0.3879
 5279TIP3    H115801   1.795   5.402   5.339 -0.5426  0.8152  0.5896
 5279TIP3    H215802   1.928   5.470   5.364 -1.1774  1.8833  1.1204
 5280TIP3   OH215803   5.939   0.837   5.114  0.2788 -0.5055  0.1904
 5280TIP3    H115804   5.909   0.849   5.024 -2.0769  2.0262  1.1708
 5280TIP3    H215805   5.880   0.770   5.150 -1.8812  1.6837  1.0026
 5281TIP3   OH215806   2.516   4.379   4.697 -0.1630 -0.2068 -0.0353
 5281TIP3    H115807   2.574   4.341   4.762  1.6557  0.3383 -1.2612
 5281TIP3    H215808   2.573   4.398   4.622 -2.0491 -0.2543 -1.5595
 5282TIP3   OH215809   4.245   6.050   3.098  0.0358 -0.3712  0.4985
 5282TIP3    H115810   4.245   6.101   3.017 -0.9294  0.0297  0.7323
 5282TIP3    H215811   4.236   6.116   3.167  0.5714 -0.7313  0.9231
 5283TIP3   OH215812   7.212   5.767   4.525  0.7568  0.1117  0.9345
 5283TIP3    H115813   7.121   5.737   4.522  0.5917  0.5874 -1.9579
 5283TIP3    H215814   7.263   5.688   4.540 -0.0939 -0.1305  2.8197
 5284TIP3   OH215815   2.770   1.824   1.230  0.2891  0.2160  0.1391
 5284TIP3    H115816   2.709   1.820   1.304  0.9493 -0.9209  0.6575
 5284TIP3    H215817   2.725   1.876   1.164 -0.6639  0.5547  1.0328
 5285TIP3   OH215818   4.454   0.966   1.843  0.6517 -0.5249  0.6724
 5285TIP3    H115819   4.510   0.890   1.858  0.4953 -0.3935  2.0863
 5285TIP3    H215820   4.365   0.932   1.852  0.5098 -0.5093 -0.4657
 5286TIP3   OH215821   3.801   3.962   1.958 -0.1835  0.5283  0.3837
 5286TIP3    H115822   3.728   3.930   1.906  1.3684 -1.6927 -0.6144
 5286TIP3    H215823   3.808   3.899   2.030  2.0160 -0.6512 -0.7555
 5287TIP3   OH215824   5.964   0.597   2.802 -0.6498  0.1928 -0.3151
 5287TIP3    H115825   6.035   0.620   2.743 -1.1316  0.3515 -0.8353
 5287TIP3    H215826   5.954   0.502   2.793  0.9218 -0.1788  1.3683
 5288TIP3   OH215827   3.293   1.870   2.002 -0.2365 -0.0026 -0.2654
 5288TIP3    H115828   3.244   1.915   1.934  0.7996 -0.3078 -1.2627
 5288TIP3    H215829   3.340   1.801   1.955  0.0475 -0.6027  0.8609
 5289TIP3   OH215830   1.822   0.334   1.424  0.2317 -0.2235  0.1641
 5289TIP3    H115831   1.842   0.241   1.419  1.5952  0.0566  0.1572
 5289TIP3    H215832   1.726   0.337   1.433  0.3122 -1.6813  2.2063
 5290TIP3   OH215833   3.882   2.375   4.135 -0.1180  0.1879  0.5585
 5290TIP3    H115834   3.830   2.446   4.173 -1.0832 -0.2501  0.0832
 5290TIP3    H215835   3.821   2.329   4.077  0.3072 -1.3990  1.3038
 5291TIP3   OH215836   6.830   3.030   3.573  0.3439 -0.0415 -0.7895
 5291TIP3    H115837   6.898   3.076   3.620  0.5917  0.9816 -2.1094
 5291TIP3    H215838   6.876   2.967   3.518 -0.0009 -2.3081  1.3224
 5292TIP3   OH215839   5.070   3.320   3.187 -0.1721  0.3403 -0.6779
 5292TIP3    H115840   5.151   3.287   3.224  0.8143  2.1243 -1.1474
 5292TIP3    H215841   5.001   3.272   3.234  1.0922  0.1972  1.1469
 5293TIP3   OH215842   6.122   2.136   4.310  0.6326  0.2512  0.2962
 5293TIP3    H115843   6.089   2.087   4.385  0.2432  0.7517  0.4603
 5293TIP3    H215844   6.182   2.200   4.347  1.8797 -0.7007 -0.0116
 5294TIP3   OH215845   3.372   5.566   3.671  0.0951 -0.1541 -0.0721
 5294TIP3    H115846   3.353   5.597   3.582  2.3027  1.5729 -0.0184
 5294TIP3    H215847   3.359   5.471   3.665 -2.1451  0.1528 -1.5514
 5295TIP3   OH215848   4.160   5.759   4.413  0.3259  0.3706 -0.3078
 5295TIP3    H115849   4.177   5.797   4.499 -1.6533 -0.4954  0.5275
 5295TIP3    H215850   4.073   5.791   4.389 -0.2581 -1.4429 -0.7701
 5296TIP3   OH215851   1.050   6.476   2.400  0.1784  0.6055 -0.1674
 5296TIP3    H115852   1.008   6.390   2.405  0.0723  0.6712  0.0842
 5296TIP3    H215853   1.021   6.512   2.316 -2.4316  1.7496  1.0966
 5297TIP3   OH215854   2.100   3.413   2.132  0.0683  0.3709 -0.1699
 5297TIP3    H115855   2.107   3.440   2.040 -2.6278 -0.6241 -0.7788
 5297TIP3    H215856   2.131   3.322   2.132 -0.1237  0.3045 -0.1495
 5298TIP3   OH215857   6.546   0.451   4.002  0.4141  0.4397  0.0759
 5298TIP3    H115858   6.593   0.525   4.040  0.4141  0.8361 -0.6782
 5298TIP3    H215859   6.454   0.466   4.027  0.6600 -0.3091  1.5031
 5299TIP3   OH215860   6.472   6.258   2.297 -0.3240 -0.1318 -0.0179
 5299TIP3    H115861   6.501   6.196   2.231  0.9770  2.2333 -1.8458
 5299TIP3    H215862   6.401   6.307   2.256 -1.4512 -0.4540  1.4362
 5300TIP3   OH215863   4.329   3.575   2.186  0.2792 -0.0382  0.2827
 5300TIP3    H115864   4.321   3.669   2.204  0.8614  0.0972 -0.1281
 5300TIP3    H215865   4.356   3.537   2.270  0.7512  0.2682  0.2749
 5301TIP3   OH215866   7.056   5.851   4.143  0.3537 -0.3464 -0.1125
 5301TIP3    H115867   7.024   5.924   4.089  2.7964  0.4380 -0.6103
 5301TIP3    H215868   6.983   5.831   4.201 -0.7894  1.7851 -0.6955
 5302TIP3   OH215869   1.512   2.545   0.609  0.6780 -0.3961  0.8664
 5302TIP3    H115870   1.491   2.635   0.585 -0.5438 -0.6853  0.7921
 5302TIP3    H215871   1.599   2.550   0.648  1.4161  0.5478 -0.7705
 5303TIP3   OH215872   6.634   2.967   5.121 -0.0663  0.5182  0.6017
 5303TIP3    H115873   6.648   2.874   5.098  0.1793  0.5022  0.8099
 5303TIP3    H215874   6.723   3.003   5.126 -0.1769  0.8723  0.0875
 5304TIP3   OH215875   4.044   2.021   3.997 -0.2361  0.2421  0.3908
 5304TIP3    H115876   4.073   2.111   3.984  0.0365  0.1737  0.5280
 5304TIP3    H215877   4.022   1.990   3.909 -1.1841  0.7303  0.4440
 5305TIP3   OH215878   0.430   1.506   0.467 -0.0325  0.4552 -0.0105
 5305TIP3    H115879   0.410   1.587   0.513  1.9192  0.7410  0.4025
 5305TIP3    H215880   0.409   1.437   0.531 -1.4654  0.6027 -0.2802
 5306TIP3   OH215881   6.819   5.770   0.302  0.5419 -0.0177  0.8648
 5306TIP3    H115882   6.830   5.681   0.268 -0.3447  0.4427 -0.7567
 5306TIP3    H215883   6.725   5.786   0.297  0.4525  0.3556  2.9743
 5307TIP3   OH215884   6.491   3.328   1.723 -0.4860  0.1224 -0.7510
 5307TIP3    H115885   6.404   3.340   1.760  0.2348  0.8402  0.8020
 5307TIP3    H215886   6.490   3.239   1.688 -1.9691  0.2797 -1.1544
 5308TIP3   OH215887   2.515   1.035   2.623  0.0043  0.4896  0.2241
 5308TIP3    H115888   2.465   1.097   2.570 -1.8937  0.2916  1.6832
 5308TIP3    H215889   2.450   0.993   2.678  1.3949 -2.0573  0.0492
 5309TIP3   OH215890   5.715   1.384   0.123  0.0791 -0.5466 -0.1471
 5309TIP3    H115891   5.686   1.336   0.201  2.0097 -1.9625 -0.2466
 5309TIP3    H215892   5.712   1.319   0.052 -2.3553  0.8983 -1.4983
 5310TIP3   OH215893   2.180   1.677   1.393  0.0153  0.8916 -0.0318
 5310TIP3    H115894   2.221   1.645   1.313  1.0844 -0.0871  0.8565
 5310TIP3    H215895   2.197   1.771   1.392 -0.2767  0.9407 -1.1084
 5311TIP3   OH215896   2.828   3.097   3.977 -0.4638 -0.1282  0.0905
 5311TIP3    H115897   2.886   3.172   3.985  1.4988 -1.7587  2.8541
 5311TIP3    H215898   2.868   3.042   3.909  0.4251 -0.5065  0.8932
 5312TIP3   OH215899   1.548   4.060   3.245 -0.2982  0.3841  0.0957
 5312TIP3    H115900   1.527   4.023   3.331 -1.9958  1.6576  0.2880
 5312TIP3    H215901   1.485   4.019   3.185  0.9796 -0.6191 -0.6143
 5313TIP3   OH215902   6.315   2.282   4.481 -0.1790  0.0029  0.1673
 5313TIP3    H115903   6.273   2.328   4.554 -0.8221 -0.3847  0.0496
 5313TIP3    H215904   6.334   2.195   4.515  0.4979  0.1584  0.2007
 5314TIP3   OH215905   4.738   0.930   5.619 -0.7108 -0.1176  0.0942
 5314TIP3    H115906   4.828   0.951   5.642 -0.7804  0.1141  0.1533
 5314TIP3    H215907   4.711   1.000   5.560 -1.4755  0.8857  1.5580
 5315TIP3   OH215908   0.653   1.802   5.649  0.5017 -0.0119 -0.1286
 5315TIP3    H115909   0.741   1.815   5.684  0.6416  1.7601 -1.0272
 5315TIP3    H215910   0.595   1.814   5.724  0.9877 -0.7211  0.3711
 5316TIP3   OH215911   1.998   6.260   2.119  0.0026 -0.4834 -0.1130
 5316TIP3    H115912   2.046   6.261   2.201  2.0939 -1.8056 -1.2295
 5316TIP3    H215913   1.920   6.207   2.137  0.0535 -0.1335  1.1917
 5317TIP3   OH215914   1.616   0.954   5.167  0.5680 -0.2374  0.0740
 5317TIP3    H115915   1.605   1.017   5.237  1.5904 -0.3349  0.3436
 5317TIP3    H215916   1.711   0.937   5.164  0.6815  0.4273 -1.8952
 5318TIP3   OH215917   1.876   3.946   3.969 -0.0072 -0.2181  0.1265
 5318TIP3    H115918   1.792   3.937   4.014  0.0691  1.2744  0.6089
 5318TIP3    H215919   1.857   3.920   3.879 -1.2639  1.0941 -0.0291
 5319TIP3   OH215920   4.684   3.627   0.219  0.1701  0.1196  0.1878
 5319TIP3    H115921   4.624   3.685   0.172  0.5692 -0.6996 -1.4160
 5319TIP3    H215922   4.665   3.642   0.311  1.7261  4.4044  0.0204
 5320TIP3   OH215923   2.698   2.232   4.858  0.5568  0.3061  0.2100
 5320TIP3    H115924   2.775   2.248   4.913 -1.1318 -0.2657  2.8939
 5320TIP3    H215925   2.722   2.154   4.807  2.9084  2.0055 -1.4652
 5321TIP3   OH215926   7.032   5.812   1.646 -0.3546 -0.0642 -0.3000
 5321TIP3    H115927   6.994   5.877   1.704 -0.5427 -0.2185 -0.2504
 5321TIP3    H215928   7.125   5.810   1.669  0.0377  1.5014 -1.5310
 5322TIP3   OH215929   4.050   0.083   0.184 -0.2949 -0.4493 -0.0831
 5322TIP3    H115930   3.971   0.031   0.171 -1.3811  1.0802  0.0603
 5322TIP3    H215931   4.022   0.173   0.169  1.0391  0.3056  1.5673
 5323TIP3   OH215932   6.335   3.942   4.677 -0.3088 -0.3833  0.3247
 5323TIP3    H115933   6.424   3.958   4.711  0.6991  0.0491 -2.3142
 5323TIP3    H215934   6.297   4.029   4.668 -0.5071 -0.4866  0.1633
 5324TIP3   OH215935   5.230   5.145   1.573 -0.5690  0.4241  0.0917
 5324TIP3    H115936   5.247   5.078   1.507  0.6182  1.5641 -0.8094
 5324TIP3    H215937   5.259   5.227   1.533  2.3784  0.9085  2.8117
 5325TIP3   OH215938   2.095   2.383   4.347 -0.3717 -0.2958  0.2670
 5325TIP3    H115939   2.103   2.466   4.393  1.5848  0.2554 -0.9556
 5325TIP3    H215940   2.078   2.318   4.416  1.7455  0.5921  1.7180
 5326TIP3   OH215941   4.823   6.373   2.827  0.2957  0.7027  0.4900
 5326TIP3    H115942   4.773   6.370   2.909 -1.3537  0.4617 -0.4900
 5326TIP3    H215943   4.894   6.435   2.845 -1.8247  3.0940  1.1731
 5327TIP3   OH215944   3.044   6.211   3.711 -0.3039  0.4696  0.0368
 5327TIP3    H115945   3.019   6.261   3.789  0.1599  0.2233  0.3435
 5327TIP3    H215946   3.080   6.277   3.651 -2.2197  0.9524 -0.6779
 5328TIP3   OH215947   2.979   1.572   5.685 -0.0738  0.2541  0.1416
 5328TIP3    H115948   3.017   1.622   5.612  0.1704  2.2136  1.5271
 5328TIP3    H215949   2.888   1.556   5.658 -0.0649  1.1757 -0.4980
 5329TIP3   OH215950   0.390   1.326   0.676 -0.0201 -0.4622  0.0414
 5329TIP3    H115951   0.454   1.264   0.711  1.0010 -0.1362 -1.1896
 5329TIP3    H215952   0.328   1.339   0.748  0.5263 -1.8245  0.7947
 5330TIP3   OH215953   3.204   0.841   0.092 -0.9489 -0.7861  0.3513
 5330TIP3    H115954   3.250   0.918   0.060 -3.5734  0.6977 -0.1368
 5330TIP3    H215955   3.261   0.768   0.069  0.6816  0.8232 -1.0436
 5331TIP3   OH215956   0.711   0.692   5.512  0.2551  0.3978  0.1277
 5331TIP3    H115957   0.640   0.709   5.450 -0.0324  0.0966  0.3720
 5331TIP3    H215958   0.772   0.636   5.464  1.1522  1.9736 -0.6479
 5332TIP3   OH215959   6.587   6.265   0.937  0.1038  0.1466  0.8212
 5332TIP3    H115960   6.532   6.191   0.962  0.5676 -0.1416  1.0079
 5332TIP3    H215961   6.567   6.333   1.001 -0.1547  0.1037  0.7865
 5333TIP3   OH215962   0.400   3.535   1.430 -0.0133 -0.1794  0.1530
 5333TIP3    H115963   0.321   3.532   1.484  0.6366  0.7869  1.2119
 5333TIP3    H215964   0.396   3.619   1.386 -0.4697 -0.9064 -1.2605
 5334TIP3   OH215965   7.175   4.153   4.124 -0.5210  0.1542 -0.7578
 5334TIP3    H115966   7.228   4.177   4.200 -0.8856 -0.7362 -0.2079
 5334TIP3    H215967   7.233   4.100   4.070 -0.4883  0.1831 -0.7517
 5335TIP3   OH215968   1.916   2.029   2.576  0.4037 -0.4682 -0.5552
 5335TIP3    H115969   1.882   2.015   2.664 -0.3652 -0.9754 -0.9205
 5335TIP3    H215970   2.011   2.019   2.585  0.3104 -0.7913  0.1563
 5336TIP3   OH215971   3.764   2.300   2.993  0.5883 -0.1432  0.7818
 5336TIP3    H115972   3.742   2.377   3.046  1.5613  1.6849 -1.2682
 5336TIP3    H215973   3.691   2.292   2.931  0.8857 -0.3336  0.4541
 5337TIP3   OH215974   2.729   3.738   4.779  0.4655  0.3203 -0.4327
 5337TIP3    H115975   2.646   3.731   4.827 -0.1269 -2.2106 -1.6560
 5337TIP3    H215976   2.762   3.649   4.776  3.7960  1.3504  0.8027
 5338TIP3   OH215977   6.261   0.917   1.473  0.0805 -0.1876 -0.3269
 5338TIP3    H115978   6.306   0.833   1.462  0.4554 -0.0233 -0.0587
 5338TIP3    H215979   6.202   0.923   1.398 -2.4728 -2.2765  1.3434
 5339TIP3   OH215980   1.641   5.332   5.194  0.3402  0.3249 -0.1657
 5339TIP3    H115981   1.579   5.326   5.122  0.5960 -1.9705 -0.2646
 5339TIP3    H215982   1.596   5.385   5.260 -0.3508  1.5043 -1.5315
 5340TIP3   OH215983   6.421   5.832   2.034 -0.0710  0.3299 -0.5451
 5340TIP3    H115984   6.495   5.874   1.990  0.1628  3.0543  2.1763
 5340TIP3    H215985   6.351   5.898   2.032 -1.7601 -1.3792 -1.1418
 5341TIP3   OH215986   5.886   6.746   3.626  0.3870  0.4534  0.1203
 5341TIP3    H115987   5.831   6.783   3.557 -1.3962 -2.2171 -0.0514
 5341TIP3    H215988   5.839   6.765   3.707  0.3465  0.1032  0.1827
 5342TIP3   OH215989   2.100   3.303   1.389 -0.0857 -0.2168  0.0589
 5342TIP3    H115990   2.070   3.251   1.314  1.3220 -0.1784 -0.5512
 5342TIP3    H215991   2.167   3.248   1.430 -0.6462 -0.1138  1.1463
 5343TIP3   OH215992   2.731   2.609   5.365 -0.0272 -0.2352 -0.4560
 5343TIP3    H115993   2.661   2.596   5.301 -1.1652  1.2317  0.4109
 5343TIP3    H215994   2.782   2.683   5.330  1.3011 -1.4614 -1.2146
 5344TIP3   OH215995   2.937   4.344   2.592  0.4355  0.1328  0.2506
 5344TIP3    H115996   3.024   4.343   2.633  0.8106  0.0735 -0.5307
 5344TIP3    H215997   2.899   4.427   2.620  0.9877  0.4408  0.0928
 5345TIP3   OH215998   4.068   5.468   5.188 -0.2954 -0.1069  0.5828
 5345TIP3    H115999   3.981   5.483   5.152 -1.4078  1.9779  3.7169
 5345TIP3    H216000   4.107   5.402   5.130 -2.7529  1.0592 -2.6863
 5346TIP3   OH216001   2.513   6.180   1.870 -0.6983 -0.4026 -0.5865
 5346TIP3    H116002   2.454   6.144   1.803 -1.2251  0.4287 -0.5862
 5346TIP3    H216003   2.549   6.259   1.830  0.0023 -0.6082 -0.3744
 5347TIP3   OH216004   3.082   5.757   2.620  0.0572  0.5258  0.4589
 5347TIP3    H116005   3.120   5.841   2.593 -0.1264  0.5779  0.3642
 5347TIP3    H216006   3.093   5.700   2.544  0.2354  0.4453  0.5439
 5348TIP3   OH216007   0.964   3.921   0.987 -0.7395 -0.2857 -0.1402
 5348TIP3    H116008   0.905   3.923   1.062  0.3176 -1.1687  0.7557
 5348TIP3    H216009   0.934   3.846   0.935  0.0727 -1.2990  0.7772
 5349TIP3   OH216010   3.746   0.931   3.970  0.1901 -0.0450 -0.1089
 5349TIP3    H116011   3.813   0.980   3.922 -0.0539 -1.3304 -1.8711
 5349TIP3    H216012   3.668   0.986   3.966  0.6282  0.6128  0.2842
 5350TIP3   OH216013   0.825   0.402   3.199 -0.2073 -0.6795  0.0915
 5350TIP3    H116014   0.907   0.453   3.201 -0.9145  0.4966  0.4504
 5350TIP3    H216015   0.757   0.466   3.222 -1.5843 -0.9751 -2.7387
 5351TIP3   OH216016   7.137   6.725   0.451  0.3637 -0.0552 -0.0170
 5351TIP3    H116017   7.224   6.714   0.411  0.0549 -1.6575 -0.2999
 5351TIP3    H216018   7.117   6.640   0.489 -1.8672 -0.3189 -1.5597
 5352TIP3   OH216019   5.562   5.104   1.769 -0.4628 -0.0913  0.5713
 5352TIP3    H116020   5.527   5.045   1.835  1.5918 -0.2014  1.6323
 5352TIP3    H216021   5.517   5.187   1.784 -1.9578 -0.8306  0.3291
 5353TIP3   OH216022   0.629   6.609   5.128 -0.4091 -0.4369 -0.6176
 5353TIP3    H116023   0.607   6.657   5.208  1.9213  2.6132 -1.5906
 5353TIP3    H216024   0.725   6.611   5.125 -0.2448 -3.7102 -1.7277
 5354TIP3   OH216025   5.045   2.352   1.935  0.3760  0.3971 -0.6577
 5354TIP3    H116026   5.042   2.266   1.892  0.0862  0.1064 -0.0758
 5354TIP3    H216027   5.129   2.389   1.910  1.5698 -1.0602  0.9677
 5355TIP3   OH216028   1.976   2.571   2.403 -0.6464  0.3226 -0.8031
 5355TIP3    H116029   1.984   2.483   2.438 -1.7483 -0.0229 -1.3596
 5355TIP3    H216030   1.992   2.629   2.477 -0.9637 -0.3664 -0.1907
 5356TIP3   OH216031   5.386   3.554   3.356 -0.0856  0.0122 -0.2763
 5356TIP3    H116032   5.308   3.563   3.411  0.5022  0.8348  0.4331
 5356TIP3    H216033   5.365   3.481   3.298  0.2752 -2.6757  2.7153
 5357TIP3   OH216034   6.043   4.380   4.186  0.3718 -0.0845 -0.0971
 5357TIP3    H116035   5.975   4.427   4.235  1.9969 -0.2162  2.4899
 5357TIP3    H216036   6.013   4.289   4.187 -1.1494  0.3209 -2.2290
 5358TIP3   OH216037   3.322   5.980   4.904 -0.2356 -0.2759  0.0471
 5358TIP3    H116038   3.237   5.997   4.864 -0.0165 -0.5540 -0.5494
 5358TIP3    H216039   3.386   6.017   4.842  0.0985 -0.4549  0.2796
 5359TIP3   OH216040   1.707   3.395   1.348  0.1041  0.1537 -0.4980
 5359TIP3    H116041   1.725   3.486   1.369  0.1493  0.2118 -0.7776
 5359TIP3    H216042   1.724   3.347   1.429 -1.0536  0.5363 -0.0188
 5360TIP3   OH216043   1.336   2.083   2.610  0.1040  0.2943 -0.3265
 5360TIP3    H116044   1.281   2.007   2.591 -1.1631  1.4383 -1.3654
 5360TIP3    H216045   1.426   2.050   2.600 -0.4223 -0.5903 -2.8741
 5361TIP3   OH216046   2.057   4.051   3.453 -0.1628  0.4860  0.3045
 5361TIP3    H116047   2.070   4.006   3.536  0.0191  1.4810  0.8213
 5361TIP3    H216048   2.049   3.980   3.389 -1.1828 -0.3079  1.2756
 5362TIP3   OH216049   6.562   2.780   0.960 -0.1522  0.5579 -0.0801
 5362TIP3    H116050   6.606   2.779   1.046 -0.0267  1.4584 -0.1260
 5362TIP3    H216051   6.474   2.812   0.979 -0.3689  0.0426 -0.1905
 5363TIP3   OH216052   5.025   4.532   4.256  0.8842  0.0578 -0.3715
 5363TIP3    H116053   5.087   4.531   4.329  0.5087 -1.8409 -0.0076
 5363TIP3    H216054   4.953   4.477   4.286 -0.1494  0.7690 -1.4754
 5364TIP3   OH216055   3.823   1.575   0.362 -0.6975  0.1577 -0.3685
 5364TIP3    H116056   3.828   1.575   0.267 -1.8719 -1.4718 -0.4924
 5364TIP3    H216057   3.897   1.521   0.390 -0.4923  0.4365 -0.3745
 5365TIP3   OH216058   5.650   3.027   5.071  0.1089 -0.0107  0.2035
 5365TIP3    H116059   5.569   2.997   5.111  0.6896  0.3963  1.7406
 5365TIP3    H216060   5.719   3.000   5.132  1.0023  0.8554 -0.3883
 5366TIP3   OH216061   1.461   6.764   5.457 -0.1129  0.2589  0.0398
 5366TIP3    H116062   1.429   6.722   5.537  0.4843 -1.3404 -0.5191
 5366TIP3    H216063   1.401   6.734   5.388 -1.5291  2.7966  0.0494
 5367TIP3   OH216064   4.379   3.741   3.479  0.1784 -0.1242 -0.0259
 5367TIP3    H116065   4.367   3.698   3.564 -2.0898 -2.4952 -1.4168
 5367TIP3    H216066   4.301   3.795   3.468  0.7494  0.6482 -0.3780
 5368TIP3   OH216067   2.060   0.714   3.219 -0.4175 -0.1208  0.3252
 5368TIP3    H116068   2.108   0.795   3.198  0.0487 -0.4155  0.2415
 5368TIP3    H216069   2.047   0.671   3.135 -0.3662 -0.2957  0.4052
 5369TIP3   OH216070   6.753   5.507   3.731  0.2409  0.3915  0.3838
 5369TIP3    H116071   6.796   5.571   3.675 -0.0450 -0.3126 -0.6807
 5369TIP3    H216072   6.818   5.437   3.741  0.1819  0.3793  0.6728
 5370TIP3   OH216073   4.484   2.370   2.776  0.4551 -0.1110  0.0999
 5370TIP3    H116074   4.544   2.304   2.812  0.9284 -0.4556 -1.2638
 5370TIP3    H216075   4.526   2.454   2.796  0.7096 -0.2902  0.3311
 5371TIP3   OH216076   0.054   0.853   1.012  0.1977 -0.5329 -0.5305
 5371TIP3    H116077   0.018   0.822   0.929  1.2693 -0.4518 -1.0451
 5371TIP3    H216078   0.101   0.933   0.990 -0.0520 -0.1492  0.2779
 5372TIP3   OH216079   0.139   5.670   1.217 -0.0936 -0.2970 -0.4842
 5372TIP3    H116080   0.069   5.687   1.281  0.5332 -1.2962  0.5060
 5372TIP3    H216081   0.103   5.699   1.134 -0.4608  2.2886  0.4926
 5373TIP3   OH216082   2.160   1.762   4.395 -0.1010  0.0589 -0.2331
 5373TIP3    H116083   2.089   1.772   4.459  1.0077 -0.5257  1.1568
 5373TIP3    H216084   2.198   1.850   4.388  0.7484 -0.1598  1.1592
 5374TIP3   OH216085   3.118   2.895   4.151  0.1061  0.2842  0.1692
 5374TIP3    H116086   3.151   2.928   4.067 -1.3514  0.3853 -0.3864
 5374TIP3    H216087   3.079   2.811   4.131  0.0525  0.1490  0.8173
 5375TIP3   OH216088   4.275   2.784   4.388 -0.8604  0.5111  0.2537
 5375TIP3    H116089   4.329   2.848   4.434  2.9895 -2.2371  0.0428
 5375TIP3    H216090   4.225   2.741   4.458 -0.1642  0.8142  0.9544
 5376TIP3   OH216091   3.600   1.562   0.505  0.4897 -0.2964 -0.0590
 5376TIP3    H116092   3.640   1.644   0.531  0.6844 -0.4293  0.0655
 5376TIP3    H216093   3.667   1.518   0.451  0.1789 -0.1256 -0.5968
 5377TIP3   OH216094   0.996   5.106   3.896  0.9681  0.3057  0.6082
 5377TIP3    H116095   1.059   5.075   3.831  1.5922  0.3684  1.1643
 5377TIP3    H216096   1.050   5.144   3.965  0.3280  0.1583  1.2065
 5378TIP3   OH216097   6.532   3.596   2.311  0.2180 -0.1525  0.4704
 5378TIP3    H116098   6.588   3.533   2.357 -0.1272 -0.9662 -0.1816
 5378TIP3    H216099   6.556   3.585   2.219  4.1675  4.5635  0.5460
 5379TIP3   OH216100   1.383   2.032   3.161  0.2481  0.0635 -0.4631
 5379TIP3    H116101   1.395   2.043   3.067 -1.1730 -1.2582 -0.8522
 5379TIP3    H216102   1.433   2.102   3.201  0.6668  0.8036 -2.2208
 5380TIP3   OH216103   0.083   5.744   2.623 -0.5787 -0.6816 -0.6606
 5380TIP3    H116104   0.090   5.834   2.657  1.2647 -1.2342  0.5839
 5380TIP3    H216105   0.145   5.742   2.550 -0.8712 -0.8449 -0.9014
 5381TIP3   OH216106   2.495   3.812   0.283 -0.1100  0.6104 -0.0628
 5381TIP3    H116107   2.428   3.774   0.339 -1.1164  1.6101 -0.5445
 5381TIP3    H216108   2.569   3.830   0.341 -1.0729  1.4865  0.9283
 5382TIP3   OH216109   6.754   6.257   1.736 -0.6065  0.1203  0.1248
 5382TIP3    H116110   6.709   6.172   1.734  0.9486 -0.7694  0.7718
 5382TIP3    H216111   6.744   6.291   1.647 -1.9909 -0.3182  0.0820
 5383TIP3   OH216112   5.203   3.019   2.868 -0.6040 -0.2179  0.1794
 5383TIP3    H116113   5.232   2.930   2.887  2.0778  0.5505  0.1166
 5383TIP3    H216114   5.199   3.023   2.772  1.0323  0.1623  0.0933
 5384TIP3   OH216115   5.203   2.600   4.082 -0.1615  0.5379 -0.8117
 5384TIP3    H116116   5.235   2.655   4.153  1.3486 -0.3076 -0.7949
 5384TIP3    H216117   5.109   2.592   4.098  0.2424 -0.1806  1.4694
 5385TIP3   OH216118   4.582   3.619   5.834  0.0975 -0.0082 -0.2118
 5385TIP3    H116119   4.536   3.680   5.777 -0.5148  0.2495  0.5362
 5385TIP3    H216120   4.671   3.652   5.839  0.1866 -0.1038 -1.1085
 5386TIP3   OH216121   5.228   3.558   3.012 -0.7208  0.4180 -0.0176
 5386TIP3    H116122   5.190   3.519   3.091  0.5232  0.1268  0.4593
 5386TIP3    H216123   5.202   3.650   3.017 -0.0398  0.5727  1.1470
 5387TIP3   OH216124   1.543   4.647   3.831  0.0296  0.7597  0.3258
 5387TIP3    H116125   1.545   4.742   3.818 -0.8186  0.8797  0.9925
 5387TIP3    H216126   1.450   4.626   3.842  0.2524 -0.0671  0.7430
 5388TIP3   OH216127   0.504   5.073   3.654 -0.3403  0.2865 -0.0945
 5388TIP3    H116128   0.590   5.073   3.695  0.1813  1.0368 -1.1386
 5388TIP3    H216129   0.442   5.077   3.726  0.5579  2.8380  0.6097
 5389TIP3   OH216130   2.863   1.313   2.756  0.1266  0.0820 -0.2189
 5389TIP3    H116131   2.805   1.259   2.809  1.2659 -0.9761 -0.0178
 5389TIP3    H216132   2.942   1.260   2.744  0.2625  0.6473 -2.2164
 5390TIP3   OH216133   4.519   5.964   3.528 -0.7222 -0.3084  0.3313
 5390TIP3    H116134   4.571   5.887   3.503 -1.4882 -0.5377 -0.6646
 5390TIP3    H216135   4.459   5.977   3.454 -0.9530  0.9463  0.7084
 5391TIP3   OH216136   1.441   5.708   1.962  0.1837  0.4595  0.0965
 5391TIP3    H116137   1.364   5.652   1.967  2.4747 -2.9327  0.7374
 5391TIP3    H216138   1.477   5.692   1.875  1.4344  0.0525  0.6605
 5392TIP3   OH216139   5.235   0.669   0.367  0.9030  0.6318  0.3022
 5392TIP3    H116140   5.238   0.623   0.451  2.9265 -1.0826 -0.6300
 5392TIP3    H216141   5.213   0.760   0.391 -1.9003 -0.4249  2.3192
 5393TIP3   OH216142   2.353   1.858   3.340  0.3473 -0.2392  0.0188
 5393TIP3    H116143   2.302   1.917   3.285 -1.5930 -1.4891  0.3739
 5393TIP3    H216144   2.318   1.872   3.428 -0.2233 -1.9320  0.1000
 5394TIP3   OH216145   1.184   1.514   0.519 -0.2171  0.0557 -0.2423
 5394TIP3    H116146   1.152   1.604   0.527 -1.8683 -0.6023  1.1402
 5394TIP3    H216147   1.193   1.501   0.425 -3.2648  0.6270 -0.7284
 5395TIP3   OH216148   4.864   0.015   3.652 -0.2872 -0.7315 -0.2449
 5395TIP3    H116149   4.776   0.044   3.677 -0.4765 -1.4446 -0.0625
 5395TIP3    H216150   4.859   0.004   3.557 -0.7801 -1.9970 -0.0904
 5396TIP3   OH216151   3.367   3.914   1.640  0.0493  0.2586 -0.1043
 5396TIP3    H116152   3.345   3.894   1.548 -0.4910 -2.5602  0.5382
 5396TIP3    H216153   3.335   3.838   1.689 -0.9528  2.3061  2.6394
 5397TIP3   OH216154   0.815   1.984   1.344 -0.3696  0.1118  1.4622
 5397TIP3    H116155   0.843   2.037   1.270 -0.8936 -2.1413 -0.4616
 5397TIP3    H216156   0.896   1.953   1.384 -0.0435 -0.6632  0.2569
 5398TIP3   OH216157   7.120   5.224   4.948 -0.4815  0.2380  0.3744
 5398TIP3    H116158   7.208   5.230   4.986  0.0774 -0.6229 -0.7285
 5398TIP3    H216159   7.118   5.139   4.905 -1.5657  0.6078 -0.3520
 5399TIP3   OH216160   3.367   5.014   2.174 -0.2924  0.1584  0.3289
 5399TIP3    H116161   3.426   4.985   2.105  0.4753  0.8346  0.6884
 5399TIP3    H216162   3.280   4.988   2.144  0.0390  0.3619 -0.8385
 5400TIP3   OH216163   5.613   1.402   5.433 -0.0626  0.1033 -0.2100
 5400TIP3    H116164   5.545   1.456   5.392 -1.1624 -0.5131  0.7426
 5400TIP3    H216165   5.612   1.320   5.384 -0.4369 -0.1283  0.1760
 5401TIP3   OH216166   2.429   6.533   5.025  0.3410  0.5828  0.2164
 5401TIP3    H116167   2.334   6.526   5.017  0.5174 -2.4772 -0.4386
 5401TIP3    H216168   2.451   6.611   4.973 -1.5988 -0.2140 -2.0048
 5402TIP3   OH216169   6.160   5.866   3.932  0.2243 -0.2619 -0.0173
 5402TIP3    H116170   6.087   5.842   3.989  0.5158  1.6086  1.2523
 5402TIP3    H216171   6.237   5.860   3.988  0.8747 -0.9039 -0.9654
 5403TIP3   OH216172   5.326   3.638   5.297 -0.2963 -0.6034 -0.1405
 5403TIP3    H116173   5.270   3.613   5.224  0.2067 -1.8273 -0.1320
 5403TIP3    H216174   5.329   3.734   5.294 -0.4971 -0.6239 -1.5611
 5404TIP3   OH216175   3.773   3.325   1.856  0.1242  0.2653  0.0872
 5404TIP3    H116176   3.817   3.394   1.905  0.8130 -0.4315  0.4927
 5404TIP3    H216177   3.840   3.257   1.845  0.0316  0.4395 -1.9453
 5405TIP3   OH216178   2.804   2.303   1.689  0.3563  0.3089  0.3598
 5405TIP3    H116179   2.799   2.268   1.601  0.9216 -2.9047  1.4868
 5405TIP3    H216180   2.894   2.285   1.717 -0.0072  0.6311  1.8447
 5406TIP3   OH216181   5.963   1.788   1.531 -0.5141  0.3093 -0.1645
 5406TIP3    H116182   6.017   1.751   1.600  0.2985  1.1114 -0.3498
 5406TIP3    H216183   5.882   1.815   1.575 -1.2414 -1.8444 -0.0661
 5407TIP3   OH216184   4.460   1.246   2.668 -0.1191  1.0558 -0.0825
 5407TIP3    H116185   4.539   1.208   2.631  0.4162  0.8100  1.2580
 5407TIP3    H216186   4.456   1.334   2.631 -0.2229  0.4558 -1.5644
 5408TIP3   OH216187   5.917   4.033   2.774  0.0337  0.6954 -0.4079
 5408TIP3    H116188   5.917   3.957   2.717 -0.7495  0.0542  0.4142
 5408TIP3    H216189   5.830   4.072   2.762  0.2029  1.1001 -0.3498
 5409TIP3   OH216190   0.678   1.084   0.339 -0.1820 -0.0213  0.0410
 5409TIP3    H116191   0.739   1.144   0.296 -0.3726 -0.1255 -0.3775
 5409TIP3    H216192   0.596   1.132   0.346 -0.8487 -0.7981 -1.8485
 5410TIP3   OH216193   3.798   5.370   0.140 -0.4223  0.0884  0.4342
 5410TIP3    H116194   3.836   5.338   0.058  1.1552 -0.9175  1.5102
 5410TIP3    H216195   3.847   5.326   0.209 -1.4210  1.2235  1.9554
 5411TIP3   OH216196   1.562   6.686   0.621 -0.2187  0.0944  0.5974
 5411TIP3    H116197   1.608   6.724   0.546  1.1989  0.3147  1.5347
 5411TIP3    H216198   1.505   6.620   0.583  0.9236 -0.2338 -0.6314
 5412TIP3   OH216199   2.643   5.352   3.450  0.0126  0.3638  0.2652
 5412TIP3    H116200   2.705   5.377   3.381 -0.4972 -0.2112 -0.4188
 5412TIP3    H216201   2.676   5.269   3.484 -1.1122 -0.6883 -1.0831
 5413TIP3   OH216202   0.628   1.678   3.992  0.4417  0.1551 -0.5687
 5413TIP3    H116203   0.717   1.696   4.020 -0.4762  0.6478  2.4612
 5413TIP3    H216204   0.584   1.647   4.072 -2.5316  1.7327 -1.4486
 5414TIP3   OH216205   6.581   6.662   2.941 -0.0839 -0.2138 -0.0095
 5414TIP3    H116206   6.624   6.695   2.862 -1.4960  0.8539 -0.3873
 5414TIP3    H216207   6.650   6.615   2.988  0.8428 -0.7033 -1.7626
 5415TIP3   OH216208   5.674   5.034   3.647 -0.3217 -0.6404  0.6593
 5415TIP3    H116209   5.735   5.088   3.596 -1.0619 -0.4343 -0.0298
 5415TIP3    H216210   5.722   5.012   3.726  0.9008 -1.0259 -0.1615
 5416TIP3   OH216211   3.778   4.964   2.555  0.2761  0.1250 -0.2876
 5416TIP3    H116212   3.793   4.883   2.602  1.0236  1.1451  1.3168
 5416TIP3    H216213   3.683   4.967   2.544  0.1793 -0.6501  0.2237
 5417TIP3   OH216214   6.368   2.829   1.456  0.5660  0.4694  0.6936
 5417TIP3    H116215   6.402   2.839   1.545 -0.1389 -0.3320  1.0679
 5417TIP3    H216216   6.446   2.819   1.401  0.9695 -0.4335  1.4132
 5418TIP3   OH216217   2.862   4.214   1.344  0.1387  0.0590 -0.1711
 5418TIP3    H116218   2.830   4.282   1.403 -0.6732  0.1371 -0.6765
 5418TIP3    H216219   2.874   4.259   1.260 -0.4159 -0.4026 -0.5137
 5419TIP3   OH216220   4.047   2.010   4.881  0.3329 -0.3760 -0.4404
 5419TIP3    H116221   4.093   2.014   4.798  0.6161 -1.2785 -0.3417
 5419TIP3    H216222   4.093   2.072   4.938  1.3895 -1.1764 -0.3756
 5420TIP3   OH216223   6.870   4.413   2.974  0.7314 -0.2077 -0.0140
 5420TIP3    H116224   6.843   4.410   3.065 -0.0902  1.8486 -0.1267
 5420TIP3    H216225   6.804   4.469   2.932  2.1521  0.4435 -1.4601
 5421TIP3   OH216226   1.897   3.134   3.309  0.3636 -0.3634  0.4329
 5421TIP3    H116227   1.806   3.124   3.282  0.6539  1.5303 -1.5323
 5421TIP3    H216228   1.940   3.053   3.282 -0.0496  0.1643 -1.9866
 5422TIP3   OH216229   6.767   5.738   0.614 -0.3704  0.4808  0.2057
 5422TIP3    H116230   6.723   5.773   0.536  0.6789  1.9139  0.2064
 5422TIP3    H216231   6.819   5.665   0.581  1.2767  2.0226 -0.7965
 5423TIP3   OH216232   4.730   6.089   0.354  0.4351 -0.0238  0.0271
 5423TIP3    H116233   4.744   6.173   0.310  1.4543  0.5455  1.3811
 5423TIP3    H216234   4.818   6.056   0.370  0.1406  0.0233  2.0305
 5424TIP3   OH216235   3.970   1.019   3.778 -0.2534 -0.6356  0.8447
 5424TIP3    H116236   4.040   0.995   3.839 -0.1975 -0.7067  0.7524
 5424TIP3    H216237   3.998   0.983   3.694  0.5093  0.9340  0.3911
 5425TIP3   OH216238   1.499   4.767   4.095  0.1264  0.5900 -0.4876
 5425TIP3    H116239   1.528   4.698   4.035 -2.1264  0.3146 -1.3798
 5425TIP3    H216240   1.485   4.843   4.038  0.5058  1.1419  0.1454
 5426TIP3   OH216241   3.016   5.123   4.878  0.3886 -0.3334 -0.0024
 5426TIP3    H116242   2.932   5.083   4.901 -1.2212  2.5853 -0.3695
 5426TIP3    H216243   3.013   5.132   4.783  0.7304  0.5343  0.0601
 5427TIP3   OH216244   2.753   5.971   3.189 -0.2044  0.4669 -0.2557
 5427TIP3    H116245   2.843   5.967   3.224 -0.4590 -0.9881  0.3141
 5427TIP3    H216246   2.755   6.042   3.125  2.0371 -1.1080 -2.1206
 5428TIP3   OH216247   5.107   4.601   2.321  0.5882  0.2368  0.8457
 5428TIP3    H116248   5.059   4.518   2.316  0.9980  0.0223  0.4853
 5428TIP3    H216249   5.128   4.623   2.231  0.2619  0.8717  0.9149
 5429TIP3   OH216250   0.734   3.441   1.812 -0.1043 -0.8280  0.6565
 5429TIP3    H116251   0.680   3.509   1.851 -0.0040 -0.4343  0.1295
 5429TIP3    H216252   0.691   3.422   1.728  0.5258 -0.5698  0.2693
 5430TIP3   OH216253   3.702   3.849   3.205 -0.0760  0.4823 -0.0054
 5430TIP3    H116254   3.633   3.825   3.268  0.8612 -0.2048  0.8017
 5430TIP3    H216255   3.655   3.866   3.124 -1.1753 -0.2793  0.4347
 5431TIP3   OH216256   1.542   3.628   3.183 -0.5967  0.7211 -0.0469
 5431TIP3    H116257   1.542   3.534   3.203 -2.1137  1.0931  2.0947
 5431TIP3    H216258   1.452   3.645   3.153 -0.2092  1.4225 -0.8312
 5432TIP3   OH216259   3.103   1.942   3.761  0.3271  0.0844 -0.1686
 5432TIP3    H116260   3.148   2.025   3.745  1.7229 -0.3099  1.3897
 5432TIP3    H216261   3.092   1.903   3.674 -0.9665  2.1428 -1.0138
 5433TIP3   OH216262   3.399   0.574   4.592 -0.3841  0.0987  0.7555
 5433TIP3    H116263   3.363   0.659   4.566 -1.3518 -0.1105  1.3272
 5433TIP3    H216264   3.331   0.511   4.568  0.3947 -0.5473  0.1797
 5434TIP3   OH216265   1.374   2.176   5.792 -0.0678  1.0759  0.1071
 5434TIP3    H116266   1.408   2.087   5.799 -1.4736  0.5126  0.1992
 5434TIP3    H216267   1.435   2.229   5.843  1.2429  0.3231 -0.6023
 5435TIP3   OH216268   4.083   4.048   3.690  0.9725 -0.9736  0.2710
 5435TIP3    H116269   4.055   4.100   3.615  0.5631  1.4947  2.0281
 5435TIP3    H216270   4.179   4.045   3.683  0.9470 -0.6428 -0.2548
 5436TIP3   OH216271   0.955   1.309   4.426  0.7490 -0.2503 -0.1776
 5436TIP3    H116272   0.875   1.272   4.463  0.4090  0.3162 -0.3212
 5436TIP3    H216273   1.013   1.320   4.501  0.4280 -0.0156  0.0397
 5437TIP3   OH216274   3.003   2.444   2.602 -0.2715  0.2824  0.0822
 5437TIP3    H116275   3.071   2.377   2.611  1.9621  2.4065  0.1793
 5437TIP3    H216276   2.923   2.402   2.634  1.4326 -1.6428  2.1345
 5438TIP3   OH216277   1.501   2.624   2.648  0.3231 -0.3843  0.1213
 5438TIP3    H116278   1.455   2.699   2.609  0.2199 -0.2048  0.5826
 5438TIP3    H216279   1.568   2.601   2.584  0.4744  0.2203  0.0598
 5439TIP3   OH216280   1.970   0.179   2.435 -0.0170 -0.3018  0.1522
 5439TIP3    H116281   1.931   0.234   2.367 -1.9811 -0.1430  1.2980
 5439TIP3    H216282   1.964   0.090   2.400 -1.2846 -0.2550  0.1708
 5440TIP3   OH216283   0.067   1.680   1.693 -0.2413  0.0685  0.6872
 5440TIP3    H116284   0.035   1.748   1.752 -1.5046 -0.1326  0.2754
 5440TIP3    H216285   0.114   1.619   1.750  1.6207  1.6673  0.9482
 5441TIP3   OH216286   3.950   5.165   2.905  0.1006 -0.3393 -0.9077
 5441TIP3    H116287   3.936   5.172   2.810  1.4181  0.5130 -1.0582
 5441TIP3    H216288   3.990   5.248   2.930  0.3633 -0.8081  0.2949
 5442TIP3   OH216289   1.819   2.984   0.663  0.3850 -0.0291  0.1939
 5442TIP3    H116290   1.772   3.038   0.600  1.4233  0.0124 -0.5676
 5442TIP3    H216291   1.860   2.915   0.610 -0.9048 -1.6084  1.1286
 5443TIP3   OH216292   1.126   6.563   3.153  0.2907 -0.6651  0.1679
 5443TIP3    H116293   1.062   6.629   3.124 -0.2793 -1.7833 -1.2588
 5443TIP3    H216294   1.081   6.480   3.140  1.2082 -1.3802  1.3976
 5444TIP3   OH216295   4.465   1.128   2.975 -0.2860 -0.6164  0.0750
 5444TIP3    H116296   4.511   1.144   3.057  0.6993 -0.1192 -0.5613
 5444TIP3    H216297   4.517   1.173   2.908 -2.1041  0.6640 -0.5837
 5445TIP3   OH216298   1.030   0.617   2.154 -0.5926  0.5002 -0.1524
 5445TIP3    H116299   1.068   0.541   2.110  0.1031  0.4741  0.4649
 5445TIP3    H216300   1.060   0.608   2.245 -0.3568  1.6064 -0.1103
 5446TIP3   OH216301   1.036   4.664   0.649  0.0578 -0.4257  0.7433
 5446TIP3    H116302   1.048   4.569   0.645  0.9286 -0.3390  1.0212
 5446TIP3    H216303   1.102   4.699   0.590  0.0375  0.0246  0.9881
 5447TIP3   OH216304   3.118   5.326   1.000  0.2157  0.2679  0.1734
 5447TIP3    H116305   3.132   5.405   0.948 -2.0698  0.6050 -0.0147
 5447TIP3    H216306   3.196   5.321   1.056  0.9726  1.9752 -0.6431
 5448TIP3   OH216307   5.190   5.188   4.946 -0.3541  0.0365  0.1830
 5448TIP3    H116308   5.122   5.255   4.943 -0.0389  0.3783  0.5273
 5448TIP3    H216309   5.241   5.202   4.866 -1.2202 -0.8029 -0.5411
 5449TIP3   OH216310   4.680   1.652   2.507 -0.5374  0.1028 -0.3478
 5449TIP3    H116311   4.669   1.719   2.574 -0.7392 -0.8504  0.6070
 5449TIP3    H216312   4.699   1.572   2.556 -2.1445 -0.9344 -1.3153
 5450TIP3   OH216313   0.176   2.702   2.303  0.2423 -0.3994 -0.7717
 5450TIP3    H116314   0.134   2.639   2.245 -0.1936 -1.6967  0.9060
 5450TIP3    H216315   0.248   2.655   2.344  0.4315  0.4228 -0.1080
 5451TIP3   OH216316   4.610   5.373   5.324 -0.3740 -0.4480 -0.0222
 5451TIP3    H116317   4.699   5.344   5.343 -0.6289 -0.6198  0.9562
 5451TIP3    H216318   4.618   5.424   5.243  0.9536  1.2446  1.0988
 5452TIP3   OH216319   2.474   4.675   4.089 -0.3020  0.5713  0.5319
 5452TIP3    H116320   2.407   4.657   4.023 -0.1876  0.7067  0.3772
 5452TIP3    H216321   2.507   4.589   4.115 -0.5641  0.5017  0.6407
 5453TIP3   OH216322   4.535   4.938   1.111  0.6526  0.4442 -0.1529
 5453TIP3    H116323   4.628   4.914   1.109  0.1521 -1.7120  0.2677
 5453TIP3    H216324   4.492   4.873   1.055 -1.1256 -1.3626  3.0350
 5454TIP3   OH216325   6.744   0.867   4.254 -0.3683 -0.2105 -0.4396
 5454TIP3    H116326   6.722   0.840   4.343  0.0794  0.1501 -0.2137
 5454TIP3    H216327   6.834   0.901   4.260 -0.3176 -0.2158 -1.0348
 5455TIP3   OH216328   4.723   6.430   3.938  0.6611 -0.3279 -0.0525
 5455TIP3    H116329   4.785   6.368   3.977  1.1104 -0.1892 -0.5385
 5455TIP3    H216330   4.637   6.394   3.957  0.9223 -2.0095 -1.8027
 5456TIP3   OH216331   6.569   2.307   5.024  0.1676 -0.6482 -0.0250
 5456TIP3    H116332   6.563   2.212   5.012  0.1435 -0.8709  1.5142
 5456TIP3    H216333   6.661   2.327   5.007  0.1681 -0.9336 -0.3919
 5457TIP3   OH216334   4.138   2.377   0.345 -0.0390  0.4844 -0.0262
 5457TIP3    H116335   4.059   2.413   0.386 -0.9178 -0.3728 -0.9047
 5457TIP3    H216336   4.171   2.315   0.410  0.0346  0.9978  0.4324
 5458TIP3   OH216337   3.640   4.189   3.296 -0.2597 -0.5908 -0.1792
 5458TIP3    H116338   3.683   4.109   3.264 -0.2216 -0.3819 -0.6567
 5458TIP3    H216339   3.693   4.260   3.260 -0.1492 -0.3491  0.4495
 5459TIP3   OH216340   3.660   3.275   4.642  0.3158 -0.4151  0.6201
 5459TIP3    H116341   3.648   3.352   4.586  1.1228 -0.8529 -0.1833
 5459TIP3    H216342   3.588   3.280   4.705 -2.2284 -1.2248 -1.9707
 5460TIP3   OH216343   4.661   4.077   3.324 -0.2928  0.5903  0.4951
 5460TIP3    H116344   4.607   4.030   3.387 -0.4756 -0.5943 -0.5168
 5460TIP3    H216345   4.751   4.056   3.349 -0.3752 -1.4152 -0.7121
 5461TIP3   OH216346   3.439   2.901   0.992 -0.9575  0.4183 -0.7605
 5461TIP3    H116347   3.509   2.930   0.934 -1.9702 -1.6456 -3.2585
 5461TIP3    H216348   3.368   2.963   0.977 -0.4536  1.1891  0.0150
 5462TIP3   OH216349   1.290   1.014   4.388  0.0772  0.2746  0.1240
 5462TIP3    H116350   1.194   1.014   4.383  0.0631 -0.1115  0.3687
 5462TIP3    H216351   1.312   1.090   4.441 -0.0968  0.3068  0.1484
 5463TIP3   OH216352   2.711   1.229   3.063  0.2182  0.7327 -0.3991
 5463TIP3    H116353   2.695   1.178   3.143  3.1700  0.9286  0.4122
 5463TIP3    H216354   2.731   1.163   2.996  1.2944  0.6979 -0.0502
 5464TIP3   OH216355   1.523   1.109   3.623 -1.1468 -0.4986 -0.1650
 5464TIP3    H116356   1.458   1.039   3.618  0.2106 -1.8108  0.0212
 5464TIP3    H216357   1.580   1.094   3.548 -1.7130  1.3634 -1.0254
 5465TIP3   OH216358   6.187   2.111   0.104  0.4937  0.0478 -0.6755
 5465TIP3    H116359   6.208   2.202   0.120  3.2391 -0.7508  0.7879
 5465TIP3    H216360   6.271   2.068   0.091 -0.6874 -2.3316 -1.1320
 5466TIP3   OH216361   7.155   2.645   0.431 -0.4285  0.2378 -0.2620
 5466TIP3    H116362   7.156   2.677   0.521  2.1271 -0.3125 -0.0100
 5466TIP3    H216363   7.086   2.579   0.429 -1.4435  1.2306  0.9045
 5467TIP3   OH216364   4.481   4.783   2.178 -0.6491  0.0473  0.4590
 5467TIP3    H116365   4.429   4.766   2.099 -0.1265 -1.4001  0.3795
 5467TIP3    H216366   4.571   4.787   2.146 -0.3778 -1.0882  1.0230
 5468TIP3   OH216367   6.391   0.211   1.112 -0.3359  0.2298 -0.2675
 5468TIP3    H116368   6.341   0.167   1.043  0.3914  0.4952 -0.9825
 5468TIP3    H216369   6.408   0.299   1.078 -2.5805  1.4756  1.5392
 5469TIP3   OH216370   3.962   1.768   2.313  0.7076 -0.0605  0.1199
 5469TIP3    H116371   3.911   1.703   2.361 -0.0891  1.4328  1.3677
 5469TIP3    H216372   4.031   1.717   2.270 -1.0990 -1.9938 -0.6670
 5470TIP3   OH216373   4.494   3.779   3.182 -0.1100 -0.4542  0.0886
 5470TIP3    H116374   4.558   3.819   3.123 -0.6787 -0.0097 -0.2380
 5470TIP3    H216375   4.515   3.685   3.180 -0.4280 -0.5120 -1.2183
 5471TIP3   OH216376   3.206   1.331   2.738  0.2046  0.5829  0.4896
 5471TIP3    H116377   3.298   1.308   2.724  0.0952 -0.4562  1.3675
 5471TIP3    H216378   3.181   1.380   2.659  0.7767 -1.3253 -0.9482
 5472TIP3   OH216379   4.550   0.476   5.730  0.0004  0.8809 -0.1631
 5472TIP3    H116380   4.547   0.551   5.670 -0.7646  0.9043 -0.1020
 5472TIP3    H216381   4.625   0.425   5.700  0.5455  1.6752 -0.2009
 5473TIP3   OH216382   2.462   6.547   3.722 -0.1867 -0.1722  0.3378
 5473TIP3    H116383   2.502   6.612   3.664  0.5363  0.8889  1.9761
 5473TIP3    H216384   2.383   6.519   3.675  0.7462  0.0763 -1.4811
 5474TIP3   OH216385   1.633   1.835   1.223  0.6699 -0.6260  0.1881
 5474TIP3    H116386   1.616   1.789   1.305  1.5141 -1.7986 -0.2673
 5474TIP3    H216387   1.718   1.877   1.236 -0.4985  1.6951  0.9431
 5475TIP3   OH216388   2.240   6.467   4.356 -0.0974  0.1329  0.0294
 5475TIP3    H116389   2.145   6.470   4.346  0.1139  1.3684 -2.1158
 5475TIP3    H216390   2.269   6.556   4.337  1.5627 -0.4325 -0.1914
 5476TIP3   OH216391   5.055   5.841   2.751  0.9669 -0.2441 -0.3571
 5476TIP3    H116392   4.991   5.795   2.805  1.0650  0.1664  0.1137
 5476TIP3    H216393   5.118   5.774   2.724 -0.1600 -0.8500 -1.5971
 5477TIP3   OH216394   0.103   6.174   3.130 -0.0468 -0.5869  0.0284
 5477TIP3    H116395   0.132   6.228   3.203  0.8706  0.3783 -1.0072
 5477TIP3    H216396   0.022   6.215   3.100  0.1892 -0.2928 -0.2118
 5478TIP3   OH216397   4.219   4.853   4.437 -0.7535 -0.3570 -0.0208
 5478TIP3    H116398   4.313   4.855   4.457 -1.3551 -0.7546  3.6952
 5478TIP3    H216399   4.197   4.760   4.435 -0.8824 -0.3327 -2.5405
 5479TIP3   OH216400   4.837   4.045   5.347 -0.2379 -0.0514  0.1639
 5479TIP3    H116401   4.762   4.086   5.303 -0.3795 -0.6025 -0.1210
 5479TIP3    H216402   4.890   4.009   5.275  0.1227  0.0390  0.3832
 5480TIP3   OH216403   5.089   4.929  -0.021 -0.3686 -0.5729 -0.0261
 5480TIP3    H116404   5.015   4.904   0.035  0.3931 -1.1369  0.7735
 5480TIP3    H216405   5.166   4.902   0.029  0.3899  0.2524 -0.7163
 5481TIP3   OH216406   3.877   4.463   4.348  0.2865 -0.1935 -0.0978
 5481TIP3    H116407   3.784   4.473   4.325 -0.0129  0.0224  1.1507
 5481TIP3    H216408   3.924   4.487   4.268 -0.7309 -0.1909 -0.7092
 5482TIP3   OH216409   4.221   0.654   1.766 -0.2372 -0.0777  0.3492
 5482TIP3    H116410   4.131   0.622   1.764  0.0121 -0.9715  1.9355
 5482TIP3    H216411   4.216   0.737   1.813 -0.6712  1.6581 -2.5237
 5483TIP3   OH216412   5.261   1.934   2.045 -0.2661 -0.2798  0.6302
 5483TIP3    H116413   5.296   2.022   2.058 -1.0274  0.0165  0.7803
 5483TIP3    H216414   5.282   1.887   2.125  2.0850 -0.9379 -0.3039
 5484TIP3   OH216415   1.512   5.957   2.030  0.3082  0.2903  0.0948
 5484TIP3    H116416   1.517   5.865   2.007 -0.3509  0.2777 -0.0124
 5484TIP3    H216417   1.419   5.974   2.045  0.3740  1.0216 -0.2636
 5485TIP3   OH216418   3.665   2.103   5.256 -0.0526  0.7666  0.3431
 5485TIP3    H116419   3.621   2.187   5.267 -2.1523 -0.1208 -0.7461
 5485TIP3    H216420   3.680   2.095   5.162 -1.8032 -0.8971  0.1250
 5486TIP3   OH216421   5.527   6.787   4.436 -0.0188 -0.0150 -0.4944
 5486TIP3    H116422   5.445   6.789   4.386 -1.4364 -2.1179  1.5396
 5486TIP3    H216423   5.563   6.700   4.418  1.5897  0.7316 -1.0148
 5487TIP3   OH216424   6.397   0.256   4.336  0.1882 -0.2941 -0.0030
 5487TIP3    H116425   6.440   0.300   4.263  1.9260 -2.4296 -0.3707
 5487TIP3    H216426   6.351   0.326   4.383  0.9024  1.4825 -1.8252
 5488TIP3   OH216427   6.645   6.690   1.463 -0.3826 -0.1257 -0.0403
 5488TIP3    H116428   6.736   6.699   1.434 -0.0606 -0.4970  0.8307
 5488TIP3    H216429   6.594   6.733   1.394  0.4523  0.1453 -0.5083
 5489TIP3   OH216430   1.733   5.150   5.811  0.2453 -0.5679  0.1129
 5489TIP3    H116431   1.639   5.169   5.808  0.5248  0.9296 -0.0391
 5489TIP3    H216432   1.761   5.148   5.720  0.1879 -2.1391  0.0972
 5490TIP3   OH216433   6.270   1.946   4.598  0.0916 -0.0842  0.2039
 5490TIP3    H116434   6.243   1.912   4.513 -1.1240 -1.4430  1.0953
 5490TIP3    H216435   6.219   1.897   4.662  1.0326  0.8359  1.7493
 5491TIP3   OH216436   2.920   4.124   3.216 -0.1333  0.2408  0.1738
 5491TIP3    H116437   3.010   4.107   3.241 -0.5906 -1.1333  0.9976
 5491TIP3    H216438   2.873   4.136   3.299 -1.4165 -3.0331  0.0858
 5492TIP3   OH216439   6.718   4.481   5.836 -0.2399 -0.8248 -0.0028
 5492TIP3    H116440   6.780   4.539   5.791 -0.3665 -0.3506  0.4334
 5492TIP3    H216441   6.646   4.538   5.863 -0.1243 -1.0823  0.8867
 5493TIP3   OH216442   0.907   0.278   5.513 -0.1133  0.2568 -0.2262
 5493TIP3    H116443   0.855   0.301   5.436 -0.6801  3.7441  0.9854
 5493TIP3    H216444   0.846   0.234   5.572 -0.0808 -0.9981 -1.1005
 5494TIP3   OH216445   0.660   3.351   4.170  0.2841 -0.0593 -0.2532
 5494TIP3    H116446   0.676   3.439   4.202 -1.5079 -0.0766  0.8521
 5494TIP3    H216447   0.745   3.319   4.141  1.0962  1.7324  0.0644
 5495TIP3   OH216448   4.632   2.434   5.251 -0.4733  0.5767  0.2252
 5495TIP3    H116449   4.617   2.502   5.316 -0.0856  0.5992  0.2932
 5495TIP3    H216450   4.727   2.430   5.242 -0.3224 -1.7070  2.0968
 5496TIP3   OH216451   2.347   4.168   1.816 -0.0529 -0.2422 -0.6905
 5496TIP3    H116452   2.313   4.258   1.819 -1.7975 -0.8526 -1.0227
 5496TIP3    H216453   2.313   4.128   1.896  0.1768 -0.7829 -0.8631
 5497TIP3   OH216454   3.225   3.698   1.779  0.3069  0.0952 -0.2291
 5497TIP3    H116455   3.196   3.740   1.860 -0.0484 -1.7396  0.6576
 5497TIP3    H216456   3.263   3.615   1.808 -0.5745 -0.9769 -2.0034
 5498TIP3   OH216457   4.794   5.157   5.198 -0.3464  0.2654  0.5384
 5498TIP3    H116458   4.740   5.086   5.233 -2.2510  0.2563 -2.1168
 5498TIP3    H216459   4.735   5.206   5.141  1.9599  1.5426 -0.9034
 5499TIP3   OH216460   5.430   5.872   0.671 -0.0233 -0.0860  0.0144
 5499TIP3    H116461   5.468   5.902   0.754 -0.0936  0.3945 -0.1235
 5499TIP3    H216462   5.381   5.947   0.639  1.9954  0.6034 -1.6948
 5500TIP3   OH216463   3.913   5.829   4.352 -0.3691  0.6072  0.1209
 5500TIP3    H116464   3.881   5.868   4.434  1.5259  0.4492  0.9874
 5500TIP3    H216465   3.847   5.763   4.330 -0.9589  0.6962  1.4890
 5501TIP3   OH216466   3.363   4.073   4.929  0.2504 -0.3164  0.3716
 5501TIP3    H116467   3.359   4.056   4.835  0.5053  0.0669  0.2911
 5501TIP3    H216468   3.296   4.015   4.967  1.5893 -2.0877  0.1756
 5502TIP3   OH216469   5.856   1.808   0.206 -0.4524  0.0720  0.2334
 5502TIP3    H116470   5.865   1.823   0.112  2.3726  0.5046  0.4652
 5502TIP3    H216471   5.913   1.733   0.224  0.6247  1.1969  1.8271
 5503TIP3   OH216472   3.013   1.102   5.552  0.1125 -0.3550  0.3126
 5503TIP3    H116473   3.080   1.083   5.487 -0.2177 -2.0032  0.4109
 5503TIP3    H216474   3.030   1.193   5.579  1.2917 -0.2151 -0.8148
 5504TIP3   OH216475   5.806   4.123   3.162  0.1111 -0.0951  0.0547
 5504TIP3    H116476   5.789   4.038   3.123 -1.4324 -0.3458  1.1833
 5504TIP3    H216477   5.772   4.116   3.252  0.5219  1.5080  0.3756
 5505TIP3   OH216478   2.401   5.200   2.267 -0.1750 -0.1466 -0.1943
 5505TIP3    H116479   2.466   5.202   2.338  0.4605 -0.5480 -0.7589
 5505TIP3    H216480   2.347   5.124   2.286 -0.8031  0.4671  0.5486
 5506TIP3   OH216481   4.033   2.168   4.281 -0.5252 -0.2570  0.4980
 5506TIP3    H116482   4.008   2.233   4.215 -1.2258 -2.0251 -1.0614
 5506TIP3    H216483   3.952   2.122   4.302  0.1726 -1.5705  0.4700
 5507TIP3   OH216484   3.776   2.608   2.189 -0.4267  0.2537  0.4155
 5507TIP3    H116485   3.722   2.590   2.111  0.6694  0.8202 -0.5120
 5507TIP3    H216486   3.748   2.695   2.218 -0.0082  0.5611 -0.0840
 5508TIP3   OH216487   4.100   2.342   1.816 -0.6768  0.3394  0.4146
 5508TIP3    H116488   4.139   2.270   1.865  0.6014  2.2229  2.3660
 5508TIP3    H216489   4.006   2.331   1.827 -0.5537 -1.5295 -0.1625
 5509TIP3   OH216490   5.745   2.271   5.787 -0.9463 -0.4454  0.0342
 5509TIP3    H116491   5.748   2.321   5.868 -0.2023 -0.8733  0.2802
 5509TIP3    H216492   5.695   2.193   5.808 -2.3506  0.2966 -0.4246
 5510TIP3   OH216493   6.553   5.005   2.345  0.7188  0.3951 -0.2770
 5510TIP3    H116494   6.513   5.077   2.393  1.3233  0.0498  0.7771
 5510TIP3    H216495   6.631   5.044   2.304  1.4090  0.2309  0.8237
 5511TIP3   OH216496   5.148   2.943   3.478 -0.4136 -0.2681 -0.5676
 5511TIP3    H116497   5.232   2.927   3.435 -0.5983  0.2358 -1.1372
 5511TIP3    H216498   5.132   2.864   3.530  1.4991  0.4938  1.3921
 5512TIP3   OH216499   5.907   4.509   2.948  0.1897 -0.3261  0.0467
 5512TIP3    H116500   5.989   4.473   2.915 -0.1252 -0.7342 -0.3081
 5512TIP3    H216501   5.840   4.474   2.889 -0.0847  1.2545 -0.6321
 5513TIP3   OH216502   2.701   3.932   4.290 -1.0735 -0.0124  0.5818
 5513TIP3    H116503   2.777   3.883   4.259 -1.9717 -1.4871  0.6329
 5513TIP3    H216504   2.667   3.976   4.212 -0.9073 -0.3749  0.3031
 5514TIP3   OH216505   4.404   5.965   2.412 -0.2816  0.0119 -0.0138
 5514TIP3    H116506   4.376   5.948   2.502 -1.4888  1.4837 -0.0718
 5514TIP3    H216507   4.457   6.045   2.418  0.3312 -0.3432 -0.5155
 5515TIP3   OH216508   5.021   0.997   5.567  0.2860 -0.0868  0.3658
 5515TIP3    H116509   5.028   0.946   5.486  2.1849 -0.8677  0.9678
 5515TIP3    H216510   5.020   1.088   5.537 -2.4648 -0.3760 -0.6891
 5516TIP3   OH216511   1.434   0.178   1.677 -0.3844 -0.0909  0.3478
 5516TIP3    H116512   1.519   0.213   1.650  0.3664  0.1274  2.7553
 5516TIP3    H216513   1.378   0.255   1.688 -0.2134 -0.0455  0.9132
 5517TIP3   OH216514   0.142   5.403   5.461 -0.1533 -0.1716  0.8727
 5517TIP3    H116515   0.187   5.415   5.545  0.0984 -0.0136  0.7136
 5517TIP3    H216516   0.054   5.438   5.477 -0.1029 -0.1315  1.0705
 5518TIP3   OH216517   2.747   1.871   4.818 -0.1691  0.8100 -0.5370
 5518TIP3    H116518   2.677   1.872   4.752 -0.6647 -1.9418 -0.1503
 5518TIP3    H216519   2.700   1.865   4.902  0.5307  1.2646 -0.0992
 5519TIP3   OH216520   6.689   4.039   5.566 -0.2695  0.2984  0.1853
 5519TIP3    H116521   6.654   3.969   5.622 -2.2845  1.6804  0.7401
 5519TIP3    H216522   6.653   4.021   5.480 -0.2764  0.3007  0.1876
 5520TIP3   OH216523   1.169   3.071   3.283 -0.2752 -0.2858  0.3508
 5520TIP3    H116524   1.221   2.990   3.278  0.6453  0.2886  0.3745
 5520TIP3    H216525   1.084   3.043   3.317  0.8913 -0.8648  3.0808
 5521TIP3   OH216526   6.595   1.730   2.451  0.8526 -0.2414 -0.1444
 5521TIP3    H116527   6.667   1.731   2.514  0.7810 -1.7260  0.0013
 5521TIP3    H216528   6.598   1.642   2.413  0.1914  0.2609 -1.4028
 5522TIP3   OH216529   4.378   5.469   2.879  0.1951  0.3029  0.1316
 5522TIP3    H116530   4.408   5.433   2.962  1.1970  0.0241 -0.3370
 5522TIP3    H216531   4.356   5.392   2.826  0.2639  0.4565 -0.1217
 5523TIP3   OH216532   4.674   1.533   1.652 -0.3191 -0.3896 -0.2778
 5523TIP3    H116533   4.740   1.497   1.592 -0.0801 -0.1657 -0.1495
 5523TIP3    H216534   4.624   1.595   1.598  0.7575  0.8311  0.0799
 5524TIP3   OH216535   1.153   0.827   3.290  0.3490  0.0970 -0.0540
 5524TIP3    H116536   1.136   0.913   3.329  0.1625 -0.3323  0.8155
 5524TIP3    H216537   1.205   0.847   3.211 -1.4698  1.1815 -1.0505
 5525TIP3   OH216538   1.862   5.516   5.026 -0.2240  0.5152  0.3582
 5525TIP3    H116539   1.882   5.562   4.945 -0.1100 -0.9983 -0.5137
 5525TIP3    H216540   1.823   5.583   5.083  1.0732  1.9484 -0.3715
 5526TIP3   OH216541   3.345   1.475   1.011 -0.2579 -0.0988 -0.1105
 5526TIP3    H116542   3.259   1.432   1.020 -0.4286 -0.0115 -1.1850
 5526TIP3    H216543   3.368   1.501   1.100 -0.7224 -1.3208  0.3898
 5527TIP3   OH216544   2.625   4.689   4.350  0.0178 -0.3718  0.4967
 5527TIP3    H116545   2.581   4.712   4.269  4.0445 -1.1510 -2.1788
 5527TIP3    H216546   2.673   4.768   4.374 -1.4494 -0.0054  2.5095
 5528TIP3   OH216547   1.750   1.312   3.557 -0.1929 -0.2818  0.4224
 5528TIP3    H116548   1.756   1.334   3.464  0.5373 -1.8929  0.0661
 5528TIP3    H216549   1.792   1.386   3.602  1.0646 -0.3260 -0.6379
 5529TIP3   OH216550   4.834   6.694   4.850  0.0402 -0.0422 -0.3566
 5529TIP3    H116551   4.756   6.657   4.808  0.8250 -0.2873 -1.6776
 5529TIP3    H216552   4.813   6.786   4.862 -1.2274 -0.4843  1.2443
 5530TIP3   OH216553   6.538   5.051   1.395 -0.0126  0.3018 -0.0339
 5530TIP3    H116554   6.535   5.131   1.447  3.2082  0.8290 -0.4095
 5530TIP3    H216555   6.536   5.082   1.304  1.6130  0.0843 -0.1845
 5531TIP3   OH216556   4.387   1.821   1.717  0.4601 -0.3479  0.0984
 5531TIP3    H116557   4.423   1.748   1.767  0.6347 -0.6384 -0.4424
 5531TIP3    H216558   4.324   1.781   1.657 -1.7517  0.2796  1.8582
 5532TIP3   OH216559   3.607   0.042   3.968  0.2768 -0.3342  0.2208
 5532TIP3    H116560   3.536  -0.006   3.925 -0.8705  0.7655  0.8234
 5532TIP3    H216561   3.684   0.023   3.915 -0.5061 -1.3778 -0.5885
 5533TIP3   OH216562   5.541   5.162   4.551 -0.2448 -0.3825 -0.0708
 5533TIP3    H116563   5.544   5.089   4.490  0.8756 -0.2975 -0.1288
 5533TIP3    H216564   5.539   5.240   4.494 -1.1863 -0.3463 -0.0066
 5534TIP3   OH216565   0.225   3.935   1.534 -0.5042 -1.0712 -0.7633
 5534TIP3    H116566   0.161   3.989   1.581  1.2864  2.1504 -1.7331
 5534TIP3    H216567   0.204   3.948   1.442  2.4533  1.5959 -1.2236
 5535TIP3   OH216568   6.497   1.799   5.463 -0.2788 -0.1024 -0.0058
 5535TIP3    H116569   6.525   1.735   5.397  0.2713 -0.5751  0.6728
 5535TIP3    H216570   6.579   1.830   5.502 -0.4573  1.8258 -1.0395
 5536TIP3   OH216571   6.428   1.965   1.337 -0.5363 -0.6144  0.6317
 5536TIP3    H116572   6.386   2.019   1.270 -1.4883 -1.0475  0.8709
 5536TIP3    H216573   6.506   2.015   1.362 -0.0254 -0.5536 -0.9504
 5537TIP3   OH216574   5.052   0.956   0.168  0.1006 -0.1122 -0.4395
 5537TIP3    H116575   5.106   1.012   0.112  0.6811 -0.0252  0.1871
 5537TIP3    H216576   5.017   0.890   0.109  0.7535 -0.0614 -0.8986
 5538TIP3   OH216577   3.234   0.412   4.915  0.5722 -0.5339 -0.7053
 5538TIP3    H116578   3.328   0.397   4.899  0.7620  1.0367 -1.2624
 5538TIP3    H216579   3.190   0.345   4.863  1.3675 -2.8202  1.3911
 5539TIP3   OH216580   4.138   2.527   2.982  0.7262  0.2279  0.5780
 5539TIP3    H116581   4.211   2.573   2.939 -0.2148 -0.0054 -1.3889
 5539TIP3    H216582   4.076   2.509   2.911 -1.4372  0.7326  2.2104
 5540TIP3   OH216583   1.058   1.471   2.292  0.0658  0.0801  0.2872
 5540TIP3    H116584   1.006   1.498   2.216 -0.7311  0.5234  0.9713
 5540TIP3    H216585   0.995   1.430   2.351  0.5869  0.1634  0.9155
 5541TIP3   OH216586   5.571  -0.028   1.517  0.0375 -0.5071 -0.6294
 5541TIP3    H116587   5.563   0.033   1.443  1.1465  1.0079  0.4285
 5541TIP3    H216588   5.646   0.005   1.566  0.9735 -3.0187 -0.2276
 5542TIP3   OH216589   7.142   1.496   1.529 -0.5424  0.3244 -0.5749
 5542TIP3    H116590   7.207   1.563   1.551  0.3838 -1.1815  1.6863
 5542TIP3    H216591   7.101   1.475   1.613 -0.3985 -2.3014 -1.0895
 5543TIP3   OH216592   5.860   3.875   0.453  0.1846  0.1760  0.2458
 5543TIP3    H116593   5.941   3.824   0.446  0.7736  1.2064 -0.6730
 5543TIP3    H216594   5.796   3.814   0.489  1.0611 -0.9988 -0.1481
 5544TIP3   OH216595   4.603   0.332   4.053  0.1635  0.1883 -0.1490
 5544TIP3    H116596   4.524   0.282   4.074 -0.2678  0.5367 -0.9009
 5544TIP3    H216597   4.673   0.285   4.098 -0.6731  0.8159  1.9464
 5545TIP3   OH216598   5.850   6.704   4.251 -0.4159  0.3251 -0.2053
 5545TIP3    H116599   5.865   6.753   4.332  1.1024  0.8357 -0.7746
 5545TIP3    H216600   5.936   6.674   4.224 -1.0571 -0.8818 -1.0067
 5546TIP3   OH216601   6.329   2.820   3.331 -0.0599 -0.4596 -0.1201
 5546TIP3    H116602   6.364   2.820   3.420 -0.0503  1.9155 -0.0598
 5546TIP3    H216603   6.379   2.752   3.285  2.1777  0.4265  0.8617
 5547TIP3   OH216604   3.415   0.373   1.038  0.2472  0.2170 -0.5672
 5547TIP3    H116605   3.347   0.426   1.079  2.8138  0.8452  3.3636
 5547TIP3    H216606   3.461   0.435   0.980 -0.5634  0.6045 -0.8117
 5548TIP3   OH216607   7.024   5.717   5.365 -0.4673  0.3157 -0.4471
 5548TIP3    H116608   7.058   5.639   5.322  1.8144  1.4525 -0.8565
 5548TIP3    H216609   6.985   5.769   5.294  1.1228  1.0824 -0.7981
 5549TIP3   OH216610   2.332   0.139   2.558 -0.2142 -0.2157  0.4191
 5549TIP3    H116611   2.309   0.139   2.466 -0.2038 -0.8702  0.4125
 5549TIP3    H216612   2.407   0.197   2.565 -0.6632  0.4096  0.1358
 5550TIP3   OH216613   6.099   2.559   4.428  0.0357 -0.0202  0.4075
 5550TIP3    H116614   6.107   2.640   4.479 -3.5276  0.5063  0.3484
 5550TIP3    H216615   6.103   2.489   4.494  0.4857  0.3394  0.7722
 5551TIP3   OH216616   1.664   3.347   0.890  0.2649  0.3810  0.1010
 5551TIP3    H116617   1.718   3.417   0.925  3.7030 -2.2078  0.5290
 5551TIP3    H216618   1.586   3.346   0.946  1.4236  2.0227  1.8385
 5552TIP3   OH216619   5.591   4.940   0.369  0.2865 -0.1959  0.7515
 5552TIP3    H116620   5.547   4.880   0.430  2.4320 -1.4093  1.2042
 5552TIP3    H216621   5.615   4.885   0.294  2.1322  0.0608  1.1023
 5553TIP3   OH216622   6.592   3.483   1.483  0.8349 -0.1616  0.7123
 5553TIP3    H116623   6.498   3.483   1.466  0.8312  1.4547  0.5073
 5553TIP3    H216624   6.603   3.429   1.561 -0.8106  2.7700  3.1816
 5554TIP3   OH216625   5.910   6.647   0.964 -0.5554  0.0570  0.1086
 5554TIP3    H116626   5.842   6.583   0.985 -0.9075  0.1985 -0.5801
 5554TIP3    H216627   5.902   6.661   0.870  0.2797  0.2502  0.0545
 5555TIP3   OH216628   5.352   6.606   1.680  0.1351 -0.3702 -0.5043
 5555TIP3    H116629   5.264   6.632   1.653  0.5409  1.2632 -0.3734
 5555TIP3    H216630   5.344   6.513   1.703 -0.8903 -1.0538 -3.2514
 5556TIP3   OH216631   5.666   2.072   5.131  0.0127 -0.1870 -0.5795
 5556TIP3    H116632   5.759   2.089   5.119 -0.4743  1.9242 -1.9954
 5556TIP3    H216633   5.632   2.152   5.171 -0.9390 -1.6656  1.8111
 5557TIP3   OH216634   3.197   0.677   4.845  0.1702  0.7854  0.1039
 5557TIP3    H116635   3.220   0.588   4.870  1.1661  1.2435  0.8967
 5557TIP3    H216636   3.181   0.672   4.751 -0.8738 -0.4306  0.3207
 5558TIP3   OH216637   6.981   5.309   2.068 -0.0572 -0.1863  0.1179
 5558TIP3    H116638   6.887   5.291   2.066 -0.0486 -0.1722 -1.5244
 5558TIP3    H216639   7.010   5.273   2.152 -1.0735 -2.5666 -0.4619
 5559TIP3   OH216640   7.045   2.318   3.310 -0.0729 -0.6132 -0.0773
 5559TIP3    H116641   7.107   2.311   3.383  0.2463  2.3015  0.0444
 5559TIP3    H216642   6.966   2.275   3.342 -0.1294  1.0643  2.2705
 5560TIP3   OH216643   4.502   1.678   0.716  0.3119 -0.3398  0.6068
 5560TIP3    H116644   4.441   1.604   0.720 -0.0870 -0.0153  0.5915
 5560TIP3    H216645   4.446   1.755   0.704  0.7407 -0.0627  0.3470
 5561TIP3   OH216646   2.292   4.834   3.680 -0.1494 -0.0259  0.5443
 5561TIP3    H116647   2.371   4.801   3.723 -0.5827  0.0692  1.4564
 5561TIP3    H216648   2.266   4.765   3.620  1.6007  0.6704 -1.0867
 5562TIP3   OH216649   6.428   4.263   0.114 -0.0792  0.1266 -0.0392
 5562TIP3    H116650   6.483   4.327   0.159 -1.6788  1.8791 -0.4640
 5562TIP3    H216651   6.368   4.315   0.061 -1.3253 -1.7317 -0.5633
 5563TIP3   OH216652   1.180   3.199   4.145  0.4825  0.1766 -0.3817
 5563TIP3    H116653   1.098   3.246   4.126  0.6291 -0.0614 -1.7103
 5563TIP3    H216654   1.157   3.139   4.216 -0.9960 -1.1368 -1.8833
 5564TIP3   OH216655   0.886   4.333   2.281 -0.4106  0.7659 -0.3548
 5564TIP3    H116656   0.871   4.371   2.368  1.4698  1.5687 -0.3159
 5564TIP3    H216657   0.923   4.247   2.299 -0.2162  0.8488 -0.3506
 5565TIP3   OH216658   1.468   1.747   3.621  0.1006 -0.0628 -0.3292
 5565TIP3    H116659   1.550   1.746   3.669 -0.1852  0.6756  0.2010
 5565TIP3    H216660   1.465   1.834   3.581 -0.9425  0.3336  0.5846
 5566TIP3   OH216661   4.039   4.071   1.778  0.1040 -0.3313 -0.5100
 5566TIP3    H116662   3.967   4.036   1.831  0.6445  1.8504  1.8585
 5566TIP3    H216663   4.100   3.998   1.769  0.2030 -0.6968  2.3731
 5567TIP3   OH216664   3.450   2.596   5.037  0.1377 -0.3521 -0.4037
 5567TIP3    H116665   3.412   2.555   5.115  0.5130 -0.8830 -0.4921
 5567TIP3    H216666   3.417   2.686   5.039 -0.1889 -0.4755  0.1422
 5568TIP3   OH216667   6.577   4.701   3.842 -0.2549  0.1932  0.8028
 5568TIP3    H116668   6.671   4.710   3.826 -0.0491 -1.1632  1.1317
 5568TIP3    H216669   6.538   4.692   3.755 -0.2715  2.1091  0.5740
 5569TIP3   OH216670   5.610   0.432   2.993  0.1920  0.3024 -0.4712
 5569TIP3    H116671   5.687   0.378   2.976 -1.1090 -1.9478  0.2323
 5569TIP3    H216672   5.545   0.401   2.930 -1.2870 -0.5914  1.3880
 5570TIP3   OH216673   0.365   1.670   0.268  0.2798  0.4842 -0.4005
 5570TIP3    H116674   0.282   1.657   0.222 -0.7455 -0.8601  1.7053
 5570TIP3    H216675   0.380   1.587   0.313  1.1418  1.7618  1.7745
 5571TIP3   OH216676   2.364   5.346   3.514 -0.1344 -0.2774  0.2660
 5571TIP3    H116677   2.454   5.372   3.495  0.4540 -2.4072 -0.0137
 5571TIP3    H216678   2.355   5.362   3.608  0.6605 -0.4330  0.3762
 5572TIP3   OH216679   0.240   4.245   0.760 -0.2486 -0.8969  0.2761
 5572TIP3    H116680   0.321   4.296   0.751 -1.9443  1.5740 -3.1276
 5572TIP3    H216681   0.251   4.173   0.698 -0.0039 -1.6183  1.1371
 5573TIP3   OH216682   1.562   5.663   1.426 -0.4909  0.5450  0.8313
 5573TIP3    H116683   1.657   5.668   1.421 -0.4244  0.1624  1.4992
 5573TIP3    H216684   1.541   5.571   1.407 -0.6211  0.3397  1.9082
 5574TIP3   OH216685   2.033   0.223   2.702  0.3076  0.1129  0.2480
 5574TIP3    H116686   1.989   0.211   2.618  1.6706  1.8003 -0.7691
 5574TIP3    H216687   2.024   0.138   2.746 -0.7248 -0.7014 -1.4409
 5575TIP3   OH216688   5.051   0.767   5.857 -0.5785  0.4841 -0.1454
 5575TIP3    H116689   5.032   0.682   5.897  0.9121  0.9631  1.7604
 5575TIP3    H216690   5.065   0.749   5.765 -1.3803 -1.1607  0.0343
 5576TIP3   OH216691   3.107   1.530   0.658 -0.3953 -0.6695 -0.3523
 5576TIP3    H116692   3.185   1.582   0.640 -0.2855 -0.7459 -0.0935
 5576TIP3    H216693   3.074   1.506   0.571 -0.0663 -0.7355 -0.4607
 5577TIP3   OH216694   2.332   0.586   0.092 -0.2608  0.0028 -0.1087
 5577TIP3    H116695   2.340   0.521   0.022  0.5588 -0.1204  0.0898
 5577TIP3    H216696   2.337   0.535   0.173 -0.8860  0.1803  0.0479
 5578TIP3   OH216697   0.768   6.803   1.621  0.2191  0.0262 -0.4768
 5578TIP3    H116698   0.800   6.717   1.594  0.6288  0.5288 -1.6586
 5578TIP3    H216699   0.816   6.821   1.703  1.0917 -0.3247 -0.8931
 5579TIP3   OH216700   1.336   5.644   4.078  0.9603  0.0291 -0.3389
 5579TIP3    H116701   1.359   5.558   4.111 -1.4730 -0.0271  1.4812
 5579TIP3    H216702   1.279   5.681   4.145 -0.0224  2.0815 -2.1870
 5580TIP3   OH216703   5.592   4.555   4.473 -0.3892 -0.0858 -0.1303
 5580TIP3    H116704   5.521   4.619   4.470 -1.2683 -0.8764  1.9522
 5580TIP3    H216705   5.566   4.493   4.541  1.5190 -1.3663 -0.4789
 5581TIP3   OH216706   3.753   5.402   1.332  0.0868  0.4086  0.2031
 5581TIP3    H116707   3.762   5.347   1.409  2.1158 -0.1300 -0.3604
 5581TIP3    H216708   3.706   5.348   1.269 -0.9710  0.6041  0.8041
 5582TIP3   OH216709   3.620   1.726   4.263 -0.6468 -0.7594 -0.2608
 5582TIP3    H116710   3.583   1.778   4.334 -1.5900  0.8446 -1.8546
 5582TIP3    H216711   3.715   1.734   4.274 -0.7616  1.5086 -0.5508
 5583TIP3   OH216712   3.315   5.746   5.209  0.5487 -0.9479  0.0630
 5583TIP3    H116713   3.339   5.787   5.292  0.7281 -1.2156  0.1456
 5583TIP3    H216714   3.225   5.717   5.221 -0.0854  0.6912 -0.4925
 5584TIP3   OH216715   2.956   5.206   3.761 -0.1163  0.0720  0.5528
 5584TIP3    H116716   3.051   5.192   3.764 -0.2789 -1.3421 -0.0706
 5584TIP3    H216717   2.944   5.271   3.691  0.6250  3.2681  3.1406
 5585TIP3   OH216718   1.747   1.658   4.939  0.0480  0.3368 -0.1225
 5585TIP3    H116719   1.760   1.658   4.845 -1.9943 -1.9031 -0.5030
 5585TIP3    H216720   1.672   1.715   4.953 -0.5489 -0.4550 -0.0437
 5586TIP3   OH216721   1.235   4.428   1.466  0.2517 -0.0994 -0.1921
 5586TIP3    H116722   1.247   4.476   1.384  0.7502  0.4383  0.1834
 5586TIP3    H216723   1.173   4.359   1.445 -0.7001  0.8868 -0.6836
 5587TIP3   OH216724   4.859   6.145   5.201 -0.4154 -0.6366  0.1909
 5587TIP3    H116725   4.940   6.193   5.184 -0.8789 -0.0360 -0.3533
 5587TIP3    H216726   4.877   6.096   5.282  0.4317 -0.3929  0.1602
 5588TIP3   OH216727   5.327   4.035   0.938  0.3243 -0.6382 -0.2953
 5588TIP3    H116728   5.300   4.080   1.017  1.9974 -1.0500  0.5601
 5588TIP3    H216729   5.322   3.942   0.960 -0.0514 -0.7896 -0.9753
 5589TIP3   OH216730   5.783   2.719   3.801  0.0303 -0.2374 -0.4571
 5589TIP3    H116731   5.844   2.731   3.874  0.0567  1.2634 -0.6963
 5589TIP3    H216732   5.748   2.631   3.814  0.9518 -0.4713  0.6620
 5590TIP3   OH216733   5.156   5.634   1.401 -0.1610 -0.1103 -0.3969
 5590TIP3    H116734   5.227   5.664   1.458  0.2350  0.5617 -1.2270
 5590TIP3    H216735   5.177   5.669   1.315 -2.0637  1.0145 -0.4552
 5591TIP3   OH216736   7.032   1.281   3.879 -0.0206 -0.1315  0.3937
 5591TIP3    H116737   6.960   1.231   3.840  0.3497 -0.1839 -0.2317
 5591TIP3    H216738   7.070   1.222   3.944 -0.6294 -0.0506  0.8337
 5592TIP3   OH216739   2.661   2.199   2.841 -0.2219 -0.5935  0.0047
 5592TIP3    H116740   2.650   2.189   2.936 -1.3059  1.0794  0.0986
 5592TIP3    H216741   2.713   2.123   2.815  0.8227 -0.6781  2.0641
 5593TIP3   OH216742   3.425   1.048   0.325  0.1217  0.2752 -0.4087
 5593TIP3    H116743   3.455   1.012   0.241  0.7865 -0.2996  0.0614
 5593TIP3    H216744   3.360   0.986   0.356 -0.4245  0.7019 -0.6825
 5594TIP3   OH216745   4.226   2.637   5.404 -0.5296 -0.2793  0.0991
 5594TIP3    H116746   4.287   2.711   5.408  0.0751 -0.7202 -0.6990
 5594TIP3    H216747   4.149   2.672   5.359 -0.9601  0.3243  1.2508
 5595TIP3   OH216748   4.982   6.437   1.926  0.1878  0.1978  0.5557
 5595TIP3    H116749   4.970   6.505   1.992  0.2449 -0.0799  0.8519
 5595TIP3    H216750   4.927   6.464   1.853  0.8692  1.0172  0.3297
 5596TIP3   OH216751   5.123   3.226   4.537  0.3094 -0.2058 -0.1653
 5596TIP3    H116752   5.136   3.318   4.515 -0.8053 -0.3024 -1.2860
 5596TIP3    H216753   5.112   3.226   4.632 -0.2274  0.8822 -0.2153
 5597TIP3   OH216754   6.867   1.532   3.841  0.5862  0.6268  0.2668
 5597TIP3    H116755   6.848   1.581   3.921 -0.7262  0.5542  0.0325
 5597TIP3    H216756   6.907   1.451   3.871 -4.1922 -1.6663  1.3642
 5598TIP3   OH216757   1.327   3.460   4.094 -0.4369 -0.0344 -0.0208
 5598TIP3    H116758   1.393   3.425   4.034  0.9596 -0.1006  1.4794
 5598TIP3    H216759   1.253   3.400   4.086  0.0767 -0.5642 -0.9814
 5599TIP3   OH216760   0.092   5.817   0.995 -0.1681 -0.5500 -0.2526
 5599TIP3    H116761   0.119   5.763   0.921  2.0291  0.2182 -0.0897
 5599TIP3    H216762   0.172   5.860   1.024 -1.3046  0.5633  1.4526
 5600TIP3   OH216763   2.581   0.103   4.642 -0.1481  0.4378  0.5385
 5600TIP3    H116764   2.542   0.161   4.707 -1.7687  0.4331 -0.3795
 5600TIP3    H216765   2.663   0.147   4.618  0.2996  0.6238  2.2582
 5601TIP3   OH216766   1.054   1.349   5.699 -0.0719 -0.2303 -0.1379
 5601TIP3    H116767   1.019   1.354   5.788  0.9004 -0.8930  0.2971
 5601TIP3    H216768   1.149   1.356   5.710  0.0597 -0.3095 -1.1271
 5602TIP3   OH216769   1.105   5.654   0.900  0.0801  0.3802  0.4448
 5602TIP3    H116770   1.092   5.663   0.805  0.7923  1.9024  0.4622
 5602TIP3    H216771   1.147   5.569   0.910 -0.3504  0.0292 -0.5640
 5603TIP3   OH216772   1.631   2.708   2.156  0.4451 -0.0909 -0.1588
 5603TIP3    H116773   1.700   2.772   2.171  0.4266 -0.2683  0.7903
 5603TIP3    H216774   1.553   2.760   2.138  0.3929  0.1701  0.7716
 5604TIP3   OH216775   1.096   5.563   4.512 -0.4459  0.3323 -0.3657
 5604TIP3    H116776   1.168   5.596   4.565 -0.7654  0.5600 -0.0692
 5604TIP3    H216777   1.125   5.577   4.421 -0.9256  2.2583 -0.2698
 5605TIP3   OH216778   2.660   1.065   3.309 -0.0610  0.1556 -0.6161
 5605TIP3    H116779   2.607   0.995   3.270 -0.3167 -0.4785  0.8323
 5605TIP3    H216780   2.598   1.120   3.356  0.3738  0.3462 -0.2598
 5606TIP3   OH216781   3.039   4.361   5.355  0.2858 -0.1546  0.0973
 5606TIP3    H116782   3.059   4.280   5.402 -1.2316 -1.3884 -1.2753
 5606TIP3    H216783   2.945   4.359   5.342  0.4755  0.7855 -1.8114
 5607TIP3   OH216784   4.163   4.507   5.185  0.6089  0.2380  0.3024
 5607TIP3    H116785   4.136   4.441   5.248  0.0370  0.4774  0.3172
 5607TIP3    H216786   4.128   4.589   5.220  0.9265  0.4832  0.0566
 5608TIP3   OH216787   3.833   3.093   4.761  0.2624 -0.0419  0.0281
 5608TIP3    H116788   3.785   3.166   4.723 -1.0747 -0.0441  1.5747
 5608TIP3    H216789   3.850   3.034   4.687 -1.3522  0.3948 -0.7488
 5609TIP3   OH216790   2.402   3.890   2.423 -0.3280 -0.2456 -0.3985
 5609TIP3    H116791   2.349   3.817   2.392 -1.8873  1.0296 -0.9126
 5609TIP3    H216792   2.338   3.953   2.456  0.9056  1.2246 -0.7178
 5610TIP3   OH216793   5.032   3.315   0.346 -0.9398  0.4685  0.5659
 5610TIP3    H116794   5.008   3.388   0.289 -0.6347  2.1278  2.4725
 5610TIP3    H216795   5.040   3.353   0.433  1.4312 -1.4173  1.2922
 5611TIP3   OH216796   3.559   5.538   4.820 -0.1915  0.1857 -0.4936
 5611TIP3    H116797   3.560   5.629   4.792 -0.3206  0.6728  1.0112
 5611TIP3    H216798   3.557   5.542   4.916  0.0167 -1.3954 -0.3941
 5612TIP3   OH216799   6.353   5.289   2.902 -0.0654 -0.5249 -0.5738
 5612TIP3    H116800   6.263   5.294   2.933 -0.1911 -0.0518 -1.0107
 5612TIP3    H216801   6.351   5.329   2.815  1.1115  2.2771  0.5600
 5613TIP3   OH216802   6.002   5.971   2.106  0.0972 -0.2655 -0.1844
 5613TIP3    H116803   5.920   5.998   2.065  0.3139  0.0064 -0.4442
 5613TIP3    H216804   6.054   5.935   2.034 -0.6242 -2.4892  0.3311
 5614TIP3   OH216805   5.077   6.316   4.723  0.0543 -0.2419 -0.2426
 5614TIP3    H116806   5.060   6.387   4.785  0.0626  0.4651 -1.0391
 5614TIP3    H216807   5.043   6.238   4.767  1.5681 -0.0435  1.3689
 5615TIP3   OH216808   5.736   0.054   2.000 -0.2798  0.2867  0.0738
 5615TIP3    H116809   5.826   0.048   2.031  0.1452  0.8764 -1.0271
 5615TIP3    H216810   5.713   0.147   2.012 -0.6403  0.1986  0.0669
 5616TIP3   OH216811   7.108   5.492   1.017  0.1867 -0.3721  0.2367
 5616TIP3    H116812   7.125   5.413   1.068 -2.5445 -1.2779 -0.0741
 5616TIP3    H216813   7.027   5.527   1.054 -0.9638 -0.1088 -2.3175
 5617TIP3   OH216814   6.245   4.795   0.289  0.1548 -0.1175  0.1198
 5617TIP3    H116815   6.200   4.715   0.261 -0.7188 -0.5012  2.3488
 5617TIP3    H216816   6.217   4.807   0.380  1.2553  2.0509  0.2370
 5618TIP3   OH216817   2.166   3.312   3.183 -0.3657  0.3420  0.4571
 5618TIP3    H116818   2.121   3.395   3.201 -0.4476  0.6487 -1.0613
 5618TIP3    H216819   2.237   3.309   3.248  0.5730  2.3508 -0.3815
 5619TIP3   OH216820   6.677   1.998   2.387 -0.4102  0.2860 -0.5352
 5619TIP3    H116821   6.620   1.932   2.428  0.1236  1.2583  1.9394
 5619TIP3    H216822   6.623   2.077   2.384 -0.1455  0.4545 -0.8870
 5620TIP3   OH216823   1.835   4.529   4.581 -0.0480  0.1837 -0.0719
 5620TIP3    H116824   1.806   4.573   4.661 -1.2107 -1.3637  0.3912
 5620TIP3    H216825   1.808   4.438   4.592 -1.9250  0.2696 -3.0338
 5621TIP3   OH216826   4.344   1.445   0.059  0.3376  0.0503  0.4930
 5621TIP3    H116827   4.269   1.489   0.099 -0.7594 -0.7497 -0.6411
 5621TIP3    H216828   4.319   1.431  -0.032  1.7185 -0.5760  0.1789
 5622TIP3   OH216829   0.893   1.182   0.920  0.2979  0.5118  0.3727
 5622TIP3    H116830   0.873   1.156   1.010 -0.6975  0.2753  0.0997
 5622TIP3    H216831   0.819   1.237   0.894 -2.4015 -3.6917 -2.1077
 5623TIP3   OH216832   4.329   5.051   2.239 -0.7626 -0.2353 -0.4828
 5623TIP3    H116833   4.343   4.957   2.225 -0.7355  0.0135 -2.2136
 5623TIP3    H216834   4.283   5.081   2.161  0.2988  1.4541 -0.5014
 5624TIP3   OH216835   2.680   6.480   2.976  0.0162 -0.9144 -0.0533
 5624TIP3    H116836   2.670   6.571   3.003  2.0945 -0.1255 -1.6356
 5624TIP3    H216837   2.606   6.464   2.918  0.5024  0.3561 -1.0759
 5625TIP3   OH216838   5.267   5.951   2.869  0.4540 -0.5734 -0.4078
 5625TIP3    H116839   5.176   5.927   2.853  0.3240  0.2500 -1.0061
 5625TIP3    H216840   5.271   5.970   2.963  0.0274 -0.6820 -0.3668
 5626TIP3   OH216841   2.745   2.628   1.056  0.3001  0.2463  0.3824
 5626TIP3    H116842   2.706   2.626   0.968  1.1478  2.0165 -0.0652
 5626TIP3    H216843   2.708   2.551   1.100  1.1209 -1.6496 -2.0390
 5627TIP3   OH216844   7.027   1.071   1.401 -0.5693 -0.2225 -0.1140
 5627TIP3    H116845   6.957   1.022   1.358 -0.5112  0.4770 -1.0219
 5627TIP3    H216846   7.106   1.021   1.382 -0.8079 -1.0651  0.9907
 5628TIP3   OH216847   1.486   3.455   1.708  0.0458  0.2963  0.6029
 5628TIP3    H116848   1.525   3.379   1.665  1.3711  0.8237  0.8271
 5628TIP3    H216849   1.514   3.449   1.799 -2.4364 -0.6033  1.3882
 5629TIP3   OH216850   2.328   0.731   3.785  0.4544 -0.2678  0.1238
 5629TIP3    H116851   2.241   0.749   3.820  1.3251  0.9346  1.8310
 5629TIP3    H216852   2.328   0.636   3.768 -0.6476 -0.5976  1.7105
 5630TIP3   OH216853   4.748   3.062   3.084 -0.1826 -0.7241  0.5363
 5630TIP3    H116854   4.661   3.092   3.057  0.2156 -0.8251 -0.9276
 5630TIP3    H216855   4.804   3.079   3.009  1.1257 -0.4869  1.5315
 5631TIP3   OH216856   6.288   4.583   1.816  0.0367  0.1079  0.0126
 5631TIP3    H116857   6.213   4.637   1.790 -0.8543 -1.2974 -0.4770
 5631TIP3    H216858   6.353   4.646   1.849 -1.9498  1.2429  1.9893
 5632TIP3   OH216859   1.439   3.136   1.736 -0.0301  0.4597  0.2516
 5632TIP3    H116860   1.381   3.126   1.812 -1.8906  2.2999 -0.7862
 5632TIP3    H216861   1.416   3.222   1.701  2.9832  1.0222 -0.6237
 5633TIP3   OH216862   6.557   0.307   0.827 -0.1166 -0.0943 -0.8187
 5633TIP3    H116863   6.513   0.231   0.789  0.4883 -1.2692  0.7156
 5633TIP3    H216864   6.603   0.347   0.753 -2.2320  0.1231 -2.0938
 5634TIP3   OH216865   2.582   5.756   3.144  0.4226 -0.0122  0.2001
 5634TIP3    H116866   2.496   5.769   3.185  1.1556  0.4958  1.6431
 5634TIP3    H216867   2.634   5.830   3.175  0.9142  0.6548 -2.0384
 5635TIP3   OH216868   5.140   1.156   0.949 -0.5465 -0.1068 -0.8119
 5635TIP3    H116869   5.226   1.197   0.954 -1.2049  1.2554 -0.2855
 5635TIP3    H216870   5.159   1.063   0.937  0.9890  0.3600 -2.4282
 5636TIP3   OH216871   1.060   1.209   1.715  0.2048  0.1916  0.0759
 5636TIP3    H116872   1.142   1.220   1.763  0.3504  0.7932 -0.2899
 5636TIP3    H216873   0.992   1.227   1.780  0.3764  0.1975  0.2561
 5637TIP3   OH216874   1.540   5.115   4.283 -0.1564 -0.8382 -0.6268
 5637TIP3    H116875   1.612   5.061   4.251  0.2638  0.7272 -2.5037
 5637TIP3    H216876   1.463   5.058   4.281  0.3585 -1.5064 -2.1327
 5638TIP3   OH216877   3.104   0.954   3.806  0.0733  0.0465 -0.0421
 5638TIP3    H116878   3.122   0.944   3.900 -0.4713  0.1706  0.0846
 5638TIP3    H216879   3.128   0.870   3.768  1.9130  0.5535 -0.0758
 5639TIP3   OH216880   0.112   1.162   1.302 -0.4594  0.1249  0.4486
 5639TIP3    H116881   0.086   1.071   1.287 -0.8293  0.4188 -0.8087
 5639TIP3    H216882   0.082   1.208   1.225  1.3621  1.0010  0.2043
 5640TIP3   OH216883   1.633   3.074   1.970  0.0400 -0.5262 -0.2814
 5640TIP3    H116884   1.566   3.067   1.902  0.0523 -0.2532 -0.3232
 5640TIP3    H216885   1.707   3.117   1.927 -0.3742  0.7142  0.1939
 5641TIP3   OH216886   2.391   2.722   2.174 -0.1731  0.3669  0.8546
 5641TIP3    H116887   2.447   2.717   2.252  0.7125 -0.7359  0.1841
 5641TIP3    H216888   2.353   2.634   2.167  1.0094 -0.0610 -0.8148
 5642TIP3   OH216889   5.029   1.498   3.629  0.1763 -0.0250 -0.4196
 5642TIP3    H116890   5.095   1.442   3.587  0.1134 -0.0482 -0.4873
 5642TIP3    H216891   4.949   1.481   3.580 -0.6199 -2.2135  1.4288
 5643TIP3   OH216892   2.057   1.855   4.793 -0.0538 -0.3430 -0.2000
 5643TIP3    H116893   2.048   1.788   4.725  0.5147  0.8749 -1.5132
 5643TIP3    H216894   1.991   1.920   4.772 -0.2421 -0.2017  0.7560
 5644TIP3   OH216895   5.559   6.024   3.244 -0.1051  0.7095 -0.9200
 5644TIP3    H116896   5.482   6.028   3.188 -0.4696  0.2672 -0.4522
 5644TIP3    H216897   5.526   5.994   3.328 -0.1416  4.3825  0.5487
 5645TIP3   OH216898   0.496   4.199   3.354  0.1815 -0.3151 -0.5213
 5645TIP3    H116899   0.550   4.255   3.297 -0.3868  1.0375  0.2154
 5645TIP3    H216900   0.551   4.183   3.430 -0.4091  1.0775  0.2370
 5646TIP3   OH216901   1.469   2.354   5.086  0.0516 -0.2874  0.4939
 5646TIP3    H116902   1.513   2.409   5.151  1.1750  1.0405 -1.3062
 5646TIP3    H216903   1.395   2.407   5.055  0.4897 -0.2217 -0.4647
 5647TIP3   OH216904   2.188   0.047   4.066  0.2252 -0.2973 -0.0995
 5647TIP3    H116905   2.225   0.052   3.978  0.7651  0.7026  0.1752
 5647TIP3    H216906   2.223  -0.035   4.101 -0.1122 -0.7783 -0.8623
 5648TIP3   OH216907   5.463   2.677   3.290 -0.0931 -0.4814 -0.1444
 5648TIP3    H116908   5.496   2.655   3.377  0.7565 -0.6509 -0.4909
 5648TIP3    H216909   5.534   2.651   3.231  0.4484  1.9907 -0.6913
 5649TIP3   OH216910   6.777   2.253   3.364  0.0002 -0.1764 -0.4507
 5649TIP3    H116911   6.751   2.248   3.456 -2.4626  1.5148 -0.9771
 5649TIP3    H216912   6.734   2.178   3.323 -1.8757  1.0635 -0.8209
 5650TIP3   OH216913   2.739   2.242   3.149  0.6413 -0.2673  0.0857
 5650TIP3    H116914   2.742   2.332   3.180 -1.1361  0.2959 -1.2270
 5650TIP3    H216915   2.668   2.201   3.198  0.3922 -0.4838 -0.4420
 5651TIP3   OH216916   2.563   6.387   0.595 -0.0793 -0.5896  0.7057
 5651TIP3    H116917   2.648   6.429   0.588 -0.0627 -0.7025  0.1574
 5651TIP3    H216918   2.510   6.446   0.649 -0.1410  0.2681 -0.2602
 5652TIP3   OH216919   2.789   6.126   1.834 -0.4637  0.0077  0.4089
 5652TIP3    H116920   2.872   6.159   1.868  0.2131 -0.7946 -0.4042
 5652TIP3    H216921   2.724   6.152   1.899  0.8096 -1.7037  2.4864
 5653TIP3   OH216922   0.671   3.703   0.889  0.3409  0.2569 -0.4690
 5653TIP3    H116923   0.631   3.644   0.952 -0.2343  0.9403 -0.1859
 5653TIP3    H216924   0.764   3.680   0.890  0.2842  0.0564  0.4010
 5654TIP3   OH216925   0.049   0.676   4.687  0.4598 -0.2974  0.3095
 5654TIP3    H116926   0.053   0.665   4.592 -1.4793  3.6702 -0.3971
 5654TIP3    H216927  -0.021   0.616   4.715 -0.7321  0.3339 -1.1883
 5655TIP3   OH216928   1.453   6.499   0.476 -0.3263  0.2794 -0.0826
 5655TIP3    H116929   1.540   6.505   0.436 -0.9859  0.7344 -1.5129
 5655TIP3    H216930   1.426   6.408   0.460  1.1096 -0.8592  3.1421
 5656TIP3   OH216931   2.054   4.788   5.054  0.5341  0.1612  0.2951
 5656TIP3    H116932   2.096   4.761   4.972  0.2218  0.0142  0.1830
 5656TIP3    H216933   2.050   4.884   5.048 -0.2143  0.1052 -0.2252
 5657TIP3   OH216934   1.110   3.693   3.596 -0.8850  0.5164 -0.6520
 5657TIP3    H116935   1.074   3.697   3.685  2.4670 -0.9342  0.9303
 5657TIP3    H216936   1.106   3.784   3.565  1.0587  1.8717  2.4895
 5658TIP3   OH216937   2.578   1.023   1.847  0.3639  0.0432  0.4515
 5658TIP3    H116938   2.535   1.074   1.916  0.2583  0.7030 -0.0845
 5658TIP3    H216939   2.507   0.971   1.808  0.3342  0.0174  0.5397
 5659TIP3   OH216940   5.786   2.304   0.480 -0.3078  0.0687 -0.2338
 5659TIP3    H116941   5.783   2.220   0.436  0.5919  0.2443 -0.6503
 5659TIP3    H216942   5.874   2.308   0.519 -1.3433 -0.4893  2.4096
 5660TIP3   OH216943   5.592   3.976   0.176 -0.2019  0.2106 -0.1578
 5660TIP3    H116944   5.674   4.026   0.179  0.0964 -0.2802  0.1674
 5660TIP3    H216945   5.607   3.909   0.110  0.2740 -0.9018  1.0491
 5661TIP3   OH216946   1.467   5.915   5.455  0.2347  0.0925 -0.3628
 5661TIP3    H116947   1.403   5.963   5.403 -0.0432  2.9948  2.3382
 5661TIP3    H216948   1.550   5.958   5.436  0.7756 -1.2077 -1.0481
 5662TIP3   OH216949   6.314   0.967   0.210  0.2148 -0.3770  0.6753
 5662TIP3    H116950   6.395   1.015   0.223  1.4602 -1.8947 -1.0477
 5662TIP3    H216951   6.318   0.894   0.272  1.1133 -1.5149 -0.6545
 5663TIP3   OH216952   2.861   6.719   3.605 -0.9094  0.7708  0.3044
 5663TIP3    H116953   2.935   6.775   3.583 -0.0247 -0.9719 -1.5339
 5663TIP3    H216954   2.899   6.632   3.618 -2.5926 -0.2277 -0.9121
 5664TIP3   OH216955   6.111   3.935   1.193  0.1542 -0.3494 -0.4305
 5664TIP3    H116956   6.198   3.906   1.219  0.8497  0.7511 -1.4388
 5664TIP3    H216957   6.082   3.992   1.264  0.3514 -0.5284 -0.2046
 5665TIP3   OH216958   2.256   6.358   1.106 -0.4068  0.6237  0.1516
 5665TIP3    H116959   2.321   6.427   1.089  0.0808 -0.3381 -2.3929
 5665TIP3    H216960   2.278   6.325   1.193  0.5828  2.3586  0.6039
 5666TIP3   OH216961   5.143   4.352   1.435 -0.1030  0.3591  0.1627
 5666TIP3    H116962   5.195   4.370   1.357  0.0364 -0.1669  0.1323
 5666TIP3    H216963   5.147   4.433   1.485 -0.2798  0.7419 -0.4248
 5667TIP3   OH216964   4.850   1.643   2.863 -0.5767  0.0535  0.2043
 5667TIP3    H116965   4.820   1.681   2.945 -1.3318 -1.8634  0.8739
 5667TIP3    H216966   4.804   1.559   2.857 -0.7455  0.2529 -2.3131
 5668TIP3   OH216967   3.404   4.397   0.738  0.2911 -0.2890  0.3459
 5668TIP3    H116968   3.391   4.483   0.777  2.1830 -0.2376  0.9963
 5668TIP3    H216969   3.321   4.352   0.751 -0.0794  0.7326  1.8702
 5669TIP3   OH216970   6.017   0.861   0.388 -0.5082 -0.3587 -0.0719
 5669TIP3    H116971   5.963   0.851   0.310  1.1266  0.6525 -1.4088
 5669TIP3    H216972   6.078   0.787   0.385 -1.9481 -1.6835  1.6032
 5670TIP3   OH216973   5.526   2.136   0.356 -0.0255 -0.0460  0.5038
 5670TIP3    H116974   5.562   2.048   0.349  0.0057 -0.2309  2.3741
 5670TIP3    H216975   5.467   2.145   0.281  0.3816 -1.4564  0.0015
 5671TIP3   OH216976   2.374   2.393   2.836 -0.8888  0.6810  0.4385
 5671TIP3    H116977   2.393   2.347   2.918 -0.9447 -2.1753 -1.0257
 5671TIP3    H216978   2.374   2.324   2.770 -2.3553  2.6618 -1.7630
 5672TIP3   OH216979   0.136   3.317   4.496  0.3547  0.2059 -0.0052
 5672TIP3    H116980   0.112   3.408   4.477  0.1246 -0.3716 -2.9278
 5672TIP3    H216981   0.196   3.294   4.426 -0.8538 -2.4004 -0.2663
 5673TIP3   OH216982   6.345   4.378   0.427  0.4537 -0.4198  0.4200
 5673TIP3    H116983   6.363   4.290   0.458  0.0463 -1.5124 -2.1776
 5673TIP3    H216984   6.429   4.409   0.392  0.2609 -0.3729 -0.0064
 5674TIP3   OH216985   7.134   3.933   5.509  0.5414  0.1208 -0.0686
 5674TIP3    H116986   7.084   4.014   5.514 -0.7639 -0.6243 -0.5350
 5674TIP3    H216987   7.142   3.904   5.601 -0.0333  0.1720  0.0011
 5675TIP3   OH216988   5.877   2.640   5.835  0.0670 -0.0369 -0.2674
 5675TIP3    H116989   5.964   2.652   5.872 -0.1036  3.1229 -0.6313
 5675TIP3    H216990   5.830   2.588   5.901  1.3951  0.6515  1.2942
 5676TIP3   OH216991   2.680   5.929   0.110  0.0936  0.1035  0.2105
 5676TIP3    H116992   2.590   5.951   0.087  0.7355  2.2125 -0.4296
 5676TIP3    H216993   2.676   5.911   0.205 -1.2783 -1.7064 -0.1182
 5677TIP3   OH216994   1.677   3.807   3.651 -0.2359 -0.2029  0.2786
 5677TIP3    H116995   1.657   3.896   3.680 -0.5120 -0.1183 -0.1550
 5677TIP3    H216996   1.601   3.782   3.598 -0.3267 -0.8343  0.6937
 5678TIP3   OH216997   6.475   2.036   1.725 -0.4010  0.3053  0.4476
 5678TIP3    H116998   6.540   1.988   1.673 -0.3254  0.9381 -0.0468
 5678TIP3    H216999   6.392   1.992   1.705 -0.0449 -1.0833  1.7611
 5679TIP3   OH217000   2.206   0.116   0.656 -0.3174 -1.1637 -0.1128
 5679TIP3    H117001   2.263   0.144   0.728 -2.0633 -0.6362  1.1276
 5679TIP3    H217002   2.265   0.075   0.593  1.4975 -0.1363  0.8444
 5680TIP3   OH217003   5.560   6.610   0.753 -0.0569  0.0813 -0.1450
 5680TIP3    H117004   5.612   6.682   0.788 -1.4815  0.8373  0.5181
 5680TIP3    H217005   5.587   6.534   0.803  1.2601  0.1903 -0.6523
 5681TIP3   OH217006   4.420   3.549   1.683 -0.4841 -0.2577 -0.3243
 5681TIP3    H117007   4.424   3.613   1.612  2.2355 -1.5707 -1.4985
 5681TIP3    H217008   4.391   3.599   1.759 -0.1176  1.9713 -1.5652
 5682TIP3   OH217009   2.717   1.076   4.397  0.3634 -0.0468 -0.2663
 5682TIP3    H117010   2.637   1.069   4.345  1.9011 -0.5924 -2.7040
 5682TIP3    H217011   2.686   1.084   4.487 -2.4209 -0.3533 -1.1044
 5683TIP3   OH217012   5.502   1.566   1.291 -0.2775 -0.1508  0.2175
 5683TIP3    H117013   5.408   1.557   1.307 -0.9081  0.9311 -2.4441
 5683TIP3    H217014   5.542   1.494   1.340 -2.6807 -1.8854 -0.2271
 5684TIP3   OH217015   6.481   3.185   4.602 -0.0738  0.4195  0.0387
 5684TIP3    H117016   6.406   3.207   4.656 -1.4720  0.4416 -1.7998
 5684TIP3    H217017   6.469   3.092   4.581  0.3153  0.4649 -0.4068
 5685TIP3   OH217018   1.322   3.418   5.646  0.1544  0.5501  0.1298
 5685TIP3    H117019   1.286   3.486   5.704  1.2896  0.3104  1.1510
 5685TIP3    H217020   1.251   3.354   5.639 -1.8721  2.8145 -2.7319
 5686TIP3   OH217021   4.384   0.310   2.518 -0.1148  0.2662 -0.5983
 5686TIP3    H117022   4.471   0.276   2.537 -0.4224  0.0061  0.4354
 5686TIP3    H217023   4.367   0.374   2.587 -0.9962 -0.1811 -0.3758
 5687TIP3   OH217024   5.526   4.990   4.347  0.3242  0.2843 -0.4886
 5687TIP3    H117025   5.482   4.906   4.357 -0.6906  0.8723  0.1239
 5687TIP3    H217026   5.498   5.022   4.261  0.0185  0.3915 -0.3491
 5688TIP3   OH217027   4.222   4.085   4.643 -0.6096  0.0836 -0.4968
 5688TIP3    H117028   4.298   4.139   4.621  0.3925 -0.1623  2.0695
 5688TIP3    H217029   4.171   4.083   4.562 -0.3201  4.1842 -0.9900
 5689TIP3   OH217030   2.805   0.477   1.900 -0.9740 -0.9051 -0.4507
 5689TIP3    H117031   2.838   0.486   1.990 -1.3191 -0.4095 -0.3653
 5689TIP3    H217032   2.859   0.536   1.849 -1.9080  0.1729 -0.2513
 5690TIP3   OH217033   0.938   0.715   2.735 -0.6579  0.2457  0.0004
 5690TIP3    H117034   1.031   0.691   2.736 -0.8019 -0.3222  0.0235
 5690TIP3    H217035   0.895   0.645   2.784 -0.9130  1.2943  1.3440
 5691TIP3   OH217036   1.494   5.745   0.908 -0.2870 -0.6303  0.2586
 5691TIP3    H117037   1.516   5.721   0.998  1.0502 -0.7608 -0.0865
 5691TIP3    H217038   1.467   5.837   0.914  0.6177 -0.3821  0.6845
 5692TIP3   OH217039   2.993   4.541   4.945 -0.0453  0.4841 -0.6873
 5692TIP3    H117040   3.067   4.480   4.938  0.9414  1.7527 -1.7017
 5692TIP3    H217041   2.938   4.503   5.014  1.8472 -0.1871  0.5365
 5693TIP3   OH217042   2.525   6.002   3.688  0.4490 -0.4814 -0.0704
 5693TIP3    H117043   2.480   6.086   3.696  3.0070  0.8181  1.9038
 5693TIP3    H217044   2.549   5.997   3.595 -1.7757 -0.2249 -0.7092
 5694TIP3   OH217045   0.135   0.907   4.026 -0.2937 -0.3427 -0.1759
 5694TIP3    H117046   0.107   0.997   4.014 -1.0197 -0.6085 -0.5199
 5694TIP3    H217047   0.222   0.903   3.986 -0.8555 -0.1397 -1.4392
 5695TIP3   OH217048   6.729   1.030   5.424  0.0625  0.3821  0.4728
 5695TIP3    H117049   6.679   0.966   5.373  1.8012  0.3890 -1.3770
 5695TIP3    H217050   6.742   1.103   5.364  1.8254  0.5868  1.0385
 5696TIP3   OH217051   1.421   1.539   1.008 -0.5526  0.5743  0.3523
 5696TIP3    H117052   1.419   1.461   1.064 -0.4970  2.0371  2.4995
 5696TIP3    H217053   1.493   1.591   1.043  0.2967  1.0478 -1.9062
 5697TIP3   OH217054   1.324   4.678   2.997  0.1068  0.3584  0.0062
 5697TIP3    H117055   1.342   4.772   2.986  1.1232  0.0557 -0.9953
 5697TIP3    H217056   1.375   4.653   3.074 -0.4857  0.6918  0.5257
 5698TIP3   OH217057   2.728   5.171   1.836 -0.1863  0.4181  0.0696
 5698TIP3    H117058   2.744   5.250   1.887 -2.2087  0.9227 -0.0134
 5698TIP3    H217059   2.759   5.192   1.748  1.5149  0.2208  0.5793
 5699TIP3   OH217060   0.912   5.801   1.023 -0.5242 -0.5224 -0.0295
 5699TIP3    H117061   0.985   5.739   1.020 -0.2213 -0.2409  1.1506
 5699TIP3    H217062   0.871   5.794   0.937  1.6698  0.2293 -1.2185
 5700TIP3   OH217063   2.563   4.381   1.707  0.0356  0.2001 -0.1118
 5700TIP3    H117064   2.539   4.393   1.799 -0.3111 -0.8499 -0.0448
 5700TIP3    H217065   2.610   4.297   1.705 -0.0572  0.1551 -0.9033
 5701TIP3   OH217066   2.100   5.113   1.335 -0.2850  0.0768 -0.3253
 5701TIP3    H117067   2.116   5.189   1.391 -1.4281  0.2899 -0.2818
 5701TIP3    H217068   2.064   5.047   1.393  0.9440 -0.6163 -0.3106
 5702TIP3   OH217069   2.959   5.358   3.548  0.4122 -0.3983 -0.2677
 5702TIP3    H117070   2.926   5.442   3.580  0.3688  0.0817 -1.5169
 5702TIP3    H217071   2.916   5.345   3.463  1.3167 -1.0963 -0.6417
 5703TIP3   OH217072   6.278   0.506   4.061 -0.4962  0.1778  0.0687
 5703TIP3    H117073   6.268   0.568   4.133 -1.6585 -1.2665  1.2259
 5703TIP3    H217074   6.265   0.558   3.982 -2.3462  1.2644  1.0234
 5704TIP3   OH217075   2.479   5.865   3.943  0.1096  0.3716  0.1018
 5704TIP3    H117076   2.516   5.778   3.957 -3.5581 -1.4435 -0.3478
 5704TIP3    H217077   2.488   5.880   3.849 -0.2958 -0.0906 -0.0163
 5705TIP3   OH217078   6.061   5.325   3.442 -0.1413  0.1490 -0.2501
 5705TIP3    H117079   6.128   5.301   3.378  0.2157 -0.5479  0.3723
 5705TIP3    H217080   6.101   5.395   3.494 -0.5817  0.9993 -1.0294
 5706TIP3   OH217081   0.117   5.215   5.103 -0.3455 -0.3483  0.4911
 5706TIP3    H117082   0.175   5.238   5.030 -2.0829 -1.9687 -1.5655
 5706TIP3    H217083   0.171   5.160   5.160  1.1478  1.1994  0.6379
 5707TIP3   OH217084   2.199   4.561   3.506 -0.3123 -0.0471  0.3011
 5707TIP3    H117085   2.121   4.529   3.551  0.9036 -2.0331  1.1117
 5707TIP3    H217086   2.267   4.497   3.527  1.6829  1.8787  0.0252
 5708TIP3   OH217087   7.033   5.260   5.526  0.6852 -0.4832  0.4246
 5708TIP3    H117088   6.998   5.262   5.437 -0.2270 -1.2993  0.7529
 5708TIP3    H217089   7.030   5.351   5.555  1.4197 -0.1389 -0.5334
 5709TIP3   OH217090   2.715   4.510   3.812 -0.2340 -0.1444 -0.6192
 5709TIP3    H117091   2.777   4.512   3.885 -1.5164  1.4559  0.4816
 5709TIP3    H217092   2.661   4.433   3.828 -0.0109 -0.2353 -0.3025
 5710TIP3   OH217093   0.621   4.356   2.913  0.1114  0.0602  0.4099
 5710TIP3    H117094   0.585   4.376   2.999  0.2151 -2.6989  1.2108
 5710TIP3    H217095   0.714   4.381   2.919 -0.7147  3.9336 -0.4891
 5711TIP3   OH217096   5.318   3.107   3.780  0.3173  0.4580 -0.0135
 5711TIP3    H117097   5.346   3.080   3.693  1.3222  0.3321  0.3303
 5711TIP3    H217098   5.385   3.072   3.839 -0.1610  0.8314  0.7778
 5712TIP3   OH217099   1.519   6.287   3.767 -0.9008  0.0278 -0.3775
 5712TIP3    H117100   1.563   6.206   3.794 -0.8376  0.6448  1.5039
 5712TIP3    H217101   1.551   6.303   3.678  1.0283 -0.6869  0.1434
 5713TIP3   OH217102   7.154   1.270   3.387 -0.9499  0.5840 -0.0543
 5713TIP3    H117103   7.211   1.328   3.336 -1.3830  0.3110 -0.8594
 5713TIP3    H217104   7.113   1.328   3.451 -0.5617  0.9722 -0.1513
 5714TIP3   OH217105   1.744   2.291   5.432 -0.9444 -0.4663 -0.5693
 5714TIP3    H117106   1.773   2.276   5.521 -0.1094 -0.8407 -0.8961
 5714TIP3    H217107   1.699   2.210   5.407 -0.3331 -0.7447 -0.8052
 5715TIP3   OH217108   0.172   1.351   0.834 -0.4666 -0.1725 -0.0313
 5715TIP3    H117109   0.126   1.395   0.763  0.2259 -1.4601 -1.3322
 5715TIP3    H217110   0.189   1.420   0.899  1.2755  1.6840 -2.3118
 5716TIP3   OH217111   6.576   2.230   2.239  0.0770 -0.2015  0.4573
 5716TIP3    H117112   6.639   2.301   2.248 -1.9031  1.5674  1.0682
 5716TIP3    H217113   6.569   2.215   2.145  0.3684  0.5402  0.3157
 5717TIP3   OH217114   2.815   2.178   3.754 -0.0133  0.4131  0.0715
 5717TIP3    H117115   2.797   2.106   3.693  2.7692  0.1988 -0.6143
 5717TIP3    H217116   2.874   2.140   3.818  1.0300  1.9243  0.0508
 5718TIP3   OH217117   4.346   6.038   3.925 -0.2122 -0.3337  0.1637
 5718TIP3    H117118   4.258   6.026   3.890 -1.2879  1.1271  2.1570
 5718TIP3    H217119   4.346   5.985   4.005 -0.1428  1.4785  1.4245
 5719TIP3   OH217120   1.090   2.875   2.200  0.6968 -0.1890  0.7778
 5719TIP3    H117121   0.997   2.886   2.220  0.4754  0.5250 -0.5450
 5719TIP3    H217122   1.129   2.961   2.213  0.8258 -0.0615 -0.3110
 5720TIP3   OH217123   5.475   3.563   0.341 -0.4015  0.3219 -0.0331
 5720TIP3    H117124   5.420   3.602   0.409 -1.2926  0.0032 -0.5527
 5720TIP3    H217125   5.480   3.470   0.365  3.6847  0.9744  2.5623
 5721TIP3   OH217126   3.569   6.605   4.951 -0.3153 -0.2944  0.0279
 5721TIP3    H117127   3.562   6.516   4.985  0.8907  0.4467  2.4927
 5721TIP3    H217128   3.531   6.660   5.020 -0.4212  1.1340 -1.1309
 5722TIP3   OH217129   5.180   2.111   2.940  0.2223 -0.2559 -0.1007
 5722TIP3    H117130   5.133   2.047   2.993  0.7689  0.9315  1.9043
 5722TIP3    H217131   5.268   2.113   2.975 -0.0704  2.3922  0.7326
 5723TIP3   OH217132   5.054   4.071   1.796 -0.8418 -0.0404  0.1092
 5723TIP3    H117133   5.012   4.047   1.878 -1.8933 -1.0129 -0.6708
 5723TIP3    H217134   5.047   4.167   1.792  1.3692  0.2873  2.2231
 5724TIP3   OH217135   4.631   3.212   3.514 -0.0681 -0.5775 -0.4998
 5724TIP3    H117136   4.555   3.231   3.459  0.0426 -1.1126 -0.8406
 5724TIP3    H217137   4.604   3.137   3.567  0.3720 -1.0476 -0.9348
 5725TIP3   OH217138   2.495   4.800   0.900 -0.0629  0.3291  0.5272
 5725TIP3    H117139   2.464   4.876   0.852 -0.3664 -1.2728 -1.9848
 5725TIP3    H217140   2.564   4.763   0.845  1.4692 -0.1411  2.6472
 5726TIP3   OH217141   4.708   0.318   5.301 -0.2878 -0.8716 -0.6259
 5726TIP3    H117142   4.631   0.346   5.251  0.3527 -1.2312 -1.8729
 5726TIP3    H217143   4.754   0.399   5.323  0.5188 -0.7690 -2.4914
 5727TIP3   OH217144   6.088   2.899   3.631  0.2566 -0.0025  0.2236
 5727TIP3    H117145   6.055   2.964   3.693  0.3358 -0.5591  0.8670
 5727TIP3    H217146   6.165   2.861   3.674 -0.6563 -1.5732  0.5415
 5728TIP3   OH217147   3.587   2.846   2.380 -0.0192  0.0245  0.6715
 5728TIP3    H117148   3.545   2.764   2.407  0.5739 -0.4616  0.1343
 5728TIP3    H217149   3.584   2.901   2.459 -1.8404  0.0953  0.5929
 5729TIP3   OH217150   4.577   2.688   1.488 -0.9323 -0.1807 -0.1394
 5729TIP3    H117151   4.658   2.662   1.530  0.5932  0.2919 -2.5878
 5729TIP3    H217152   4.517   2.615   1.503  0.9455 -1.9490 -0.7951
 5730TIP3   OH217153   5.394   3.678   1.830 -0.1487 -0.5360 -0.1793
 5730TIP3    H117154   5.316   3.700   1.779 -0.5022 -1.1856  0.0639
 5730TIP3    H217155   5.364   3.679   1.921  0.6132  1.1769  0.0840
 5731TIP3   OH217156   2.152   3.417   1.856 -0.5484 -0.3410  0.2173
 5731TIP3    H117157   2.153   3.474   1.779  0.0389 -1.0296 -0.3043
 5731TIP3    H217158   2.170   3.330   1.821 -1.3863 -0.8465  1.0048
 5732TIP3   OH217159   0.392   3.342   2.440  0.0291  0.0461 -0.3872
 5732TIP3    H117160   0.400   3.395   2.519  1.0421 -0.1246 -0.3639
 5732TIP3    H217161   0.362   3.404   2.373 -1.4353  0.0621  0.2569
 5733TIP3   OH217162   1.839   0.463   5.153  0.0275 -0.4051 -0.0346
 5733TIP3    H117163   1.854   0.551   5.119 -0.7034  0.7882  2.4862
 5733TIP3    H217164   1.745   0.449   5.139  0.2201 -0.9888 -0.8067
 5734TIP3   OH217165   3.221   2.522   0.736  0.2110 -0.2773 -1.0460
 5734TIP3    H117166   3.153   2.471   0.692  0.0839 -1.8225  0.8025
 5734TIP3    H217167   3.267   2.458   0.790  0.1759  1.5364  1.2553
 5735TIP3   OH217168   6.158   3.214   3.408 -0.1880  0.1802  0.1142
 5735TIP3    H117169   6.125   3.131   3.372  0.8603  0.5654 -1.8911
 5735TIP3    H217170   6.253   3.205   3.404 -0.0553  0.8982  1.3564
 5736TIP3   OH217171   3.144   2.794   1.233 -0.0850 -0.4023 -0.1443
 5736TIP3    H117172   3.154   2.699   1.228  0.9620 -0.2804 -0.6685
 5736TIP3    H217173   3.183   2.817   1.318 -0.8512 -0.4922  0.2389
 5737TIP3   OH217174   5.009   6.239   3.502 -0.4869 -0.3257 -0.6113
 5737TIP3    H117175   4.964   6.216   3.584  0.1842  0.5185  0.0216
 5737TIP3    H217176   4.946   6.217   3.433 -1.0880 -1.0117  0.1339
 5738TIP3   OH217177   1.892   5.802   1.939 -0.0039 -0.2951  0.8840
 5738TIP3    H117178   1.907   5.775   2.029  1.4076 -1.8925  0.2092
 5738TIP3    H217179   1.962   5.760   1.888 -1.0455  0.1478 -1.0325
 5739TIP3   OH217180   1.574   0.026   3.005 -0.0878  0.5583  0.4423
 5739TIP3    H117181   1.642  -0.041   2.994  0.4885  1.3174 -0.9145
 5739TIP3    H217182   1.578   0.077   2.924 -0.8878  1.8898  1.2102
 5740TIP3   OH217183   5.206   0.944   4.315  0.3913 -0.7972 -0.3621
 5740TIP3    H117184   5.120   0.902   4.309 -0.1466  0.2777 -0.3645
 5740TIP3    H217185   5.212   0.975   4.405  0.2738  0.1589 -0.6750
 5741TIP3   OH217186   0.418   1.717   2.404 -0.0362  0.5741 -0.7672
 5741TIP3    H117187   0.378   1.722   2.317  0.4486  0.2727 -1.0187
 5741TIP3    H217188   0.355   1.670   2.457  1.1079 -2.4609 -1.8794
 5742TIP3   OH217189   2.713   3.394   3.102 -0.5604  0.6472  0.2065
 5742TIP3    H117190   2.805   3.416   3.113 -0.2151 -0.7703  0.4653
 5742TIP3    H217191   2.712   3.298   3.097 -1.7552  0.7097 -2.3584
 5743TIP3   OH217192   6.995   5.008   1.973 -0.9936 -0.3258  0.0600
 5743TIP3    H117193   7.041   4.941   2.023 -1.9251 -0.7904  0.3261
 5743TIP3    H217194   7.056   5.081   1.968  0.6257 -1.6688 -1.4215
 5744TIP3   OH217195   7.140   2.964   2.821  0.4746 -0.3976  0.2357
 5744TIP3    H117196   7.173   3.051   2.797 -0.4840 -0.6195 -2.1423
 5744TIP3    H217197   7.218   2.916   2.848  1.1718  0.8884  0.6397
 5745TIP3   OH217198   2.375   3.550   3.446 -0.5082 -0.3272  0.1430
 5745TIP3    H117199   2.387   3.466   3.489 -0.2114 -0.3769 -0.0368
 5745TIP3    H217200   2.457   3.565   3.398 -0.2131  0.4747  0.8820
 5746TIP3   OH217201   0.437   1.919   4.102 -0.1583 -0.0704 -0.2198
 5746TIP3    H117202   0.476   1.976   4.037 -0.5466 -2.4419 -2.7083
 5746TIP3    H217203   0.355   1.889   4.062 -0.9896 -0.7731  1.8461
 5747TIP3   OH217204   1.228   5.206   0.442 -0.3427  0.0468 -0.2116
 5747TIP3    H117205   1.294   5.269   0.471  0.9086 -1.3198 -0.0237
 5747TIP3    H217206   1.221   5.222   0.347  1.2940 -0.7074 -0.4888
 5748TIP3   OH217207   2.856   2.765   5.850 -0.7797 -0.6994 -0.2214
 5748TIP3    H117208   2.853   2.771   5.945  0.6703 -1.1190 -0.1312
 5748TIP3    H217209   2.906   2.842   5.823 -0.7259 -0.8683 -0.6036
 5749TIP3   OH217210   4.097   0.086   4.731 -0.5160 -0.3502 -0.1463
 5749TIP3    H117211   4.037   0.084   4.805  1.0952 -2.0714  1.2340
 5749TIP3    H217212   4.104   0.178   4.708 -1.4753  0.1724  1.4959
 5750TIP3   OH217213   4.700   2.994   1.160 -0.3094  0.1344  0.0720
 5750TIP3    H117214   4.624   3.008   1.216  0.8660 -0.5805  1.9328
 5750TIP3    H217215   4.664   2.953   1.081 -2.2209  2.6418 -0.4801
 5751TIP3   OH217216   0.064   5.182   2.026  0.0501  0.4067 -0.4180
 5751TIP3    H117217   0.109   5.113   2.074  1.2924  1.3761 -0.1687
 5751TIP3    H217218   0.030   5.241   2.093 -1.7481 -0.3652 -0.5912
 5752TIP3   OH217219   6.009   0.261   0.939 -0.3466  0.0484 -0.3209
 5752TIP3    H117220   5.958   0.250   0.859 -1.2230 -0.5763  0.2956
 5752TIP3    H217221   6.042   0.173   0.960  0.3778  0.3128 -0.3109
 5753TIP3   OH217222   0.381   3.952   0.400 -0.3811  0.0667  0.0698
 5753TIP3    H117223   0.310   3.973   0.340  0.2910  1.4815 -0.2771
 5753TIP3    H217224   0.459   3.990   0.358  0.2613  0.2057  1.3571
 5754TIP3   OH217225   1.275   0.129   3.662  0.0216 -0.5578 -0.6346
 5754TIP3    H117226   1.357   0.087   3.688 -0.3793 -0.6578  0.4825
 5754TIP3    H217227   1.216   0.056   3.643 -0.1246 -0.4865 -0.4470
 5755TIP3   OH217228   1.156   6.679   3.426 -0.0611  0.3501  0.0706
 5755TIP3    H117229   1.159   6.629   3.344 -1.7399 -0.2472  0.3447
 5755TIP3    H217230   1.067   6.666   3.459  0.4120  1.0589  1.7048
 5756TIP3   OH217231   2.564   5.420   4.432 -0.3501 -0.2651  0.6321
 5756TIP3    H117232   2.487   5.464   4.396 -0.0616 -0.2268  0.0467
 5756TIP3    H217233   2.637   5.474   4.404 -0.0282 -0.8598  0.3075
 5757TIP3   OH217234   3.844   0.763   5.382 -0.2713 -0.5692  0.3762
 5757TIP3    H117235   3.796   0.749   5.300  0.2666 -1.1498  0.1494
 5757TIP3    H217236   3.829   0.855   5.403 -1.4927 -0.7425  0.3266
 5758TIP3   OH217237   4.846   6.640   0.114  0.2398  0.0710  0.6756
 5758TIP3    H117238   4.772   6.601   0.160 -1.2587  1.5783 -0.3139
 5758TIP3    H217239   4.857   6.586   0.036  0.9355 -0.8037  1.3565
 5759TIP3   OH217240   2.048   3.204   3.878  0.2158  0.1881  0.2385
 5759TIP3    H117241   2.071   3.262   3.950 -1.9758 -0.8906  1.9166
 5759TIP3    H217242   2.082   3.118   3.904 -1.1990 -0.3610  0.3759
 5760TIP3   OH217243   3.386   3.775   2.462 -0.1047 -0.3361 -0.1919
 5760TIP3    H117244   3.389   3.687   2.499  0.1009 -1.0370 -1.7990
 5760TIP3    H217245   3.369   3.832   2.537  0.2324 -1.6870  0.9503
 5761TIP3   OH217246   3.280   3.389   1.829  0.0281 -0.1031  0.2916
 5761TIP3    H117247   3.187   3.377   1.843  0.3849 -1.8635  1.4377
 5761TIP3    H217248   3.310   3.306   1.792  1.0776  0.6035 -0.5174
 5762TIP3   OH217249   4.578   5.077   2.653  0.0761 -0.1965 -0.0929
 5762TIP3    H117250   4.601   5.006   2.594 -1.2814 -0.0581 -0.8354
 5762TIP3    H217251   4.515   5.130   2.604 -0.2414  0.5498  1.0725
 5763TIP3   OH217252   4.670   3.530   1.425  0.0808  0.4421  0.5294
 5763TIP3    H117253   4.736   3.567   1.367  2.1493 -0.1593  2.3742
 5763TIP3    H217254   4.649   3.600   1.487 -0.3449  0.3354  0.5138
 5764TIP3   OH217255   3.966   3.909   2.940  0.1754  0.4179 -0.1205
 5764TIP3    H117256   3.943   3.834   2.995  0.4848 -0.8032 -1.5747
 5764TIP3    H217257   4.034   3.955   2.989 -1.7663  1.2284  1.9416
 5765TIP3   OH217258   0.282   2.143   1.553  0.3502 -0.4115 -0.5493
 5765TIP3    H117259   0.303   2.062   1.507  1.0397 -1.0825  0.8722
 5765TIP3    H217260   0.187   2.140   1.564  0.2729 -0.6106 -1.2543
 5766TIP3   OH217261   6.790   2.952   0.554  0.3568 -0.0875  0.4080
 5766TIP3    H117262   6.733   2.940   0.629  0.2968  0.3020  0.4308
 5766TIP3    H217263   6.765   3.038   0.519 -2.2312 -1.7545 -2.2995
 5767TIP3   OH217264   4.128   2.179   0.835  0.1462  0.4560  0.8149
 5767TIP3    H117265   4.155   2.269   0.816 -0.2060  0.1471 -1.4240
 5767TIP3    H217266   4.209   2.133   0.858  1.0669  0.3873 -2.2250
 5768TIP3   OH217267   0.961   4.366   0.877 -0.0720 -0.1753 -0.8186
 5768TIP3    H117268   0.954   4.325   0.791 -2.2333  0.4575 -1.0181
 5768TIP3    H217269   0.910   4.309   0.935 -0.3785  0.4956 -0.4114
 5769TIP3   OH217270   1.790   1.292   3.201  0.1737 -0.0004 -0.2371
 5769TIP3    H117271   1.784   1.310   3.107  0.7965  1.4590 -0.0243
 5769TIP3    H217272   1.836   1.208   3.206 -2.1747 -1.4494 -1.2722
 5770TIP3   OH217273   1.226   0.700   0.959  0.2722 -0.3960 -0.1774
 5770TIP3    H117274   1.146   0.694   0.907  0.5200 -0.7256 -0.5261
 5770TIP3    H217275   1.210   0.643   1.034  0.4174 -0.9597 -0.5677
 5771TIP3   OH217276   1.536   5.338   3.349 -0.1634 -0.4728 -0.4837
 5771TIP3    H117277   1.532   5.385   3.266 -0.8401 -0.1103 -0.2471
 5771TIP3    H217278   1.624   5.298   3.349  1.3647  2.6063  0.2986
 5772TIP3   OH217279   6.075   1.349   3.715 -0.2911 -0.0707 -0.1485
 5772TIP3    H117280   6.014   1.275   3.721 -0.8043  0.1726 -1.8051
 5772TIP3    H217281   6.028   1.414   3.664  1.3964  0.0875 -1.5896
 5773TIP3   OH217282   2.708   2.375   2.003  0.3741 -0.1097 -0.2114
 5773TIP3    H117283   2.719   2.421   2.086  0.4811  0.5377 -0.5770
 5773TIP3    H217284   2.657   2.297   2.025 -2.0052  1.4157  0.0437
 5774TIP3   OH217285   4.247   1.863   4.118  0.3193 -0.3455 -0.1006
 5774TIP3    H117286   4.166   1.893   4.076  0.2769  0.0083  0.2323
 5774TIP3    H217287   4.242   1.897   4.207  1.3690  0.6625 -0.4061
 5775TIP3   OH217288   3.686   2.546   5.317  0.2639 -0.2462  0.1325
 5775TIP3    H117289   3.625   2.473   5.312  0.2432 -0.2224  0.0325
 5775TIP3    H217290   3.743   2.525   5.391 -0.2550  0.0300  0.6190
 5776TIP3   OH217291   6.188   1.359   1.974  0.0164 -0.1364 -0.0004
 5776TIP3    H117292   6.195   1.314   2.059 -0.5906 -1.1942 -0.4852
 5776TIP3    H217293   6.115   1.420   1.986 -1.0519 -1.3345 -0.1847
 5777TIP3   OH217294   2.367   3.610   3.111 -0.0721 -0.0299 -0.6688
 5777TIP3    H117295   2.295   3.567   3.158  0.2894  0.4972  0.4121
 5777TIP3    H217296   2.329   3.636   3.027 -1.3237  0.7479  0.1018
 5778TIP3   OH217297   6.422   0.053   1.893  0.6361 -0.3240 -0.1950
 5778TIP3    H117298   6.372  -0.016   1.849 -1.6886  0.9231  0.2927
 5778TIP3    H217299   6.377   0.134   1.867  0.6659  0.6472  2.5051
 5779TIP3   OH217300   5.640   2.841   0.962 -0.1442 -0.0995 -0.4524
 5779TIP3    H117301   5.640   2.906   0.892  0.6189  1.4301  0.9113
 5779TIP3    H217302   5.551   2.842   0.997  0.3236  1.6822  0.8166
 5780TIP3   OH217303   5.107   1.415   2.565  0.0904 -0.5258 -0.2461
 5780TIP3    H117304   5.062   1.334   2.590  0.7053 -0.9609 -0.5242
 5780TIP3    H217305   5.036   1.475   2.542 -0.3420 -1.3230 -1.0537
 5781TIP3   OH217306   0.150   6.334   0.287 -0.3655 -0.4710  0.0883
 5781TIP3    H117307   0.087   6.290   0.230 -0.4237  1.7737 -1.7143
 5781TIP3    H217308   0.236   6.308   0.253 -0.4000  1.0598 -1.2817
 5782TIP3   OH217309   6.304   3.130   5.063  0.1119 -0.0695 -0.2356
 5782TIP3    H117310   6.374   3.196   5.064 -0.1426  0.1971  0.4574
 5782TIP3    H217311   6.332   3.064   5.126 -0.3358  0.1247  0.1765
 5783TIP3   OH217312   4.005   1.511   0.741  0.0070 -0.1023  0.4138
 5783TIP3    H117313   3.939   1.442   0.754  0.3988 -0.6879 -0.6037
 5783TIP3    H217314   4.015   1.551   0.827 -1.0667 -0.5619  0.7707
 5784TIP3   OH217315   3.320   6.237   0.393  0.1126 -0.0475 -0.1301
 5784TIP3    H117316   3.241   6.265   0.439  0.0322 -1.1667  0.4381
 5784TIP3    H217317   3.370   6.318   0.382 -0.0888  0.3397  1.5127
 5785TIP3   OH217318   1.420   0.822   5.525 -0.0112  0.6685  0.2775
 5785TIP3    H117319   1.354   0.769   5.570  1.0306 -0.7226  0.2213
 5785TIP3    H217320   1.380   0.909   5.519 -1.3886  0.1415  1.2073
 5786TIP3   OH217321   5.466   1.782   2.964 -0.1462  0.1158  0.1909
 5786TIP3    H117322   5.552   1.754   2.994 -0.2987  0.8322  1.3636
 5786TIP3    H217323   5.464   1.759   2.871  0.1640 -2.6620  0.7891
 5787TIP3   OH217324   3.993   5.705   3.789  0.4336 -0.0069  0.2082
 5787TIP3    H117325   4.031   5.717   3.876  0.7531 -0.9728  0.2159
 5787TIP3    H217326   3.910   5.753   3.792  0.5293  0.1223  0.9801
 5788TIP3   OH217327   6.903   1.891   2.533  0.2652  0.6018  0.9559
 5788TIP3    H117328   6.846   1.909   2.458  1.3132  0.7789  0.1874
 5788TIP3    H217329   6.963   1.965   2.536  2.6143 -1.1051 -0.3342
 5789TIP3   OH217330   2.597   4.955   2.197 -0.1901  0.4540 -0.4691
 5789TIP3    H117331   2.514   4.985   2.234 -1.0115 -0.1527 -1.7829
 5789TIP3    H217332   2.587   4.965   2.102  0.8447 -0.6029 -0.7181
 5790TIP3   OH217333   0.199   3.338   4.762  0.3703 -0.4652  0.2324
 5790TIP3    H117334   0.245   3.261   4.797 -0.4243 -1.5474 -1.0043
 5790TIP3    H217335   0.194   3.322   4.668 -1.6846  0.0647  0.2095
 5791TIP3   OH217336   5.983   5.492   4.379  0.4430  0.2004  0.2096
 5791TIP3    H117337   5.930   5.413   4.363  1.1200 -0.2399  0.1106
 5791TIP3    H217338   5.968   5.512   4.471  0.8985 -0.5303  0.4533
 5792TIP3   OH217339   1.622   5.768   2.737 -0.4007 -0.5589  0.1845
 5792TIP3    H117340   1.654   5.780   2.647  2.7920  0.7659  1.3200
 5792TIP3    H217341   1.541   5.818   2.740 -0.5884 -0.6210 -1.9309
 5793TIP3   OH217342   3.890   5.174   0.624  0.3241 -0.3049  0.2735
 5793TIP3    H117343   3.799   5.176   0.653  0.0650  2.4473 -0.4573
 5793TIP3    H217344   3.936   5.236   0.680  1.7798 -1.5219  0.5251
 5794TIP3   OH217345   3.914   3.401   3.136 -0.2490 -0.2826  0.2812
 5794TIP3    H117346   3.936   3.341   3.207  1.6111  1.3463  1.1652
 5794TIP3    H217347   3.841   3.453   3.170  1.0371  0.9133  1.3103
 5795TIP3   OH217348   4.900   2.005   4.516 -0.1525  0.0784  0.1861
 5795TIP3    H117349   4.914   2.098   4.534 -0.4003  0.3030 -0.7206
 5795TIP3    H217350   4.880   1.967   4.601  1.0780  0.6359  0.7549
 5796TIP3   OH217351   2.490   6.720   3.942 -0.8703  0.1675  0.2919
 5796TIP3    H117352   2.509   6.671   3.862 -1.8959  1.5201 -0.8393
 5796TIP3    H217353   2.406   6.686   3.972 -0.1595 -0.8367  1.2487
 5797TIP3   OH217354   1.116   1.908   3.138  0.0515  0.4036 -0.7278
 5797TIP3    H117355   1.106   1.915   3.043 -1.9205 -0.3122 -0.6204
 5797TIP3    H217356   1.027   1.907   3.172  0.6070 -1.8285  0.9389
 5798TIP3   OH217357   5.641   0.475   5.320  0.2012  0.4353  0.1432
 5798TIP3    H117358   5.597   0.403   5.275  0.1310  1.2701 -1.1809
 5798TIP3    H217359   5.594   0.484   5.403  0.5686 -1.3829  0.5853
 5799TIP3   OH217360   0.882   1.528   0.750 -0.5324 -0.6632  0.9184
 5799TIP3    H117361   0.918   1.609   0.786  1.4263 -0.2508 -1.6852
 5799TIP3    H217362   0.959   1.474   0.732 -1.2211 -0.6390 -2.9049
 5800TIP3   OH217363   0.219   5.432   1.132 -0.3082  0.3335 -0.2856
 5800TIP3    H117364   0.182   5.521   1.132  1.3980  1.1587  2.2058
 5800TIP3    H217365   0.149   5.377   1.166 -0.8040  1.0295 -0.1501
 5801TIP3   OH217366   6.960   4.833   1.612 -0.0342 -0.3619  0.0539
 5801TIP3    H117367   7.055   4.832   1.605  0.2766 -1.3144  3.1971
 5801TIP3    H217368   6.933   4.744   1.589 -0.2184 -0.0726 -0.9072
 5802TIP3   OH217369   0.729   1.470   3.787 -0.1918 -0.1662  0.0592
 5802TIP3    H117370   0.814   1.444   3.821 -0.0235 -1.8034 -1.4479
 5802TIP3    H217371   0.694   1.530   3.853  1.5487 -0.4725  1.3434
 5803TIP3   OH217372   2.085   3.434   1.086  0.1567  0.0818  0.7369
 5803TIP3    H117373   2.027   3.361   1.107 -0.2846  0.4490  0.8112
 5803TIP3    H217374   2.145   3.439   1.160 -1.1769  1.1546  1.7987
 5804TIP3   OH217375   5.168   1.119   3.173  0.0061 -0.1211 -0.2092
 5804TIP3    H117376   5.183   1.054   3.242  0.4556 -1.5916 -1.6087
 5804TIP3    H217377   5.204   1.078   3.094  0.5784  1.9822 -1.1126
 5805TIP3   OH217378   0.621  -0.009   4.764 -0.7814  0.2632 -0.4594
 5805TIP3    H117379   0.565   0.024   4.694 -1.0775 -0.1805 -0.4370
 5805TIP3    H217380   0.710   0.015   4.737 -0.5856 -2.1377 -2.3256
 5806TIP3   OH217381   5.774   2.006   4.290 -0.2669 -0.3854  0.0807
 5806TIP3    H117382   5.802   2.078   4.233  0.4814  0.0158  0.9415
 5806TIP3    H217383   5.689   2.034   4.324  0.9652  1.1326  2.1201
 5807TIP3   OH217384   7.070   0.586   1.621 -0.1558 -0.0606  0.6895
 5807TIP3    H117385   7.017   0.566   1.698 -1.0608 -0.5706 -0.0248
 5807TIP3    H217386   7.144   0.526   1.626 -0.7379 -0.8091  0.6628
 5808TIP3   OH217387   3.652   3.459   0.853 -0.2317  0.2328 -0.1414
 5808TIP3    H117388   3.597   3.382   0.866  0.0609 -0.2240 -1.4415
 5808TIP3    H217389   3.731   3.426   0.809  1.4240  0.7583  2.2166
 5809TIP3   OH217390   4.951   1.735   5.095 -0.2131 -0.2332  0.4363
 5809TIP3    H117391   5.006   1.670   5.051  0.1286 -0.1131  0.6847
 5809TIP3    H217392   5.010   1.807   5.117 -0.6178  0.2358  0.0326
 5810TIP3   OH217393   3.406   2.053   2.427  0.5803  0.2324 -0.0437
 5810TIP3    H117394   3.316   2.086   2.420 -0.4339 -2.5905 -1.5825
 5810TIP3    H217395   3.408   1.975   2.372  3.9858  0.1190  0.0272
 5811TIP3   OH217396   0.591   5.165   0.183  0.1417  0.5025 -0.5760
 5811TIP3    H117397   0.643   5.135   0.109  0.0192  1.1634 -0.9293
 5811TIP3    H217398   0.507   5.192   0.146 -0.5821 -0.8014  0.0189
 5812TIP3   OH217399   1.764   3.481   0.044  0.2369 -0.3196 -0.5048
 5812TIP3    H117400   1.801   3.489   0.132 -2.0885  0.0123  0.5182
 5812TIP3    H217401   1.746   3.571   0.017  2.5935 -0.2568 -2.1615
 5813TIP3   OH217402   2.017   4.098   4.847 -0.0372 -0.3230  0.4217
 5813TIP3    H117403   2.066   4.180   4.841 -0.6313  0.0860  1.0209
 5813TIP3    H217404   2.056   4.042   4.780  1.9080 -0.3847  1.5558
 5814TIP3   OH217405   5.091   0.092   2.444 -0.3218 -0.1945 -0.3170
 5814TIP3    H117406   5.094   0.170   2.498 -1.8882 -0.6042  0.4055
 5814TIP3    H217407   5.147   0.113   2.368  0.3635  1.0860  0.5110
 5815TIP3   OH217408   6.210   5.591   2.874 -0.4878 -0.8381 -0.2888
 5815TIP3    H117409   6.179   5.561   2.789  0.2701  0.0989 -0.9151
 5815TIP3    H217410   6.133   5.630   2.916 -0.8662 -1.3200 -0.5309
 5816TIP3   OH217411   0.595   3.966   0.982  0.1506  0.1818  0.4321
 5816TIP3    H117412   0.508   3.958   1.021 -0.6770  1.2129 -1.0893
 5816TIP3    H217413   0.599   3.895   0.918  0.2208  0.4231  0.1639
 5817TIP3   OH217414   6.721   0.386   3.400  0.7591 -0.2972 -0.1729
 5817TIP3    H117415   6.708   0.325   3.328  0.4632  1.5879 -1.7953
 5817TIP3    H217416   6.813   0.375   3.425 -0.0363 -3.7640  1.9499
 5818TIP3   OH217417   0.024   3.440   2.385  0.2900 -0.1943  0.4412
 5818TIP3    H117418  -0.034   3.515   2.397  1.5094  0.9589 -0.5462
 5818TIP3    H217419   0.093   3.452   2.451  0.2058 -0.7655  0.6428
 5819TIP3   OH217420   3.873   5.628   1.026 -0.0804 -0.5795  0.1246
 5819TIP3    H117421   3.826   5.647   0.944 -1.0003  0.1858  0.8038
 5819TIP3    H217422   3.810   5.650   1.095  1.5081  1.2277  1.1007
 5820TIP3   OH217423   3.289   0.409   0.702  0.2137 -0.3960 -0.1354
 5820TIP3    H117424   3.264   0.349   0.773  2.1833 -1.6478 -0.4406
 5820TIP3    H217425   3.260   0.364   0.622  1.6344 -0.9607 -0.3594
 5821TIP3   OH217426   2.125   4.610   5.260  0.2657 -0.2508  0.2265
 5821TIP3    H117427   2.116   4.678   5.194 -0.4493 -0.4638  0.0948
 5821TIP3    H217428   2.036   4.579   5.275  0.6138 -1.3781  0.0498
 5822TIP3   OH217429   0.257   5.594   3.964  0.0506 -0.4431  0.0216
 5822TIP3    H117430   0.232   5.577   3.873 -1.7876 -1.2252  0.6238
 5822TIP3    H217431   0.287   5.684   3.964 -0.9494 -0.0778 -1.1716
 5823TIP3   OH217432   2.973   2.345   5.695  0.0907  0.0548 -0.0407
 5823TIP3    H117433   2.893   2.372   5.648 -1.1323 -2.1832  0.6147
 5823TIP3    H217434   2.952   2.358   5.788  1.3442  1.5053  0.0807
 5824TIP3   OH217435   0.915   1.956   0.297  0.0627  0.0503  0.2150
 5824TIP3    H117436   0.959   1.992   0.374  0.3963 -1.0493  0.5563
 5824TIP3    H217437   0.882   1.871   0.326  1.3012 -0.9604 -1.1988
 5825TIP3   OH217438   3.381   0.591   5.698  0.8155  0.0726 -0.1501
 5825TIP3    H117439   3.386   0.639   5.616  0.8261  0.1035 -0.1316
 5825TIP3    H217440   3.347   0.655   5.761 -0.0896 -0.2110 -0.3343
 5826TIP3   OH217441   4.361   3.624   3.721  0.0936 -0.5652  0.3733
 5826TIP3    H117442   4.319   3.681   3.786  2.5920  0.4773  1.2160
 5826TIP3    H217443   4.434   3.585   3.767  2.0293  0.2656 -1.7781
 5827TIP3   OH217444   6.666   4.451   1.777 -0.3649  0.4256  0.4848
 5827TIP3    H117445   6.584   4.419   1.813 -0.6987 -1.3704 -1.6746
 5827TIP3    H217446   6.703   4.376   1.730 -0.0745  2.5193 -2.9691
 5828TIP3   OH217447   0.828   6.262   3.253  0.2533 -0.8173  0.2845
 5828TIP3    H117448   0.776   6.337   3.284 -0.4364 -1.0506 -0.2802
 5828TIP3    H217449   0.764   6.205   3.211  1.0068 -0.9969 -0.6525
 5829TIP3   OH217450   4.996   5.143   3.691 -0.3297 -0.1183  0.6522
 5829TIP3    H117451   5.068   5.081   3.704  1.4419  1.6404 -0.2008
 5829TIP3    H217452   4.920   5.100   3.731  1.2171 -1.9669  1.8023
 5830TIP3   OH217453   6.137   0.211   4.515 -0.3741  0.2425  0.1139
 5830TIP3    H117454   6.226   0.185   4.489 -1.0252 -0.7877 -1.1993
 5830TIP3    H217455   6.149   0.256   4.598  1.4726  0.8459 -0.4348
 5831TIP3   OH217456   3.578   4.688   3.839  0.5862  0.4832 -0.4352
 5831TIP3    H117457   3.586   4.643   3.755 -0.3870  1.7449 -1.2276
 5831TIP3    H217458   3.609   4.623   3.903  0.4639 -0.8378 -1.6497
 5832TIP3   OH217459   2.083   4.777   3.395  0.0847 -0.6397 -0.0270
 5832TIP3    H117460   2.105   4.691   3.433  0.6563 -0.4818  0.0158
 5832TIP3    H217461   1.994   4.794   3.425 -0.1704 -1.3825 -0.3378
 5833TIP3   OH217462   2.953   5.791   0.719  0.3282  0.4256 -0.4544
 5833TIP3    H117463   2.890   5.725   0.749  0.6841 -0.7303 -2.1180
 5833TIP3    H217464   2.990   5.754   0.639  3.0452  1.1064  0.3967
 5834TIP3   OH217465   0.795   1.628   4.515 -0.5682  0.0279 -0.2142
 5834TIP3    H117466   0.791   1.722   4.529  0.4524 -0.0303  0.5744
 5834TIP3    H217467   0.872   1.614   4.461  0.0089 -0.4522  0.7117
 5835TIP3   OH217468   4.374   3.042   2.175  0.7274  0.1258  0.2547
 5835TIP3    H117469   4.362   3.025   2.269  0.6328 -0.9489  0.0655
 5835TIP3    H217470   4.359   2.957   2.134 -3.6332  1.3598 -1.1748
 5836TIP3   OH217471   6.178   6.375   5.648 -0.0500  0.2461 -0.0275
 5836TIP3    H117472   6.210   6.451   5.699  1.1627  1.2689 -2.1643
 5836TIP3    H217473   6.195   6.300   5.705  0.1315  1.4339  1.5614
 5837TIP3   OH217474   0.170   5.043   3.020 -0.1471 -0.4383 -0.8665
 5837TIP3    H117475   0.248   5.098   3.029 -0.1622 -0.3550 -1.2234
 5837TIP3    H217476   0.177   5.006   2.932 -0.0559 -1.1366 -0.5724
 5838TIP3   OH217477   0.908   5.633   1.242 -0.5250  0.0051  0.4125
 5838TIP3    H117478   0.819   5.607   1.265 -0.5310  0.8680  1.4725
 5838TIP3    H217479   0.898   5.692   1.167 -0.9243  0.6706  0.9771
 5839TIP3   OH217480   2.147   3.891   1.647  0.0637 -0.7555 -0.6035
 5839TIP3    H117481   2.107   3.939   1.719  1.7090  0.6675 -0.5574
 5839TIP3    H217482   2.139   3.799   1.671 -1.4898 -0.4262  0.2310
 5840TIP3   OH217483   2.544   0.752   1.568  0.0220  0.2609 -0.0569
 5840TIP3    H117484   2.612   0.816   1.592 -0.0671  1.0396 -1.7301
 5840TIP3    H217485   2.583   0.667   1.591  0.9721  0.7781  0.3430
 5841TIP3   OH217486   0.883   6.642   3.433 -0.5626 -0.3411  0.0902
 5841TIP3    H117487   0.819   6.704   3.468  0.4024 -0.0495  1.4246
 5841TIP3    H217488   0.846   6.556   3.454 -0.6783 -0.1808  0.5623
 5842TIP3   OH217489   2.617   4.232   5.139  0.0662  0.1337  0.7178
 5842TIP3    H117490   2.553   4.173   5.178  0.7057  0.4595  2.3411
 5842TIP3    H217491   2.702   4.195   5.165  0.5258  0.2680 -0.5447
 5843TIP3   OH217492   3.815   2.741   5.889 -0.3559  0.4982  0.6758
 5843TIP3    H117493   3.881   2.739   5.819  0.5287  1.6459  1.4529
 5843TIP3    H217494   3.800   2.649   5.910  0.5200  0.1997  0.0419
 5844TIP3   OH217495   4.221   0.541   2.634 -0.4815 -0.2153  1.1977
 5844TIP3    H117496   4.271   0.581   2.564 -1.4111 -2.1814 -0.7175
 5844TIP3    H217497   4.134   0.582   2.629  0.1037  1.3936  2.8885
 5845TIP3   OH217498   4.128   6.620   5.915 -0.0849  0.2993  0.1185
 5845TIP3    H117499   4.106   6.599   5.824  2.6373 -1.9415 -0.1637
 5845TIP3    H217500   4.153   6.712   5.914 -1.4350  0.6845 -1.0798
 5846TIP3   OH217501   6.846   5.627   3.255  0.3300  0.0745 -0.3187
 5846TIP3    H117502   6.867   5.612   3.347 -0.0923 -0.6955 -0.3372
 5846TIP3    H217503   6.758   5.664   3.256 -0.0833 -0.8861 -0.4562
 5847TIP3   OH217504   6.372   1.760   4.846  0.3680  0.3545 -1.4430
 5847TIP3    H117505   6.458   1.767   4.805  0.2676  1.6282 -1.4690
 5847TIP3    H217506   6.312   1.799   4.783  0.0674  1.3800 -0.5543
 5848TIP3   OH217507   0.180   5.403   3.352  0.2772  0.2308 -0.0740
 5848TIP3    H117508   0.171   5.444   3.267  0.0382  0.2980 -0.0161
 5848TIP3    H217509   0.253   5.450   3.394  1.1725 -0.5711 -0.6902
 5849TIP3   OH217510   0.513   0.425   3.745  0.1061 -0.1656 -0.4728
 5849TIP3    H117511   0.429   0.468   3.764  1.1015  1.9469 -0.5184
 5849TIP3    H217512   0.526   0.364   3.817 -0.1872  1.5136  1.0852
 5850TIP3   OH217513   0.680   0.537   4.300  0.1182 -0.4736 -0.5782
 5850TIP3    H117514   0.633   0.603   4.249  0.2379  0.4028  0.4032
 5850TIP3    H217515   0.729   0.487   4.235 -0.3124  0.1266 -1.3871
 5851TIP3   OH217516   2.499   5.508   1.674 -0.4167  0.7591  0.2115
 5851TIP3    H117517   2.532   5.591   1.708 -1.5601  1.0084  0.7700
 5851TIP3    H217518   2.536   5.502   1.586  1.9660  0.4831  1.1486
 5852TIP3   OH217519   2.224   6.067   2.251 -0.2691  0.1703  0.2230
 5852TIP3    H117520   2.194   5.979   2.276  1.8030 -0.3179  1.1644
 5852TIP3    H217521   2.223   6.117   2.332  2.4423 -0.2009  0.5673
 5853TIP3   OH217522   0.485   3.790   3.999 -0.0261 -0.5911  0.1834
 5853TIP3    H117523   0.571   3.750   4.008  1.2832  2.0903  0.5476
 5853TIP3    H217524   0.465   3.823   4.087  1.4463  4.0365 -0.9741
 5854TIP3   OH217525   4.650   2.720   3.965 -1.0120  0.5025 -0.4898
 5854TIP3    H117526   4.664   2.747   3.874  0.0691  0.8103 -0.2377
 5854TIP3    H217527   4.697   2.637   3.972 -0.7591  0.6766 -0.1084
 5855TIP3   OH217528   7.106   1.148   4.081  0.0329 -0.5555 -0.8030
 5855TIP3    H117529   7.199   1.161   4.099 -0.6349  2.7152  1.1843
 5855TIP3    H217530   7.081   1.074   4.136  1.1461 -0.3640 -0.0113
 5856TIP3   OH217531   2.241   4.747   2.485  0.5894  0.5230 -0.7320
 5856TIP3    H117532   2.164   4.719   2.437 -0.3720  0.8510  0.5537
 5856TIP3    H217533   2.262   4.672   2.542  0.7869  0.7071 -0.5594
 5857TIP3   OH217534   2.388   3.407   1.542  0.6939 -0.1110 -0.9556
 5857TIP3    H117535   2.435   3.448   1.470 -0.3028  1.8779 -0.5622
 5857TIP3    H217536   2.362   3.321   1.509 -0.0938  0.9073 -3.1462
 5858TIP3   OH217537   2.308   1.325   4.841 -0.6497 -0.4649 -0.2734
 5858TIP3    H117538   2.364   1.249   4.858 -0.2609  0.0148  0.6461
 5858TIP3    H217539   2.234   1.313   4.901 -0.3199  0.1450  0.2696
 5859TIP3   OH217540   6.230   6.345   2.142 -0.1674  0.9782  0.3677
 5859TIP3    H117541   6.208   6.333   2.050  1.8156 -1.7310  0.1359
 5859TIP3    H217542   6.200   6.265   2.185  2.8250  0.1645  1.1900
 5860TIP3   OH217543   1.176   0.190   0.057  0.7643  0.3827 -0.5368
 5860TIP3    H117544   1.107   0.141   0.103  1.1368  0.1282 -0.2483
 5860TIP3    H217545   1.137   0.277   0.043  0.1816  0.0789 -0.8533
 5861TIP3   OH217546   2.905   5.018   5.481 -0.3819  0.2105 -0.3179
 5861TIP3    H117547   2.900   4.938   5.429 -0.7695 -0.6017  0.9320
 5861TIP3    H217548   2.819   5.057   5.474 -0.1943  0.5282 -0.9249
 5862TIP3   OH217549   5.657   3.578   5.850  0.4397  0.6678  0.1058
 5862TIP3    H117550   5.727   3.581   5.785  1.4326 -1.2586  1.0199
 5862TIP3    H217551   5.702   3.561   5.933 -1.0126  0.5996  0.9110
 5863TIP3   OH217552   0.424   0.341   5.808 -0.3766 -0.3852  0.8023
 5863TIP3    H117553   0.332   0.317   5.821 -0.8037 -0.1244 -1.3849
 5863TIP3    H217554   0.454   0.282   5.740  0.2069  1.4673 -0.6143
 5864TIP3   OH217555   4.989   5.227   0.406 -0.2632  0.0666  0.2971
 5864TIP3    H117556   4.962   5.317   0.425 -0.3965  0.1955 -0.4635
 5864TIP3    H217557   4.912   5.174   0.427 -0.1275  0.0998  0.9130
 5865TIP3   OH217558   5.852   6.732   0.682  0.3471  0.0668 -0.1940
 5865TIP3    H117559   5.869   6.817   0.642 -3.0458 -0.1854 -2.6372
 5865TIP3    H217560   5.888   6.668   0.620  0.6205 -0.3105  0.3460
 5866TIP3   OH217561   5.754   4.240   3.875  0.0010  0.0914  0.0803
 5866TIP3    H117562   5.712   4.321   3.845  0.5493  0.6364  0.7195
 5866TIP3    H217563   5.732   4.234   3.968  1.1307  0.2853  0.3831
 5867TIP3   OH217564   5.627   2.494   3.615 -0.0122  0.1015  0.1805
 5867TIP3    H117565   5.626   2.425   3.549 -1.8445  0.4350 -0.1979
 5867TIP3    H217566   5.670   2.454   3.691  1.9276 -0.3574 -1.0863
 5868TIP3   OH217567   1.388   0.702   3.284  0.2188  0.0321  0.6219
 5868TIP3    H117568   1.450   0.757   3.237  2.1545 -1.6640  1.0630
 5868TIP3    H217569   1.318   0.762   3.311  1.1535  1.8233 -0.7298
 5869TIP3   OH217570   3.449   1.382   1.885 -0.5232 -0.2884 -1.0270
 5869TIP3    H117571   3.466   1.473   1.862 -0.5326 -0.0346 -0.0638
 5869TIP3    H217572   3.359   1.367   1.856 -1.3343  0.7098  0.8509
 5870TIP3   OH217573   5.987   1.758   1.039 -0.3408 -0.0692  0.5781
 5870TIP3    H117574   5.905   1.710   1.035  0.0565 -0.7560  0.5674
 5870TIP3    H217575   5.971   1.827   1.104 -1.9199  1.7690 -1.5780
 5871TIP3   OH217576   4.487   5.070   0.271 -0.4491  0.1448 -0.2494
 5871TIP3    H117577   4.438   5.013   0.330  1.0378  0.6742  1.5894
 5871TIP3    H217578   4.545   5.010   0.224 -0.2433 -0.0850  0.2876
 5872TIP3   OH217579   5.184   1.896   5.107 -0.0137 -0.0567 -0.2643
 5872TIP3    H117580   5.264   1.893   5.054  1.1830 -2.0841  1.4702
 5872TIP3    H217581   5.208   1.950   5.183 -0.7164  0.3814 -0.3490
 5873TIP3   OH217582   1.599   1.789   0.302 -0.0654 -0.0992 -0.4284
 5873TIP3    H117583   1.516   1.742   0.304  0.5171 -1.3131 -2.2127
 5873TIP3    H217584   1.576   1.877   0.272 -0.5114 -1.1103 -3.3562
 5874TIP3   OH217585   1.713   5.535   3.707 -0.5890  0.2681  0.0063
 5874TIP3    H117586   1.784   5.599   3.719 -1.0428  0.6963  0.4900
 5874TIP3    H217587   1.662   5.542   3.788 -0.8737 -0.4233 -0.1154
 5875TIP3   OH217588   6.695   3.244   4.267  0.2108  0.4793 -0.0876
 5875TIP3    H117589   6.652   3.288   4.341 -0.6395  0.8985 -0.8186
 5875TIP3    H217590   6.628   3.241   4.199  0.1868 -2.0532 -0.0497
 5876TIP3   OH217591   4.916   6.286   1.591 -0.3638 -0.6634  0.2647
 5876TIP3    H117592   4.875   6.367   1.620  0.4267  0.0123 -0.4530
 5876TIP3    H217593   4.936   6.300   1.499  1.1426 -1.0782  0.4863
 5877TIP3   OH217594   3.496  -0.002   1.057 -0.1466 -0.6797 -0.1881
 5877TIP3    H117595   3.545  -0.067   1.108  3.0836  0.2878 -1.8547
 5877TIP3    H217596   3.484   0.072   1.117  1.1427 -0.6365  0.0320
 5878TIP3   OH217597   3.395   2.561   1.874 -0.1805 -0.0059  0.1033
 5878TIP3    H117598   3.476   2.587   1.831 -0.9282  1.0190 -0.7268
 5878TIP3    H217599   3.400   2.602   1.960  1.4075 -2.2221  1.1830
 5879TIP3   OH217600   7.065   5.873   1.109  0.5606  0.0470 -0.4982
 5879TIP3    H117601   7.136   5.843   1.053 -0.3427 -4.1427  0.2766
 5879TIP3    H217602   7.058   5.806   1.177 -3.1250  1.0635  0.3526
 5880TIP3   OH217603   5.632   4.162   4.102 -0.3201 -0.0943  0.0861
 5880TIP3    H117604   5.538   4.178   4.109 -0.1130  1.0626  0.4810
 5880TIP3    H217605   5.671   4.217   4.170  0.8399  1.4081 -1.7060
 5881TIP3   OH217606   1.058   5.201   1.796  0.3408  0.0574  0.0220
 5881TIP3    H117607   1.144   5.238   1.815 -0.1712  0.3470  1.9532
 5881TIP3    H217608   1.001   5.235   1.865 -2.1150  2.4304 -2.9192
 5882TIP3   OH217609   5.190   3.029   2.177 -0.1793 -0.0520  0.5156
 5882TIP3    H117610   5.198   3.123   2.194  1.6040  0.2451 -1.5331
 5882TIP3    H217611   5.174   2.990   2.264  2.0040  1.8516  1.8851
 5883TIP3   OH217612   4.699   0.224   0.841 -0.3542 -0.0595  0.2076
 5883TIP3    H117613   4.608   0.254   0.836 -0.8757 -1.4383  0.8383
 5883TIP3    H217614   4.694   0.141   0.889  1.2623 -0.0818  0.3887
 5884TIP3   OH217615   6.320   3.495   4.265  0.0004 -0.0469 -0.3802
 5884TIP3    H117616   6.290   3.583   4.287 -0.0663  0.2854 -1.6848
 5884TIP3    H217617   6.250   3.438   4.297 -0.4027  0.4515 -0.3490
 5885TIP3   OH217618   2.565   6.049   4.156 -0.0371 -0.2682  0.3271
 5885TIP3    H117619   2.498   6.096   4.205 -0.9673  0.6295 -1.7212
 5885TIP3    H217620   2.526   6.034   4.070  1.4230 -2.0598 -0.0815
 5886TIP3   OH217621   6.919   5.083   1.016  0.6266 -0.0400  0.0866
 5886TIP3    H117622   6.872   5.095   1.099  0.4636  0.6330 -0.0943
 5886TIP3    H217623   6.855   5.043   0.958  0.7326 -0.4894  0.2740
 5887TIP3   OH217624   0.781   1.093   5.026  0.0722  0.5033  0.5813
 5887TIP3    H117625   0.822   1.107   5.111 -2.3286  0.5248  1.8315
 5887TIP3    H217626   0.705   1.152   5.027 -1.3270 -1.1936 -0.5901
 5888TIP3   OH217627   1.992   4.275   4.604  0.1820  0.1833 -0.2014
 5888TIP3    H117628   1.976   4.319   4.688  0.2520  0.6779 -0.4405
 5888TIP3    H217629   2.085   4.253   4.607  0.2660  0.5153 -0.2897
 5889TIP3   OH217630   1.032   1.565   4.356 -0.0291  0.5967 -0.0393
 5889TIP3    H117631   1.109   1.565   4.414 -1.5338  1.4138  2.0833
 5889TIP3    H217632   1.014   1.472   4.340  1.0680  0.3870 -0.1303
 5890TIP3   OH217633   3.372   3.658   2.954 -0.1016 -0.4678 -0.3785
 5890TIP3    H117634   3.412   3.580   2.990 -0.2502  0.0092  0.8614
 5890TIP3    H217635   3.444   3.719   2.941  0.1313 -1.0351 -2.0697
 5891TIP3   OH217636   2.722   4.011   1.159  0.1202 -0.1153  0.2060
 5891TIP3    H117637   2.648   4.012   1.220 -2.2157 -1.5759 -2.3341
 5891TIP3    H217638   2.752   4.101   1.156 -1.7271  0.5929  1.1758
 5892TIP3   OH217639  -0.023   1.926   4.754 -0.5065  0.3071  0.5557
 5892TIP3    H117640   0.028   1.909   4.834 -0.3307  0.2015  0.4207
 5892TIP3    H217641   0.020   1.873   4.687  0.4055  1.7031 -0.0108
 5893TIP3   OH217642   4.205   3.835   4.518  0.2485 -0.5942 -0.0825
 5893TIP3    H117643   4.119   3.792   4.514 -0.2555  0.3046  0.5937
 5893TIP3    H217644   4.190   3.912   4.573  1.6564 -0.7988  0.6235
 5894TIP3   OH217645   1.007   5.358   3.693  0.1365 -0.0106 -0.0774
 5894TIP3    H117646   1.041   5.285   3.745  2.2064  1.2576  0.4977
 5894TIP3    H217647   0.961   5.413   3.755  1.7301  0.9801  0.2927
 5895TIP3   OH217648   5.278   5.940   2.420  0.1922 -0.5165 -0.1579
 5895TIP3    H117649   5.185   5.935   2.400  0.3720  0.6898 -1.4748
 5895TIP3    H217650   5.311   5.852   2.401 -0.4877 -0.6501 -0.7667
 5896TIP3   OH217651   0.224   0.297   0.514 -0.2320  0.5057 -0.1298
 5896TIP3    H117652   0.262   0.308   0.601  0.8789 -0.7857 -0.4095
 5896TIP3    H217653   0.286   0.339   0.455 -0.2185  0.0946 -0.4176
 5897TIP3   OH217654   0.688   0.929   4.646 -0.1146  0.4479  0.1202
 5897TIP3    H117655   0.661   0.854   4.593 -0.7485 -0.2617  1.3939
 5897TIP3    H217656   0.741   0.890   4.716  0.4173  1.3217  0.2144
 5898TIP3   OH217657   5.645   6.209   0.607  0.3028  0.1715 -0.3548
 5898TIP3    H117658   5.597   6.215   0.524 -0.7124  1.1202  0.2805
 5898TIP3    H217659   5.702   6.134   0.595  0.4369  0.4900 -2.0539
 5899TIP3   OH217660   2.932   5.170   4.614  0.3248  0.0936 -0.3355
 5899TIP3    H117661   2.943   5.257   4.575 -3.1216  0.2834 -1.1975
 5899TIP3    H217662   2.975   5.111   4.553 -0.4268  0.9094 -1.7188
 5900TIP3   OH217663   3.600   1.649   5.493 -0.3498  0.3020 -0.3401
 5900TIP3    H117664   3.605   1.554   5.481 -0.7048  0.2252  0.0864
 5900TIP3    H217665   3.687   1.681   5.470 -0.2911 -0.1030 -0.6911
 5901TIP3   OH217666   5.731   2.185   2.150  0.1071 -0.3242  0.0617
 5901TIP3    H117667   5.759   2.273   2.123 -1.1882 -0.0207 -0.3865
 5901TIP3    H217668   5.709   2.194   2.242  1.0235 -0.4593  0.3024
 5902TIP3   OH217669   1.235   5.047   4.456 -0.2927 -0.1563  0.3577
 5902TIP3    H117670   1.315   5.085   4.420 -0.2328  0.4568  1.1091
 5902TIP3    H217671   1.174   5.120   4.464 -1.3824 -0.8095 -1.3126
 5903TIP3   OH217672   6.829   6.758   4.652  0.1594 -0.0036 -0.1070
 5903TIP3    H117673   6.800   6.793   4.736 -1.9497 -0.0850 -0.7412
 5903TIP3    H217674   6.856   6.668   4.672  0.1945  0.1447  0.5487
 5904TIP3   OH217675   2.926   5.015   2.951 -0.4461 -0.3062  0.1059
 5904TIP3    H117676   2.963   5.103   2.956 -0.1817 -0.3401 -1.0172
 5904TIP3    H217677   3.002   4.957   2.955 -0.5602 -0.4582  0.0568
 5905TIP3   OH217678   3.342   1.436   3.047  0.4385 -0.3281 -0.2326
 5905TIP3    H117679   3.316   1.490   2.971 -0.6543  0.1190  0.4333
 5905TIP3    H217680   3.266   1.380   3.063 -0.2223  1.0287  1.7997
 5906TIP3   OH217681   0.665   4.672   0.416  0.1932  0.3438  0.2745
 5906TIP3    H117682   0.656   4.738   0.485  0.2952 -0.3912  1.0124
 5906TIP3    H217683   0.679   4.723   0.336  0.4837  1.2116  0.8558
 5907TIP3   OH217684   1.194   4.157   4.263  0.0719  0.1458  0.3206
 5907TIP3    H117685   1.256   4.085   4.272  0.2173  0.2519  0.1680
 5907TIP3    H217686   1.180   4.165   4.169 -0.5665 -0.2122  0.3812
 5908TIP3   OH217687   4.218   2.756   4.130 -0.2695 -0.2516  0.7512
 5908TIP3    H117688   4.307   2.733   4.103  0.0284  0.4000  1.1535
 5908TIP3    H217689   4.222   2.761   4.226 -0.1537  2.0418  0.6692
 5909TIP3   OH217690   6.304   5.244   0.712 -0.1459  0.1822  0.5019
 5909TIP3    H117691   6.376   5.234   0.774  1.1968  1.4862 -0.7596
 5909TIP3    H217692   6.281   5.337   0.715  1.5710  0.8507 -2.5239
 5910TIP3   OH217693   0.464   2.364   4.824 -0.3150 -0.2430 -0.4097
 5910TIP3    H117694   0.432   2.321   4.904 -0.6358  2.8129  1.2542
 5910TIP3    H217695   0.558   2.346   4.825 -0.2327  0.1022  0.9639
 5911TIP3   OH217696   2.571   1.158   3.983 -0.1379 -0.1179 -0.0400
 5911TIP3    H117697   2.606   1.236   3.941 -0.4107  0.8518  1.4670
 5911TIP3    H217698   2.644   1.096   3.984  0.8666  1.0427  1.0104
 5912TIP3   OH217699   6.388   6.478   4.954 -0.2892  0.5378  0.0112
 5912TIP3    H117700   6.401   6.524   4.872  1.5100 -1.2470 -0.7871
 5912TIP3    H217701   6.400   6.545   5.022  0.6076  1.5715 -1.1259
 5913TIP3   OH217702   5.870   1.564   3.708 -0.2901  0.7267  0.3274
 5913TIP3    H117703   5.876   1.544   3.614 -1.6846  0.3035  0.3124
 5913TIP3    H217704   5.796   1.624   3.715  2.0501  3.8094  0.7336
 5914TIP3   OH217705   2.238   1.791   3.851 -0.8964 -0.1739  0.1070
 5914TIP3    H117706   2.181   1.731   3.899 -0.5091 -0.0800  0.6960
 5914TIP3    H217707   2.318   1.796   3.903 -0.2619 -0.4585 -0.8238
 5915TIP3   OH217708   6.224   6.273   4.090  0.4118 -0.5366 -0.0840
 5915TIP3    H117709   6.197   6.213   4.159 -1.5108 -0.3497 -0.6191
 5915TIP3    H217710   6.212   6.223   4.009 -3.5354  1.1166 -0.7753
 5916TIP3   OH217711   0.987   2.270   5.641 -0.1633  0.1582 -0.2530
 5916TIP3    H117712   1.065   2.318   5.671  1.4008 -2.2776 -0.2110
 5916TIP3    H217713   0.994   2.184   5.681 -2.3511 -0.5116 -1.1426
 5917TIP3   OH217714   0.345   4.278   1.674 -0.5445 -0.3558 -0.3873
 5917TIP3    H117715   0.424   4.224   1.683  0.8218  1.5760 -0.1714
 5917TIP3    H217716   0.312   4.288   1.763  0.2042  0.5531 -0.1989
 5918TIP3   OH217717   4.272   4.573   0.105  0.5407  0.2076 -0.3071
 5918TIP3    H117718   4.229   4.633   0.044  0.1516 -1.0852 -1.3577
 5918TIP3    H217719   4.295   4.497   0.052 -1.9168 -2.0309  1.5578
 5919TIP3   OH217720   3.795   6.249   4.192 -0.0274  0.5251  0.2690
 5919TIP3    H117721   3.815   6.196   4.269  0.1040 -0.9739 -0.7399
 5919TIP3    H217722   3.878   6.251   4.143 -0.2983  0.8493 -0.1856
 5920TIP3   OH217723   0.597   3.981   4.543 -0.1321 -0.0365 -0.0566
 5920TIP3    H117724   0.560   3.925   4.475  0.5150 -0.7585  0.1770
 5920TIP3    H217725   0.642   3.921   4.602 -1.0250  0.5145  1.2500
 5921TIP3   OH217726   3.795   6.401   1.880 -0.4533 -0.2918 -0.4591
 5921TIP3    H117727   3.731   6.372   1.945  0.3762 -0.6999  0.2034
 5921TIP3    H217728   3.745   6.410   1.799 -1.6101  0.6839  0.3351
 5922TIP3   OH217729   1.010   3.041   2.617  0.0035  0.4862 -0.2767
 5922TIP3    H117730   1.018   3.009   2.707 -0.0231  0.3312 -0.3294
 5922TIP3    H217731   0.967   2.969   2.570 -3.0000  1.7624  0.2782
 5923TIP3   OH217732   4.665   5.357   3.975  0.1675  0.3240 -0.3013
 5923TIP3    H117733   4.633   5.348   4.065 -1.4076  1.8400 -0.6436
 5923TIP3    H217734   4.760   5.366   3.983 -0.0629  1.7643  1.3479
 5924TIP3   OH217735   5.631   6.538   4.340  0.0750 -0.6016  0.0968
 5924TIP3    H117736   5.682   6.578   4.270 -0.9664 -1.0476 -0.9577
 5924TIP3    H217737   5.691   6.476   4.382  0.9632  0.2806  0.1570
 5925TIP3   OH217738   1.933   3.631   4.682 -0.3407  0.1524 -0.1253
 5925TIP3    H117739   1.975   3.664   4.603 -0.9628  0.5990 -0.2784
 5925TIP3    H217740   1.851   3.592   4.650 -0.4551  0.0730  0.2645
 5926TIP3   OH217741   5.481   3.807   4.159  0.3907 -0.1256 -0.0913
 5926TIP3    H117742   5.406   3.760   4.196  1.0883 -0.4530  0.9655
 5926TIP3    H217743   5.554   3.783   4.216  1.4047 -0.1965 -1.4004
 5927TIP3   OH217744   2.142   0.978   3.074 -0.7425 -0.5642 -0.1284
 5927TIP3    H117745   2.109   0.955   2.988  0.4141  1.4161 -1.1649
 5927TIP3    H217746   2.183   1.064   3.063  0.3522 -0.6955  2.1598
 5928TIP3   OH217747   3.553   2.948   0.749 -0.4285  0.0380  0.6081
 5928TIP3    H117748   3.497   3.023   0.726  2.0039  1.3744 -1.3402
 5928TIP3    H217749   3.625   2.987   0.799 -0.3817 -1.4056  1.7094
 5929TIP3   OH217750   0.005   0.572   1.080 -0.4171  0.0521 -0.1552
 5929TIP3    H117751  -0.024   0.556   1.170 -0.8873  1.4462 -0.0394
 5929TIP3    H217752   0.074   0.638   1.090 -0.0168 -0.2690 -0.7748
 5930TIP3   OH217753   6.111   3.267   5.502  0.2543  0.4796 -0.0126
 5930TIP3    H117754   6.170   3.302   5.434  0.9132  0.7799  0.6952
 5930TIP3    H217755   6.028   3.254   5.457  1.1465 -1.0184 -1.3203
 5931TIP3   OH217756   0.167   4.105   0.991  0.6883 -0.2582 -0.2361
 5931TIP3    H117757   0.081   4.069   0.972 -0.0247  1.4855 -0.4889
 5931TIP3    H217758   0.196   4.143   0.908  0.1122  2.2703  0.6377
 5932TIP3   OH217759   0.837   3.539   1.187  0.0830  0.2969 -0.4402
 5932TIP3    H117760   0.797   3.453   1.174 -3.1143  1.5602  0.0302
 5932TIP3    H217761   0.822   3.557   1.280  2.7038  0.5111 -0.0019
 5933TIP3   OH217762   3.054   3.257   0.793  0.2910  0.0066 -0.6851
 5933TIP3    H117763   3.089   3.345   0.800  0.6921 -0.0201 -1.9735
 5933TIP3    H217764   2.959   3.269   0.796  0.3609  0.2614  1.0561
 5934TIP3   OH217765   6.769   4.435   3.264  0.0235  0.2421 -0.1365
 5934TIP3    H117766   6.822   4.393   3.332 -1.3326 -1.8465 -0.2895
 5934TIP3    H217767   6.780   4.529   3.280  2.5548 -0.1165  0.7214
 5935TIP3   OH217768   2.781   0.479   5.578 -0.1464  0.0487 -0.0117
 5935TIP3    H117769   2.801   0.571   5.594  0.4733 -0.0488 -0.2008
 5935TIP3    H217770   2.685   0.474   5.584 -0.3342  1.0175 -1.6006
 5936TIP3   OH217771   4.829   2.913   3.315  0.2562 -0.0090  0.3564
 5936TIP3    H117772   4.820   2.993   3.263  0.5979 -0.1748  0.0415
 5936TIP3    H217773   4.894   2.935   3.381 -0.7265  0.4469  1.1988
 5937TIP3   OH217774   6.446   2.403   3.450 -0.4372 -0.2194  0.5363
 5937TIP3    H117775   6.410   2.325   3.409 -0.3113 -0.2832  0.5451
 5937TIP3    H217776   6.371   2.448   3.488 -0.3648 -0.9829  1.6148
 5938TIP3   OH217777   0.384   5.592   2.704 -0.1008 -0.7206 -0.1462
 5938TIP3    H117778   0.426   5.674   2.730 -0.0798 -0.6590 -0.3721
 5938TIP3    H217779   0.440   5.558   2.634 -1.4437  0.3009 -1.7682
 5939TIP3   OH217780   5.162   0.528   3.273 -0.5753  0.1657 -0.2327
 5939TIP3    H117781   5.186   0.451   3.325 -0.0033  1.4186  1.4319
 5939TIP3    H217782   5.245   0.574   3.259 -1.0419  0.9622 -0.4235
 5940TIP3   OH217783   5.102   2.817   0.054 -0.2491 -0.6318  0.1830
 5940TIP3    H117784   5.098   2.847   0.145 -0.6986 -1.1212  0.3268
 5940TIP3    H217785   5.129   2.894   0.005 -0.3508 -0.2710  0.6845
 5941TIP3   OH217786   6.165   2.239   0.912  0.3332 -0.6522  0.1898
 5941TIP3    H117787   6.230   2.245   0.842 -0.2373 -0.8903 -0.3669
 5941TIP3    H217788   6.085   2.209   0.868 -0.3697  0.3813  0.7304
 5942TIP3   OH217789   6.858   2.925   2.974  0.3179  0.1853 -0.2513
 5942TIP3    H117790   6.951   2.946   2.959  1.0927 -2.2591  0.6774
 5942TIP3    H217791   6.846   2.938   3.069  0.3321 -1.5879  0.0175
 5943TIP3   OH217792   1.212   6.310   1.529  0.2420  0.4289 -0.0489
 5943TIP3    H117793   1.308   6.311   1.536  0.2591  0.0096 -0.1746
 5943TIP3    H217794   1.189   6.217   1.531 -0.0848  0.4758 -0.9425
 5944TIP3   OH217795   3.860   5.674   4.710  0.1348 -0.3687 -0.7068
 5944TIP3    H117796   3.840   5.665   4.803 -0.4338 -0.2020 -0.8100
 5944TIP3    H217797   3.884   5.586   4.682  1.0333 -0.2811 -0.2404
 5945TIP3   OH217798   2.280   1.806   3.021 -0.2893  0.2468 -0.2615
 5945TIP3    H117799   2.340   1.872   3.055  0.3405 -0.0415 -0.7931
 5945TIP3    H217800   2.252   1.840   2.936 -0.9217  0.4017  0.0021
 5946TIP3   OH217801   4.903   5.453   4.558  0.4526 -0.0124  0.3441
 5946TIP3    H117802   4.872   5.527   4.611  2.4668  0.5023  0.9082
 5946TIP3    H217803   4.955   5.494   4.489  4.3589 -0.8405  2.4850
 5947TIP3   OH217804   0.242   0.845   0.466  0.3401 -0.2371 -0.0485
 5947TIP3    H117805   0.285   0.898   0.533  0.4589  0.5432 -0.7254
 5947TIP3    H217806   0.278   0.877   0.383 -1.0306 -0.0078 -0.5937
 5948TIP3   OH217807   2.717   6.269   3.120 -0.0941 -0.1565  0.1085
 5948TIP3    H117808   2.779   6.275   3.192 -0.4913 -0.4938  0.4870
 5948TIP3    H217809   2.725   6.353   3.074 -0.7776  0.6031  1.3270
 5949TIP3   OH217810   6.841   1.641   0.938  0.1769  0.8534 -0.0767
 5949TIP3    H117811   6.816   1.661   1.028  0.1853  2.3794 -0.3857
 5949TIP3    H217812   6.883   1.722   0.906  2.0536 -0.3268 -0.7931
 5950TIP3   OH217813   5.224   0.929   2.286 -0.0867 -0.3324 -0.4675
 5950TIP3    H117814   5.144   0.979   2.300 -0.1712 -0.4429 -0.5523
 5950TIP3    H217815   5.207   0.876   2.208 -1.0816 -2.5926  1.1488
 5951TIP3   OH217816   3.338   3.099   1.979  0.1318 -0.2382 -0.8335
 5951TIP3    H117817   3.432   3.090   1.995  0.8229  3.2318 -2.0551
 5951TIP3    H217818   3.332   3.130   1.889 -1.9348  2.1482  0.0153
 5952TIP3   OH217819   1.032   5.209   3.062 -0.2270  0.1403  0.1180
 5952TIP3    H117820   1.119   5.186   3.029 -0.0101  0.2979  0.5586
 5952TIP3    H217821   1.000   5.276   3.002 -0.2329 -0.2376 -0.3023
 5953TIP3   OH217822   0.053   1.783   0.777  0.1924 -0.4830 -0.9356
 5953TIP3    H117823   0.010   1.864   0.804 -0.7818 -1.3738  0.2399
 5953TIP3    H217824   0.132   1.813   0.731 -0.1244  1.1242 -0.4941
 5954TIP3   OH217825   5.087   3.264   5.379  0.0787  0.2913 -1.2027
 5954TIP3    H117826   5.020   3.333   5.384  0.1508  0.3257 -0.6558
 5954TIP3    H217827   5.046   3.188   5.419  1.0934  0.9043  1.1639
 5955TIP3   OH217828   4.818   3.743   5.824 -0.3019  0.5878  0.2597
 5955TIP3    H117829   4.850   3.769   5.738  0.6589 -1.2700  0.0029
 5955TIP3    H217830   4.894   3.750   5.881 -0.1017 -1.1301  0.2608
 5956TIP3   OH217831   1.721   6.735   3.734  0.3142  0.1093 -0.6673
 5956TIP3    H117832   1.635   6.726   3.693  0.5359 -0.0763 -1.0931
 5956TIP3    H217833   1.702   6.756   3.825 -0.2522 -2.8068 -0.0199
 5957TIP3   OH217834   5.957   4.966   3.495 -0.1147 -0.0160  0.4410
 5957TIP3    H117835   6.046   4.970   3.460  0.3657 -0.4805  1.5491
 5957TIP3    H217836   5.934   5.057   3.515 -0.6918  0.3580 -1.6970
 5958TIP3   OH217837   0.484   1.491   3.597 -0.0779  0.1232 -0.3817
 5958TIP3    H117838   0.436   1.448   3.668 -0.1280  0.0494 -0.4600
 5958TIP3    H217839   0.495   1.581   3.627  2.4248 -0.5795  1.0108
 5959TIP3   OH217840   6.066   0.396   3.378 -0.1960 -0.4510 -0.5482
 5959TIP3    H117841   6.144   0.452   3.381  0.4362 -1.3299 -0.4539
 5959TIP3    H217842   5.996   0.456   3.351  0.5528  0.2908 -0.9167
 5960TIP3   OH217843   3.695   6.628   3.428  0.2588 -0.0882 -0.1315
 5960TIP3    H117844   3.663   6.717   3.420 -2.0838 -0.6891  1.4124
 5960TIP3    H217845   3.687   6.608   3.522  1.8963 -1.5236 -0.2495
 5961TIP3   OH217846   6.494   1.000   2.222  0.4145  0.1013  0.4795
 5961TIP3    H117847   6.575   0.978   2.268 -0.0101  0.9078  1.6627
 5961TIP3    H217848   6.448   1.058   2.282 -0.4552  0.6943 -0.7333
 5962TIP3   OH217849   5.759   0.728   0.569 -0.2778 -0.0897 -0.5080
 5962TIP3    H117850   5.681   0.781   0.554 -1.2177 -1.7014 -1.6435
 5962TIP3    H217851   5.798   0.718   0.482  0.0835 -0.9307 -0.2551
 5963TIP3   OH217852   5.265   0.925   4.954 -0.5201 -0.4524  0.8369
 5963TIP3    H117853   5.280   0.916   5.048 -1.3117 -0.1593  0.9953
 5963TIP3    H217854   5.295   1.013   4.932  2.0655 -1.3721  0.3126
 5964TIP3   OH217855   7.140   1.250   3.055 -0.4518  0.0292 -0.2643
 5964TIP3    H117856   7.088   1.289   3.125  0.3280  0.0578  0.3170
 5964TIP3    H217857   7.211   1.312   3.040  0.2180 -0.6695 -0.0481
 5965TIP3   OH217858   7.094   1.584   2.878  0.1408  0.1215 -0.1197
 5965TIP3    H117859   7.172   1.581   2.933  0.3178 -0.2039 -0.3877
 5965TIP3    H217860   7.090   1.675   2.848  0.8720 -0.0483 -0.7523
 5966TIP3   OH217861   2.187   4.690   4.803  0.1620  0.0778  0.5020
 5966TIP3    H117862   2.149   4.720   4.720  0.9483  1.3853  0.5851
 5966TIP3    H217863   2.279   4.671   4.782 -0.0108 -1.1373  0.7413
 5967TIP3   OH217864   2.720   5.259   5.551  0.2019 -0.5861 -0.1039
 5967TIP3    H117865   2.777   5.329   5.519  1.1781 -1.2991  0.0212
 5967TIP3    H217866   2.632   5.286   5.525  0.1673  2.0566  2.3429
 5968TIP3   OH217867   6.046   6.046   2.627 -0.9773 -0.1231 -0.4358
 5968TIP3    H117868   6.027   6.069   2.718 -1.9369 -2.1153 -0.0769
 5968TIP3    H217869   6.141   6.035   2.624 -0.8129  1.0469  0.0236
 5969TIP3   OH217870   4.368   2.421   2.052  0.0053 -0.4437 -0.6371
 5969TIP3    H117871   4.364   2.457   1.963 -3.0619 -0.2794 -0.5429
 5969TIP3    H217872   4.314   2.342   2.048  0.1672 -0.6657  0.9916
 5970TIP3   OH217873   6.381   0.439   5.433  0.0817  0.1593 -0.5810
 5970TIP3    H117874   6.357   0.524   5.470 -1.3324 -0.6716  0.5344
 5970TIP3    H217875   6.387   0.454   5.339  0.2225  1.5516 -0.3747
 5971TIP3   OH217876   6.464   3.892   1.464  0.3104  0.4454 -0.2518
 5971TIP3    H117877   6.420   3.839   1.397  0.0917  0.2491  0.0476
 5971TIP3    H217878   6.416   3.974   1.466 -0.4699 -0.0196  0.5517
 5972TIP3   OH217879   1.885   1.497   0.112 -0.1897 -0.1277  0.3093
 5972TIP3    H117880   1.871   1.550   0.034  1.5865  3.1254  2.0053
 5972TIP3    H217881   1.958   1.440   0.089 -1.4492 -1.2375 -1.2039
 5973TIP3   OH217882   6.457   2.874   0.598  0.2963  0.1477 -0.4782
 5973TIP3    H117883   6.498   2.891   0.513  0.5968  0.5993 -0.2462
 5973TIP3    H217884   6.463   2.957   0.644 -3.0579  1.0083 -1.3130
 5974TIP3   OH217885   2.622   2.795   4.831  0.6140 -0.5244  0.1874
 5974TIP3    H117886   2.592   2.709   4.802  1.2697 -0.5091 -0.5650
 5974TIP3    H217887   2.710   2.804   4.793  0.7394  0.2828  0.6432
 5975TIP3   OH217888   4.029   2.004   1.212  0.0313 -0.2722 -0.1275
 5975TIP3    H117889   4.011   1.979   1.302  1.1621  0.2584  0.2582
 5975TIP3    H217890   4.123   2.023   1.210 -0.0389  0.0390 -1.3339
 5976TIP3   OH217891   6.556   4.352   3.480  0.3034 -0.0774 -0.1723
 5976TIP3    H117892   6.613   4.317   3.548  0.6876  0.3341 -0.2708
 5976TIP3    H217893   6.527   4.276   3.430  0.6284 -0.3104 -0.0077
 5977TIP3   OH217894   1.377   4.937   2.045  0.2895 -0.0094  0.8194
 5977TIP3    H117895   1.287   4.906   2.033  0.0266  0.8871  0.4111
 5977TIP3    H217896   1.410   4.951   1.956  0.7136  0.0115  0.9759
 5978TIP3   OH217897   3.299   2.930   5.367 -0.2128 -0.2059 -0.6483
 5978TIP3    H117898   3.252   2.931   5.284 -0.9405  0.7233 -0.2422
 5978TIP3    H217899   3.347   3.014   5.368  0.8268 -0.7826 -0.6970
 5979TIP3   OH217900   1.548   0.364   1.464 -0.0327 -0.0704  0.4437
 5979TIP3    H117901   1.577   0.415   1.540 -0.6347  0.3002  0.4338
 5979TIP3    H217902   1.454   0.384   1.457 -0.3293 -1.3537  0.5743
 5980TIP3   OH217903   6.592   0.605   0.155 -0.6990 -0.0542 -0.3158
 5980TIP3    H117904   6.634   0.687   0.180 -0.6807 -0.5901  1.6041
 5980TIP3    H217905   6.653   0.565   0.092  0.0733  0.6759 -0.0562
 5981TIP3   OH217906   3.526   6.287   1.008  0.3379 -0.0814  0.3555
 5981TIP3    H117907   3.478   6.268   0.927 -0.3667 -2.2668  1.2008
 5981TIP3    H217908   3.602   6.338   0.980 -0.4532  0.1488 -1.5169
 5982TIP3   OH217909   5.385   0.628   1.079 -0.3666 -0.0039  0.4429
 5982TIP3    H117910   5.458   0.572   1.106 -0.0362  1.3704  2.7095
 5982TIP3    H217911   5.407   0.714   1.116 -1.4559  1.3253 -1.8207
 5983TIP3   OH217912   2.591   4.811   3.242 -0.7986 -0.5884  0.1060
 5983TIP3    H117913   2.610   4.898   3.206  0.7600 -0.8461  0.2128
 5983TIP3    H217914   2.496   4.802   3.234 -0.7058 -0.0854 -2.6330
 5984TIP3   OH217915   0.358   3.726   0.630 -0.6559  0.4526  0.5210
 5984TIP3    H117916   0.365   3.757   0.539 -0.3067  0.7236  0.6380
 5984TIP3    H217917   0.327   3.636   0.622 -0.4771  0.4232  0.1243
 5985TIP3   OH217918   6.762   4.854   4.745 -0.4822  0.0640  0.4576
 5985TIP3    H117919   6.761   4.826   4.654 -0.8911 -2.1300  1.0616
 5985TIP3    H217920   6.672   4.878   4.765 -0.2976  1.0190  0.1647
 5986TIP3   OH217921   6.718   0.726   5.000 -0.3356 -0.3331 -0.0196
 5986TIP3    H117922   6.813   0.739   5.005 -0.5039  2.3859 -1.6276
 5986TIP3    H217923   6.689   0.731   5.091  0.9417  0.1871  0.3867
 5987TIP3   OH217924   1.837   3.210   4.902  0.1824 -0.5743 -0.0688
 5987TIP3    H117925   1.813   3.145   4.836  1.4930 -1.0552 -0.1037
 5987TIP3    H217926   1.778   3.283   4.886  1.2540 -0.1691 -2.5737
 5988TIP3   OH217927   4.013   2.783   2.340  0.2857 -0.2757  0.2641
 5988TIP3    H117928   4.094   2.740   2.313  0.0097 -1.5129  1.3224
 5988TIP3    H217929   3.962   2.792   2.260  0.3222 -2.0184  0.0056
 5989TIP3   OH217930   3.268   3.007   3.931 -0.5451 -0.4138  0.2544
 5989TIP3    H117931   3.234   3.082   3.980 -0.5049 -0.7934  0.8731
 5989TIP3    H217932   3.244   3.025   3.840  0.9594  1.1996  0.1135
 5990TIP3   OH217933   3.339   0.107   4.940  0.5741 -0.0541  0.0561
 5990TIP3    H117934   3.310   0.179   4.996  2.0878 -0.2640  1.1893
 5990TIP3    H217935   3.411   0.144   4.889  0.9121 -0.5651  0.1528
 5991TIP3   OH217936   4.520   2.150   2.104 -0.4905  0.1804 -0.0352
 5991TIP3    H117937   4.572   2.163   2.183  2.6850  1.4757 -2.1222
 5991TIP3    H217938   4.513   2.237   2.066  0.8066 -0.7674 -2.6763
 5992TIP3   OH217939   5.655   6.151   0.069  0.2526  0.6127 -0.6654
 5992TIP3    H117940   5.614   6.108  -0.006 -0.7853  1.6529 -0.7272
 5992TIP3    H217941   5.629   6.099   0.144 -0.1955  0.5797 -0.8405
 5993TIP3   OH217942   6.308   0.619   3.780  0.3138 -0.9908 -0.2145
 5993TIP3    H117943   6.374   0.579   3.724  0.5986 -2.0650  0.8249
 5993TIP3    H217944   6.355   0.687   3.828  0.4678 -1.1673 -0.1125
 5994TIP3   OH217945   3.655   2.084   1.106 -0.8364 -0.5756  0.3882
 5994TIP3    H117946   3.680   2.074   1.199 -0.7048 -0.9734  0.3126
 5994TIP3    H217947   3.739   2.087   1.060 -0.7541  2.4965  0.5233
 5995TIP3   OH217948   5.717   4.469   0.147  0.1535  0.4246  0.6388
 5995TIP3    H117949   5.752   4.388   0.183  0.6324  0.7278  0.8634
 5995TIP3    H217950   5.760   4.539   0.197  0.2290  0.8331  0.0303
 5996TIP3   OH217951   7.117   1.224   0.420 -0.0785 -0.1621 -0.2082
 5996TIP3    H117952   7.127   1.230   0.515 -0.9417  0.1302 -0.1200
 5996TIP3    H217953   7.070   1.304   0.397  0.3201 -0.1257 -0.9138
 5997TIP3   OH217954   3.828   4.524   5.706 -0.0513  0.4268 -0.5087
 5997TIP3    H117955   3.799   4.602   5.660  0.7662  0.5026 -0.9102
 5997TIP3    H217956   3.895   4.555   5.767  0.5445 -0.0134 -0.9373
 5998TIP3   OH217957   5.786   5.037   4.338  0.4803  0.1640  0.3371
 5998TIP3    H117958   5.691   5.043   4.345  0.4627  0.8707 -0.3478
 5998TIP3    H217959   5.807   5.075   4.253  1.2997 -0.9471  0.0211
 5999TIP3   OH217960   2.518   5.889   0.729 -0.1330  0.3353 -0.0918
 5999TIP3    H117961   2.452   5.902   0.798  0.4213  1.5870  0.2346
 5999TIP3    H217962   2.561   5.974   0.721  2.5301 -0.8001  0.8280
 6000TIP3   OH217963   4.777   6.012   2.690 -0.1375 -0.3812  0.6410
 6000TIP3    H117964   4.758   5.935   2.637  2.3406 -0.6767  0.0683
 6000TIP3    H217965   4.777   6.085   2.627  0.9818 -0.4581  0.5374
 6001TIP3   OH217966   5.918   2.117   1.489 -0.4131  0.3662  0.4557
 6001TIP3    H117967   6.000   2.080   1.457  0.0084 -0.2902  2.1993
 6001TIP3    H217968   5.938   2.209   1.506  0.2548 -0.0147  1.8013
 6002TIP3   OH217969   5.024   3.517   2.545 -0.0020  0.3706 -0.6243
 6002TIP3    H117970   4.969   3.439   2.544 -1.0087  1.0506 -0.9785
 6002TIP3    H217971   5.075   3.510   2.625 -0.5728 -0.3210 -0.3048
 6003TIP3   OH217972   3.811   6.498   2.535  0.3449 -0.2812 -0.0849
 6003TIP3    H117973   3.750   6.526   2.603  0.1556 -0.0802 -0.3333
 6003TIP3    H217974   3.799   6.562   2.465 -0.0762 -0.9785 -0.6564
 6004TIP3   OH217975   4.672   4.068   5.571  0.4223  0.2940  0.6803
 6004TIP3    H117976   4.728   4.033   5.501  1.5847  0.7674  1.3332
 6004TIP3    H217977   4.681   4.163   5.562 -2.0535  0.4965 -0.5747
 6005TIP3   OH217978   5.237   4.736   4.949  0.1433 -0.4979  0.0955
 6005TIP3    H117979   5.311   4.764   4.895 -1.6113 -0.2046 -2.3349
 6005TIP3    H217980   5.272   4.666   5.004  1.7512 -1.9458 -2.5485
 6006TIP3   OH217981   7.181   1.538   0.697  0.1424 -0.2777 -0.3833
 6006TIP3    H117982   7.220   1.620   0.728  3.2190 -1.2727 -1.2336
 6006TIP3    H217983   7.122   1.564   0.627  0.3286  1.2780 -0.0083
 6007TIP3   OH217984   4.423   5.081   3.908  0.8499  0.5872 -0.4847
 6007TIP3    H117985   4.332   5.056   3.890  0.6885  0.5128  0.4137
 6007TIP3    H217986   4.426   5.175   3.894  1.1577  0.3166 -2.6322
 6008TIP3   OH217987   4.424   4.431   5.217  0.4297  0.3676  0.0785
 6008TIP3    H117988   4.449   4.491   5.288  1.9133 -0.0391 -0.0580
 6008TIP3    H217989   4.338   4.460   5.190  0.4689  1.4676  1.0597
 6009TIP3   OH217990   5.896   1.363   0.418 -0.1995  0.3234  0.7117
 6009TIP3    H117991   5.809   1.328   0.395  0.5588 -1.7711  0.7951
 6009TIP3    H217992   5.920   1.417   0.343 -0.6572 -0.9010 -0.3677
 6010TIP3   OH217993   1.732   1.176   2.309  0.2393 -0.2867 -0.1313
 6010TIP3    H117994   1.734   1.124   2.229  1.5282  1.0599 -1.0357
 6010TIP3    H217995   1.640   1.195   2.323 -0.1254 -1.6028 -0.5580
 6011TIP3   OH217996   6.990   1.513   3.475 -0.2726  0.0145 -0.2636
 6011TIP3    H117997   6.903   1.520   3.515 -0.1145 -1.9891  0.5274
 6011TIP3    H217998   6.972   1.501   3.382 -0.7521  1.4527 -0.3830
 6012TIP3   OH217999   5.161   6.275   1.034  0.4601 -0.0115 -0.1438
 6012TIP3    H118000   5.228   6.297   1.098 -1.1738  1.5259  1.1703
 6012TIP3    H218001   5.094   6.343   1.045 -0.6268 -0.6005 -2.4153
 6013TIP3   OH218002   1.932   0.139   5.298  0.4909  0.4512  0.6085
 6013TIP3    H118003   1.997   0.180   5.240  0.4686 -1.7955 -1.1692
 6013TIP3    H218004   1.957   0.046   5.299 -2.7699 -0.5816 -0.3966
 6014TIP3   OH218005   3.537   5.601   4.107  0.0789 -0.3357  0.1840
 6014TIP3    H118006   3.559   5.560   4.023 -0.2502  1.4033 -0.7964
 6014TIP3    H218007   3.441   5.602   4.109  0.0860  0.0892  0.3522
 6015TIP3   OH218008   1.338   0.786   1.841  0.8825 -0.0677  0.1855
 6015TIP3    H118009   1.411   0.820   1.892 -0.0709  0.4997  1.2398
 6015TIP3    H218010   1.265   0.782   1.904 -0.1153 -0.1383 -0.9307
 6016TIP3   OH218011   4.884   4.044   4.284  0.3833  0.0724  0.1552
 6016TIP3    H118012   4.889   3.953   4.314  0.6322 -0.2408 -0.7820
 6016TIP3    H218013   4.797   4.052   4.244  0.8997 -0.2098 -1.0938
 6017TIP3   OH218014   1.383   4.173   4.540 -0.6931  0.0737 -0.2909
 6017TIP3    H118015   1.373   4.228   4.462 -0.4292 -0.7055 -0.8877
 6017TIP3    H218016   1.301   4.125   4.546 -1.5188  1.5689  1.0806
 6018TIP3   OH218017   4.346   4.884   3.186  0.5922  0.1053  0.3400
 6018TIP3    H118018   4.342   4.829   3.264  0.4993 -0.0253  0.2431
 6018TIP3    H218019   4.407   4.840   3.127  1.3924  0.6884  0.7104
 6019TIP3   OH218020   4.641   6.025   0.103 -0.2412  0.6402 -0.3093
 6019TIP3    H118021   4.673   6.109   0.072 -0.1934  0.7407  0.0141
 6019TIP3    H218022   4.672   6.019   0.194 -2.1726  1.2957  0.4424
 6020TIP3   OH218023   4.850   6.226   4.914  0.0763 -0.1383 -0.7836
 6020TIP3    H118024   4.781   6.172   4.877 -0.1485 -0.5266  0.1775
 6020TIP3    H218025   4.871   6.185   4.998  0.0558  1.1313 -0.1285
 6021TIP3   OH218026   0.101   1.038   3.442 -0.3483  0.5804  0.1332
 6021TIP3    H118027   0.088   1.116   3.389  1.9042  0.3482 -0.8486
 6021TIP3    H218028   0.055   0.969   3.394  0.6270  0.6202 -0.8877
 6022TIP3   OH218029   7.011   4.901   0.624 -0.5738  0.2170 -0.0206
 6022TIP3    H118030   6.923   4.888   0.658 -0.6782  1.5419  0.2719
 6022TIP3    H218031   7.065   4.913   0.702 -0.4317  1.0931 -0.2494
 6023TIP3   OH218032   0.217   2.776   5.852 -0.0203  0.2675  0.0160
 6023TIP3    H118033   0.296   2.801   5.899 -0.4800  0.5737  0.6503
 6023TIP3    H218034   0.246   2.759   5.763  0.7711  0.2900  0.2611
 6024TIP3   OH218035   0.051   0.314   4.512  0.3837  0.1890 -0.1707
 6024TIP3    H118036  -0.033   0.294   4.552 -0.1871  0.0099 -1.4209
 6024TIP3    H218037   0.049   0.408   4.495 -0.7196 -0.2100 -2.6613
 6025TIP3   OH218038   2.479   6.526   3.209 -0.1748 -0.0206  0.4783
 6025TIP3    H118039   2.545   6.571   3.155  0.9715 -1.7580  0.3437
 6025TIP3    H218040   2.525   6.506   3.291 -0.4527 -1.4544  0.3014
 6026TIP3   OH218041   5.363   1.658   3.450 -0.3299  0.2328  0.3678
 6026TIP3    H118042   5.273   1.671   3.417 -0.5625 -0.5649  0.6511
 6026TIP3    H218043   5.364   1.567   3.478  1.7580 -1.1275 -3.4213
 6027TIP3   OH218044   6.442   1.969   5.027  0.0509  0.2791 -0.3272
 6027TIP3    H118045   6.524   1.931   4.996 -0.7390 -0.5898 -1.4068
 6027TIP3    H218046   6.373   1.915   4.988 -1.0898  2.1218 -1.0004
 6028TIP3   OH218047   4.699   2.211   2.307 -0.0785 -0.1921  0.3185
 6028TIP3    H118048   4.777   2.170   2.343 -0.5727 -0.2525  1.3377
 6028TIP3    H218049   4.724   2.303   2.297  0.0747 -0.1780  0.7908
 6029TIP3   OH218050   2.610   0.977   2.290 -1.1768 -1.2976  0.1906
 6029TIP3    H118051   2.606   1.029   2.370 -2.5104 -1.2841  0.1406
 6029TIP3    H218052   2.603   0.886   2.320  1.2203 -1.5183  0.2852
 6030TIP3   OH218053   4.364   1.343   1.897 -0.2628 -0.3771  0.2008
 6030TIP3    H118054   4.288   1.335   1.841 -0.0296  1.1142 -0.3812
 6030TIP3    H218055   4.438   1.316   1.842 -0.2089 -0.3813  0.2742
 6031TIP3   OH218056   5.526   4.854   3.505  0.1978 -0.1624 -0.4547
 6031TIP3    H118057   5.453   4.906   3.471 -0.3541  0.8805  2.0569
 6031TIP3    H218058   5.580   4.918   3.552  2.8980 -0.8714 -2.3336
 6032TIP3   OH218059   1.459   2.003   3.449 -0.5919  0.1556 -0.6769
 6032TIP3    H118060   1.369   2.023   3.475  0.2594 -0.1455  2.9452
 6032TIP3    H218061   1.512   2.072   3.488  0.8880 -0.4037 -1.6029
 6033TIP3   OH218062   2.826   0.232   4.629 -0.3062  0.4315 -0.3488
 6033TIP3    H118063   2.883   0.156   4.616 -1.5142 -0.2264 -2.2743
 6033TIP3    H218064   2.837   0.284   4.550  2.9401  4.1514  2.1468
 6034TIP3   OH218065   5.658   3.548   2.246  0.3832  0.2586 -0.3298
 6034TIP3    H118066   5.745   3.573   2.278  1.3058  0.0109 -2.4803
 6034TIP3    H218067   5.675   3.483   2.178 -1.4180  0.9003 -1.4769
 6035TIP3   OH218068   6.070   5.409   0.033  0.5045  0.4429 -0.5505
 6035TIP3    H118069   6.075   5.338  -0.031  0.8256 -2.4139  2.3438
 6035TIP3    H218070   5.978   5.411   0.058  0.7903 -0.3935  0.7155
 6036TIP3   OH218071   0.610   1.677  -0.011 -0.1137 -0.2263 -0.0095
 6036TIP3    H118072   0.555   1.606   0.022 -0.6048  0.8358  1.5308
 6036TIP3    H218073   0.699   1.641  -0.006  0.1696  0.5049  4.6804
 6037TIP3   OH218074   6.904   3.814   1.808  0.0089 -0.0639 -0.4872
 6037TIP3    H118075   6.815   3.804   1.775 -0.5968 -0.2009  1.1368
 6037TIP3    H218076   6.922   3.908   1.803 -0.0196 -0.0870 -1.2600
 6038TIP3   OH218077   0.713   1.637   2.401  0.0415 -0.5845 -0.5685
 6038TIP3    H118078   0.720   1.697   2.475 -1.4733 -2.3685  1.1106
 6038TIP3    H218079   0.621   1.613   2.398  0.6439 -3.1098 -0.9327
 6039TIP3   OH218080   1.872   4.542   5.324 -0.2126  0.0956 -0.1737
 6039TIP3    H118081   1.803   4.498   5.373 -0.5119 -0.6840 -1.2715
 6039TIP3    H218082   1.867   4.634   5.353 -0.1254 -0.4003  1.5200
 6040TIP3   OH218083   4.754   3.694   2.716 -0.5163  0.3790  0.2990
 6040TIP3    H118084   4.728   3.603   2.708 -1.1498  0.6427 -0.7985
 6040TIP3    H218085   4.812   3.696   2.792 -0.5346 -0.9207  0.3597
 6041TIP3   OH218086   6.340   5.989   5.710 -0.7258 -0.1080  0.1876
 6041TIP3    H118087   6.391   5.949   5.780  0.0593  0.9444  0.2426
 6041TIP3    H218088   6.297   6.064   5.751  0.7300  1.2674 -0.6940
 6042TIP3   OH218089   4.492   4.807   4.358 -0.2887 -0.1602  0.0920
 6042TIP3    H118090   4.539   4.888   4.335  0.1953 -0.7235 -0.9737
 6042TIP3    H218091   4.561   4.748   4.388 -0.5330 -0.4391  0.1040
 6043TIP3   OH218092   3.252   4.950   5.830  0.0882  0.6149 -0.4644
 6043TIP3    H118093   3.303   5.031   5.835 -0.4473  1.0054 -1.0892
 6043TIP3    H218094   3.209   4.955   5.745  0.1736 -0.4092 -0.5744
 6044TIP3   OH218095   7.165   3.024   3.370 -0.3138  0.1196  0.0141
 6044TIP3    H118096   7.214   2.960   3.423  1.5226  1.5436  0.1401
 6044TIP3    H218097   7.203   3.017   3.283 -0.2266  0.8901 -0.0169
 6045TIP3   OH218098   2.056   3.358   5.118  0.2590  0.3172 -0.3479
 6045TIP3    H118099   2.097   3.396   5.040  0.1385  2.1812  0.4293
 6045TIP3    H218100   2.129   3.324   5.169  0.3741 -0.5655 -1.0774
 6046TIP3   OH218101   6.946   4.160   4.416 -0.2441 -0.6276 -0.1800
 6046TIP3    H118102   6.888   4.120   4.351  2.1261 -0.5563 -2.4953
 6046TIP3    H218103   7.028   4.112   4.408  0.6655  0.5257  1.5919
 6047TIP3   OH218104   3.656   0.890   1.237  0.1804 -0.2681 -0.1396
 6047TIP3    H118105   3.654   0.820   1.303  3.4714  0.5463  1.0491
 6047TIP3    H218106   3.577   0.941   1.253  0.3520 -0.7110  2.5396
 6048TIP3   OH218107   1.404   4.071   1.013 -0.7188  0.3753  0.0144
 6048TIP3    H118108   1.361   3.989   0.990 -1.7559  0.4560  1.5039
 6048TIP3    H218109   1.495   4.058   0.987 -1.0695 -0.8473 -0.7057
 6049TIP3   OH218110   1.893   4.530   2.558 -0.1928 -0.0738  0.4195
 6049TIP3    H118111   1.871   4.438   2.572  2.0704 -0.5512  1.3551
 6049TIP3    H218112   1.924   4.561   2.643  0.2025  1.2071 -0.1682
 6050TIP3   OH218113   5.927   1.156   2.779 -0.1492 -0.6763 -0.5034
 6050TIP3    H118114   5.843   1.112   2.792 -0.3580 -0.8295 -2.1919
 6050TIP3    H218115   5.906   1.250   2.782 -0.9200 -0.6601 -3.5925
 6051TIP3   OH218116   3.032   1.078   3.087  0.1670  0.1512  0.0027
 6051TIP3    H118117   3.049   1.055   3.179 -1.3114 -1.2556 -0.0314
 6051TIP3    H218118   3.002   1.169   3.091 -0.4894 -0.0827  1.0131
 6052TIP3   OH218119   2.297   1.444   1.997  0.6454  0.1961  0.2846
 6052TIP3    H118120   2.254   1.506   2.056 -2.2151 -0.1189 -1.2995
 6052TIP3    H218121   2.363   1.496   1.951 -0.6853  1.7230  0.0425
 6053TIP3   OH218122   3.416   4.544   3.527  0.4419 -0.3740 -0.3244
 6053TIP3    H118123   3.397   4.453   3.552  0.6474 -0.1718  0.6082
 6053TIP3    H218124   3.339   4.572   3.478  0.3558 -1.0321 -0.5803
 6054TIP3   OH218125   0.278   2.014   4.953 -0.1539  0.3363 -0.6020
 6054TIP3    H118126   0.309   2.104   4.961 -0.9468  0.5811 -0.2155
 6054TIP3    H218127   0.188   2.016   4.986 -0.3252 -0.5108 -0.9841
 6055TIP3   OH218128   4.229   3.093   1.455  0.4207  0.2511  0.9358
 6055TIP3    H118129   4.201   3.157   1.521 -1.0346 -0.0849  0.6867
 6055TIP3    H218130   4.227   3.009   1.501 -1.1277 -0.0566  0.3556
 6056TIP3   OH218131   6.453   2.921   4.565  0.0543  0.5228  0.1485
 6056TIP3    H118132   6.417   2.893   4.650 -3.2869  0.2798 -1.1998
 6056TIP3    H218133   6.481   2.840   4.523  1.0412  0.5665  0.6926
 6057TIP3   OH218134   3.551   2.324   5.390  0.1167  0.1967  0.3150
 6057TIP3    H118135   3.602   2.334   5.471 -1.9969 -0.1493  1.7730
 6057TIP3    H218136   3.475   2.273   5.416 -0.6561  0.1111 -1.9260
 6058TIP3   OH218137   6.540   6.616   4.741 -0.7508  0.1640  0.0686
 6058TIP3    H118138   6.589   6.548   4.696 -2.3599 -0.7719 -0.3445
 6058TIP3    H218139   6.586   6.628   4.824  1.4219  0.9074 -1.1620
 6059TIP3   OH218140   0.308   0.255   2.942  0.1409  0.2491 -0.2998
 6059TIP3    H118141   0.299   0.217   3.029  1.1886 -0.1665 -0.3599
 6059TIP3    H218142   0.260   0.337   2.947 -1.6239 -0.7673  0.0188
 6060TIP3   OH218143   4.783   2.773   3.726 -0.2569 -0.5759  0.1318
 6060TIP3    H118144   4.814   2.699   3.675  0.4774 -0.3638  0.2574
 6060TIP3    H218145   4.858   2.798   3.780 -0.8900 -0.5375  1.0149
 6061TIP3   OH218146   6.913   0.077   4.405  0.1730 -0.5429  0.5851
 6061TIP3    H118147   6.896  -0.015   4.429  1.9444 -1.4389 -1.2559
 6061TIP3    H218148   7.008   0.081   4.393  0.1589  1.6431  0.9188
 6062TIP3   OH218149   1.514   6.369   2.749 -0.8970  0.8873 -0.3016
 6062TIP3    H118150   1.515   6.291   2.694  0.1522  1.2326 -0.7901
 6062TIP3    H218151   1.508   6.335   2.839  0.1272  0.2143 -0.4709
 6063TIP3   OH218152   7.078   2.693   4.876 -0.0023 -0.5814  0.4569
 6063TIP3    H118153   7.018   2.765   4.894 -0.5693 -0.8592 -0.3112
 6063TIP3    H218154   7.151   2.733   4.828  0.9416 -0.0593  2.2192
 6064TIP3   OH218155   1.693   0.892   1.864 -0.3398 -0.2827  0.5930
 6064TIP3    H118156   1.712   0.801   1.841  0.5833  0.1928 -0.5857
 6064TIP3    H218157   1.702   0.940   1.782 -1.9727  0.7181  0.9445
 6065TIP3   OH218158   2.565   4.590   0.317  0.5808 -0.2657 -0.1008
 6065TIP3    H118159   2.548   4.496   0.322 -0.9537  0.0317  1.0672
 6065TIP3    H218160   2.487   4.627   0.276  2.9109  0.1563 -4.9099
 6066TIP3   OH218161   2.844   4.338   1.116 -0.6808 -0.5934 -0.2780
 6066TIP3    H118162   2.930   4.315   1.082 -1.4038 -1.2025 -1.7891
 6066TIP3    H218163   2.814   4.409   1.059 -0.8633  0.1683  0.7406
 6067TIP3   OH218164   5.189   4.013   4.450 -0.0196 -0.5070  0.6685
 6067TIP3    H118165   5.153   4.100   4.435 -2.0675 -1.6527 -1.8048
 6067TIP3    H218166   5.268   4.010   4.396 -0.5248 -0.5329 -0.0669
 6068TIP3   OH218167   0.674   5.077   2.962  0.1516  0.3134  0.0084
 6068TIP3    H118168   0.731   5.116   3.028  2.7732 -0.8483 -1.3981
 6068TIP3    H218169   0.686   5.133   2.885 -0.5141 -0.0421 -0.3559
 6069TIP3   OH218170   6.423   2.142   5.542 -0.2118  0.3281  0.3047
 6069TIP3    H118171   6.444   2.064   5.489 -1.6074 -0.3696  0.7182
 6069TIP3    H218172   6.444   2.116   5.632  1.4622  1.2564  0.2117
 6070TIP3   OH218173   6.405   5.020   5.652 -0.7415  0.4904 -0.0658
 6070TIP3    H118174   6.494   4.996   5.676 -1.5179 -4.4999 -0.8902
 6070TIP3    H218175   6.409   5.112   5.628  3.7535  0.9328  1.5765
 6071TIP3   OH218176   5.025   0.418   1.794  0.0614  0.6570 -0.3849
 6071TIP3    H118177   5.111   0.458   1.807 -0.6027  2.0385 -0.0463
 6071TIP3    H218178   4.979   0.479   1.737 -1.1093  0.5779  0.4398
 6072TIP3   OH218179   5.380   6.708   2.167 -0.1111 -0.2825 -0.0173
 6072TIP3    H118180   5.449   6.728   2.230  0.5158 -2.0599 -0.0743
 6072TIP3    H218181   5.362   6.791   2.123  1.2087  0.4542  0.7649
 6073TIP3   OH218182   3.998   4.920   5.514 -0.1571 -0.3206 -0.3648
 6073TIP3    H118183   3.930   4.975   5.552 -0.1672 -0.3569 -0.3297
 6073TIP3    H218184   4.017   4.855   5.582 -0.5312 -0.6916 -0.6171
 6074TIP3   OH218185   7.059   3.141   3.691  0.1662 -0.1603 -0.4538
 6074TIP3    H118186   7.015   3.215   3.734  2.7689  1.5383 -0.5174
 6074TIP3    H218187   7.098   3.091   3.763  0.1942 -0.2628 -0.5395
 6075TIP3   OH218188   4.773   4.017   0.029  0.5768  0.1855  0.2354
 6075TIP3    H118189   4.734   4.102   0.009 -1.4634 -0.5068  1.0073
 6075TIP3    H218190   4.782   4.016   0.124 -0.5182 -0.8967  0.3470
 6076TIP3   OH218191   2.671   0.558   0.640  0.0989  0.3566  0.2973
 6076TIP3    H118192   2.696   0.650   0.653 -0.5108  0.6864 -0.7422
 6076TIP3    H218193   2.751   0.509   0.655  0.4218  1.0481  0.9379
 6077TIP3   OH218194   0.288   3.158   5.096  0.4077  0.3190  0.1344
 6077TIP3    H118195   0.286   3.253   5.108 -1.0345  0.2237  0.8577
 6077TIP3    H218196   0.336   3.145   5.014  1.7885  1.5844  0.7022
 6078TIP3   OH218197   3.919   0.796   2.953 -0.0472 -0.2078  0.2634
 6078TIP3    H118198   4.008   0.766   2.971  0.0613  0.3691  0.7483
 6078TIP3    H218199   3.863   0.723   2.979 -0.0175  0.9888  4.4565
 6079TIP3   OH218200   2.704   2.649   5.640 -0.0065 -0.2343 -0.3863
 6079TIP3    H118201   2.759   2.616   5.569  3.0480  2.8751  0.2845
 6079TIP3    H218202   2.765   2.673   5.710 -2.5145  0.6673  1.6806
 6080TIP3   OH218203   6.729   2.779   1.198 -0.5099 -0.1003 -0.0518
 6080TIP3    H118204   6.673   2.728   1.256  0.4521  0.6826  1.6354
 6080TIP3    H218205   6.786   2.714   1.156  0.0149 -0.5419  1.2971
 6081TIP3   OH218206   1.130   1.304   2.825 -0.5697 -0.5721 -0.1340
 6081TIP3    H118207   1.177   1.298   2.741 -2.0206  1.1243 -1.1336
 6081TIP3    H218208   1.057   1.242   2.816 -2.3039  1.4961 -1.3043
 6082TIP3   OH218209   6.475   1.959   2.630  0.0209 -0.3359 -0.2202
 6082TIP3    H118210   6.443   1.870   2.642  2.3308 -0.9872  2.1791
 6082TIP3    H218211   6.399   2.015   2.644 -1.0912 -1.8935  0.1137
 6083TIP3   OH218212   6.781   4.455   4.384  0.5679 -0.0385 -0.7178
 6083TIP3    H118213   6.733   4.415   4.311 -2.4307  0.1627  0.9679
 6083TIP3    H218214   6.782   4.388   4.451  1.3954  0.4919 -0.1902
 6084TIP3   OH218215   0.735   6.700   2.419  0.2778 -0.4905  0.5399
 6084TIP3    H118216   0.786   6.736   2.346 -0.6806 -1.2940 -0.5606
 6084TIP3    H218217   0.800   6.659   2.476  0.9183 -1.0939 -0.5938
 6085TIP3   OH218218   5.543   4.695   2.494 -0.1123 -0.2286  0.0867
 6085TIP3    H118219   5.461   4.726   2.532  0.0548  0.4913 -0.1084
 6085TIP3    H218220   5.531   4.705   2.399 -0.2919 -1.4068 -0.0226
 6086TIP3   OH218221   6.062   1.282   5.093  0.1756  0.5511  0.2791
 6086TIP3    H118222   6.122   1.209   5.086  1.1079  1.3948 -0.9408
 6086TIP3    H218223   6.105   1.354   5.047 -2.0488  1.0037 -1.2797
 6087TIP3   OH218224   4.374   5.743   2.076  0.4116  0.6380 -0.4505
 6087TIP3    H118225   4.359   5.705   1.990  0.0352  1.8449 -0.9374
 6087TIP3    H218226   4.314   5.817   2.081 -0.4111 -0.0746  1.3245
 6088TIP3   OH218227   1.145   2.364   5.854  0.5762  1.1692 -0.4996
 6088TIP3    H118228   1.238   2.349   5.837  1.1959  2.3400  1.5420
 6088TIP3    H218229   1.138   2.364   5.949 -1.1601  2.9779 -0.5687
 6089TIP3   OH218230   6.722   2.326   4.370 -0.3192  0.2519  0.0611
 6089TIP3    H118231   6.661   2.353   4.439 -2.9864 -0.5482 -1.8260
 6089TIP3    H218232   6.668   2.280   4.306  2.1119  0.4554 -2.3415
 6090TIP3   OH218233   5.018   5.441   4.872 -0.0139 -0.2259  0.2359
 6090TIP3    H118234   5.016   5.498   4.796  0.0015  0.0271  0.4251
 6090TIP3    H218235   4.930   5.402   4.874 -0.2954  0.4089  0.5714
 6091TIP3   OH218236   2.805   0.448   3.214 -0.4033  0.4330 -0.3104
 6091TIP3    H118237   2.828   0.519   3.155  1.3308 -0.0192 -0.2176
 6091TIP3    H218238   2.865   0.457   3.288 -2.0675  0.5679  1.0928
 6092TIP3   OH218239   4.586   3.801   0.044  0.2175  0.8160  0.1316
 6092TIP3    H118240   4.538   3.802  -0.039  0.0631  0.7069  0.2185
 6092TIP3    H218241   4.667   3.849   0.026  0.8925 -0.4994 -0.5238
 6093TIP3   OH218242   4.451   4.351   2.032 -0.4764  0.4913  0.2886
 6093TIP3    H118243   4.397   4.425   2.058 -1.7766 -0.5068  0.5564
 6093TIP3    H218244   4.395   4.299   1.974  0.1906 -0.5749  0.5667
 6094TIP3   OH218245   4.309   6.109   1.918 -0.2713 -0.0666 -0.3430
 6094TIP3    H118246   4.327   6.052   1.843  0.8756  0.2671 -0.3448
 6094TIP3    H218247   4.259   6.181   1.882  0.7102  0.3511 -0.9078
 6095TIP3   OH218248   3.868   5.542   2.616  0.2074 -0.4580  0.1445
 6095TIP3    H118249   3.841   5.634   2.617  0.0154 -0.5099  1.0980
 6095TIP3    H218250   3.802   5.497   2.669  0.6468 -1.0476  0.2093
 6096TIP3   OH218251   3.742   2.610   2.719 -0.4068 -0.0668 -0.4367
 6096TIP3    H118252   3.752   2.634   2.810 -1.1717 -1.5806  0.0922
 6096TIP3    H218253   3.819   2.645   2.675 -1.2355  2.9126  0.2610
 6097TIP3   OH218254   4.406   1.625   4.086  0.2061  0.0657 -0.7479
 6097TIP3    H118255   4.365   1.710   4.075 -0.7316 -0.6035 -2.9692
 6097TIP3    H218256   4.477   1.623   4.022  1.4939 -0.1298  0.6291
 6098TIP3   OH218257   1.838   6.502   0.585 -0.0524  0.5890  1.1887
 6098TIP3    H118258   1.817   6.436   0.519 -1.2505  0.7522  1.3807
 6098TIP3    H218259   1.769   6.568   0.577  0.2524  1.0406  2.0402
 6099TIP3   OH218260   0.351   6.323   1.773  0.4601  0.8600 -0.0008
 6099TIP3    H118261   0.345   6.350   1.864  0.6583  0.3889  0.1536
 6099TIP3    H218262   0.269   6.277   1.755  0.8193  0.1300  0.2152
 6100TIP3   OH218263   5.191   3.717   5.668  0.4604  0.1923  0.3437
 6100TIP3    H118264   5.119   3.779   5.663 -0.4994 -0.9701 -0.7561
 6100TIP3    H218265   5.234   3.722   5.583  0.1833 -0.8401  0.1271
 6101TIP3   OH218266   2.832   3.371   2.090 -0.1674 -0.0223  0.1943
 6101TIP3    H118267   2.776   3.309   2.044 -0.8834  1.7279 -1.4461
 6101TIP3    H218268   2.833   3.341   2.181 -1.3058 -1.8085 -0.3462
 6102TIP3   OH218269   4.669   3.876   0.432  0.3893  0.4048  0.1211
 6102TIP3    H118270   4.754   3.892   0.391  0.2887 -0.9708 -0.6679
 6102TIP3    H218271   4.673   3.785   0.461 -0.5527  0.5529  0.7455
 6103TIP3   OH218272   0.747   5.323   4.732  0.4250 -0.5097  0.4045
 6103TIP3    H118273   0.752   5.349   4.824  0.8709  1.0525 -0.0349
 6103TIP3    H218274   0.756   5.405   4.683 -0.4894 -1.2216 -1.0244
 6104TIP3   OH218275   2.517   4.737   3.793 -0.0493 -0.3807  0.0206
 6104TIP3    H118276   2.597   4.690   3.815  0.9743  0.5453 -1.5404
 6104TIP3    H218277   2.450   4.668   3.787  0.9325 -1.3516 -0.0737
 6105TIP3   OH218278   1.341   4.266   0.662  0.5890  0.0822 -0.0464
 6105TIP3    H118279   1.434   4.259   0.640  0.7903  0.5184  0.6469
 6105TIP3    H218280   1.332   4.355   0.697 -0.1860  0.2129 -0.5608
 6106TIP3   OH218281   2.321   4.033   5.870  0.2439 -0.3119 -0.0729
 6106TIP3    H118282   2.286   3.980   5.941 -1.5909 -2.1371 -2.1945
 6106TIP3    H218283   2.244   4.060   5.820  1.5270 -0.2071 -2.0968
 6107TIP3   OH218284   0.502   5.856   3.485  0.2049  0.3802  0.1207
 6107TIP3    H118285   0.574   5.920   3.488 -0.3614  1.0340  2.7053
 6107TIP3    H218286   0.426   5.906   3.456  0.3314  0.2089 -0.5132
 6108TIP3   OH218287   1.069   6.362   3.390 -0.1762  0.5078  0.2834
 6108TIP3    H118288   0.987   6.351   3.342 -0.5484 -0.4316  1.1109
 6108TIP3    H218289   1.088   6.275   3.425  1.7438  0.4424 -0.7801
 6109TIP3   OH218290   0.167   3.645   2.803 -0.0106  0.0751 -0.0488
 6109TIP3    H118291   0.175   3.577   2.870 -0.1779  0.8897  0.8224
 6109TIP3    H218292   0.153   3.726   2.852  1.8640  1.0324 -0.9920
 6110TIP3   OH218293   3.477   4.582   4.572  0.1452  0.0087 -0.6045
 6110TIP3    H118294   3.526   4.578   4.655 -1.7305  0.6325  0.5779
 6110TIP3    H218295   3.445   4.493   4.559  0.4915 -0.1034 -0.7068
 6111TIP3   OH218296   3.604   0.631   2.629  0.3780 -0.0325 -0.4877
 6111TIP3    H118297   3.533   0.588   2.581  1.6584 -0.9009 -1.6661
 6111TIP3    H218298   3.622   0.711   2.579 -1.0869  1.2884  0.9544
 6112TIP3   OH218299   2.282   3.947   4.226  0.0271 -0.0334  0.1651
 6112TIP3    H118300   2.256   3.864   4.187 -0.9051  1.3901 -2.4012
 6112TIP3    H218301   2.357   3.976   4.174 -2.1182  2.6032 -1.6916
 6113TIP3   OH218302   3.180   4.556   3.297  0.4786  0.2211 -0.0563
 6113TIP3    H118303   3.185   4.627   3.362  0.7420  0.6825 -0.5670
 6113TIP3    H218304   3.093   4.518   3.309  0.5956  0.1784  0.6911
 6114TIP3   OH218305   3.853   6.457   3.837 -0.5182  0.3232 -0.3625
 6114TIP3    H118306   3.781   6.477   3.897 -1.1492  0.8614 -1.2670
 6114TIP3    H218307   3.885   6.543   3.810  0.7172  0.0898  0.3117
 6115TIP3   OH218308   4.115   2.341   1.339 -0.1196 -0.0126  0.2653
 6115TIP3    H118309   4.108   2.380   1.252  2.6955 -0.4573 -0.2476
 6115TIP3    H218310   4.178   2.270   1.329 -0.2585 -0.5504  2.5414
 6116TIP3   OH218311   5.075   1.199   1.398 -0.0060 -0.5660  0.0742
 6116TIP3    H118312   5.071   1.126   1.460  0.7346 -1.3149 -0.7268
 6116TIP3    H218313   5.068   1.158   1.312 -1.6683  0.5135 -0.3529
 6117TIP3   OH218314   1.844   3.193   1.827  0.0959 -0.1941  0.1761
 6117TIP3    H118315   1.906   3.264   1.815  1.5510 -0.8393  2.9478
 6117TIP3    H218316   1.895   3.113   1.810 -0.3397 -0.6884  1.0897
 6118TIP3   OH218317   6.786   2.621   0.156 -0.0637  0.4578  0.1613
 6118TIP3    H118318   6.786   2.664   0.242 -0.8145 -0.6243  0.7285
 6118TIP3    H218319   6.737   2.540   0.170  0.0788  0.1101 -1.2234
 6119TIP3   OH218320   5.862   0.534   3.235  0.2351  0.3828 -0.2528
 6119TIP3    H118321   5.866   0.630   3.241  0.0549  0.3476  0.4418
 6119TIP3    H218322   5.779   0.511   3.276  0.4835 -0.1063 -0.0247
 6120TIP3   OH218323   2.122   2.819   2.057 -0.4244 -0.5618 -0.3373
 6120TIP3    H118324   2.147   2.839   1.967  0.4973  2.1432  0.4210
 6120TIP3    H218325   2.195   2.765   2.090 -0.3615 -0.8595 -0.9440
 6121TIP3   OH218326   2.299   3.605   4.801  0.1430 -0.3756 -0.4021
 6121TIP3    H118327   2.232   3.537   4.796  0.9711 -1.2300 -0.1385
 6121TIP3    H218328   2.360   3.583   4.730  0.6062 -0.1132 -0.0871
 6122TIP3   OH218329   0.896   5.037   5.579 -0.1155  0.3275 -0.0439
 6122TIP3    H118330   0.877   5.041   5.485  2.4595  1.1501 -0.5971
 6122TIP3    H218331   0.972   4.979   5.585 -0.5124 -0.0639  1.6105
 6123TIP3   OH218332   0.634   0.712   3.493  0.7502 -0.2805  0.6670
 6123TIP3    H118333   0.691   0.748   3.426  0.5215 -1.3845 -0.1624
 6123TIP3    H218334   0.582   0.786   3.524 -1.9726 -0.2534 -3.2048
 6124TIP3   OH218335   4.127   5.566   0.316 -0.7070 -0.0167  0.2216
 6124TIP3    H118336   4.058   5.560   0.382 -1.6612 -1.8259 -0.8634
 6124TIP3    H218337   4.191   5.499   0.343 -0.5150  0.0600 -0.0413
 6125TIP3   OH218338   3.061   6.610   4.036  0.6865  0.0296 -0.2691
 6125TIP3    H118339   3.043   6.701   4.013  1.0588  0.2004  0.1172
 6125TIP3    H218340   3.034   6.602   4.127  1.8656  0.0953  0.1022
 6126TIP3   OH218341   4.428   6.198   2.773  0.0169 -0.3055  0.0130
 6126TIP3    H118342   4.394   6.252   2.844  0.1227  0.1975 -0.3075
 6126TIP3    H218343   4.492   6.255   2.729 -2.1822  0.5704 -2.3491
 6127TIP3   OH218344   6.797   0.574   1.050 -0.0295 -0.4036  0.4788
 6127TIP3    H118345   6.794   0.501   1.111  2.1217 -0.0288  1.1338
 6127TIP3    H218346   6.706   0.590   1.026 -0.6903 -2.1730  1.6374
 6128TIP3   OH218347   0.027   0.984   3.089  0.1949  0.6177 -0.3940
 6128TIP3    H118348  -0.004   1.075   3.085  2.1531  1.3548  0.1775
 6128TIP3    H218349   0.121   0.990   3.072  0.3998 -1.2942 -0.1112
 6129TIP3   OH218350   2.538   2.042   0.782  0.1965  0.3404 -0.4937
 6129TIP3    H118351   2.520   1.999   0.698 -0.1464  0.5001 -0.5018
 6129TIP3    H218352   2.490   2.125   0.778 -0.1395  0.1770  0.0128
 6130TIP3   OH218353   0.031   3.646   5.228  0.3772  0.3304 -0.1666
 6130TIP3    H118354   0.100   3.682   5.284  0.1613  0.3136  0.1089
 6130TIP3    H218355   0.026   3.707   5.154 -0.7953  1.5347  0.8694
 6131TIP3   OH218356   5.205   4.660   3.821  0.2025  0.0391 -0.4162
 6131TIP3    H118357   5.155   4.582   3.842 -2.0603  1.6184  0.5151
 6131TIP3    H218358   5.221   4.703   3.905 -0.7368  1.7479 -1.0508
 6132TIP3   OH218359   4.899   5.753   5.078 -0.5961  0.0880 -0.1238
 6132TIP3    H118360   4.815   5.797   5.072 -0.1363  0.9571 -0.3323
 6132TIP3    H218361   4.935   5.780   5.163 -0.7108 -0.6181  0.1548
 6133TIP3   OH218362   2.866   4.785   5.381 -0.1992  0.3684  0.4754
 6133TIP3    H118363   2.950   4.741   5.369 -1.4808 -2.0734 -0.2067
 6133TIP3    H218364   2.803   4.729   5.336 -1.9151  3.3909 -1.2140
 6134TIP3   OH218365   4.822   2.512   2.372 -0.1951 -0.0660 -0.0276
 6134TIP3    H118366   4.793   2.598   2.340  0.1946  0.2003  0.3187
 6134TIP3    H218367   4.916   2.510   2.354 -0.3532 -0.7772 -0.8193
 6135TIP3   OH218368   2.174   6.089   5.821  0.8086 -0.4943  0.2579
 6135TIP3    H118369   2.179   6.079   5.916  2.3158  0.8099  0.3533
 6135TIP3    H218370   2.239   6.027   5.787  0.3231 -0.9078  0.0743
 6136TIP3   OH218371   6.905   6.504   4.753  0.3253  0.0837 -0.2064
 6136TIP3    H118372   6.917   6.459   4.837 -2.3733  0.0182  0.2160
 6136TIP3    H218373   6.882   6.434   4.692 -0.4739  0.4599 -0.3445
 6137TIP3   OH218374   4.073   6.542   5.618 -0.1449 -0.3227  0.3453
 6137TIP3    H118375   4.138   6.613   5.612  0.1160 -0.5991 -0.1801
 6137TIP3    H218376   3.997   6.575   5.570  0.5307 -0.9881 -1.2475
 6138TIP3   OH218377   6.384   0.756   5.410 -0.0450  0.0827  0.0295
 6138TIP3    H118378   6.375   0.830   5.470 -1.8585 -0.2669  0.2564
 6138TIP3    H218379   6.392   0.796   5.323 -4.2002  0.6889 -0.2695
 6139TIP3   OH218380   0.273   1.256   0.136 -0.8054  0.2240  0.4174
 6139TIP3    H118381   0.277   1.351   0.122 -1.1398  0.4312  1.5548
 6139TIP3    H218382   0.179   1.237   0.141 -0.7513 -0.2720 -0.4065
 6140TIP3   OH218383   0.532   5.043   4.336  0.4873 -0.3549  0.0890
 6140TIP3    H118384   0.466   5.047   4.267  1.6457  1.0635 -0.9921
 6140TIP3    H218385   0.485   5.006   4.411 -2.1595  2.5646  0.0562
 6141TIP3   OH218386   1.714   0.170   1.117  0.2422  0.0468  0.9841
 6141TIP3    H118387   1.675   0.221   1.047  1.2426  0.5357  0.7630
 6141TIP3    H218388   1.680   0.081   1.104 -0.5636  0.4003  0.6468
 6142TIP3   OH218389   7.050   1.420   1.974 -0.0332 -0.1455 -0.0038
 6142TIP3    H118390   6.999   1.420   2.055  1.2892  1.1702  0.8675
 6142TIP3    H218391   7.086   1.332   1.969 -0.0218 -0.2079  0.9200
 6143TIP3   OH218392   2.768   0.106   2.277 -0.1949 -0.1341  0.2649
 6143TIP3    H118393   2.759   0.116   2.182  0.5809 -0.0596  0.1860
 6143TIP3    H218394   2.821   0.181   2.303 -1.0754  0.2848  0.8835
 6144TIP3   OH218395   2.117   3.738   3.994  0.4335 -0.1879  0.4570
 6144TIP3    H118396   2.028   3.743   4.028  0.6784  1.4440  0.9436
 6144TIP3    H218397   2.111   3.678   3.921 -1.1230  0.0689  0.3360
 6145TIP3   OH218398   1.038   6.556   5.523  0.3653 -0.3708  0.2221
 6145TIP3    H118399   1.011   6.483   5.578  0.7186 -1.4645 -1.0053
 6145TIP3    H218400   1.087   6.613   5.582  0.2540 -1.2196  1.1684
 6146TIP3   OH218401   4.763   1.335   0.349  0.3446  0.3865 -0.2864
 6146TIP3    H118402   4.834   1.281   0.314  0.6820  0.8877 -0.3884
 6146TIP3    H218403   4.707   1.273   0.396  0.8276 -0.0236 -0.2356
 6147TIP3   OH218404   5.711   6.076   2.988 -0.5836 -0.0422 -0.1997
 6147TIP3    H118405   5.685   6.075   3.080 -0.7195 -2.0564 -0.2186
 6147TIP3    H218406   5.630   6.093   2.940 -1.1282 -1.9444 -0.0438
 6148TIP3   OH218407   1.921   5.450   1.733  0.6973  0.1926 -0.1441
 6148TIP3    H118408   1.863   5.455   1.809  1.2096 -1.0112  0.3553
 6148TIP3    H218409   1.903   5.364   1.695  0.8722  0.5455 -1.0385
 6149TIP3   OH218410   6.579   6.803   0.836  0.5551 -0.0381  0.1554
 6149TIP3    H118411   6.591   6.752   0.756  2.3819  0.4780  0.0743
 6149TIP3    H218412   6.661   6.793   0.884  0.7745  2.4035  0.3929
 6150TIP3   OH218413   1.297   0.735   4.174 -0.7277 -0.2716  0.0320
 6150TIP3    H118414   1.297   0.642   4.154  1.3629 -0.0745 -1.2639
 6150TIP3    H218415   1.382   0.766   4.142 -1.1035  1.9620  0.9941
 6151TIP3   OH218416   0.025   5.984   0.287  0.1758 -0.5061 -0.5350
 6151TIP3    H118417  -0.031   5.907   0.280  1.1449 -1.1429 -1.7978
 6151TIP3    H218418   0.009   6.032   0.205 -0.4470  0.6802  0.2540
 6152TIP3   OH218419   5.954   2.999   4.726 -0.2826  0.5065  0.6034
 6152TIP3    H118420   5.952   2.943   4.803  0.0991 -0.6211 -0.1798
 6152TIP3    H218421   5.872   2.981   4.681 -0.1336  0.5282  0.3186
 6153TIP3   OH218422   3.994   0.350   0.223  0.1800  0.0629  0.0518
 6153TIP3    H118423   3.951   0.368   0.307  0.6505  0.4125  0.2185
 6153TIP3    H218424   4.070   0.407   0.222  0.9460 -0.9379 -0.0178
 6154TIP3   OH218425   1.115   6.062   0.546  0.2919  0.3202 -0.0843
 6154TIP3    H118426   1.056   6.105   0.484 -0.8034  0.1837  0.8273
 6154TIP3    H218427   1.118   6.121   0.621 -0.9525 -0.9772  1.0374
 6155TIP3   OH218428   5.531   2.692   4.568  0.4893 -0.0379  0.5812
 6155TIP3    H118429   5.592   2.681   4.495  0.3773 -1.2678  0.6389
 6155TIP3    H218430   5.484   2.773   4.548  1.2285  0.2314 -0.1318
 6156TIP3   OH218431   5.742   6.237   4.864 -0.0162 -0.6753 -0.1542
 6156TIP3    H118432   5.654   6.213   4.890 -0.9672  2.2596 -0.3121
 6156TIP3    H218433   5.749   6.208   4.773 -1.0273 -0.4709 -0.3066
 6157TIP3   OH218434   4.736   2.316   1.536  0.6638  0.0723 -0.1381
 6157TIP3    H118435   4.824   2.324   1.500  0.2496  1.8342 -0.8213
 6157TIP3    H218436   4.750   2.298   1.629  1.7181 -1.9459 -0.6181
 6158TIP3   OH218437   4.650   6.539   0.284 -0.0295 -0.0822  0.0324
 6158TIP3    H118438   4.625   6.631   0.279  0.1119  0.0630  1.4495
 6158TIP3    H218439   4.675   6.527   0.376  1.2278 -1.2017 -0.4335
 6159TIP3   OH218440   7.230   0.768   2.922 -0.1306  0.3636  0.1091
 6159TIP3    H118441   7.161   0.779   2.857  1.4764  1.8873 -1.4393
 6159TIP3    H218442   7.225   0.848   2.975 -2.4528 -1.5071  3.0834
 6160TIP3   OH218443   4.012   3.231   2.651  0.1120 -0.3273 -0.1936
 6160TIP3    H118444   4.027   3.191   2.737 -0.8917  0.4410  0.3483
 6160TIP3    H218445   4.023   3.158   2.590  1.8917 -0.6750  0.4719
 6161TIP3   OH218446   3.256   1.654   4.288  0.1679  0.2438 -0.1839
 6161TIP3    H118447   3.168   1.617   4.287  0.0559  0.4452  0.9005
 6161TIP3    H218448   3.299   1.615   4.212 -0.2837 -1.2479  0.2931
 6162TIP3   OH218449   2.011   3.402   0.644 -0.1490 -0.5875 -0.1804
 6162TIP3    H118450   1.996   3.458   0.568  0.4720  1.7027  1.2952
 6162TIP3    H218451   2.052   3.323   0.608  0.3818  0.5313 -2.1750
 6163TIP3   OH218452   2.227   6.310   4.644 -0.4496  0.7710 -0.4546
 6163TIP3    H118453   2.245   6.371   4.573  2.2635  2.8203  1.7568
 6163TIP3    H218454   2.300   6.249   4.643 -1.2011 -0.1631 -0.3366
 6164TIP3   OH218455   3.790   1.958   1.583 -0.6253  0.1282 -0.5475
 6164TIP3    H118456   3.784   1.966   1.678  0.4681  1.7523 -0.5764
 6164TIP3    H218457   3.874   2.000   1.560 -0.2828 -1.2739 -2.1205
 6165TIP3   OH218458   3.968   1.698   3.960  0.2482  0.7306 -0.1398
 6165TIP3    H118459   4.049   1.651   3.980 -0.8058 -1.3697 -0.5508
 6165TIP3    H218460   3.948   1.675   3.869 -0.1910  2.2244 -0.4562
 6166TIP3   OH218461   3.108   1.017   1.240  0.0314 -0.0973 -0.2408
 6166TIP3    H118462   3.200   1.014   1.267 -0.0958 -0.6019  0.1759
 6166TIP3    H218463   3.092   0.931   1.201 -0.4890 -0.3462  0.4957
 6167TIP3   OH218464   0.178   1.575   1.916  0.6140  0.0916  0.4199
 6167TIP3    H118465   0.119   1.546   1.986  0.6221  1.0167  0.8262
 6167TIP3    H218466   0.265   1.547   1.944  0.6638  0.7601  0.9629
 6168TIP3   OH218467   0.623   1.983   1.659 -0.0333 -0.3978 -0.1518
 6168TIP3    H118468   0.620   2.067   1.614  1.5557 -0.0894  0.2431
 6168TIP3    H218469   0.699   1.938   1.621 -0.3486 -1.2908  0.2415
 6169TIP3   OH218470   4.093   0.743   1.094  0.7771 -0.2996  0.3452
 6169TIP3    H118471   4.120   0.696   1.173  1.6151  1.1516  0.9694
 6169TIP3    H218472   4.029   0.807   1.125  0.9388  0.1269 -0.1897
 6170TIP3   OH218473   6.087   1.046   0.076  0.0498 -0.3614  0.0978
 6170TIP3    H118474   6.152   1.007   0.135 -0.2519  2.6578  2.7477
 6170TIP3    H218475   6.005   1.002   0.098  0.1783 -0.1196  1.1115
 6171TIP3   OH218476   4.376   2.798   2.435 -0.0134  0.0175 -0.0721
 6171TIP3    H118477   4.372   2.724   2.375 -1.0674  0.1761 -0.2193
 6171TIP3    H218478   4.437   2.771   2.504  1.3929 -0.0871 -1.2983
 6172TIP3   OH218479   7.074   6.697   4.981  0.7676  0.6803  0.1952
 6172TIP3    H118480   7.134   6.771   4.967  2.1221 -0.5228 -0.5308
 6172TIP3    H218481   7.128   6.619   4.970 -1.1312 -0.4918 -1.5128
 6173TIP3   OH218482   0.723   6.350   5.508 -0.2132  0.0236  0.3252
 6173TIP3    H118483   0.793   6.326   5.569 -1.5123 -1.0129  1.4535
 6173TIP3    H218484   0.759   6.329   5.421  0.0769 -2.6800  1.0070
 6174TIP3   OH218485   2.166   1.604   2.550  0.5214 -0.2765  0.0088
 6174TIP3    H118486   2.223   1.569   2.619 -0.0499 -1.2321  0.0181
 6174TIP3    H218487   2.223   1.615   2.474  0.6333 -1.6874 -0.1312
 6175TIP3   OH218488   0.272   6.626   3.289  0.1773  0.4526  1.2000
 6175TIP3    H118489   0.282   6.715   3.256  1.7530 -0.3486 -0.7261
 6175TIP3    H218490   0.287   6.633   3.383 -0.5098  2.3147  1.2091
 6176TIP3   OH218491   2.868   1.217   3.966 -0.1192 -0.0009 -0.3850
 6176TIP3    H118492   2.929   1.277   4.009 -0.6863 -0.0111  0.4536
 6176TIP3    H218493   2.810   1.274   3.916 -0.2009  0.1040 -0.1741
 6177TIP3   OH218494   3.715   2.031   4.997  0.0001 -0.1638 -0.1511
 6177TIP3    H118495   3.797   2.035   4.947  0.0550 -0.5455 -0.0904
 6177TIP3    H218496   3.652   2.080   4.943  0.2630  0.1274 -0.2002
 6178TIP3   OH218497   7.148   2.666   2.759 -0.3024  0.3549 -0.2206
 6178TIP3    H118498   7.124   2.743   2.708 -1.2307  0.4708  0.3646
 6178TIP3    H218499   7.212   2.620   2.706  2.6152  3.0758  0.6641
 6179TIP3   OH218500   5.830   1.846   3.011 -0.7556  0.1072  0.1770
 6179TIP3    H118501   5.776   1.809   3.081  0.3433  0.9870  1.5337
 6179TIP3    H218502   5.767   1.888   2.953 -1.9369 -2.7927 -0.8059
 6180TIP3   OH218503   0.017   4.349   0.059  0.1599 -0.2086  0.0757
 6180TIP3    H118504   0.021   4.443   0.072 -0.9093  0.0255 -1.0831
 6180TIP3    H218505   0.107   4.324   0.035  0.6507  0.3470  1.2922
 6181TIP3   OH218506   5.732   0.367   2.602 -0.2109 -0.0060 -0.0867
 6181TIP3    H118507   5.803   0.375   2.538  0.5806 -1.0923  0.6146
 6181TIP3    H218508   5.777   0.366   2.687 -1.1482  0.1973  0.4275
 6182TIP3   OH218509   4.355   2.828   3.034  0.4362 -0.0799 -0.7106
 6182TIP3    H118510   4.268   2.793   3.018  0.4371  0.1198 -1.1620
 6182TIP3    H218511   4.377   2.798   3.122  0.5155 -1.3691 -1.1447
 6183TIP3   OH218512   4.828   3.839   4.650  0.2669 -0.5757 -0.2428
 6183TIP3    H118513   4.775   3.917   4.636 -0.1462 -0.9583 -0.8383
 6183TIP3    H218514   4.773   3.766   4.622  0.9210 -1.0232 -0.4014
 6184TIP3   OH218515   0.651   3.099   1.536  0.1660 -0.1047  0.0407
 6184TIP3    H118516   0.587   3.065   1.598  1.3273 -0.7553  0.9226
 6184TIP3    H218517   0.720   3.033   1.534  0.0246 -0.2821 -2.2239
 6185TIP3   OH218518   2.904   2.639   2.920  0.4515 -0.2607 -0.1411
 6185TIP3    H118519   2.900   2.683   3.005 -0.3675 -1.3226  0.3890
 6185TIP3    H218520   2.932   2.708   2.859 -0.1449  0.8281  0.7688
 6186TIP3   OH218521   5.693   2.258   3.510  0.6274 -0.0806 -0.1153
 6186TIP3    H118522   5.728   2.196   3.573 -0.2920  0.9324  1.4842
 6186TIP3    H218523   5.668   2.205   3.435  1.5558 -1.3707  0.4535
 6187TIP3   OH218524   0.804   6.456   4.836  0.7934  0.1349 -0.0926
 6187TIP3    H118525   0.766   6.515   4.900  0.9426  1.6968 -1.3889
 6187TIP3    H218526   0.731   6.432   4.779  0.8632 -0.4478  0.0558
 6188TIP3   OH218527   0.781   3.413   0.116  0.5099 -0.4601 -0.2485
 6188TIP3    H118528   0.805   3.464   0.039  2.5665 -1.4655 -0.3543
 6188TIP3    H218529   0.865   3.388   0.155 -0.4474 -2.0478  0.9278
 6189TIP3   OH218530   1.146   1.783   0.631  0.1712 -0.0059 -0.0172
 6189TIP3    H118531   1.217   1.840   0.603  1.0275 -0.1802  1.6815
 6189TIP3    H218532   1.187   1.718   0.688 -1.0074 -1.4892 -0.7758
 6190TIP3   OH218533   1.537   6.459   0.152  0.3429  0.3634  0.7444
 6190TIP3    H118534   1.568   6.429   0.067  0.6610  1.0971  0.5905
 6190TIP3    H218535   1.466   6.521   0.131  0.4307  0.5550  1.0069
 6191TIP3   OH218536   5.714   3.992   4.848 -0.3539  0.1515 -0.7143
 6191TIP3    H118537   5.661   3.917   4.874 -0.5449  0.4688 -0.1852
 6191TIP3    H218538   5.801   3.974   4.885 -0.9152  1.1629  1.2304
 6192TIP3   OH218539   0.063   0.885   4.319  0.0235 -0.2839  0.8207
 6192TIP3    H118540   0.155   0.896   4.295 -0.6417  1.2914 -1.3191
 6192TIP3    H218541   0.055   0.792   4.339  1.6701 -0.9049 -0.9991
 6193TIP3   OH218542   5.319   2.274   3.601  0.5756 -0.1837 -0.0374
 6193TIP3    H118543   5.233   2.309   3.575  2.2885  3.6377 -1.2204
 6193TIP3    H218544   5.344   2.215   3.529 -0.1777  0.3054 -0.7194
 6194TIP3   OH218545   2.217   4.660   2.955  0.0527 -0.1350  0.5655
 6194TIP3    H118546   2.303   4.634   2.922 -0.2273  0.4669 -0.7272
 6194TIP3    H218547   2.219   4.639   3.048  0.9265 -1.8537  0.1948
 6195TIP3   OH218548   7.047   2.355   3.738  0.3643 -0.2142  0.2731
 6195TIP3    H118549   7.099   2.293   3.688 -0.4171  0.8163 -1.9367
 6195TIP3    H218550   7.043   2.317   3.826  0.5383 -2.8928 -0.7709
 6196TIP3   OH218551   3.774   6.126   5.561 -0.0622 -0.3443  0.6544
 6196TIP3    H118552   3.729   6.209   5.545 -2.5660 -1.2042  2.5333
 6196TIP3    H218553   3.866   6.150   5.572 -0.8210  2.3305  1.9662
 6197TIP3   OH218554   5.938   4.991   2.516  0.2404 -0.5005  0.9111
 6197TIP3    H118555   5.900   4.920   2.465  0.8928 -0.0053 -0.3082
 6197TIP3    H218556   5.879   5.065   2.502  0.7649 -0.1821  0.3204
 6198TIP3   OH218557   4.736   0.803   1.748  0.3947  0.5030  0.4617
 6198TIP3    H118558   4.820   0.840   1.775  0.8816 -1.0449  1.1432
 6198TIP3    H218559   4.720   0.841   1.662  1.8691  0.6829  0.2464
 6199TIP3   OH218560   2.289   0.708   0.728 -0.1201 -0.2104 -0.2242
 6199TIP3    H118561   2.295   0.708   0.824 -0.1792  1.0842 -0.1927
 6199TIP3    H218562   2.342   0.633   0.701  0.5268 -0.1585  0.8043
 6200TIP3   OH218563   0.320   3.528   2.260 -0.3011  0.6535 -0.3850
 6200TIP3    H118564   0.272   3.492   2.185  0.6240  0.0104 -0.6811
 6200TIP3    H218565   0.256   3.586   2.303 -1.4921 -0.5295 -0.4977
 6201TIP3   OH218566   5.201   3.191   0.850 -0.2555  0.3950 -0.1573
 6201TIP3    H118567   5.114   3.168   0.885 -0.3682  0.5128 -0.3592
 6201TIP3    H218568   5.183   3.255   0.781  0.0310  0.8203  0.1574
 6202TIP3   OH218569   5.942   0.765   1.230 -0.1809  0.1444  0.6104
 6202TIP3    H118570   5.850   0.772   1.258 -0.2863  1.5110 -0.0212
 6202TIP3    H218571   5.941   0.698   1.162 -1.0850  1.5250 -0.8041
 6203TIP3   OH218572   6.851   1.098   3.767  0.1525  0.2605  0.1182
 6203TIP3    H118573   6.778   1.044   3.795  0.0948  0.6895  0.8293
 6203TIP3    H218574   6.820   1.143   3.688 -0.5542  0.8648  0.7338
 6204TIP3   OH218575   2.247   3.089   5.675  0.3185  0.5498  0.0641
 6204TIP3    H118576   2.205   3.175   5.678  1.6079  1.2143 -0.0077
 6204TIP3    H218577   2.315   3.098   5.608 -1.1143 -1.2989 -1.7276
 6205TIP3   OH218578   0.113   1.346   5.092  0.4260 -0.4213 -0.7917
 6205TIP3    H118579   0.054   1.408   5.135  0.2562 -0.6797 -0.6498
 6205TIP3    H218580   0.082   1.343   5.001  0.4468 -0.2841 -0.8030
 6206TIP3   OH218581   6.008   2.571   0.880 -0.1659 -0.7019  0.1345
 6206TIP3    H118582   5.996   2.609   0.793 -1.5531 -0.7016  0.2926
 6206TIP3    H218583   5.921   2.579   0.921  0.7093  0.3172  1.9225
 6207TIP3   OH218584   1.169   4.285   5.152 -0.0959  0.0449  0.3469
 6207TIP3    H118585   1.129   4.204   5.120  0.5322 -0.1346 -0.0029
 6207TIP3    H218586   1.147   4.351   5.086  0.2731 -0.0781  0.0994
 6208TIP3   OH218587   2.408   2.137   2.709  0.6171 -0.2612 -0.0713
 6208TIP3    H118588   2.493   2.132   2.754  0.6556  0.0609 -0.1048
 6208TIP3    H218589   2.380   2.046   2.700 -0.0045 -0.2768  1.7485
 6209TIP3   OH218590   5.868   5.212   4.536 -0.1176  0.1727 -0.0849
 6209TIP3    H118591   5.830   5.153   4.471  0.0277  1.4010 -1.3142
 6209TIP3    H218592   5.817   5.292   4.529  0.8379  0.8290  0.3002
 6210TIP3   OH218593   4.330   0.400   2.826  0.0527  0.0679  0.6314
 6210TIP3    H118594   4.293   0.452   2.754 -1.9683 -1.2350  0.6544
 6210TIP3    H218595   4.332   0.461   2.900  1.6450  1.2643 -0.3504
 6211TIP3   OH218596   1.459   3.677   0.869 -0.1603  0.1808 -0.3178
 6211TIP3    H118597   1.410   3.596   0.855  1.4999 -0.4954 -2.7935
 6211TIP3    H218598   1.398   3.746   0.842 -1.2834 -0.2320  1.0038
 6212TIP3   OH218599   6.274   2.793   2.226 -0.1408 -0.3584  0.7467
 6212TIP3    H118600   6.312   2.864   2.278 -1.9389  0.6865  0.7281
 6212TIP3    H218601   6.305   2.713   2.269  1.6476  0.4140  0.9850
 6213TIP3   OH218602   6.862   0.628   0.373 -0.3688 -0.0940 -0.1683
 6213TIP3    H118603   6.767   0.626   0.387 -0.4525  1.2042 -0.4390
 6213TIP3    H218604   6.897   0.663   0.455 -0.1883  0.1267 -0.3395
 6214TIP3   OH218605   5.953   3.788   2.611  0.1733  0.2428  0.0965
 6214TIP3    H118606   6.013   3.838   2.555 -0.2804 -0.0027 -0.6217
 6214TIP3    H218607   6.010   3.738   2.669  0.6744 -0.2312 -0.7914
 6215TIP3   OH218608   1.991   1.154   2.397  0.0797  0.0139 -0.3048
 6215TIP3    H118609   2.042   1.179   2.320  0.4885  1.0672  0.2897
 6215TIP3    H218610   1.900   1.160   2.369  0.2369 -0.1228 -0.8543
 6216TIP3   OH218611   2.370   5.487   1.261 -0.4670 -0.2119 -0.3392
 6216TIP3    H118612   2.296   5.519   1.313 -0.6197 -0.1194 -0.6101
 6216TIP3    H218613   2.348   5.396   1.241 -1.5118  0.3722 -2.1529
 6217TIP3   OH218614   2.315   6.248   5.410 -0.2376  0.1680  0.0515
 6217TIP3    H118615   2.359   6.270   5.328 -2.9897  0.6726 -1.4499
 6217TIP3    H218616   2.237   6.199   5.382 -0.0729 -1.6849  2.5727
 6218TIP3   OH218617   6.207   6.326   5.124 -0.3219 -0.9004  0.3758
 6218TIP3    H118618   6.235   6.377   5.048  1.5185  1.6858  2.5903
 6218TIP3    H218619   6.262   6.247   5.122 -0.1654 -0.7752 -0.8261
 6219TIP3   OH218620   0.874   1.885   5.838 -0.2412 -0.3089 -0.3018
 6219TIP3    H118621   0.938   1.957   5.847 -1.1776  0.6605 -1.1778
 6219TIP3    H218622   0.899   1.823   5.907  1.4282  0.2011 -0.3915
 6220TIP3   OH218623   2.238   1.920   1.697 -0.3463 -0.5588  0.1114
 6220TIP3    H118624   2.171   1.934   1.631  0.4554 -1.4887 -0.9328
 6220TIP3    H218625   2.206   1.968   1.774 -1.2223  0.6567 -0.9717
 6221TIP3   OH218626   5.093   1.688   3.385 -0.3188 -0.2210  0.8729
 6221TIP3    H118627   5.080   1.654   3.297  0.0494 -1.6200  1.3287
 6221TIP3    H218628   5.109   1.782   3.373  0.9201 -0.5876 -0.6497
 6222TIP3   OH218629   3.841   1.840   1.018 -0.4131 -0.8497 -0.0379
 6222TIP3    H118630   3.765   1.829   1.075 -0.6882 -1.8602 -0.5770
 6222TIP3    H218631   3.907   1.881   1.074 -1.1274 -0.5576  0.6151
 6223TIP3   OH218632   3.680   6.324   3.474 -0.1789  0.1376 -0.3224
 6223TIP3    H118633   3.680   6.416   3.450  1.0479 -0.3453 -2.4306
 6223TIP3    H218634   3.752   6.316   3.538  0.7573  0.4012 -1.3130
 6224TIP3   OH218635   3.008   4.067   2.905  0.0843 -0.5764  0.1540
 6224TIP3    H118636   2.940   4.036   2.965 -1.3857  2.0254 -0.0133
 6224TIP3    H218637   3.010   4.162   2.917  2.3128 -0.3509 -1.3194
 6225TIP3   OH218638   0.731   3.293   1.308  0.1047  0.0943  0.3914
 6225TIP3    H118639   0.643   3.306   1.272  0.6377  0.2302 -0.9497
 6225TIP3    H218640   0.719   3.233   1.381 -1.0242 -0.3601 -0.1503
 6226TIP3   OH218641   3.668   5.313   2.626  0.1176 -0.1441  0.3753
 6226TIP3    H118642   3.674   5.326   2.721  0.7697 -0.6709  0.4149
 6226TIP3    H218643   3.601   5.246   2.615 -0.7227  0.6626  0.3836
 6227TIP3   OH218644   0.587   6.367   2.315  0.0546  0.2583 -0.4443
 6227TIP3    H118645   0.492   6.364   2.329 -0.1649  0.3931 -1.8357
 6227TIP3    H218646   0.620   6.415   2.391 -1.0083  0.3960 -0.0432
 6228TIP3   OH218647   5.058   1.934   3.098  0.0583 -0.3003  0.0121
 6228TIP3    H118648   4.973   1.892   3.083  0.8400 -1.7125 -0.6467
 6228TIP3    H218649   5.122   1.865   3.082  1.3844  1.0206 -0.6463
 6229TIP3   OH218650   6.488   3.985   0.097  0.2434 -0.8156 -0.6451
 6229TIP3    H118651   6.543   4.009   0.023 -0.2129 -1.0296 -1.0550
 6229TIP3    H218652   6.464   4.069   0.137  1.6949 -0.7503  0.1616
 6230TIP3   OH218653   3.682   5.642   5.911  0.0248  0.1791 -0.1372
 6230TIP3    H118654   3.635   5.597   5.841  0.1121  1.7474 -1.2474
 6230TIP3    H218655   3.751   5.690   5.866 -0.0241  1.3540  0.9996
 6231TIP3   OH218656   2.293   0.890   1.921 -0.3616  0.1812  0.0888
 6231TIP3    H118657   2.377   0.846   1.936 -0.5938 -0.1494  0.4223
 6231TIP3    H218658   2.249   0.889   2.006 -0.3913  1.0258  0.0878
 6232TIP3   OH218659   0.589   3.751   1.608  0.1573 -0.1501  0.3954
 6232TIP3    H118660   0.546   3.682   1.558  0.1503 -0.0031  0.1984
 6232TIP3    H218661   0.544   3.831   1.582  1.7346  0.2699 -1.1931
 6233TIP3   OH218662   2.047   2.025   5.819 -0.1569  0.3086  0.4532
 6233TIP3    H118663   2.104   2.033   5.742  0.2371  0.6785  0.7807
 6233TIP3    H218664   2.033   1.931   5.829  0.3103  0.2203  0.3054
 6234TIP3   OH218665   4.027   3.052   3.801 -0.1163  0.0369  0.5047
 6234TIP3    H118666   3.985   3.022   3.881 -0.1954  0.4372  0.6138
 6234TIP3    H218667   4.121   3.048   3.820  0.0051 -2.2992 -0.2390
 6235TIP3   OH218668   1.209   3.178   5.716 -0.2039  0.1625  0.4980
 6235TIP3    H118669   1.124   3.162   5.756 -0.1223 -1.3756  0.1103
 6235TIP3    H218670   1.203   3.137   5.630  0.4349  1.3447 -0.1469
 6236TIP3   OH218671   0.543   1.477   1.100  0.6529 -1.3491  0.2944
 6236TIP3    H118672   0.581   1.390   1.105  0.0366 -1.8279 -1.9905
 6236TIP3    H218673   0.533   1.494   1.006 -1.9166 -0.0297  0.6882
 6237TIP3   OH218674   6.599   2.005   5.248 -0.2572  0.0609 -0.4421
 6237TIP3    H118675   6.574   1.941   5.314 -0.0442  0.5382  0.1070
 6237TIP3    H218676   6.539   1.990   5.175  0.2657 -1.2652 -0.6263
 6238TIP3   OH218677   2.745   0.648   5.279  0.2337  0.3560  0.0798
 6238TIP3    H118678   2.680   0.621   5.344  1.3628 -0.3931  0.9488
 6238TIP3    H218679   2.798   0.714   5.323  1.5666 -0.7945  0.2703
 6239TIP3   OH218680   0.853   0.197   0.108 -0.5824 -0.0021 -0.1892
 6239TIP3    H118681   0.801   0.128   0.150 -1.2293  0.5631 -0.0425
 6239TIP3    H218682   0.857   0.267   0.173 -0.4722  0.3552 -0.5744
 6240TIP3   OH218683   1.819   3.109   3.770  0.2964  0.0163  0.3868
 6240TIP3    H118684   1.857   3.064   3.694 -0.2915  0.4581 -0.1728
 6240TIP3    H218685   1.895   3.132   3.824  0.8490  0.8540 -0.7064
 6241TIP3   OH218686   1.241   6.675   0.664 -0.0391  0.2151  0.6615
 6241TIP3    H118687   1.327   6.673   0.622 -0.0370 -0.3866  0.6807
 6241TIP3    H218688   1.202   6.590   0.643 -0.1232 -0.0172  1.6889
 6242TIP3   OH218689   1.610   6.523   4.993  0.3076  0.1458 -0.0611
 6242TIP3    H118690   1.536   6.580   5.016  0.5509  1.4640 -2.2174
 6242TIP3    H218691   1.574   6.435   4.997 -0.6209  0.5488  1.5079
 6243TIP3   OH218692   3.298   0.593   1.705  0.3049 -0.1774 -0.0651
 6243TIP3    H118693   3.365   0.654   1.673 -0.2233  0.5850  0.2455
 6243TIP3    H218694   3.318   0.583   1.798 -0.7307  1.0530  0.3257
 6244TIP3   OH218695   0.254   5.313   2.783  0.5596  0.7262 -0.3509
 6244TIP3    H118696   0.158   5.318   2.783  0.5568  0.6420 -1.0353
 6244TIP3    H218697   0.275   5.270   2.866 -0.0047  0.5641 -0.2875
 6245TIP3   OH218698   1.073   0.087   0.291  0.5325 -0.2755  0.1322
 6245TIP3    H118699   1.056   0.005   0.245  1.4923 -1.0133  1.0472
 6245TIP3    H218700   0.992   0.106   0.338  0.7550 -1.4774  1.0482
 6246TIP3   OH218701   5.333   5.258   5.258  0.2161 -0.5432  0.5249
 6246TIP3    H118702   5.239   5.244   5.244  0.5751 -0.5010 -2.8828
 6246TIP3    H218703   5.361   5.309   5.181  3.1029 -0.9148  1.2182
 6247TIP3   OH218704   4.175   5.223   4.742  0.0781 -0.5581 -0.4585
 6247TIP3    H118705   4.083   5.197   4.742 -0.1008  0.0462 -0.6109
 6247TIP3    H218706   4.210   5.186   4.661  0.4410 -2.3467  0.4791
 6248TIP3   OH218707   2.813   5.829   1.918  0.1818  0.4907  0.0022
 6248TIP3    H118708   2.853   5.836   2.005 -1.7058  0.6111  0.9170
 6248TIP3    H218709   2.815   5.918   1.884  3.3123  0.0617 -1.3045
 6249TIP3   OH218710   1.163   2.356   3.289  0.5244  0.6432  0.1350
 6249TIP3    H118711   1.164   2.358   3.193  2.1818  2.4975  0.1198
 6249TIP3    H218712   1.209   2.275   3.311  0.4733  0.3951 -0.6454
 6250TIP3   OH218713   5.772   5.159   1.977 -0.7190  0.1341  0.1099
 6250TIP3    H118714   5.711   5.146   1.905 -0.3314  1.2532 -0.4419
 6250TIP3    H218715   5.763   5.252   2.000  1.3147  0.5410 -0.5146
 6251TIP3   OH218716   3.321   3.562   5.494 -0.8190 -0.5157 -0.4557
 6251TIP3    H118717   3.246   3.534   5.547 -0.7039 -0.2049 -0.1243
 6251TIP3    H218718   3.380   3.604   5.556  0.3476 -2.1187 -0.4388
 6252TIP3   OH218719   1.358   6.702   1.464 -0.1542  0.2794  0.6671
 6252TIP3    H118720   1.346   6.687   1.371 -0.4163  3.2618  0.1154
 6252TIP3    H218721   1.441   6.659   1.485 -0.4990 -1.1447 -0.7003
 6253TIP3   OH218722   1.504   4.457   1.087  0.5392  0.1733  0.3765
 6253TIP3    H118723   1.411   4.480   1.096  0.7402  1.2239 -0.1295
 6253TIP3    H218724   1.542   4.474   1.173  0.1348 -0.9531  0.8002
 6254TIP3   OH218725   3.752   3.472   2.435 -0.0833  0.1519  0.3371
 6254TIP3    H118726   3.725   3.561   2.456 -0.5345  0.5317 -1.6507
 6254TIP3    H218727   3.744   3.424   2.517 -1.3948  1.5695  1.0774
 6255TIP3   OH218728   2.211   5.963   3.377 -0.2931  0.3185 -0.0677
 6255TIP3    H118729   2.146   5.926   3.317 -0.1059  0.1410 -0.1644
 6255TIP3    H218730   2.217   6.055   3.353 -0.3431  0.2848 -0.2138
 6256TIP3   OH218731   5.468   3.507   4.236  0.2296 -0.1663 -0.5739
 6256TIP3    H118732   5.488   3.421   4.199 -1.0596 -0.9980  0.5981
 6256TIP3    H218733   5.500   3.502   4.326 -0.3021  0.4124 -0.3529
 6257TIP3   OH218734   5.008   5.790   0.868 -0.1845 -0.5318 -0.1832
 6257TIP3    H118735   4.999   5.821   0.778 -0.2983 -2.2723 -0.8081
 6257TIP3    H218736   4.918   5.774   0.897 -0.4515  2.7874  1.3661
 6258TIP3   OH218737   3.288   5.152   1.414 -0.0316  0.1861  0.3339
 6258TIP3    H118738   3.217   5.129   1.474  0.4214  0.2803  0.9233
 6258TIP3    H218739   3.351   5.199   1.469 -0.1775  1.3878 -0.4975
 6259TIP3   OH218740   4.079   4.771   5.258  0.0309 -0.1094  0.1140
 6259TIP3    H118741   4.045   4.839   5.316 -0.5962 -1.2416  1.1159
 6259TIP3    H218742   4.059   4.802   5.170  1.5440  1.9324  0.4324
 6260TIP3   OH218743   6.953   5.267   0.817  0.0575 -0.7021  0.4253
 6260TIP3    H118744   6.869   5.254   0.772  0.0182  0.3893  0.1482
 6260TIP3    H218745   6.954   5.200   0.885  0.2297 -2.5875 -1.3407
 6261TIP3   OH218746   6.929   0.262   2.586 -0.0575 -0.5251 -0.3006
 6261TIP3    H118747   6.870   0.277   2.660  0.4527 -0.2779  0.0621
 6261TIP3    H218748   6.933   0.167   2.576  0.4094 -0.5857  0.4325
 6262TIP3   OH218749   0.322   3.128   5.834  0.1607  0.3753  0.1557
 6262TIP3    H118750   0.382   3.202   5.835 -1.0448  1.3831 -0.1510
 6262TIP3    H218751   0.248   3.158   5.782 -1.1867 -0.3736  1.5734
 6263TIP3   OH218752   3.629   1.256   5.064 -0.0572  0.2361 -0.1833
 6263TIP3    H118753   3.634   1.350   5.082 -0.6476  0.2068  0.1603
 6263TIP3    H218754   3.717   1.233   5.035  0.4355  0.6601  0.9138
 6264TIP3   OH218755   5.528   4.024   5.663 -0.8740  0.1195  0.1020
 6264TIP3    H118756   5.584   3.975   5.603  1.9762  0.6623  2.1352
 6264TIP3    H218757   5.497   3.959   5.726  0.5301  0.3587  1.0911
 6265TIP3   OH218758   5.341   1.068   3.876  0.7798  0.6332  0.2249
 6265TIP3    H118759   5.354   1.030   3.963  0.8578 -0.0937 -0.0991
 6265TIP3    H218760   5.368   1.159   3.886  0.6118  0.6051  1.0099
 6266TIP3   OH218761   2.037   2.574   4.535  0.6042 -0.2250 -0.5416
 6266TIP3    H118762   2.109   2.592   4.594 -1.7642 -0.1682  2.5933
 6266TIP3    H218763   2.013   2.659   4.499  0.5241  0.1615  0.4050
 6267TIP3   OH218764   4.710   3.893   1.166  0.6967  0.2382 -0.4862
 6267TIP3    H118765   4.725   3.962   1.101 -3.1937  1.1383 -0.6574
 6267TIP3    H218766   4.716   3.937   1.250  1.7381 -0.0567 -0.3900
 6268TIP3   OH218767   0.379   1.911   1.419  0.0879 -0.4942  0.3477
 6268TIP3    H118768   0.466   1.874   1.407  1.8319  2.4385  2.6269
 6268TIP3    H218769   0.331   1.845   1.469  0.8475 -2.2325 -1.1002
 6269TIP3   OH218770   7.005   6.091   4.386  0.3921 -0.1770  0.6373
 6269TIP3    H118771   6.941   6.036   4.431 -0.3426  0.4391  0.3691
 6269TIP3    H218772   7.090   6.064   4.422 -0.0897 -0.4004  1.6389
 6270TIP3   OH218773   3.711   4.463   3.244  0.0535  0.5672 -0.4761
 6270TIP3    H118774   3.626   4.505   3.233  0.3716  1.7744  1.1593
 6270TIP3    H218775   3.737   4.437   3.156 -2.0897 -0.0326 -0.9731
 6271TIP3   OH218776   4.697   2.792   5.069 -0.4863  0.4476  0.2768
 6271TIP3    H118777   4.717   2.884   5.054  0.5960  0.0409 -1.0123
 6271TIP3    H218778   4.754   2.766   5.141  1.4678  0.0976 -1.2906
 6272TIP3   OH218779   3.026   2.904   5.237  0.0487  0.0612  0.4875
 6272TIP3    H118780   3.007   2.823   5.190 -1.1205  0.2089  0.6697
 6272TIP3    H218781   3.055   2.965   5.170 -0.4663 -0.0836  0.1224
 6273TIP3   OH218782   4.233   2.242   1.583  0.0672 -0.0492 -0.0030
 6273TIP3    H118783   4.273   2.318   1.540  0.8406 -0.7450 -0.5408
 6273TIP3    H218784   4.213   2.273   1.671 -0.7369  1.1367 -0.5642
 6274TIP3   OH218785   6.001   6.399   0.847 -0.1593  0.8991  0.5455
 6274TIP3    H118786   6.053   6.431   0.773  0.6553  0.1540  0.7704
 6274TIP3    H218787   5.981   6.477   0.899  0.8309  1.2003  0.4998
 6275TIP3   OH218788   6.872   3.237   2.947 -0.2279  0.0801  0.6487
 6275TIP3    H118789   6.804   3.170   2.940 -1.2446  1.0894  0.6112
 6275TIP3    H218790   6.824   3.319   2.957  0.9897  0.6078  2.6740
 6276TIP3   OH218791   3.784   2.441   0.367  0.0014  0.4612 -0.1230
 6276TIP3    H118792   3.786   2.460   0.273 -0.6252  2.2010  0.1773
 6276TIP3    H218793   3.767   2.347   0.372  0.1458  0.3177 -1.7416
 6277TIP3   OH218794   2.196   5.257   5.247 -0.4785 -0.2202  0.0211
 6277TIP3    H118795   2.220   5.248   5.155 -1.7285  0.6005 -0.4278
 6277TIP3    H218796   2.158   5.345   5.253 -1.7896 -0.8073  0.9825
 6278TIP3   OH218797   1.703   1.253   0.329 -0.1475 -0.5922  0.0796
 6278TIP3    H118798   1.625   1.235   0.382 -0.3071  0.8158  0.3624
 6278TIP3    H218799   1.777   1.236   0.387 -0.3077  0.2386  0.5474
 6279TIP3   OH218800   3.421   4.466   1.854  0.5724  0.2850 -0.1901
 6279TIP3    H118801   3.487   4.533   1.833  1.7615 -1.1726 -1.3426
 6279TIP3    H218802   3.360   4.469   1.780  2.1770 -1.6999 -1.7109
 6280TIP3   OH218803   3.849   6.295   1.381  0.0725  0.3884 -0.2341
 6280TIP3    H118804   3.761   6.259   1.386 -0.4492  1.4324 -1.4500
 6280TIP3    H218805   3.869   6.322   1.471  1.2349 -4.3958  1.2103
 6281TIP3   OH218806   6.385   2.345   1.609 -0.4813 -0.4326 -0.0628
 6281TIP3    H118807   6.338   2.265   1.632 -1.2285 -0.0580 -0.2683
 6281TIP3    H218808   6.392   2.342   1.513  0.8704 -1.0097  0.0310
 6282TIP3   OH218809   6.604   3.983   0.369  0.4058 -0.0728 -0.5736
 6282TIP3    H118810   6.660   4.046   0.414 -0.3850  0.8521 -0.8644
 6282TIP3    H218811   6.632   3.987   0.278  0.8935 -0.7410 -0.4614
 6283TIP3   OH218812   6.957   1.706   1.311 -0.6927 -0.2236  0.3937
 6283TIP3    H118813   6.882   1.732   1.259 -1.0555 -0.6041  0.7238
 6283TIP3    H218814   7.008   1.649   1.253  1.1500  2.6343 -1.0668
 6284TIP3   OH218815   4.068   5.217   5.066  0.0112  0.5120 -0.0445
 6284TIP3    H118816   4.072   5.174   4.980  1.8732 -1.2526  0.8059
 6284TIP3    H218817   4.059   5.144   5.128 -0.4336  1.6748  1.2951
 6285TIP3   OH218818   2.607   3.309   5.466  0.5852  0.3958  0.1263
 6285TIP3    H118819   2.561   3.386   5.432  0.9524 -0.4370 -2.4918
 6285TIP3    H218820   2.688   3.304   5.415  1.7914 -0.3297  2.0037
 6286TIP3   OH218821   5.351   1.259   5.060 -0.1816 -0.5039 -0.0483
 6286TIP3    H118822   5.398   1.213   4.991 -0.4823  1.2375 -1.5068
 6286TIP3    H218823   5.280   1.305   5.014 -0.8536  0.1311  1.5267
 6287TIP3   OH218824   0.411   4.503   5.896  0.1489 -0.2606 -0.4837
 6287TIP3    H118825   0.397   4.450   5.818  1.2558  0.3458 -1.1150
 6287TIP3    H218826   0.464   4.577   5.866  0.1677  0.2485  0.7402
 6288TIP3   OH218827   4.365   6.620   2.010 -0.2224 -0.0247 -0.4693
 6288TIP3    H118828   4.443   6.640   2.062  0.1392  1.9197 -1.6622
 6288TIP3    H218829   4.381   6.532   1.976  2.9867  1.3803 -3.1646
 6289TIP3   OH218830   3.813   3.177   0.562 -0.3476 -0.4097  0.2784
 6289TIP3    H118831   3.724   3.168   0.526 -0.0742  0.3763 -0.6381
 6289TIP3    H218832   3.846   3.258   0.523  0.4670 -0.2371  1.2846
 6290TIP3   OH218833   4.013   1.883   0.636 -0.3168 -0.8124  0.2743
 6290TIP3    H118834   4.061   1.881   0.719 -0.0927  0.5544  0.1954
 6290TIP3    H218835   3.963   1.964   0.639 -0.1030 -0.6083 -1.0351
 6291TIP3   OH218836   2.257   1.065   3.317  0.5707  0.1180  0.4378
 6291TIP3    H118837   2.349   1.040   3.312  0.0950 -2.3662  2.1143
 6291TIP3    H218838   2.212   1.009   3.254  0.1069  0.9236  0.0223
 6292TIP3   OH218839   6.500   4.377   0.837  0.0140 -0.5223  0.5042
 6292TIP3    H118840   6.529   4.411   0.921 -1.6034  1.9099  0.2006
 6292TIP3    H218841   6.529   4.442   0.773 -1.2300 -0.8281 -0.4297
 6293TIP3   OH218842   5.212   2.765   1.502 -0.1216  0.0202  0.1358
 6293TIP3    H118843   5.173   2.824   1.568 -1.8020 -0.3902 -0.4358
 6293TIP3    H218844   5.221   2.820   1.424 -0.6863 -0.1790 -0.0776
 6294TIP3   OH218845   2.463   0.896   3.174  0.0165  0.4130  0.6457
 6294TIP3    H118846   2.497   0.873   3.088 -0.7114  2.0433 -0.1207
 6294TIP3    H218847   2.459   0.812   3.221  2.4736 -0.2098 -0.1133
 6295TIP3   OH218848   1.379   1.104   2.109  0.9083  0.0211 -0.0793
 6295TIP3    H118849   1.323   1.174   2.076  2.1846 -0.0986 -2.7560
 6295TIP3    H218850   1.409   1.135   2.194 -0.2324  1.7608 -0.2701
 6296TIP3   OH218851   1.660   0.640   2.665  0.0975 -0.6562 -0.0310
 6296TIP3    H118852   1.709   0.588   2.728  0.6593 -1.4801 -1.1080
 6296TIP3    H218853   1.609   0.576   2.615  0.8357 -0.2124 -1.4184
 6297TIP3   OH218854   4.578   6.474   2.258  0.2237  0.0279  0.3349
 6297TIP3    H118855   4.642   6.503   2.323 -1.4891 -0.1968  2.1999
 6297TIP3    H218856   4.575   6.546   2.194  0.1939  1.3949  1.8107
 6298TIP3   OH218857   5.357   5.137   2.468  0.2337 -0.3319  0.3800
 6298TIP3    H118858   5.404   5.053   2.466 -0.2354 -0.6076  0.7285
 6298TIP3    H218859   5.270   5.115   2.502 -0.6840 -0.0806 -1.6649
 6299TIP3   OH218860   6.627   5.857   1.390 -0.0519  0.0858 -0.0761
 6299TIP3    H118861   6.557   5.878   1.328 -0.1364 -0.1157 -0.0496
 6299TIP3    H218862   6.706   5.893   1.350 -0.1970  0.4694 -0.0228
 6300TIP3   OH218863   3.046   0.278   1.599 -0.2190  0.1688  0.4391
 6300TIP3    H118864   3.104   0.207   1.627  0.1751  0.4394  0.3228
 6300TIP3    H218865   3.022   0.255   1.509  1.7147  1.2989 -0.4159
 6301TIP3   OH218866   4.332   2.268   3.004  0.2503  0.1773  0.5955
 6301TIP3    H118867   4.393   2.283   3.076  1.5253 -0.0332 -0.3822
 6301TIP3    H218868   4.363   2.328   2.935 -2.1783  1.8867  0.8761
 6302TIP3   OH218869   1.001   1.589   1.346  0.1569  0.1845  0.3065
 6302TIP3    H118870   0.978   1.549   1.430  0.5211  1.0845  0.8493
 6302TIP3    H218871   0.919   1.590   1.297 -0.2725  0.4900  1.0159
 6303TIP3   OH218872   2.252   5.113   3.397 -0.4783 -0.1397 -0.1219
 6303TIP3    H118873   2.296   5.175   3.456  0.0700  1.2043 -1.8436
 6303TIP3    H218874   2.168   5.096   3.440  0.0166  0.5280  1.1982
 6304TIP3   OH218875   6.920   4.310   4.049  0.1173  0.1368  0.1958
 6304TIP3    H118876   6.900   4.377   4.114  1.0345  1.3663 -0.7200
 6304TIP3    H218877   6.973   4.246   4.096 -1.1116 -0.1817  1.1894
 6305TIP3   OH218878   2.935   1.878   2.192 -0.6235 -0.5900  0.3657
 6305TIP3    H118879   2.864   1.858   2.131  0.1022 -3.9310  0.4601
 6305TIP3    H218880   2.987   1.944   2.146 -3.4216  1.6358  0.1075
 6306TIP3   OH218881   3.154   4.511   2.891  0.0837 -0.0211 -0.0626
 6306TIP3    H118882   3.155   4.430   2.840 -1.1916  0.0391 -0.2043
 6306TIP3    H218883   3.247   4.533   2.903  0.4668  0.2838 -2.8750
 6307TIP3   OH218884   0.654   0.901   0.973 -0.2494  0.1194 -0.2693
 6307TIP3    H118885   0.610   0.816   0.969 -1.1596  0.5912 -0.5821
 6307TIP3    H218886   0.729   0.886   1.030 -0.5499 -0.8273 -0.0996
 6308TIP3   OH218887   2.005   6.083   4.987 -0.5933  0.3269  0.0667
 6308TIP3    H118888   2.001   5.988   5.002 -0.2115  0.3577  0.3463
 6308TIP3    H218889   1.913   6.111   4.994 -0.4657  0.3604  2.4466
 6309TIP3   OH218890   5.524   5.909   1.681 -0.4316  0.1357  0.1981
 6309TIP3    H118891   5.434   5.888   1.706 -0.3791  0.1709  0.4215
 6309TIP3    H218892   5.516   5.961   1.601 -0.6232  0.3980  0.3896
 6310TIP3   OH218893   0.610   3.308   0.312  0.1201 -0.5145  0.0004
 6310TIP3    H118894   0.635   3.215   0.318  0.4610 -0.5108 -1.1684
 6310TIP3    H218895   0.681   3.349   0.262  0.6253  0.6527  1.5993
 6311TIP3   OH218896   1.136   0.660   0.551  0.1330  0.3874 -0.0339
 6311TIP3    H118897   1.080   0.623   0.619  1.0240 -1.5141 -0.2467
 6311TIP3    H218898   1.169   0.741   0.588 -1.1974  0.5531  0.8651
 6312TIP3   OH218899   4.970   5.373   4.056  0.1465  0.0677  0.0841
 6312TIP3    H118900   4.955   5.466   4.069  0.0062 -0.2364  2.5377
 6312TIP3    H218901   4.993   5.365   3.963  2.4599  2.8308  0.2831
 6313TIP3   OH218902   1.182   4.990   2.463 -0.1263  0.0544 -0.0822
 6313TIP3    H118903   1.261   4.960   2.507 -0.0419  0.1710 -0.1543
 6313TIP3    H218904   1.143   5.053   2.524  0.5305  0.9935 -0.6102
 6314TIP3   OH218905   6.324   6.366   1.077 -0.7094  0.0583 -0.1500
 6314TIP3    H118906   6.362   6.413   1.152  0.3564  0.5747 -0.9668
 6314TIP3    H218907   6.340   6.425   1.002  1.2911 -1.8179 -1.3463
 6315TIP3   OH218908   6.647   5.609   4.884 -0.4004 -0.1599 -0.1110
 6315TIP3    H118909   6.560   5.638   4.856 -0.5465 -0.9940 -0.5668
 6315TIP3    H218910   6.629   5.540   4.949 -0.0732  0.2183  0.3867
 6316TIP3   OH218911   0.471   4.611   1.023  0.5323  0.3499 -0.1258
 6316TIP3    H118912   0.522   4.608   0.942  0.8009 -1.2206  0.0625
 6316TIP3    H218913   0.538   4.616   1.092  0.3716 -0.0918  0.0611
 6317TIP3   OH218914   2.883   5.228   4.012 -1.1691  0.5045 -0.3881
 6317TIP3    H118915   2.899   5.214   3.919  0.5229  0.7641 -0.1732
 6317TIP3    H218916   2.800   5.183   4.030 -0.0916 -2.0913 -1.4329
 6318TIP3   OH218917   2.038   5.534   0.793  0.6979  0.0065  0.1065
 6318TIP3    H118918   1.985   5.460   0.824  0.2674  0.4651  0.4771
 6318TIP3    H218919   2.049   5.518   0.699  0.9278 -0.7256  0.2515
 6319TIP3   OH218920   6.507   4.585   3.313  0.3370 -0.5827  0.5062
 6319TIP3    H118921   6.579   4.646   3.299  0.2277 -0.8846 -1.7662
 6319TIP3    H218922   6.548   4.507   3.349  0.7776  0.0497  1.4263
 6320TIP3   OH218923   2.438   1.717   5.115 -0.4205  0.0835 -0.4469
 6320TIP3    H118924   2.376   1.686   5.049 -0.9476 -0.1465  0.1473
 6320TIP3    H218925   2.482   1.791   5.073  0.3768 -1.0109 -1.6398
 6321TIP3   OH218926   6.482   5.310   1.513  0.3125 -0.2078  0.2220
 6321TIP3    H118927   6.458   5.317   1.606 -1.9655  2.3954 -0.4461
 6321TIP3    H218928   6.404   5.338   1.466  1.3750 -1.5512 -2.5491
 6322TIP3   OH218929   2.594   5.278   2.430 -0.2210 -0.7518  0.3348
 6322TIP3    H118930   2.636   5.254   2.512  2.3467  0.1336 -0.6391
 6322TIP3    H218931   2.617   5.370   2.418 -0.0301 -1.0267 -1.6561
 6323TIP3   OH218932   4.874   1.480   3.164  0.2581  0.1163 -0.3470
 6323TIP3    H118933   4.830   1.452   3.083  1.0999 -0.8167 -0.5104
 6323TIP3    H218934   4.965   1.452   3.152  0.3878 -0.0838  0.9432
 6324TIP3   OH218935   3.193   4.779   4.691  0.0751  0.3338  0.4727
 6324TIP3    H118936   3.186   4.709   4.626 -0.8335 -0.0032  0.9249
 6324TIP3    H218937   3.167   4.858   4.645 -0.2325  0.1519  0.3383
 6325TIP3   OH218938   0.224   2.290   1.293 -0.0144  0.0296  0.1037
 6325TIP3    H118939   0.261   2.363   1.242 -1.4854  0.7666  0.0187
 6325TIP3    H218940   0.294   2.265   1.352  0.2678  2.1626  0.7825
 6326TIP3   OH218941   3.459   4.283   4.589  0.3640 -0.6535  0.1147
 6326TIP3    H118942   3.402   4.210   4.611  1.4570 -2.2094 -1.8212
 6326TIP3    H218943   3.512   4.297   4.668 -0.5056 -1.2899  0.8333
 6327TIP3   OH218944   4.640   3.347   2.074  0.1467  0.7748 -0.6182
 6327TIP3    H118945   4.705   3.387   2.016  0.8156  1.1771  0.3960
 6327TIP3    H218946   4.680   3.264   2.101  0.4302  1.2059  0.3239
 6328TIP3   OH218947   6.252   3.734   4.857  0.0893 -0.5082 -0.0247
 6328TIP3    H118948   6.254   3.822   4.819  1.0799 -0.3542  0.3560
 6328TIP3    H218949   6.330   3.691   4.822  0.0675 -0.9467  0.4479
 6329TIP3   OH218950   0.975   3.032   0.449  0.2834  0.0837  0.3964
 6329TIP3    H118951   0.927   3.095   0.504  1.6935  0.8408  0.7957
 6329TIP3    H218952   1.031   3.086   0.394  1.1072 -0.7994  0.3497
 6330TIP3   OH218953   0.386   5.124   3.925  0.2715  0.2067 -0.1087
 6330TIP3    H118954   0.419   5.035   3.935 -0.5000 -0.0169  0.5117
 6330TIP3    H218955   0.362   5.151   4.013 -0.7075  0.5429 -0.4664
 6331TIP3   OH218956   4.235   3.132   0.945 -0.1556  0.8177 -0.6197
 6331TIP3    H118957   4.322   3.124   0.983 -0.6197  0.2213  0.3652
 6331TIP3    H218958   4.241   3.088   0.861  0.6932  1.4687 -0.9101
 6332TIP3   OH218959   0.195   4.564   1.833 -0.5893 -0.1298  0.4915
 6332TIP3    H118960   0.222   4.476   1.858  0.7958  0.1076 -0.0229
 6332TIP3    H218961   0.102   4.568   1.854 -0.8593 -1.9549 -0.1254
 6333TIP3   OH218962   0.056   5.753   5.604  0.2514 -0.0177 -0.0834
 6333TIP3    H118963   0.067   5.815   5.532  2.4509 -1.7204 -1.3259
 6333TIP3    H218964   0.081   5.802   5.682 -0.1150  1.2511 -0.7330
 6334TIP3   OH218965   5.213   3.924   0.718  0.1051  0.2153 -0.3646
 6334TIP3    H118966   5.256   3.865   0.655  0.0878 -0.1921  0.0042
 6334TIP3    H218967   5.285   3.972   0.758  0.1413  0.2370 -0.4555
 6335TIP3   OH218968   4.706   2.691   0.314 -0.5436  0.1839  0.2273
 6335TIP3    H118969   4.784   2.656   0.271 -1.4027 -0.0750 -1.1880
 6335TIP3    H218970   4.642   2.700   0.244 -1.3370  1.7536  1.0965
 6336TIP3   OH218971   2.909   0.915   2.182  0.1030 -0.9168  0.2489
 6336TIP3    H118972   2.827   0.962   2.166  0.1825 -1.6684 -3.1021
 6336TIP3    H218973   2.971   0.983   2.210 -0.9991  0.1138  0.2712
 6337TIP3   OH218974   0.451   6.157   2.122 -0.4004 -0.2398  0.3739
 6337TIP3    H118975   0.398   6.135   2.198 -0.0138  1.6257  1.2377
 6337TIP3    H218976   0.533   6.108   2.134 -0.6284 -0.5218  0.7733
 6338TIP3   OH218977   5.379   2.075   1.500  0.3709 -0.3585 -0.5730
 6338TIP3    H118978   5.333   2.063   1.583 -0.0908 -2.1732 -1.0502
 6338TIP3    H218979   5.471   2.082   1.525  0.2048 -0.5496  0.1192
 6339TIP3   OH218980   4.967   6.684   5.176 -0.0578 -1.1981 -0.2263
 6339TIP3    H118981   4.991   6.650   5.089  0.2568 -2.6446  0.4013
 6339TIP3    H218982   4.875   6.706   5.167  0.3962  0.4109 -1.4423
 6340TIP3   OH218983   4.519   3.132   4.362 -0.7827  0.3577  0.1905
 6340TIP3    H118984   4.443   3.100   4.410 -0.6018  0.9076  0.8588
 6340TIP3    H218985   4.542   3.060   4.303 -1.1512 -0.2430  0.7632
 6341TIP3   OH218986   6.452   5.642   4.711  0.3720  0.1621  0.3545
 6341TIP3    H118987   6.449   5.621   4.618 -1.1192 -1.1865  0.6595
 6341TIP3    H218988   6.360   5.637   4.739  0.8487  0.1111  1.9810
 6342TIP3   OH218989   5.957   3.375   2.445  0.1908 -0.3039  0.3528
 6342TIP3    H118990   5.875   3.334   2.472 -1.1909  3.2127  2.1493
 6342TIP3    H218991   6.017   3.360   2.518  0.4524 -1.0709 -0.0178
 6343TIP3   OH218992   5.669   2.165   0.832 -0.8017 -0.3179 -0.2933
 6343TIP3    H118993   5.593   2.221   0.819 -0.8026 -0.1407  0.4431
 6343TIP3    H218994   5.727   2.215   0.890  0.6876  0.3055 -2.1929
 6344TIP3   OH218995   7.027   0.598   0.896 -0.6645  0.4229 -0.1119
 6344TIP3    H118996   6.966   0.626   0.964 -3.0309 -2.8986 -0.5984
 6344TIP3    H218997   7.111   0.588   0.942 -1.0889  2.3904  1.2336
 6345TIP3   OH218998   4.350   4.737   3.410  0.0811 -0.0369 -0.4433
 6345TIP3    H118999   4.398   4.665   3.367  1.2157  0.1231  0.5172
 6345TIP3    H219000   4.352   4.715   3.503 -1.7102  0.0027 -0.3657
 6346TIP3   OH219001   6.033   1.971   3.449 -0.0338 -0.0970  0.0278
 6346TIP3    H119002   6.036   2.066   3.442 -1.0734 -0.0350  0.2981
 6346TIP3    H219003   5.996   1.954   3.535  2.8674 -0.8017  1.2626
 6347TIP3   OH219004   4.030   2.941   1.646  0.0080  0.3561  0.3259
 6347TIP3    H119005   4.095   2.887   1.691 -1.1692 -0.2890  1.3311
 6347TIP3    H219006   4.026   3.022   1.697 -0.4539  0.1099  0.6988
 6348TIP3   OH219007   5.658   0.362   3.330 -0.0082  0.8889 -0.0529
 6348TIP3    H119008   5.593   0.410   3.382  1.4484  1.0765  1.6790
 6348TIP3    H219009   5.714   0.320   3.395 -0.4063 -2.1440 -1.4879
 6349TIP3   OH219010   0.191   0.445   4.867  0.3516 -0.1652  0.0293
 6349TIP3    H119011   0.119   0.500   4.895 -0.6538 -1.3455 -0.1528
 6349TIP3    H219012   0.265   0.505   4.858 -0.5283  1.0239  0.4715
 6350TIP3   OH219013   6.741   4.674   0.330 -0.1632 -0.2681 -0.0713
 6350TIP3    H119014   6.708   4.751   0.377 -0.5585  0.0113 -0.7991
 6350TIP3    H219015   6.808   4.709   0.272 -1.5506 -0.1849 -1.6903
 6351TIP3   OH219016   6.890   2.130   2.738 -0.5815  0.1627  0.3190
 6351TIP3    H119017   6.881   2.159   2.647 -1.3337 -0.4305  0.1990
 6351TIP3    H219018   6.983   2.145   2.758 -0.3994  0.2729 -0.5517
 6352TIP3   OH219019   5.011   4.625   2.751  0.5759 -0.5707  0.0708
 6352TIP3    H119020   4.929   4.576   2.752  0.2365 -0.0519 -0.7391
 6352TIP3    H219021   5.076   4.562   2.720  0.5305 -1.0367  0.8934
 6353TIP3   OH219022   2.228   1.653   4.137  0.1068  0.0843  0.7634
 6353TIP3    H119023   2.204   1.719   4.202 -0.5147  1.4041 -0.7465
 6353TIP3    H219024   2.155   1.591   4.138  0.0939  0.1056  1.3123
 6354TIP3   OH219025   7.158   2.183   2.790 -0.0661 -0.0287  0.5434
 6354TIP3    H119026   7.252   2.199   2.785 -0.3374  1.4881 -0.5347
 6354TIP3    H219027   7.123   2.262   2.831 -1.0492  0.2630 -0.7976
 6355TIP3   OH219028   0.033   2.325   4.355 -0.3975 -0.1017 -0.2486
 6355TIP3    H119029   0.038   2.233   4.379  0.0516 -0.0799 -0.2513
 6355TIP3    H219030  -0.052   2.335   4.313 -1.7884  0.1185  2.4136
 6356TIP3   OH219031   3.001   0.080   4.219  0.1349 -0.3611  0.2794
 6356TIP3    H119032   3.015   0.003   4.163 -0.6777  0.2011 -0.7217
 6356TIP3    H219033   2.929   0.127   4.177  1.1146  1.3429  0.4402
 6357TIP3   OH219034   2.814   3.103   4.660  0.1007  0.2418 -0.2427
 6357TIP3    H119035   2.888   3.138   4.611  1.1354 -1.6715 -0.1527
 6357TIP3    H219036   2.840   3.110   4.751 -0.4733  0.8824 -0.1178
 6358TIP3   OH219037   0.048   6.710   2.796 -0.7353  0.1930 -0.4707
 6358TIP3    H119038  -0.045   6.734   2.792 -1.3504 -2.1381 -2.1451
 6358TIP3    H219039   0.079   6.721   2.706  0.3296 -0.1236 -0.1531
 6359TIP3   OH219040   6.440   6.321   3.349 -0.2870 -0.5735  0.2580
 6359TIP3    H119041   6.454   6.414   3.363 -1.4888 -0.6144  1.9593
 6359TIP3    H219042   6.499   6.298   3.277  0.6772  1.2909  0.4204
 6360TIP3   OH219043   0.255   2.606   4.988 -0.8001  0.2816  0.1415
 6360TIP3    H119044   0.280   2.698   4.992 -0.8223  0.3058 -0.2161
 6360TIP3    H219045   0.260   2.584   4.895  0.4470 -0.4209  0.3491
 6361TIP3   OH219046   6.201   2.581   3.148  0.1542 -0.1986 -0.0184
 6361TIP3    H119047   6.279   2.604   3.200 -0.5908 -0.9822  1.5117
 6361TIP3    H219048   6.236   2.535   3.072  1.4688  3.1097 -1.6054
 6362TIP3   OH219049   5.404   3.547   1.310 -0.4727 -0.1904  0.0076
 6362TIP3    H119050   5.454   3.580   1.385  0.2455  0.3638 -0.7008
 6362TIP3    H219051   5.455   3.473   1.277 -0.3109  0.1389 -0.4860
 6363TIP3   OH219052   3.290   1.072   1.901  0.4857  0.1706  0.0041
 6363TIP3    H119053   3.208   1.116   1.880 -0.9217 -2.3354 -0.0942
 6363TIP3    H219054   3.268   1.012   1.973  0.9771 -3.7161 -2.7538
 6364TIP3   OH219055   6.867   3.146   5.122  0.4265  0.5100  0.2336
 6364TIP3    H119056   6.930   3.115   5.187 -0.3958 -0.2049  0.7128
 6364TIP3    H219057   6.916   3.210   5.070  1.0819  1.1839  1.6123
 6365TIP3   OH219058   3.908   1.190   1.891 -0.0949 -0.0717 -0.1281
 6365TIP3    H119059   3.993   1.196   1.848  0.0034 -1.6960 -0.1858
 6365TIP3    H219060   3.876   1.281   1.891  2.2653  0.8732  1.2342
 6366TIP3   OH219061   6.678   2.840   0.042 -0.0716 -0.4188  0.8993
 6366TIP3    H119062   6.729   2.776   0.092 -1.6286 -1.8464  0.7638
 6366TIP3    H219063   6.617   2.787  -0.009 -1.4289  1.1921  0.7693
 6367TIP3   OH219064   3.934   5.758   5.789 -0.6698 -0.1099  0.0723
 6367TIP3    H119065   4.008   5.761   5.729 -0.6531  2.0609  0.1102
 6367TIP3    H219066   3.973   5.773   5.875 -1.0294 -0.0538  0.2266
 6368TIP3   OH219067   4.221   3.844   3.173 -0.3493 -0.2341  0.0124
 6368TIP3    H119068   4.187   3.756   3.193  0.9792 -0.5283  1.1016
 6368TIP3    H219069   4.311   3.829   3.145 -0.1145  0.7866  0.1901
 6369TIP3   OH219070   3.295   1.717   0.320  0.2316 -0.3039  0.7971
 6369TIP3    H119071   3.376   1.759   0.290  0.1378 -0.7017 -0.0239
 6369TIP3    H219072   3.312   1.697   0.412  0.3754  1.2877  1.1545
 6370TIP3   OH219073   3.562   5.027   2.859  0.1447  0.0530  0.2327
 6370TIP3    H119074   3.513   4.947   2.880 -1.4319  1.3916  1.9652
 6370TIP3    H219075   3.545   5.041   2.766  0.2129 -1.4391 -0.0427
 6371TIP3   OH219076   1.062   0.183   2.383  0.4645  0.0043 -0.0446
 6371TIP3    H119077   1.006   0.177   2.306  1.8098 -0.2558 -1.0375
 6371TIP3    H219078   1.054   0.097   2.426 -1.2953  0.5871  0.8657
 6372TIP3   OH219079   2.096   1.722   3.205  0.0510  0.1977 -0.2310
 6372TIP3    H119080   2.165   1.753   3.146  1.7355 -2.4785  0.1471
 6372TIP3    H219081   2.133   1.644   3.246 -1.7817  0.8334  2.9599
 6373TIP3   OH219082   5.940   5.621   5.119  0.2930  0.0766  0.0772
 6373TIP3    H119083   5.919   5.670   5.199 -1.6609  1.1083 -1.0078
 6373TIP3    H219084   5.862   5.629   5.065  1.4804 -0.8117 -1.8580
 6374TIP3   OH219085   4.321   3.355   5.814 -0.3766 -0.0516  0.3701
 6374TIP3    H119086   4.227   3.354   5.836 -0.2703  0.2055  0.8413
 6374TIP3    H219087   4.361   3.410   5.882  0.3212 -1.3363  1.0441
 6375TIP3   OH219088   4.672   5.102   2.372  0.4116 -0.7055  0.1218
 6375TIP3    H119089   4.652   5.179   2.424 -1.5798 -1.0158 -0.1148
 6375TIP3    H219090   4.654   5.129   2.281 -0.5502 -1.5022  0.0639
 6376TIP3   OH219091   5.106   1.028   3.695  0.4304  0.2776 -0.4406
 6376TIP3    H119092   5.164   1.060   3.764 -1.2888  0.0207  1.2038
 6376TIP3    H219093   5.064   0.951   3.733 -0.6594  0.2069 -1.7133
 6377TIP3   OH219094   6.619   0.721   0.452  0.3150  0.5678  0.2193
 6377TIP3    H119095   6.630   0.761   0.366  1.6740 -1.3169 -0.5769
 6377TIP3    H219096   6.575   0.787   0.505  0.9571  2.4230 -1.4443
 6378TIP3   OH219097   3.173   1.975   4.247 -0.6789  0.1085  0.1335
 6378TIP3    H119098   3.265   1.957   4.265 -1.2129 -1.8871  1.0917
 6378TIP3    H219099   3.144   2.027   4.322 -0.2900  0.9961 -0.3134
 6379TIP3   OH219100   2.195   5.110   1.709 -0.2519  0.0068 -0.5280
 6379TIP3    H119101   2.184   5.020   1.680 -0.6253  0.7814 -2.9601
 6379TIP3    H219102   2.289   5.128   1.701 -0.1038 -0.2728  0.4114
 6380TIP3   OH219103   0.962   1.348   3.300  0.3145  0.1985  0.2765
 6380TIP3    H119104   0.904   1.319   3.370 -1.1320 -0.0029 -0.9366
 6380TIP3    H219105   0.993   1.267   3.259  0.8870  0.3138  0.4817
 6381TIP3   OH219106   2.339   5.528   1.913  0.1312  0.6360  0.1166
 6381TIP3    H119107   2.356   5.443   1.953 -0.8820  0.4481  0.1767
 6381TIP3    H219108   2.383   5.524   1.828  3.9477  1.7387  1.8496
 6382TIP3   OH219109   5.121   4.819   3.178 -0.0744  0.1579 -0.0982
 6382TIP3    H119110   5.048   4.869   3.142  1.3466  1.1800 -1.6898
 6382TIP3    H219111   5.140   4.861   3.262  0.0428  1.2530 -0.6600
 6383TIP3   OH219112   0.228   0.021   0.497  0.2543  0.0999  0.1851
 6383TIP3    H119113   0.233   0.116   0.510 -3.9547  0.4862  0.2435
 6383TIP3    H219114   0.237   0.009   0.403 -0.3938  0.7136  0.0352
 6384TIP3   OH219115   3.199   4.681   5.144  0.2549 -0.4984 -0.1499
 6384TIP3    H119116   3.267   4.725   5.093 -0.2903 -1.4404 -1.7454
 6384TIP3    H219117   3.118   4.700   5.098 -0.4615 -0.1906  1.1910
 6385TIP3   OH219118   4.853   6.101   0.842 -0.6136 -0.1943 -0.5392
 6385TIP3    H119119   4.860   6.165   0.771 -0.1629 -0.3210 -0.6081
 6385TIP3    H219120   4.934   6.051   0.838 -0.6177 -0.2511  0.0195
 6386TIP3   OH219121   6.108   0.255   1.820 -0.3211  0.1041  0.0903
 6386TIP3    H119122   6.146   0.306   1.749  0.6366  1.2906  1.3846
 6386TIP3    H219123   6.029   0.303   1.844 -1.1288 -0.7869 -0.7340
 6387TIP3   OH219124   0.519   2.130   0.268 -0.8104 -0.5729  0.2587
 6387TIP3    H119125   0.532   2.035   0.269 -1.4043 -0.6742  1.7185
 6387TIP3    H219126   0.531   2.157   0.359  1.1878  1.0526 -0.4154
 6388TIP3   OH219127   0.257   0.770   5.159  0.7578  0.1992 -0.3377
 6388TIP3    H119128   0.320   0.716   5.207 -0.5504  0.1937  1.4757
 6388TIP3    H219129   0.272   0.859   5.193  0.9237  0.4834 -1.1449
 6389TIP3   OH219130   5.494   3.192   3.442  0.1334 -0.1376  1.1157
 6389TIP3    H119131   5.565   3.210   3.504  3.7851 -1.1374 -2.3721
 6389TIP3    H219132   5.492   3.096   3.435 -0.7651 -0.0680  0.2360
 6390TIP3   OH219133   0.130   2.972   5.212 -0.2057  0.2572  0.4609
 6390TIP3    H119134   0.189   3.023   5.157  0.9951 -1.4810  0.0667
 6390TIP3    H219135   0.173   2.970   5.297 -0.6195  0.5005  0.6794
 6391TIP3   OH219136   3.299   0.905   4.458  0.0539 -0.4177 -0.8928
 6391TIP3    H119137   3.218   0.884   4.503  0.0513  1.6755  0.1617
 6391TIP3    H219138   3.275   0.968   4.391  0.7156 -0.2031 -0.9422
 6392TIP3   OH219139   2.000   4.201   2.793 -0.1950  0.5990  0.3455
 6392TIP3    H119140   1.933   4.204   2.861 -0.6002 -0.9027  0.0415
 6392TIP3    H219141   1.956   4.232   2.714 -0.1774  0.7626  0.3978
 6393TIP3   OH219142   0.343   3.645   3.778  0.2697 -0.0536  0.7921
 6393TIP3    H119143   0.419   3.625   3.723 -0.5859  1.3732 -1.0229
 6393TIP3    H219144   0.374   3.712   3.838 -0.1695  2.7928 -1.9072
 6394TIP3   OH219145   1.691   2.038   3.253  0.0973  0.1265  0.1384
 6394TIP3    H119146   1.701   2.097   3.178  0.3415  0.7328  0.6456
 6394TIP3    H219147   1.778   2.030   3.290 -0.1142  0.2484  0.6724
 6395TIP3   OH219148   3.538   4.085   2.524 -0.4407  0.2621  0.2461
 6395TIP3    H119149   3.468   4.127   2.473 -0.3844  0.8309  0.6389
 6395TIP3    H219150   3.618   4.106   2.477 -0.6176 -1.4256 -0.9128
 6396TIP3   OH219151   4.239   0.613   3.012 -0.3274 -0.5936 -0.1410
 6396TIP3    H119152   4.272   0.702   3.018 -0.8745 -0.3303 -0.8983
 6396TIP3    H219153   4.152   0.616   3.053 -0.3646 -0.7762 -0.2024
 6397TIP3   OH219154   0.965   4.520   0.118 -0.5520 -0.2788  0.0424
 6397TIP3    H119155   0.934   4.496   0.206 -2.4460 -3.1165 -1.2114
 6397TIP3    H219156   1.035   4.458   0.099  0.2114  0.6595 -0.2680
 6398TIP3   OH219157   2.856   3.090   4.985  0.3087 -0.2139 -0.2178
 6398TIP3    H119158   2.764   3.070   5.005 -0.1314 -0.4571 -2.2798
 6398TIP3    H219159   2.899   3.005   4.984  0.0009 -0.3675 -1.7350
 6399TIP3   OH219160   4.301   6.493   4.571  0.0894  0.0095 -0.2242
 6399TIP3    H119161   4.380   6.546   4.577 -0.6960  1.0776  1.8630
 6399TIP3    H219162   4.252   6.514   4.651 -0.6127 -3.3529  0.4002
 6400TIP3   OH219163   3.679   5.718   2.160  0.0228  0.4287 -0.3056
 6400TIP3    H119164   3.594   5.674   2.164  0.1940  0.1044 -0.2135
 6400TIP3    H219165   3.743   5.647   2.154  0.2129  0.6799 -1.7809
 6401TIP3   OH219166   6.326   1.104   0.533  0.3518  0.0802  0.1892
 6401TIP3    H119167   6.382   1.171   0.573  0.4891  0.0364  0.0737
 6401TIP3    H219168   6.267   1.153   0.476  0.2819  0.1258  0.3019
 6402TIP3   OH219169   2.886   3.041   1.318 -0.0659 -0.3694 -0.3931
 6402TIP3    H119170   2.942   3.107   1.276 -1.6875  0.9479 -0.5968
 6402TIP3    H219171   2.867   3.077   1.404 -1.5059 -0.2293 -0.7533
 6403TIP3   OH219172   3.186   4.512   0.223 -0.3295  0.3157  0.1859
 6403TIP3    H119173   3.176   4.607   0.233  0.4982  0.1666  4.4340
 6403TIP3    H219174   3.096   4.479   0.224 -0.5960  0.9775  1.4652
 6404TIP3   OH219175   1.577   6.133   2.387 -0.4284  0.3011  0.1817
 6404TIP3    H119176   1.671   6.146   2.402 -0.0837  0.4638 -1.7812
 6404TIP3    H219177   1.536   6.156   2.470  1.2610  0.2266  1.0957
 6405TIP3   OH219178   3.306   0.490   3.258 -0.5626 -0.1608 -0.0709
 6405TIP3    H119179   3.337   0.575   3.226 -0.0891  1.0092  3.1335
 6405TIP3    H219180   3.227   0.511   3.308  1.0923 -1.0572  3.1691
 6406TIP3   OH219181   3.348   0.916   4.912  0.5095  0.3326  0.5036
 6406TIP3    H119182   3.299   0.846   4.869  0.4329  0.8023 -0.1964
 6406TIP3    H219183   3.287   0.951   4.977 -0.0259  0.7819 -0.2283
 6407TIP3   OH219184   0.200   4.924   0.527 -0.3516  0.2105 -0.3563
 6407TIP3    H119185   0.141   4.937   0.601 -0.1201  0.4595 -0.2110
 6407TIP3    H219186   0.283   4.897   0.567 -0.5786 -0.8835 -0.6058
 6408TIP3   OH219187   5.281   3.936   4.042 -0.0046 -0.0663 -0.1460
 6408TIP3    H119188   5.358   3.890   4.076  1.0906  1.6808 -0.1746
 6408TIP3    H219189   5.214   3.868   4.036  1.4707 -1.6127  0.0270
 6409TIP3   OH219190   4.686   2.140   1.071 -0.7960  0.0792  0.7398
 6409TIP3    H119191   4.779   2.148   1.089 -0.2880 -0.9986 -1.1648
 6409TIP3    H219192   4.644   2.195   1.138  1.2634  1.8223  0.7012
 6410TIP3   OH219193   0.854   0.162   0.461 -0.0711  0.1006  0.1881
 6410TIP3    H119194   0.791   0.092   0.476  1.4110 -1.2744  0.3327
 6410TIP3    H219195   0.886   0.185   0.549 -1.1617  1.6067  0.2293
 6411TIP3   OH219196   5.145   3.617   5.061  0.5710  0.1854 -1.0271
 6411TIP3    H119197   5.051   3.624   5.078  0.5556 -1.0461 -0.4812
 6411TIP3    H219198   5.152   3.619   4.965  0.2825  3.0429 -1.0767
 6412TIP3   OH219199   1.149   1.590   1.767  0.7045  0.5547 -0.2337
 6412TIP3    H119200   1.185   1.679   1.764  0.3379  0.6837 -0.9340
 6412TIP3    H219201   1.218   1.538   1.810  1.0286  1.1219 -0.0568
 6413TIP3   OH219202   5.407   4.423   0.860 -0.1102 -0.6369 -0.7416
 6413TIP3    H119203   5.441   4.335   0.876 -0.5607 -1.0235 -1.7474
 6413TIP3    H219204   5.361   4.446   0.941 -0.1784 -1.4263 -0.5434
 6414TIP3   OH219205   3.226   5.546   3.236 -0.2485  0.2119 -0.4068
 6414TIP3    H119206   3.245   5.452   3.233 -1.0555  0.0097  0.3601
 6414TIP3    H219207   3.183   5.565   3.153 -0.6953 -0.2445 -0.2856
 6415TIP3   OH219208   2.473   2.658   1.794 -0.0915  0.4692  0.2004
 6415TIP3    H119209   2.495   2.670   1.702  1.8726 -2.4194  0.1717
 6415TIP3    H219210   2.525   2.723   1.840  0.3444  0.6991 -0.6099
 6416TIP3   OH219211   1.771   2.428   4.688 -0.3228 -0.1792  0.1351
 6416TIP3    H119212   1.832   2.459   4.622  0.0163  1.8727  1.3296
 6416TIP3    H219213   1.721   2.359   4.645 -0.0183  0.9846 -2.2013
 6417TIP3   OH219214   3.096   1.845   0.847  0.1694 -0.7271  0.6010
 6417TIP3    H119215   3.172   1.860   0.904 -1.3288  1.5589  2.1400
 6417TIP3    H219216   3.030   1.807   0.904 -0.9974  0.5686  0.1574
 6418TIP3   OH219217   4.267   3.520   4.419 -0.4832 -0.2633 -0.2159
 6418TIP3    H119218   4.224   3.575   4.354 -1.5987 -1.8054 -0.8503
 6418TIP3    H219219   4.331   3.469   4.369 -1.7811 -1.9166 -0.2810
 6419TIP3   OH219220   6.549   0.209   3.895 -0.4076 -0.4128 -0.2525
 6419TIP3    H119221   6.542   0.280   3.959  1.1130 -1.6184  1.3315
 6419TIP3    H219222   6.474   0.222   3.837 -2.1171  0.4740  2.0281
 6420TIP3   OH219223   4.790   1.968   2.482 -0.3098  0.3902  0.6347
 6420TIP3    H119224   4.886   1.968   2.484 -0.1853 -0.5855 -1.9675
 6420TIP3    H219225   4.765   1.901   2.546  0.7334  0.4783  1.1553
 6421TIP3   OH219226   4.620   3.088   2.696  0.1320 -0.4959  0.2408
 6421TIP3    H119227   4.579   3.106   2.781  0.3442  2.3501 -0.1650
 6421TIP3    H219228   4.578   3.149   2.636  1.1780 -1.3001 -1.3617
 6422TIP3   OH219229   5.542   2.333   5.589 -0.6314 -0.1069  0.1872
 6422TIP3    H119230   5.537   2.427   5.604 -0.4364  0.2358 -1.5733
 6422TIP3    H219231   5.629   2.309   5.620 -0.1872  0.5567 -0.4973
 6423TIP3   OH219232   1.598   2.969   2.228 -0.1766 -0.0319 -0.0539
 6423TIP3    H119233   1.673   3.006   2.276 -0.8762  0.8968  0.3600
 6423TIP3    H219234   1.613   2.996   2.137 -0.5268  1.0834  0.1956
 6424TIP3   OH219235   0.289   6.568   1.267  0.5541 -0.0687 -0.0972
 6424TIP3    H119236   0.353   6.499   1.284 -0.4824 -1.3268 -1.1866
 6424TIP3    H219237   0.214   6.545   1.321  0.0204 -0.0631 -0.8307
 6425TIP3   OH219238   2.879   3.168   2.897 -0.2801  0.2372  0.2136
 6425TIP3    H119239   2.790   3.202   2.888 -0.1329  1.0365  1.4061
 6425TIP3    H219240   2.916   3.219   2.970  1.2141  0.0591 -0.3907
 6426TIP3   OH219241   5.756   4.415   4.724 -0.1484  0.0265 -0.3727
 6426TIP3    H119242   5.829   4.475   4.741 -1.0378  0.8099  0.8527
 6426TIP3    H219243   5.685   4.446   4.780 -0.6832 -2.1490  0.2568
 6427TIP3   OH219244   6.256   0.637   1.014 -0.6526  0.2976 -0.7470
 6427TIP3    H119245   6.220   0.634   1.103 -0.5762  2.7799 -0.5474
 6427TIP3    H219246   6.187   0.678   0.962  0.9583  3.2750 -0.7747
 6428TIP3   OH219247   4.745   5.004   3.720 -0.3635  0.1308  0.0910
 6428TIP3    H119248   4.652   4.984   3.723 -0.1594 -1.0643 -0.6679
 6428TIP3    H219249   4.784   4.928   3.677  0.6050  1.8463 -2.2467
 6429TIP3   OH219250   5.409   3.035   0.962 -0.1937 -0.1343 -0.2639
 6429TIP3    H119251   5.406   3.074   1.049  0.3367  0.2892 -0.4319
 6429TIP3    H219252   5.341   3.082   0.912 -0.9396 -0.8122  0.0869
 6430TIP3   OH219253   0.289   2.910   1.902  0.1492  0.2314  0.5169
 6430TIP3    H119254   0.238   2.830   1.909 -1.0186  0.9340  0.2824
 6430TIP3    H219255   0.230   2.979   1.932  0.6106  1.1941 -0.6852
 6431TIP3   OH219256   2.005   2.969   2.990  0.2616 -0.6047  0.6381
 6431TIP3    H119257   2.097   2.988   3.008 -0.1933  1.3326  1.0985
 6431TIP3    H219258   1.970   3.050   2.951 -1.5923 -0.7711  1.8154
 6432TIP3   OH219259   2.305   1.968   4.774 -0.1388 -0.0421  0.5277
 6432TIP3    H119260   2.319   2.016   4.856  2.1830 -1.1733  0.8886
 6432TIP3    H219261   2.231   1.910   4.793  0.9639 -0.9961  2.2190
 6433TIP3   OH219262   0.915   4.083   2.153 -0.1244 -0.0179 -0.3480
 6433TIP3    H119263   0.882   4.123   2.072 -0.4515 -2.2912 -1.3972
 6433TIP3    H219264   0.899   3.990   2.143 -0.0594 -0.4100  2.3241
 6434TIP3   OH219265   0.122   6.309   2.136  0.0624 -0.2108  0.2091
 6434TIP3    H119266   0.206   6.349   2.114  0.9427 -1.5492  0.9710
 6434TIP3    H219267   0.095   6.264   2.056  0.7757 -0.9102  0.3437
 6435TIP3   OH219268   3.575   2.059   2.145 -0.1683  0.3327  0.1196
 6435TIP3    H119269   3.594   1.965   2.147 -1.0769  0.1416  0.2519
 6435TIP3    H219270   3.652   2.100   2.184  0.9644 -0.2211 -1.4271
 6436TIP3   OH219271   5.545   3.678   3.896  0.0485 -0.1811 -0.4962
 6436TIP3    H119272   5.609   3.734   3.852 -0.8588  1.2836 -0.0145
 6436TIP3    H219273   5.544   3.709   3.986 -1.3046 -0.1888 -0.4885
 6437TIP3   OH219274   5.417   2.915   2.466 -0.0386  0.0628 -0.4381
 6437TIP3    H119275   5.436   2.930   2.374 -1.1324 -0.5053 -0.7757
 6437TIP3    H219276   5.327   2.945   2.478  0.2647  0.6188  0.5695
 6438TIP3   OH219277   0.092   4.297   2.850  0.4639 -0.4986  0.0095
 6438TIP3    H119278   0.080   4.337   2.936  0.5905 -0.6369  0.0907
 6438TIP3    H219279   0.033   4.347   2.792  0.6612 -0.1548  0.0984
 6439TIP3   OH219280   6.401   4.916   5.255  0.3096  0.0290  0.5428
 6439TIP3    H119281   6.416   4.858   5.329 -1.2077  0.4471  1.2087
 6439TIP3    H219282   6.411   5.004   5.291  0.9163  0.2252 -0.0767
 6440TIP3   OH219283   6.087   0.898   5.591 -0.0308 -0.2006 -0.1977
 6440TIP3    H119284   6.098   0.932   5.502 -0.8822  0.2304 -0.1507
 6440TIP3    H219285   6.021   0.955   5.630  0.8728  0.0862  0.9727
 6441TIP3   OH219286   4.375   1.720   1.006  0.0541  0.1973 -0.1790
 6441TIP3    H119287   4.379   1.646   0.945  0.3390  0.4684 -0.4925
 6441TIP3    H219288   4.466   1.730   1.036  0.6587  2.2920 -2.3943
 6442TIP3   OH219289   2.523   2.118   2.051  0.0590  0.2940  0.0073
 6442TIP3    H119290   2.464   2.049   2.080 -0.5867  0.2968 -1.2007
 6442TIP3    H219291   2.560   2.085   1.969  0.8172  0.7969  0.1425
 6443TIP3   OH219292   4.824   0.612   5.099 -0.1112 -0.5801 -0.0845
 6443TIP3    H119293   4.902   0.667   5.093 -1.1106  0.9473  0.1604
 6443TIP3    H219294   4.820   0.566   5.015 -0.3369  1.3205 -1.1762
 6444TIP3   OH219295   5.013   4.677   1.299  0.4356 -0.0429  0.5977
 6444TIP3    H119296   5.084   4.622   1.267 -0.1751 -0.1053 -0.7117
 6444TIP3    H219297   4.956   4.616   1.347  0.0976 -0.4443 -0.2950
 6445TIP3   OH219298   1.785   5.277   3.705  0.0818 -0.1095  0.9571
 6445TIP3    H119299   1.769   5.372   3.707 -0.5597 -0.1830 -0.0615
 6445TIP3    H219300   1.880   5.269   3.695  0.5381  0.3698  3.9374
 6446TIP3   OH219301   6.444   0.614   1.843  0.7821  0.5581 -0.4133
 6446TIP3    H119302   6.417   0.523   1.833  1.4008  0.2133  0.9682
 6446TIP3    H219303   6.538   0.611   1.855  0.4387  0.9533  3.7104
 6447TIP3   OH219304   2.071   2.737   5.707 -0.9064  0.5532 -0.9954
 6447TIP3    H119305   2.153   2.773   5.738 -1.4878 -0.6228  2.3660
 6447TIP3    H219306   2.096   2.655   5.663 -0.2454 -0.8327  1.7138
 6448TIP3   OH219307   6.533   2.247   4.182  0.1728 -0.1352  0.3554
 6448TIP3    H119308   6.440   2.235   4.165  0.0564  0.7824  0.3136
 6448TIP3    H219309   6.575   2.172   4.139 -0.4061  0.2884 -0.9889
 6449TIP3   OH219310   6.235   1.291   3.440 -0.1204 -0.0327 -0.5860
 6449TIP3    H119311   6.269   1.343   3.513 -2.2790  0.3764  0.2046
 6449TIP3    H219312   6.238   1.351   3.365  1.8472 -0.3653 -0.8315
 6450TIP3   OH219313   4.392   5.598   4.409  0.1880 -0.2141  0.0141
 6450TIP3    H119314   4.384   5.504   4.428  0.8061 -0.4616 -0.9087
 6450TIP3    H219315   4.305   5.633   4.426 -0.8757 -1.4642 -2.3721
 6451TIP3   OH219316   7.116   2.529   4.504 -0.3437 -0.3467  0.1828
 6451TIP3    H119317   7.138   2.622   4.504 -1.0894 -0.1595 -0.2116
 6451TIP3    H219318   7.196   2.486   4.476 -0.5081  0.3373 -1.5097
 6452TIP3   OH219319   5.571   3.065   1.775 -0.3913  0.2133  0.2248
 6452TIP3    H119320   5.597   3.122   1.703 -0.9870 -0.2052 -0.3309
 6452TIP3    H219321   5.544   2.984   1.733  0.0012 -0.3268  0.9733
 6453TIP3   OH219322   2.087   3.971   0.636  0.1298 -0.0383 -0.3169
 6453TIP3    H119323   2.037   3.947   0.558 -0.4946 -0.7887  0.2875
 6453TIP3    H219324   2.107   3.887   0.677  2.6582  0.1732 -0.9826
 6454TIP3   OH219325   2.693   6.322   1.080 -0.3765 -0.3658  0.3638
 6454TIP3    H119326   2.754   6.318   1.005 -0.9028 -0.0025 -0.0899
 6454TIP3    H219327   2.659   6.411   1.079  2.5285  0.9831  3.4124
 6455TIP3   OH219328   3.889   2.998   5.014  0.1113  0.2161  0.3312
 6455TIP3    H119329   3.870   3.050   4.936 -0.7491 -0.4555  0.0852
 6455TIP3    H219330   3.951   2.932   4.984 -0.2526 -0.0687  0.2072
 6456TIP3   OH219331   6.792   4.086   2.039 -0.5772 -0.1712  0.3142
 6456TIP3    H119332   6.829   4.062   1.954  0.8229 -0.6189  1.0247
 6456TIP3    H219333   6.794   4.182   2.040  0.4168 -0.1849  0.2678
 6457TIP3   OH219334   1.659   1.042   3.857 -0.8856  0.3703  0.0105
 6457TIP3    H119335   1.604   1.081   3.789 -0.4483  0.9094 -0.0382
 6457TIP3    H219336   1.639   1.092   3.936 -1.7026 -0.5227  0.3949
 6458TIP3   OH219337   4.217   1.591   1.972 -0.0590 -0.3541  0.1419
 6458TIP3    H119338   4.137   1.546   1.945  0.0652 -0.5050  0.0244
 6458TIP3    H219339   4.285   1.524   1.967  0.3961  0.1815 -1.3551
 6459TIP3   OH219340   0.153   6.283   0.620  0.0723  0.1832 -0.3059
 6459TIP3    H119341   0.130   6.265   0.529 -0.6454  1.0258 -0.2963
 6459TIP3    H219342   0.081   6.336   0.654 -0.2199 -1.0143  1.0825
 6460TIP3   OH219343   4.632   2.569   0.569 -0.4188  0.2845  0.5717
 6460TIP3    H119344   4.683   2.514   0.510  0.6528  0.8453  0.9463
 6460TIP3    H219345   4.541   2.546   0.551 -0.0381 -0.7895 -0.0686
 6461TIP3   OH219346   0.079   1.504   4.304  0.0431  0.0969 -0.6363
 6461TIP3    H119347   0.091   1.526   4.211  0.4516  2.9888  0.0031
 6461TIP3    H219348   0.165   1.520   4.343 -0.1221 -1.1193  0.2651
 6462TIP3   OH219349   3.890   6.704   0.551 -0.1686  0.0183  0.1806
 6462TIP3    H119350   3.966   6.757   0.526 -0.0386  0.1776  0.8832
 6462TIP3    H219351   3.832   6.765   0.597  0.1034 -0.4758  1.2323
 6463TIP3   OH219352   2.254   5.558   3.103  0.6336  0.0603 -0.5013
 6463TIP3    H119353   2.279   5.466   3.105 -1.0924 -0.5558 -2.6504
 6463TIP3    H219354   2.326   5.602   3.059  1.0534 -0.4139 -0.2945
 6464TIP3   OH219355   5.630   2.525   1.252 -0.4125  0.2488  0.0244
 6464TIP3    H119356   5.629   2.430   1.259  0.1586  0.1521 -0.9730
 6464TIP3    H219357   5.550   2.547   1.204 -0.4253  0.2542  0.0485
 6465TIP3   OH219358   1.512   1.190   0.521 -0.5622  0.2428 -0.2893
 6465TIP3    H119359   1.428   1.219   0.556 -1.0505 -1.9969  0.5347
 6465TIP3    H219360   1.577   1.236   0.575 -1.3022 -0.3605  1.1792
 6466TIP3   OH219361   5.082   0.930   2.570  0.5211  0.0089 -0.4231
 6466TIP3    H119362   5.016   0.903   2.635 -0.2515  1.0423 -0.7559
 6466TIP3    H219363   5.032   0.940   2.489  1.5426 -1.6698 -1.3123
 6467TIP3   OH219364   3.069   4.638   1.215  0.1720  0.2423  0.1539
 6467TIP3    H119365   3.068   4.699   1.289 -0.7968  0.1358  0.2419
 6467TIP3    H219366   3.099   4.692   1.141 -0.0304  0.6606  0.3718
 6468TIP3   OH219367   1.487   4.579   3.183 -0.0146 -0.6788 -0.3050
 6468TIP3    H119368   1.515   4.488   3.171  0.4163 -0.5517 -0.2900
 6468TIP3    H219369   1.545   4.613   3.252  1.4086  0.2811 -1.8834
 6469TIP3   OH219370   5.311   3.652   0.528  0.2251  0.4666 -0.2157
 6469TIP3    H119371   5.312   3.608   0.613  1.8519 -2.4660 -1.6048
 6469TIP3    H219372   5.240   3.609   0.479  1.1410  0.1007 -1.2567
 6470TIP3   OH219373   1.649   0.050   5.258 -0.0556  0.3787  0.3610
 6470TIP3    H119374   1.651  -0.029   5.312 -1.4956 -0.7244 -1.0954
 6470TIP3    H219375   1.739   0.081   5.258 -0.0159  0.5868  3.5257
 6471TIP3   OH219376   1.450   6.197   0.103  0.3868  0.0202  0.1190
 6471TIP3    H119377   1.463   6.290   0.121 -0.7464  0.3986 -0.8550
 6471TIP3    H219378   1.362   6.192   0.065  0.0354 -1.5799  1.0599
 6472TIP3   OH219379   0.670   5.965   4.208  0.6386 -0.5931  0.1471
 6472TIP3    H119380   0.575   5.970   4.219  0.4549 -0.7502 -1.1903
 6472TIP3    H219381   0.687   6.014   4.129  1.5799 -1.2489 -0.0711
 6473TIP3   OH219382   2.435   3.839   1.181  0.1960  0.3392 -0.6974
 6473TIP3    H119383   2.495   3.862   1.109  1.5639 -0.6225  0.0898
 6473TIP3    H219384   2.474   3.880   1.258 -0.9896  0.9450 -0.4018
 6474TIP3   OH219385   2.251   5.754   1.509 -0.1172  0.5837  0.6401
 6474TIP3    H119386   2.219   5.740   1.598  0.3697 -0.1554  0.7043
 6474TIP3    H219387   2.221   5.678   1.460 -0.0187  0.7792  0.2723
 6475TIP3   OH219388   4.664   4.144   0.259 -0.0277  0.0606  0.2312
 6475TIP3    H119389   4.620   4.163   0.341 -1.0803 -0.8176 -0.1112
 6475TIP3    H219390   4.726   4.074   0.280 -0.2623 -0.1293  0.2904
 6476TIP3   OH219391   6.577   5.024   0.602  0.0843 -0.3684 -0.4326
 6476TIP3    H119392   6.576   5.120   0.599 -1.4683 -0.2745  1.1891
 6476TIP3    H219393   6.648   5.002   0.663 -0.7203 -0.1266  0.6308
 6477TIP3   OH219394   5.842   1.156   5.366  1.0116  0.3354 -0.7872
 6477TIP3    H119395   5.881   1.243   5.371 -0.2952  0.8932  3.1137
 6477TIP3    H219396   5.751   1.172   5.339  0.8155  0.2065 -0.2290
 6478TIP3   OH219397   1.081   5.315   3.429  0.4863  0.3393  0.4397
 6478TIP3    H119398   1.052   5.326   3.520 -0.4939  0.1552  0.1608
 6478TIP3    H219399   1.043   5.390   3.382 -0.7018 -0.6178 -0.1874
 6479TIP3   OH219400   4.849   4.955   4.453  0.2707  0.5738 -0.0100
 6479TIP3    H119401   4.777   5.017   4.442  1.4172  2.0479  0.5570
 6479TIP3    H219402   4.879   4.937   4.364  0.7885  1.9015 -0.1220
 6480TIP3   OH219403   6.452   2.147   4.689  0.1922 -0.0462 -0.0766
 6480TIP3    H119404   6.428   2.064   4.648  0.1672  0.3923 -0.9796
 6480TIP3    H219405   6.408   2.145   4.774 -1.2179 -0.2284 -0.7844
 6481TIP3   OH219406   6.869   3.340   1.835 -0.2910  0.3208 -0.1844
 6481TIP3    H119407   6.906   3.308   1.752 -0.7950 -1.2535  0.1552
 6481TIP3    H219408   6.843   3.430   1.816 -3.0357 -0.8184 -2.6966
 6482TIP3   OH219409   3.625   3.581   2.223 -0.2911  0.4427  0.6925
 6482TIP3    H119410   3.673   3.519   2.278 -0.1285 -0.0979 -0.0478
 6482TIP3    H219411   3.560   3.528   2.177  0.3612  0.6566 -0.5400
 6483TIP3   OH219412   4.196   1.734   5.471 -0.0702 -0.4606 -0.0207
 6483TIP3    H119413   4.144   1.812   5.486 -0.5132 -0.5403 -1.0762
 6483TIP3    H219414   4.284   1.767   5.454  0.1688 -0.3088  1.4057
 6484TIP3   OH219415   3.956   4.651   4.766  0.4032  0.3359  0.2967
 6484TIP3    H119416   4.040   4.610   4.746 -0.5572 -1.8906  0.5028
 6484TIP3    H219417   3.916   4.668   4.680  1.1980  1.7356  0.1935
 6485TIP3   OH219418   5.408   0.575   5.535  0.0152 -0.0814 -0.6468
 6485TIP3    H119419   5.344   0.642   5.510  1.5182  1.5293 -0.3039
 6485TIP3    H219420   5.369   0.531   5.611 -0.1913  1.6857  0.3133
 6486TIP3   OH219421   0.703   1.356   0.623 -0.1874 -0.6961  0.2480
 6486TIP3    H119422   0.765   1.413   0.668  2.8335 -2.0416 -1.8240
 6486TIP3    H219423   0.690   1.397   0.538 -2.0406 -0.5684  0.5597
 6487TIP3   OH219424   4.851   4.567   3.754 -0.0577 -0.7924  0.2350
 6487TIP3    H119425   4.927   4.524   3.794  0.8328  0.1908 -0.3501
 6487TIP3    H219426   4.784   4.499   3.753  0.8886 -1.7751  0.5338
 6488TIP3   OH219427   3.023   6.222   5.200  0.7072  0.0527  0.2317
 6488TIP3    H119428   2.947   6.271   5.169  0.6034  0.2911  0.8542
 6488TIP3    H219429   3.014   6.136   5.158  1.0657  0.6510 -1.1286
 6489TIP3   OH219430   0.654   1.824   1.892  0.6966  0.2368 -0.3934
 6489TIP3    H119431   0.634   1.750   1.835 -1.1315  1.5353 -1.5819
 6489TIP3    H219432   0.690   1.891   1.833  2.7306  0.2029  0.7194
 6490TIP3   OH219433   0.065   0.283   3.764 -0.2833 -0.4460  0.3643
 6490TIP3    H119434   0.064   0.362   3.709 -1.3636 -0.7769 -0.1225
 6490TIP3    H219435   0.097   0.313   3.849 -0.1578  0.4055  0.0295
 6491TIP3   OH219436   6.435   5.750   0.806  0.2353 -0.1874 -0.2587
 6491TIP3    H119437   6.390   5.692   0.867  1.0278 -1.0637 -0.4795
 6491TIP3    H219438   6.365   5.787   0.752 -0.6662  1.7810  2.0669
 6492TIP3   OH219439   5.667   6.574   3.041  0.3323 -0.0961  0.1850
 6492TIP3    H119440   5.610   6.522   3.098 -0.8174 -0.4049 -1.1777
 6492TIP3    H219441   5.710   6.509   2.985  3.0583  0.0103  1.9644
 6493TIP3   OH219442   6.052   6.757   1.180 -0.4600  0.1243  0.2840
 6493TIP3    H119443   6.040   6.676   1.230 -0.0984 -0.5104 -0.6200
 6493TIP3    H219444   6.033   6.732   1.089 -0.8322  1.1794  0.0526
 6494TIP3   OH219445   0.353   6.475   0.610  0.6782 -0.7146  0.0198
 6494TIP3    H119446   0.359   6.475   0.705  0.3926 -1.7026  0.0470
 6494TIP3    H219447   0.289   6.407   0.590 -0.6235  0.6970 -0.8106
 6495TIP3   OH219448   4.524   4.656   0.600  0.7279  0.5016  0.0456
 6495TIP3    H119449   4.580   4.704   0.661  1.0437  0.6096 -0.3318
 6495TIP3    H219450   4.556   4.680   0.513  0.3246  0.2896 -0.1647
 6496TIP3   OH219451   4.057   3.484   2.906 -0.2170  0.1381  0.1354
 6496TIP3    H119452   4.015   3.545   2.844 -1.3542 -0.0592  0.6774
 6496TIP3    H219453   3.988   3.464   2.969  0.5431 -0.6838  0.7202
 6497TIP3   OH219454   7.074   5.187   2.290 -0.3138  0.1576  0.5498
 6497TIP3    H119455   7.155   5.146   2.321  0.6328  2.1214  0.7845
 6497TIP3    H219456   7.057   5.258   2.351  0.4371  2.8244 -2.1277
 6498TIP3   OH219457   6.652   2.827   2.014  0.1251 -0.4335  0.2631
 6498TIP3    H119458   6.620   2.741   2.040 -1.1702 -0.4543 -1.2923
 6498TIP3    H219459   6.735   2.810   1.970 -0.5571 -0.9906 -0.8256
 6499TIP3   OH219460   5.559   1.492   2.474  0.3821 -0.2231  0.0010
 6499TIP3    H119461   5.474   1.536   2.476  0.0728 -0.7954 -0.3039
 6499TIP3    H219462   5.540   1.402   2.499  0.7803 -0.5408 -0.7968
 6500TIP3   OH219463   0.470   2.912   3.617 -0.0318  0.0066  0.6634
 6500TIP3    H119464   0.437   2.822   3.615  0.6593 -0.2991  1.8679
 6500TIP3    H219465   0.500   2.925   3.707 -0.8617  1.7311  0.7424
 6501TIP3   OH219466   0.552   4.801   5.184 -0.2821  0.0770 -0.1715
 6501TIP3    H119467   0.616   4.750   5.134 -0.4403  0.6217 -0.9495
 6501TIP3    H219468   0.475   4.745   5.189  1.0612 -1.7169  3.0712
 6502TIP3   OH219469   4.140   0.827   2.479 -0.1206  0.0637 -0.0040
 6502TIP3    H119470   4.184   0.898   2.526  0.2008 -1.2947  1.8740
 6502TIP3    H219471   4.078   0.871   2.421  0.5963  1.8839  0.5320
 6503TIP3   OH219472   5.408   1.595   1.026 -0.1259  0.3548 -0.2923
 6503TIP3    H119473   5.455   1.595   1.109  2.5960 -1.2399 -1.7126
 6503TIP3    H219474   5.402   1.687   1.001  1.6665  0.6445  0.2646
 6504TIP3   OH219475   1.045   0.138   4.444 -0.1916 -0.2602 -0.5287
 6504TIP3    H119476   1.071   0.154   4.353  1.1477  2.0511  0.1919
 6504TIP3    H219477   1.089   0.206   4.494 -2.2069 -0.4684  1.6882
 6505TIP3   OH219478   6.569   3.165   2.450 -0.5802 -0.0779  0.2655
 6505TIP3    H119479   6.616   3.087   2.479 -1.1048 -1.0635 -1.3713
 6505TIP3    H219480   6.610   3.237   2.497  0.7205 -1.2154  0.9350
 6506TIP3   OH219481   3.360   5.586   2.746  0.1458 -0.3423  0.0398
 6506TIP3    H119482   3.385   5.677   2.760 -0.9374  0.2747 -1.7778
 6506TIP3    H219483   3.387   5.542   2.827 -0.1181  1.7429  1.3536
 6507TIP3   OH219484   5.896   1.435   2.782 -0.2335 -0.1021 -0.3655
 6507TIP3    H119485   5.834   1.504   2.756 -0.4266 -0.7231 -1.6037
 6507TIP3    H219486   5.968   1.483   2.824 -2.1832  0.5484  2.5544
 6508TIP3   OH219487   6.452   0.316   3.438 -0.1932 -0.3667  0.0875
 6508TIP3    H119488   6.417   0.349   3.356 -0.5195  1.5211  0.9288
 6508TIP3    H219489   6.545   0.338   3.435 -0.2674 -0.0020  0.3393
 6509TIP3   OH219490   6.915   3.845   4.371  0.3913  0.0365 -0.5374
 6509TIP3    H119491   6.994   3.867   4.421 -1.0607 -0.4850  2.1642
 6509TIP3    H219492   6.866   3.787   4.429 -1.7022 -0.1649 -2.3968
 6510TIP3   OH219493   3.186   0.402   4.557  0.1651 -0.0183 -0.6262
 6510TIP3    H119494   3.151   0.404   4.468  0.3893  2.2581 -0.7104
 6510TIP3    H219495   3.224   0.314   4.566 -0.0670 -0.3710 -2.6856
 6511TIP3   OH219496   7.208   4.311   3.879  0.2986 -0.5308 -0.0284
 6511TIP3    H119497   7.205   4.223   3.842 -1.3457  0.5026 -2.6230
 6511TIP3    H219498   7.168   4.302   3.966  0.7846 -2.4210  0.0424
 6512TIP3   OH219499   4.151   5.094   3.860  0.5128 -0.0763 -0.4941
 6512TIP3    H119500   4.099   5.171   3.885  0.6352 -0.5963  1.5312
 6512TIP3    H219501   4.087   5.035   3.821 -0.4994 -0.6563  1.8467
 6513TIP3   OH219502   0.881   1.026   2.241  0.1069 -0.4817 -0.7243
 6513TIP3    H119503   0.829   1.028   2.321  0.3875 -0.4121 -0.5435
 6513TIP3    H219504   0.856   1.106   2.194  1.8245  0.8441  0.4992
 6514TIP3   OH219505   6.800   1.705   2.693  0.7449 -0.1532 -0.3041
 6514TIP3    H119506   6.772   1.772   2.755  1.0060 -0.8417  0.5890
 6514TIP3    H219507   6.812   1.751   2.610  0.2539  0.7633  0.1258
 6515TIP3   OH219508   5.444   4.084   2.678 -0.5302  0.4717 -0.6426
 6515TIP3    H119509   5.414   4.089   2.769  0.8496  0.2958 -0.1506
 6515TIP3    H219510   5.381   4.136   2.629 -1.7647 -0.0922  0.2828
 6516TIP3   OH219511   0.846   0.124   3.274  0.1196  0.4687  0.5146
 6516TIP3    H119512   0.848   0.219   3.258 -0.0042  0.8015  2.3055
 6516TIP3    H219513   0.763   0.096   3.236  0.3054  1.0034 -0.3286
 6517TIP3   OH219514   0.257   5.748   5.309  0.2984  0.2051 -0.4107
 6517TIP3    H119515   0.229   5.735   5.399  1.5243  0.8862  0.0854
 6517TIP3    H219516   0.239   5.665   5.266 -0.3764 -0.0974  0.4357
 6518TIP3   OH219517   0.844   0.857   4.871  0.3441 -0.9786  0.6063
 6518TIP3    H119518   0.848   0.935   4.927  0.6197 -0.0457 -0.6641
 6518TIP3    H219519   0.925   0.810   4.890  1.6542  0.6148 -0.7720
 6519TIP3   OH219520   1.084   2.916   4.715  0.0862 -0.3227  0.5547
 6519TIP3    H119521   1.080   2.829   4.675 -1.1427 -0.4818  0.9791
 6519TIP3    H219522   1.009   2.918   4.774 -0.3808  1.3340 -0.0687
 6520TIP3   OH219523   0.187   2.176   2.955 -0.1996 -0.6871 -0.6777
 6520TIP3    H119524   0.141   2.183   3.039 -1.6827  2.7737 -1.5732
 6520TIP3    H219525   0.181   2.084   2.932 -1.8790 -1.3363  1.8764
 6521TIP3   OH219526   2.299   3.155   1.484 -0.1539  0.2023 -0.6393
 6521TIP3    H119527   2.303   3.134   1.577 -0.6562 -0.1425 -0.6889
 6521TIP3    H219528   2.348   3.084   1.441  0.5712  0.6722 -0.5979
 6522TIP3   OH219529   6.903   3.293   3.864 -0.0184 -0.4978  0.1454
 6522TIP3    H119530   6.814   3.324   3.850 -0.1719 -1.0009 -0.0361
 6522TIP3    H219531   6.946   3.363   3.913 -0.6235 -0.4101  0.5684
 6523TIP3   OH219532   0.511   1.778   3.466 -0.5287 -0.3469 -0.5469
 6523TIP3    H119533   0.519   1.775   3.371 -0.1126  1.5004 -0.6053
 6523TIP3    H219534   0.417   1.783   3.483 -0.5702  2.5916 -1.0771
 6524TIP3   OH219535   0.559   4.485   0.111  0.3101  0.2356 -0.2258
 6524TIP3    H119536   0.531   4.535   0.187  0.7456  2.0308 -1.2084
 6524TIP3    H219537   0.479   4.475   0.058  0.1916 -0.2590  0.0409
 6525TIP3   OH219538   4.461   0.079   5.592 -0.0920 -0.0847  0.0455
 6525TIP3    H119539   4.548   0.096   5.631  1.5060 -0.3173 -3.1243
 6525TIP3    H219540   4.439   0.160   5.547 -1.6975  0.0312  0.9656
 6526TIP3   OH219541   4.876   5.048   2.694  0.2394 -0.1668  0.3858
 6526TIP3    H119542   4.821   4.970   2.692 -0.8813  0.5904  0.2544
 6526TIP3    H219543   4.893   5.064   2.787 -1.9120  0.9900  0.6490
 6527TIP3   OH219544   6.637   4.243   4.894  0.0210 -0.1487 -0.6415
 6527TIP3    H119545   6.559   4.298   4.894 -0.3970 -0.6853 -2.5826
 6527TIP3    H219546   6.604   4.154   4.881  0.7435 -0.8388  1.7507
 6528TIP3   OH219547   3.787   0.389   0.429 -0.1663  0.3680  0.1952
 6528TIP3    H119548   3.724   0.324   0.459 -0.7125  0.0880 -1.4353
 6528TIP3    H219549   3.738   0.471   0.427  0.5675  0.9026  2.4040
 6529TIP3   OH219550   0.779   3.459   3.734 -0.1169  0.1119  0.7460
 6529TIP3    H119551   0.706   3.407   3.769 -0.6546 -1.0903 -1.8957
 6529TIP3    H219552   0.771   3.544   3.777 -3.1987  0.0698  0.4686
 6530TIP3   OH219553   4.275   0.446   2.290 -0.2107 -0.0554  0.2160
 6530TIP3    H119554   4.343   0.378   2.287  0.5098  0.6443  0.4762
 6530TIP3    H219555   4.214   0.415   2.358 -1.3083 -1.7266 -1.4391
 6531TIP3   OH219556   1.144   5.268   2.324  0.0567  0.2922 -0.1221
 6531TIP3    H119557   1.137   5.179   2.358 -0.8541  0.1588 -0.6165
 6531TIP3    H219558   1.063   5.311   2.352  0.0329  0.6586 -0.7280
 6532TIP3   OH219559   1.862   0.584   4.634  0.5708  0.3273 -0.0400
 6532TIP3    H119560   1.874   0.512   4.695  0.7623 -0.0678 -0.5333
 6532TIP3    H219561   1.767   0.593   4.625  0.5471 -0.4078 -0.5987
 6533TIP3   OH219562   4.196   3.313   1.665 -0.4358 -0.1582  0.3188
 6533TIP3    H119563   4.207   3.266   1.748  0.0968 -1.1860 -0.3186
 6533TIP3    H219564   4.261   3.384   1.669  0.3885 -0.9002  0.2979
 6534TIP3   OH219565   2.120   1.119   0.557 -0.1518  0.2801  0.7632
 6534TIP3    H119566   2.120   1.199   0.503  1.4613  0.1380  0.5106
 6534TIP3    H219567   2.204   1.077   0.538  0.0270 -0.2968  2.6337
 6535TIP3   OH219568   0.567   2.664   0.533 -0.3290  0.1192  0.0476
 6535TIP3    H119569   0.525   2.737   0.488 -1.7620 -0.2417  0.7256
 6535TIP3    H219570   0.601   2.702   0.613  1.3020  0.5531 -0.8193
 6536TIP3   OH219571   5.129   0.398   2.547 -0.4916 -0.0084 -0.2899
 6536TIP3    H119572   5.151   0.469   2.487 -0.4360  0.4537  0.2693
 6536TIP3    H219573   5.048   0.427   2.590 -2.4037 -1.7508 -2.4454
 6537TIP3   OH219574   1.661   0.774   3.463 -0.1279 -0.7727  0.1998
 6537TIP3    H119575   1.651   0.684   3.433  0.0093 -0.5064 -0.6746
 6537TIP3    H219576   1.572   0.801   3.487 -0.6523 -0.3269 -1.9825
 6538TIP3   OH219577   4.187   5.241   0.565 -0.2724 -0.2465  0.0050
 6538TIP3    H119578   4.143   5.165   0.603  0.3900 -0.0200  1.2848
 6538TIP3    H219579   4.218   5.291   0.640 -0.2123  1.0153 -0.8233
 6539TIP3   OH219580   4.307   0.526   4.792  0.2732 -0.5956 -0.1682
 6539TIP3    H119581   4.398   0.534   4.764  0.8643  0.9959  1.9295
 6539TIP3    H219582   4.313   0.499   4.884 -1.1731  2.7030  1.0367
 6540TIP3   OH219583   2.311   4.947   2.326  0.1190  0.2925 -0.4796
 6540TIP3    H119584   2.232   4.962   2.274  0.6374  0.7155 -1.1677
 6540TIP3    H219585   2.285   4.882   2.392 -0.3729 -0.7890 -1.7032
 6541TIP3   OH219586   5.930   6.168   1.209 -0.2808 -0.1968  0.1744
 6541TIP3    H119587   5.916   6.257   1.178 -1.0071  0.0593  1.1958
 6541TIP3    H219588   5.848   6.123   1.190 -0.1484 -0.4710  0.2497
 6542TIP3   OH219589   0.607   6.735   4.775  0.0256 -0.9353  0.4354
 6542TIP3    H119590   0.609   6.642   4.756  5.9614 -1.1883  0.2260
 6542TIP3    H219591   0.625   6.777   4.691 -2.7197  0.5466  0.4905
 6543TIP3   OH219592   4.591   0.609   1.873 -1.1457  0.1792  0.2787
 6543TIP3    H119593   4.650   0.681   1.848 -1.1013  0.3236  0.7849
 6543TIP3    H219594   4.548   0.584   1.792 -0.7547  0.4114 -0.0061
 6544TIP3   OH219595   3.551   2.004   0.550  0.7581 -0.0376  0.2873
 6544TIP3    H119596   3.482   1.980   0.488  0.2782  1.4819  0.1938
 6544TIP3    H219597   3.509   1.997   0.636  0.3227  1.3145  0.2052
 6545TIP3   OH219598   5.376   6.508   4.265 -0.1937 -0.2626 -0.0041
 6545TIP3    H119599   5.455   6.523   4.316 -1.0434  0.2077  1.2326
 6545TIP3    H219600   5.395   6.431   4.211  1.0784 -0.1702  0.2946
 6546TIP3   OH219601   4.171   1.288   3.135  0.2941 -0.1964 -0.0576
 6546TIP3    H119602   4.086   1.331   3.128  1.2337  2.1869  1.9430
 6546TIP3    H219603   4.209   1.297   3.047 -1.6446 -1.8177 -1.1571
 6547TIP3   OH219604   1.670   0.058   5.712  0.1090  0.5515  0.2717
 6547TIP3    H119605   1.600   0.055   5.647 -0.9991  0.9842  1.4093
 6547TIP3    H219606   1.668   0.147   5.746  1.8182  0.8348 -0.2858
 6548TIP3   OH219607   2.119   0.928   5.034  0.1399  0.3143  0.1601
 6548TIP3    H119608   2.202   0.971   5.016 -0.4697  2.0428  1.2330
 6548TIP3    H219609   2.143   0.846   5.079  1.2714  0.2763 -0.4849
 6549TIP3   OH219610   2.730   1.155   3.674 -0.2948 -0.0816 -0.8125
 6549TIP3    H119611   2.790   1.082   3.681 -1.2074 -0.7181  0.8497
 6549TIP3    H219612   2.648   1.123   3.713 -0.8969  1.6109 -0.6005
 6550TIP3   OH219613   4.937   3.337   0.023 -0.0025  0.7314 -0.7905
 6550TIP3    H119614   5.024   3.313   0.056 -1.1056 -1.1974  0.9822
 6550TIP3    H219615   4.925   3.282  -0.055 -0.5579 -0.9073  0.4026
 6551TIP3   OH219616   4.294   3.530   3.015 -0.7716 -0.3073 -0.3180
 6551TIP3    H119617   4.212   3.497   2.978 -0.9172  0.4007 -0.6318
 6551TIP3    H219618   4.299   3.620   2.985 -1.9706  1.0442  3.0979
 6552TIP3   OH219619   0.543   5.821   0.507  0.0218 -0.1005 -0.6195
 6552TIP3    H119620   0.519   5.730   0.489  0.8216 -0.8569  1.7622
 6552TIP3    H219621   0.489   5.846   0.582  1.7175  0.4131  0.4964
 6553TIP3   OH219622   3.616   1.382   5.448  0.2257  0.3792  0.0023
 6553TIP3    H119623   3.702   1.359   5.483 -1.0328 -0.0683  3.1839
 6553TIP3    H219624   3.584   1.301   5.407  0.2574 -0.3009  1.2779
 6554TIP3   OH219625   3.840   0.457   1.061  0.5741 -0.0746  0.2907
 6554TIP3    H119626   3.798   0.542   1.051  0.2967 -0.4002 -1.6584
 6554TIP3    H219627   3.912   0.458   0.998  0.4866 -1.3241  0.1398
 6555TIP3   OH219628   3.026   0.931   5.789 -0.1472 -0.3569 -0.2620
 6555TIP3    H119629   3.087   1.004   5.781 -0.3449 -0.1646 -0.0353
 6555TIP3    H219630   2.980   0.928   5.705  0.1655 -0.4978 -0.4310
 6556TIP3   OH219631   0.578   2.487   0.234  0.1026  0.2021  0.1668
 6556TIP3    H119632   0.566   2.561   0.293  0.5530 -0.2806  0.8814
 6556TIP3    H219633   0.535   2.414   0.278 -1.3131  0.2470 -1.0394
 6557TIP3   OH219634   2.882   4.334   3.613 -0.0356  0.7360 -0.6606
 6557TIP3    H119635   2.972   4.363   3.597  1.9192 -3.1437  1.7526
 6557TIP3    H219636   2.856   4.380   3.693  0.3062  0.9037 -0.6433
 6558TIP3   OH219637   2.377   4.743   1.967 -0.0832 -0.5338  0.0440
 6558TIP3    H119638   2.447   4.683   1.943 -2.7931 -3.1198 -2.1836
 6558TIP3    H219639   2.322   4.694   2.029 -1.2361  0.4268 -0.1656
 6559TIP3   OH219640   4.679   0.546   4.299  0.3804  0.3247 -0.2235
 6559TIP3    H119641   4.675   0.637   4.269 -0.6589 -0.1167 -1.5054
 6559TIP3    H219642   4.718   0.498   4.226  0.4455 -0.3494  0.2440
 6560TIP3   OH219643   6.164   4.042   0.645 -0.0675  0.0934 -0.2368
 6560TIP3    H119644   6.188   4.102   0.716 -0.2838 -0.1032  0.0005
 6560TIP3    H219645   6.158   3.956   0.686  1.3429 -0.2953 -0.7861
 6561TIP3   OH219646   1.477   0.935   0.016  0.3761 -0.4646 -0.2094
 6561TIP3    H119647   1.458   0.998  -0.053 -2.3510 -1.3506 -0.3922
 6561TIP3    H219648   1.450   0.979   0.097  1.0323 -0.4294  0.0004
 6562TIP3   OH219649   5.459   2.569   0.480 -0.3082  0.4851 -0.3742
 6562TIP3    H119650   5.491   2.500   0.538 -1.3155  0.3910  0.1021
 6562TIP3    H219651   5.521   2.570   0.407  1.0971  0.7364  0.7710
 6563TIP3   OH219652   7.049   4.957   1.263  0.0625  0.0255 -0.4563
 6563TIP3    H119653   7.099   4.891   1.214  0.7681  0.5220 -0.4114
 6563TIP3    H219654   7.056   4.929   1.354 -1.4523 -1.0345 -0.6213
 6564TIP3   OH219655   2.077   6.840   3.403  0.4782 -0.0169 -0.1824
 6564TIP3    H119656   2.000   6.784   3.415 -0.3050  0.4955 -2.4510
 6564TIP3    H219657   2.151   6.779   3.404 -0.1309 -0.7652  0.0184
 6565TIP3   OH219658   5.665   5.612   5.024  0.1187  0.0233  0.2706
 6565TIP3    H119659   5.625   5.698   5.034 -1.5595 -0.9429  2.8218
 6565TIP3    H219660   5.593   5.555   4.996  1.1456 -0.6479 -1.1323
 6566TIP3   OH219661   6.057   6.717   4.465  0.1572 -0.1751 -0.9041
 6566TIP3    H119662   6.109   6.795   4.447 -0.4164 -0.0417 -2.0683
 6566TIP3    H219663   6.107   6.646   4.424  1.6355 -0.7666  1.7204
 6567TIP3   OH219664   3.280   2.212   4.830 -0.2616 -0.2804 -0.5188
 6567TIP3    H119665   3.264   2.121   4.855 -0.7793  0.1453  0.7999
 6567TIP3    H219666   3.207   2.236   4.774 -0.0190 -0.7279 -1.0318
 6568TIP3   OH219667   1.974   4.974   4.717 -0.3793 -0.9342 -0.5933
 6568TIP3    H119668   2.002   4.911   4.651  0.3219 -1.5115  0.2234
 6568TIP3    H219669   1.933   4.921   4.785 -0.3923 -0.4392 -0.2089
 6569TIP3   OH219670   6.834   5.138   1.264  0.2430 -0.1834 -0.1560
 6569TIP3    H119671   6.781   5.131   1.343  1.1186  1.5813  0.6331
 6569TIP3    H219672   6.903   5.073   1.275 -0.3061 -0.7448 -0.0164
 6570TIP3   OH219673   2.818   1.144   1.769  0.3806 -0.3615  0.1865
 6570TIP3    H119674   2.775   1.225   1.741 -0.0636  0.2319  2.3351
 6570TIP3    H219675   2.747   1.093   1.809  1.0028 -0.9766  0.5259
 6571TIP3   OH219676   3.046   4.793   4.943  0.0950  0.0675 -0.1635
 6571TIP3    H119677   3.082   4.841   4.869 -0.7803 -0.2543 -0.8211
 6571TIP3    H219678   3.022   4.707   4.907  1.8589 -0.9929  1.0307
 6572TIP3   OH219679   3.906   3.955   2.304 -0.2629  0.5173 -0.1584
 6572TIP3    H119680   3.834   4.016   2.313  0.2027  0.9174  1.0262
 6572TIP3    H219681   3.972   4.003   2.254  0.5598  1.4406  1.7359
 6573TIP3   OH219682   5.795   1.614   0.510 -0.9381 -0.0126 -0.4608
 6573TIP3    H119683   5.760   1.651   0.429 -0.7047  0.0011 -0.5560
 6573TIP3    H219684   5.824   1.526   0.485 -0.7977  0.0192 -0.4077
 6574TIP3   OH219685   2.957   4.139   4.664  1.0474  0.2735  0.4457
 6574TIP3    H119686   2.926   4.060   4.620 -1.4668  0.6606  1.3669
 6574TIP3    H219687   2.971   4.202   4.593  1.4853 -0.4705 -0.1485
 6575TIP3   OH219688   5.143   2.902   4.253 -0.1474  0.6802 -0.5757
 6575TIP3    H119689   5.104   2.895   4.340  1.3386  2.4961  0.3177
 6575TIP3    H219690   5.230   2.862   4.263  0.0203  0.8689 -1.2196
 6576TIP3   OH219691   1.680   4.271   5.035  0.5756  0.5796 -0.2850
 6576TIP3    H119692   1.773   4.269   5.056  0.3104  0.4802  0.9865
 6576TIP3    H219693   1.664   4.360   5.004  1.4528  0.0476 -2.4769
 6577TIP3   OH219694   5.366   5.307   4.749  0.5293  0.2246  0.1930
 6577TIP3    H119695   5.376   5.395   4.714  2.1615 -0.0837 -0.2361
 6577TIP3    H219696   5.396   5.250   4.678 -0.6198 -0.6854  0.4231
 6578TIP3   OH219697   6.985   3.149   0.301 -0.1115 -0.0085 -0.2471
 6578TIP3    H119698   7.056   3.088   0.320 -0.5457 -0.7509 -0.9219
 6578TIP3    H219699   6.968   3.194   0.384 -0.6166 -1.7098  0.6056
 6579TIP3   OH219700   6.163   2.981   0.237  0.3287  0.2199 -0.1311
 6579TIP3    H119701   6.205   3.038   0.302  0.8972 -1.1761  0.7807
 6579TIP3    H219702   6.118   3.041   0.178  0.5940  1.5905  1.0024
 6580TIP3   OH219703   5.755   0.117   0.994 -0.0159  0.4879 -0.2679
 6580TIP3    H119704   5.800   0.036   0.972  0.8304 -0.0330  2.8150
 6580TIP3    H219705   5.807   0.155   1.065 -1.9054  2.2753  0.2816
 6581TIP3   OH219706   1.211   6.336   3.921  0.2205  0.2219  0.8094
 6581TIP3    H119707   1.290   6.386   3.940  0.7302 -0.0675 -0.4073
 6581TIP3    H219708   1.182   6.369   3.836 -0.3563 -0.4133  0.7504
 6582TIP3   OH219709   5.736   2.504   2.515 -0.3111 -0.6552  0.0563
 6582TIP3    H119710   5.778   2.432   2.562 -1.6303 -0.1864  2.1125
 6582TIP3    H219711   5.643   2.481   2.514 -0.5353  0.2154 -0.7833
 6583TIP3   OH219712   4.849   6.321   0.280  0.0152  0.2808  0.1102
 6583TIP3    H119713   4.933   6.366   0.269  0.3748 -0.7925 -2.2308
 6583TIP3    H219714   4.784   6.386   0.254  0.2513  0.5629  0.2160
 6584TIP3   OH219715   0.922   5.525   1.658  0.4816  0.5933 -0.3066
 6584TIP3    H119716   0.828   5.510   1.661  0.5860 -0.5069 -1.7292
 6584TIP3    H219717   0.960   5.438   1.642  1.7963  0.9166  0.7883
 6585TIP3   OH219718   1.849   0.357   5.408  0.4508 -0.2538 -0.1305
 6585TIP3    H119719   1.816   0.397   5.327 -0.2357 -0.6726 -0.0645
 6585TIP3    H219720   1.869   0.267   5.384  0.9530 -0.1826 -0.0061
 6586TIP3   OH219721   7.020   1.974   3.507  0.5078  0.4345 -0.4588
 6586TIP3    H119722   7.067   2.036   3.562  2.0093 -0.2884 -0.8553
 6586TIP3    H219723   6.928   1.994   3.520  0.9306  2.3700 -0.1555
 6587TIP3   OH219724   4.680   4.906   0.120  0.2360  0.0216 -0.1973
 6587TIP3    H119725   4.666   4.898   0.025 -2.5140 -2.0663  0.2574
 6587TIP3    H219726   4.738   4.833   0.141  0.2188  0.0143 -0.1759
 6588TIP3   OH219727   2.768   3.806   2.864  0.0558 -0.1166 -0.4016
 6588TIP3    H119728   2.769   3.820   2.958  2.4203  2.1002 -0.6370
 6588TIP3    H219729   2.685   3.842   2.835 -1.1246 -1.6667  0.8689
 6589TIP3   OH219730   6.352   1.851   2.989  0.2291  0.5296 -0.4334
 6589TIP3    H119731   6.348   1.899   2.906  1.6898  2.8386  0.7420
 6589TIP3    H219732   6.293   1.898   3.047  1.3751  0.6921  0.6375
 6590TIP3   OH219733   1.067   4.256   2.646  0.2817 -0.1064 -0.1799
 6590TIP3    H119734   1.152   4.293   2.671  0.2212 -1.0296  1.5611
 6590TIP3    H219735   1.074   4.241   2.552  2.2536 -0.6293  0.0013
 6591TIP3   OH219736   0.922   6.594   2.865 -0.6125 -0.4753 -0.2318
 6591TIP3    H119737   1.012   6.605   2.894  0.0442 -0.8802 -1.9782
 6591TIP3    H219738   0.872   6.655   2.919  0.9375  0.9080 -0.2691
 6592TIP3   OH219739   5.166   2.716   5.788 -0.1071 -0.1596 -0.1051
 6592TIP3    H119740   5.150   2.809   5.775  0.3713 -0.0990 -0.2671
 6592TIP3    H219741   5.240   2.696   5.731 -0.2646 -0.6587 -0.1375
 6593TIP3   OH219742   1.327   3.415   2.048  0.0489 -0.3742  0.3046
 6593TIP3    H119743   1.250   3.406   2.105 -0.3158  0.3479 -0.0646
 6593TIP3    H219744   1.291   3.422   1.960  0.5951 -1.0650  0.0154
 6594TIP3   OH219745   4.790   5.889   4.813 -0.2034 -0.2030  0.4846
 6594TIP3    H119746   4.796   5.793   4.806  0.0223 -0.4354  3.0148
 6594TIP3    H219747   4.707   5.911   4.771 -0.4808 -1.5565  0.2647
 6595TIP3   OH219748   2.424   1.747   1.632 -0.0851  0.1210  0.4394
 6595TIP3    H119749   2.485   1.815   1.603 -1.9116  1.0004 -1.5457
 6595TIP3    H219750   2.343   1.795   1.653 -0.6931 -1.2133  1.2396
 6596TIP3   OH219751   2.009   2.708   2.631 -0.7993 -0.2713  0.1768
 6596TIP3    H119752   1.947   2.737   2.698 -0.5304 -0.8330  0.6824
 6596TIP3    H219753   2.094   2.741   2.660 -0.6851 -0.4967  0.1032
 6597TIP3   OH219754   0.238   4.905   2.798 -0.8330  0.1552  0.0685
 6597TIP3    H119755   0.196   4.830   2.755 -0.6462 -0.6374  1.2308
 6597TIP3    H219756   0.331   4.894   2.779 -0.8810  0.5441 -0.4212
 6598TIP3   OH219757   4.536   0.582   5.202 -0.6259 -0.3802 -0.0030
 6598TIP3    H119758   4.543   0.633   5.121  0.2892 -0.9660 -0.3100
 6598TIP3    H219759   4.625   0.583   5.239 -0.8378 -0.8637  0.5329
 6599TIP3   OH219760   4.834   1.143   3.460 -0.2840  0.3051  0.6897
 6599TIP3    H119761   4.834   1.127   3.554  1.6567 -0.5593  0.6026
 6599TIP3    H219762   4.811   1.058   3.421 -0.2188  0.4287  0.3810
 6600TIP3   OH219763   2.264   0.208   0.351 -0.2545 -0.0011  0.3773
 6600TIP3    H119764   2.353   0.244   0.351 -0.1578 -0.1961 -1.2615
 6600TIP3    H219765   2.273   0.122   0.392  0.1435  0.3219  0.9973
 6601TIP3   OH219766   6.176   2.797   0.018 -0.1032  0.1231  0.0487
 6601TIP3    H119767   6.162   2.831   0.106  0.0330 -1.0588  0.5434
 6601TIP3    H219768   6.257   2.839  -0.011  0.1573  0.0929  0.7162
 6602TIP3   OH219769   6.871   6.715   1.305  0.1925  0.0466  0.4937
 6602TIP3    H119770   6.868   6.802   1.264 -0.8109 -0.4320 -0.4802
 6602TIP3    H219771   6.926   6.663   1.247 -1.1178 -0.5915 -0.2347
 6603TIP3   OH219772   1.459   4.054   3.519 -0.1238  0.0725 -0.0654
 6603TIP3    H119773   1.423   4.014   3.598 -0.1776 -0.4576 -0.3521
 6603TIP3    H219774   1.401   4.129   3.502 -0.8565 -0.5305 -0.2889
 6604TIP3   OH219775   4.117   3.785   5.360  0.1347 -0.5006 -0.2925
 6604TIP3    H119776   4.112   3.732   5.281 -1.1181  1.2463 -1.4681
 6604TIP3    H219777   4.210   3.809   5.366  0.4481 -1.5944 -0.5589
 6605TIP3   OH219778   4.753   1.955   2.186  0.4975  0.0939 -0.0461
 6605TIP3    H119779   4.729   1.989   2.272 -1.2074 -0.0584 -0.4260
 6605TIP3    H219780   4.698   2.004   2.125  0.3633 -1.0603 -0.8820
 6606TIP3   OH219781   2.658   3.602   1.644  0.1336 -0.1210  0.1638
 6606TIP3    H119782   2.639   3.515   1.679 -0.9209 -0.2294 -0.6308
 6606TIP3    H219783   2.742   3.627   1.684  0.0437 -1.1547  1.0195
 6607TIP3   OH219784   1.081   5.193   4.172  0.7638 -0.2053  1.1843
 6607TIP3    H119785   1.153   5.231   4.122  1.4224 -0.5824  1.8217
 6607TIP3    H219786   1.096   5.223   4.262 -0.0039 -0.1057  1.2812
 6608TIP3   OH219787   1.323   4.620   3.685 -0.1221  0.0059  0.2054
 6608TIP3    H119788   1.249   4.565   3.711 -0.3967 -0.1552 -0.8546
 6608TIP3    H219789   1.300   4.649   3.597  0.5044  0.9787  0.3504
 6609TIP3   OH219790   0.731   6.100   3.989  0.0957 -0.0644 -0.1288
 6609TIP3    H119791   0.743   6.189   3.957  1.5109  0.2042  1.0498
 6609TIP3    H219792   0.809   6.053   3.962 -0.4239 -0.8383 -0.3244
 6610TIP3   OH219793   1.466   0.226   4.199  0.2217 -0.2764  0.3206
 6610TIP3    H119794   1.450   0.166   4.272  0.2318 -0.3381  0.2730
 6610TIP3    H219795   1.483   0.168   4.125 -1.9991 -0.2672 -0.2643
 6611TIP3   OH219796   4.603   1.835   4.062 -0.0997  0.2958 -0.3172
 6611TIP3    H119797   4.536   1.852   3.996 -0.4721  2.0218  0.4562
 6611TIP3    H219798   4.676   1.798   4.013 -0.8354  0.3363 -1.4917
 6612TIP3   OH219799   1.449   0.139   0.193 -0.2645 -0.5529 -0.3650
 6612TIP3    H119800   1.436   0.159   0.100  0.6171  3.3682  0.1613
 6612TIP3    H219801   1.367   0.165   0.234 -0.0871 -0.7633  0.1260
 6613TIP3   OH219802   1.373   4.866   0.188  0.0140  0.2405  0.1657
 6613TIP3    H119803   1.385   4.858   0.282 -2.0904  2.0808  0.6800
 6613TIP3    H219804   1.389   4.778   0.154 -0.4629 -0.7819  2.3965
 6614TIP3   OH219805   6.292   2.845   1.012  0.2921  0.8358  0.6787
 6614TIP3    H119806   6.272   2.932   0.975 -0.2495  0.5676  0.3303
 6614TIP3    H219807   6.207   2.812   1.042  0.2582 -0.1523 -0.4424
 6615TIP3   OH219808   7.113   6.648   2.347 -0.1587 -0.0906  0.0045
 6615TIP3    H119809   7.107   6.607   2.261 -0.9905 -1.2438  0.5823
 6615TIP3    H219810   7.104   6.742   2.330 -1.3845 -0.3725 -1.0723
 6616TIP3   OH219811   2.323   2.290   5.270 -0.1801  0.1567 -0.3757
 6616TIP3    H119812   2.237   2.302   5.310 -0.0587  0.6681 -0.2659
 6616TIP3    H219813   2.348   2.377   5.239  0.8702  0.2823  0.7417
 6617TIP3   OH219814   6.568   0.412   4.565  0.0412  0.0694 -0.6758
 6617TIP3    H119815   6.479   0.427   4.534 -0.2640 -2.2944 -1.1348
 6617TIP3    H219816   6.616   0.383   4.488  0.6904 -0.5737 -0.0526
 6618TIP3   OH219817   2.596   2.857   1.597  0.3702  0.1998  0.1479
 6618TIP3    H119818   2.572   2.893   1.682  1.1753  0.1201  0.4180
 6618TIP3    H219819   2.690   2.876   1.589  0.5909 -0.9421 -0.1445
 6619TIP3   OH219820   2.629   5.881   2.647 -0.3150 -0.1232  0.1941
 6619TIP3    H119821   2.546   5.843   2.676  1.0723 -2.3977  1.5412
 6619TIP3    H219822   2.695   5.822   2.683  1.8044 -0.4879 -3.7498
 6620TIP3   OH219823   6.473   3.161   0.617  0.1748 -0.6063  0.1962
 6620TIP3    H119824   6.458   3.255   0.612 -1.5193 -0.8489 -0.1634
 6620TIP3    H219825   6.516   3.147   0.701  0.0124  0.4437  0.4619
 6621TIP3   OH219826   5.066   0.559   4.733  0.1680  0.0877 -0.3707
 6621TIP3    H119827   5.142   0.615   4.746 -0.1855  0.4195  0.3371
 6621TIP3    H219828   4.995   0.619   4.710 -0.3567  0.0250  0.9735
 6622TIP3   OH219829   1.989   1.228   1.057 -0.8506  0.0060  0.0587
 6622TIP3    H119830   1.992   1.159   0.990  0.1090  0.3842 -0.3119
 6622TIP3    H219831   2.064   1.208   1.114  0.1592  1.3857 -0.7264
 6623TIP3   OH219832   5.966   2.736   3.167 -0.2050 -0.0032 -0.8527
 6623TIP3    H119833   5.982   2.794   3.241 -2.2542 -2.3437  1.6484
 6623TIP3    H219834   6.052   2.701   3.145  0.3554  0.0403  1.0916
 6624TIP3   OH219835   4.001   0.836   4.174 -0.8724 -0.5613  0.2731
 6624TIP3    H119836   3.926   0.790   4.137 -1.6808 -1.0359  2.3622
 6624TIP3    H219837   4.019   0.791   4.257  1.4551 -0.1776  0.0559
 6625TIP3   OH219838   4.297   3.038   3.831  0.3265 -0.2313 -0.2291
 6625TIP3    H119839   4.333   3.054   3.744 -0.6630 -0.2219 -0.6571
 6625TIP3    H219840   4.334   2.954   3.857 -0.3852 -0.8902 -1.2473
 6626TIP3   OH219841   5.536   1.484   3.743 -0.0560 -0.2633 -0.3256
 6626TIP3    H119842   5.572   1.565   3.707  0.0907 -1.0311 -2.0473
 6626TIP3    H219843   5.493   1.442   3.668 -0.4736 -1.5793  0.6140
 6627TIP3   OH219844   3.326   2.884   3.638 -0.0256  0.2003  0.3234
 6627TIP3    H119845   3.297   2.807   3.687  0.4398 -0.9177 -1.0739
 6627TIP3    H219846   3.382   2.848   3.568  0.9492  1.8919  0.1837
 6628TIP3   OH219847   2.045   3.878   2.172 -0.5274 -0.5573 -0.3200
 6628TIP3    H119848   2.114   3.813   2.186 -2.0820 -1.9707  1.1950
 6628TIP3    H219849   2.079   3.957   2.215 -0.2606 -1.5462  1.3944
 6629TIP3   OH219850   1.249   1.062   2.533 -0.4988  0.4730  0.1126
 6629TIP3    H119851   1.167   1.026   2.566 -1.0068  0.8303 -0.7525
 6629TIP3    H219852   1.277   1.124   2.601 -2.0316  1.9362 -0.5371
 6630TIP3   OH219853   1.991   5.818   5.000  0.8102 -0.2537  0.0509
 6630TIP3    H119854   2.033   5.746   5.046  2.6547  0.0809 -0.9975
 6630TIP3    H219855   1.928   5.776   4.941  0.6555 -0.8795  0.6561
 6631TIP3   OH219856   3.254   1.968   4.965 -0.1049 -0.2015 -0.6331
 6631TIP3    H119857   3.303   1.947   5.045 -0.1712 -2.4054 -1.1118
 6631TIP3    H219858   3.162   1.965   4.992 -0.1474 -1.4662 -0.8808
 6632TIP3   OH219859   1.083   5.278   4.453  0.2204  0.4020 -0.1640
 6632TIP3    H119860   0.988   5.277   4.446  0.0897  0.4438  1.2483
 6632TIP3    H219861   1.105   5.368   4.477  0.2703 -0.2857  2.8036
 6633TIP3   OH219862   2.366   4.670   5.651  0.2474 -0.4531  0.6287
 6633TIP3    H119863   2.426   4.704   5.585  0.6433 -1.6760  0.3384
 6633TIP3    H219864   2.413   4.679   5.734 -0.6123  1.9603  0.9270
 6634TIP3   OH219865   3.064   1.341   4.261  1.1211 -0.3887 -0.3793
 6634TIP3    H119866   2.973   1.313   4.274  1.2786 -0.4748  0.5382
 6634TIP3    H219867   3.114   1.293   4.327  1.6620  0.6095 -0.0449
 6635TIP3   OH219868   4.433   2.093   1.796  0.7385 -0.0422  0.1515
 6635TIP3    H119869   4.353   2.113   1.844  0.1617 -1.3137 -0.2459
 6635TIP3    H219870   4.429   1.999   1.781  1.7734  0.0574 -0.8572
 6636TIP3   OH219871   4.163   2.939   1.205  0.2280 -0.2662 -0.2706
 6636TIP3    H119872   4.087   2.982   1.166 -0.4379 -0.7359  0.4699
 6636TIP3    H219873   4.182   2.990   1.283  0.5188 -0.2944 -0.3247
 6637TIP3   OH219874   5.249   0.691   3.850  0.6199  0.5830 -0.2635
 6637TIP3    H119875   5.179   0.744   3.887 -0.1867  1.4279 -2.7685
 6637TIP3    H219876   5.211   0.603   3.842 -0.1924  1.0373 -1.6081
 6638TIP3   OH219877   2.363   4.914   1.285  0.0348  0.2003 -0.4121
 6638TIP3    H119878   2.332   4.921   1.375  0.6927  1.1409 -0.2317
 6638TIP3    H219879   2.284   4.902   1.232 -0.3237 -0.7647  0.3167
 6639TIP3   OH219880   5.990   6.019   5.806 -0.2003  0.9668 -0.0933
 6639TIP3    H119881   5.896   6.009   5.796  0.0824 -1.3187 -1.1638
 6639TIP3    H219882   6.007   5.990   5.896 -0.3540 -0.6031 -0.5314
 6640TIP3   OH219883   6.486   0.272   0.320  0.2539 -0.0343 -0.2939
 6640TIP3    H119884   6.509   0.199   0.377 -1.6946 -0.7472 -0.3436
 6640TIP3    H219885   6.531   0.254   0.238 -0.4137 -1.3757 -0.4027
 6641TIP3   OH219886   5.250   4.081   2.266 -0.2405  0.4991 -0.3557
 6641TIP3    H119887   5.276   4.127   2.346 -0.2376  1.2239 -0.7623
 6641TIP3    H219888   5.215   3.998   2.297 -0.6389  0.9425  0.4350
 6642TIP3   OH219889   4.046   5.417   2.100  0.5889 -0.6142  0.1020
 6642TIP3    H119890   4.008   5.469   2.171  0.3263  0.4788 -0.7976
 6642TIP3    H219891   4.037   5.473   2.023  1.2589 -1.5965 -0.7114
 6643TIP3   OH219892   4.378   0.974   4.081 -0.4112  0.0890  0.2750
 6643TIP3    H119893   4.428   1.053   4.060 -1.4214  0.4295 -0.9991
 6643TIP3    H219894   4.314   1.003   4.145  1.0636 -0.3886  2.0544
 6644TIP3   OH219895   0.413   1.988   5.710 -0.7756 -0.7061 -0.3016
 6644TIP3    H119896   0.473   1.993   5.636  0.2983  1.5791  0.6037
 6644TIP3    H219897   0.468   2.005   5.787 -2.2421 -0.5228  0.7554
 6645TIP3   OH219898   3.008   2.633   4.049  0.8750 -0.5433  0.2917
 6645TIP3    H119899   2.963   2.558   4.010 -1.0429  0.9730 -0.5793
 6645TIP3    H219900   2.970   2.641   4.136  1.0421 -0.5466  0.3651
 6646TIP3   OH219901   7.145   4.900   1.003  0.7471  0.2506  0.3830
 6646TIP3    H119902   7.074   4.956   1.031  0.6850  0.4702 -0.1981
 6646TIP3    H219903   7.109   4.811   1.007  0.7141  0.2826  0.8942
 6647TIP3   OH219904   2.534   0.685   5.492 -0.2284  0.6419 -0.4561
 6647TIP3    H119905   2.465   0.748   5.473 -0.1269  1.1274  0.6784
 6647TIP3    H219906   2.492   0.620   5.549  0.0810  0.5953 -0.2764
 6648TIP3   OH219907   2.407   6.142   1.604 -0.8130 -0.5236  0.1178
 6648TIP3    H119908   2.442   6.056   1.581 -1.9423 -1.0021  0.1054
 6648TIP3    H219909   2.315   6.138   1.578 -2.0728 -0.8724  3.9103
 6649TIP3   OH219910   1.819   0.329   0.540 -0.0749 -0.4737  0.0964
 6649TIP3    H119911   1.875   0.317   0.617  1.1121  2.0340 -0.2763
 6649TIP3    H219912   1.877   0.365   0.473 -1.6826  0.0995 -1.0619
 6650TIP3   OH219913   1.820   6.517   2.400 -0.0467 -0.3945 -0.7628
 6650TIP3    H119914   1.843   6.602   2.438 -1.0551 -0.0303 -0.9251
 6650TIP3    H219915   1.798   6.462   2.475  0.8144 -0.5808 -0.6433
 6651TIP3   OH219916   4.435   5.636   0.485 -0.1344 -0.2947  0.0061
 6651TIP3    H119917   4.391   5.591   0.413 -0.0376  0.7013 -0.6877
 6651TIP3    H219918   4.461   5.565   0.544 -1.6990 -1.0010 -0.0885
 6652TIP3   OH219919   1.187   0.326   5.444  0.9777 -0.1539  0.2818
 6652TIP3    H119920   1.224   0.251   5.397  1.5911  0.9116 -1.0172
 6652TIP3    H219921   1.099   0.298   5.469  1.2615 -1.3616 -0.0080
 6653TIP3   OH219922   1.198   0.017   3.380  0.3523  0.0100  0.2473
 6653TIP3    H119923   1.228  -0.062   3.426 -0.0140 -0.7816 -0.8216
 6653TIP3    H219924   1.276   0.050   3.335  0.2085 -0.5926 -0.4737
 6654TIP3   OH219925   5.798   4.828   5.137 -0.3585  0.3307  0.2339
 6654TIP3    H119926   5.879   4.879   5.145 -0.6621  0.8931 -0.2466
 6654TIP3    H219927   5.823   4.740   5.166 -0.0279  0.9296  1.9045
 6655TIP3   OH219928   0.514   4.367   1.221  0.2563 -0.2397 -0.1878
 6655TIP3    H119929   0.493   4.357   1.128  0.4303  0.8182 -0.3514
 6655TIP3    H219930   0.554   4.454   1.228 -0.0665 -0.1635  0.9372
 6656TIP3   OH219931   3.572   3.911   1.835 -0.3064 -0.3503 -0.2093
 6656TIP3    H119932   3.514   3.911   1.759  0.3753 -1.6260 -0.7663
 6656TIP3    H219933   3.514   3.915   1.911 -1.0644 -0.6797 -0.7676
 6657TIP3   OH219934   0.115   2.432   3.865  0.3113 -0.7282 -0.5292
 6657TIP3    H119935   0.034   2.397   3.904 -0.0965  0.1133 -0.6039
 6657TIP3    H219936   0.117   2.523   3.893  2.1901 -1.1795  0.9858
 6658TIP3   OH219937   1.753   3.010   1.455 -0.4845 -0.7473  0.0949
 6658TIP3    H119938   1.683   2.954   1.488 -0.8503  0.0675  0.7322
 6658TIP3    H219939   1.832   2.956   1.459 -0.9659 -1.4705 -0.0615
 6659TIP3   OH219940   1.278   5.977   5.278 -0.0791  0.0846 -0.1928
 6659TIP3    H119941   1.248   5.893   5.311  1.6729 -1.3594 -2.0869
 6659TIP3    H219942   1.211   6.003   5.214 -0.5279  0.0781  0.2640
 6660TIP3   OH219943   0.585   3.392   3.913  0.0807 -0.6296  0.3627
 6660TIP3    H119944   0.623   3.407   4.000 -1.8550 -1.0733  1.3320
 6660TIP3    H219945   0.494   3.368   3.930 -0.7890  0.7550 -1.8653
 6661TIP3   OH219946   7.013   2.726   2.271  0.5353  0.5125  0.0769
 6661TIP3    H119947   6.945   2.789   2.249 -1.3741 -1.0499  1.1447
 6661TIP3    H219948   7.065   2.769   2.339  1.0347  1.9477 -1.1627
 6662TIP3   OH219949   2.624   4.725   2.569  0.0094  0.1221 -0.0569
 6662TIP3    H119950   2.542   4.772   2.577 -1.2021 -2.0896  1.8371
 6662TIP3    H219951   2.629   4.700   2.477 -0.7753  1.3275 -0.4500
 6663TIP3   OH219952   0.284   4.283   2.174  0.4071  0.5579  0.5863
 6663TIP3    H119953   0.200   4.271   2.218  0.4065  2.3810  1.1601
 6663TIP3    H219954   0.325   4.356   2.220  0.4657  2.5213 -2.3436
 6664TIP3   OH219955   4.612   0.131   3.685  0.2545 -0.4318  0.0137
 6664TIP3    H119956   4.577   0.083   3.761 -0.7657  1.8265  1.0675
 6664TIP3    H219957   4.548   0.114   3.615  0.2246 -1.0753  0.1909
 6665TIP3   OH219958   1.638   4.187   3.907 -0.1134  0.5259  0.2423
 6665TIP3    H119959   1.659   4.143   3.825 -1.6695 -0.2989  0.2474
 6665TIP3    H219960   1.723   4.206   3.946  0.6321 -0.6250 -0.7372
 6666TIP3   OH219961   0.947   4.752   5.089  0.1953  0.1391 -0.0235
 6666TIP3    H119962   0.995   4.712   5.016 -0.8287  0.0479 -0.6734
 6666TIP3    H219963   0.913   4.834   5.052  1.3930  1.1111  0.9796
 6667TIP3   OH219964   4.653   0.896   0.279  0.1750 -0.2861 -0.6540
 6667TIP3    H119965   4.676   0.948   0.355 -0.0664  0.1567 -0.8805
 6667TIP3    H219966   4.715   0.823   0.279 -0.2096 -0.6370  0.3190
 6668TIP3   OH219967   5.690   3.696   2.542  0.3803 -0.1205 -0.2707
 6668TIP3    H119968   5.774   3.729   2.571  1.1990 -2.8732  0.8219
 6668TIP3    H219969   5.712   3.631   2.475 -0.9209 -0.3428 -0.5061
 6669TIP3   OH219970   4.212   6.183   5.125  0.3095  0.2923  0.5167
 6669TIP3    H119971   4.279   6.128   5.166 -1.0039 -0.4723  1.7206
 6669TIP3    H219972   4.176   6.235   5.197  0.0045  1.1245 -0.2175
 6670TIP3   OH219973   6.498   1.441   0.231  0.0926 -0.6695  0.5895
 6670TIP3    H119974   6.474   1.352   0.206  0.2228 -0.8708  1.1572
 6670TIP3    H219975   6.440   1.462   0.304 -0.3433 -0.0639  0.0814
 6671TIP3   OH219976   5.800   3.515   1.262  0.6702  0.3571  0.3366
 6671TIP3    H119977   5.737   3.470   1.318 -0.4651  1.8487  0.3309
 6671TIP3    H219978   5.853   3.567   1.323 -0.7644  2.2210  0.0839
 6672TIP3   OH219979   3.904   4.986   2.061  0.1816 -0.1537  0.3967
 6672TIP3    H119980   3.937   4.945   1.981 -1.7553 -2.6989  0.7684
 6672TIP3    H219981   3.812   5.004   2.042  0.4015  2.0137  1.1009
 6673TIP3   OH219982   0.037   4.478   5.057 -0.1067  0.2148 -0.5140
 6673TIP3    H119983   0.040   4.414   4.986  2.2853 -0.1359 -0.1859
 6673TIP3    H219984   0.086   4.553   5.023  1.5078 -0.1487  0.8832
 6674TIP3   OH219985   4.738   4.406   4.813  0.0860 -0.1183  0.2064
 6674TIP3    H119986   4.767   4.466   4.744 -0.3709  0.1219  0.2221
 6674TIP3    H219987   4.777   4.441   4.893 -0.0458  0.0606  0.1909
 6675TIP3   OH219988   4.050   2.374   5.389 -0.1224 -0.1746  0.7424
 6675TIP3    H119989   3.988   2.376   5.461 -0.3084  0.7120  0.5608
 6675TIP3    H219990   4.054   2.282   5.364  0.6888 -0.6709  2.5171
 6676TIP3   OH219991   2.050   0.340   4.811  0.2176  0.3777 -0.2198
 6676TIP3    H119992   1.959   0.367   4.817  0.2875  1.0707 -1.8287
 6676TIP3    H219993   2.050   0.268   4.747  0.5977 -0.7269  0.9830
 6677TIP3   OH219994   2.655   6.392   2.233  0.2310  0.1802 -0.3377
 6677TIP3    H119995   2.689   6.306   2.208  0.6289  0.2378  0.0053
 6677TIP3    H219996   2.568   6.373   2.270  1.0196 -0.2891  1.3862
 6678TIP3   OH219997   3.586   1.374   4.039 -0.7606  0.0950 -0.0722
 6678TIP3    H119998   3.494   1.394   4.059 -0.2103  0.4319  2.4312
 6678TIP3    H219999   3.628   1.459   4.029 -0.6027 -0.0519 -0.7072
 6679TIP3   OH220000   5.822   3.027   0.548 -0.2637 -0.0286 -0.1815
 6679TIP3    H120001   5.769   2.977   0.611 -2.0505  0.4128 -1.2938
 6679TIP3    H220002   5.848   3.106   0.596 -0.5068 -0.2942  0.4029
 6680TIP3   OH220003   5.793   6.701   4.551 -0.4909 -0.4172 -0.5741
 6680TIP3    H120004   5.796   6.625   4.608 -0.2112 -0.4673 -0.6577
 6680TIP3    H220005   5.883   6.716   4.524 -0.3199  0.7540  0.5116
 6681TIP3   OH220006   6.990   2.242   1.432  0.6347  0.2192 -0.3547
 6681TIP3    H120007   6.896   2.229   1.419  1.0009 -1.1300 -2.1673
 6681TIP3    H220008   7.020   2.161   1.473  1.2105  0.0373 -1.1099
 6682TIP3   OH220009   2.718   5.246   1.242  0.1381  0.1339  0.1222
 6682TIP3    H120010   2.733   5.311   1.173  0.5952 -1.1048 -0.9971
 6682TIP3    H220011   2.805   5.214   1.264 -0.0596  0.0730  0.8530
 6683TIP3   OH220012   2.186   5.395   2.436 -0.2846  0.5091 -0.5381
 6683TIP3    H120013   2.278   5.368   2.434  0.4545  2.6315  0.7933
 6683TIP3    H220014   2.173   5.443   2.355  0.1343  1.1473 -0.2372
 6684TIP3   OH220015   0.012   3.789   3.616  0.1068 -0.1057  0.0883
 6684TIP3    H120016   0.016   3.834   3.531  0.9969 -1.2990 -0.5361
 6684TIP3    H220017   0.068   3.712   3.605 -1.0798 -1.1843  1.2303
 6685TIP3   OH220018   2.213   6.622   2.684 -0.3262 -0.1209 -0.7458
 6685TIP3    H120019   2.192   6.682   2.612 -0.7422  0.4132 -0.1830
 6685TIP3    H220020   2.238   6.541   2.640  1.6930  0.8848 -1.5686
 6686TIP3   OH220021   5.894   6.337   3.394 -0.4275  0.0087  0.1089
 6686TIP3    H120022   5.918   6.397   3.324  0.6298  1.6731  1.8051
 6686TIP3    H220023   5.807   6.366   3.422 -1.6373 -1.7475 -1.5570
 6687TIP3   OH220024   0.595   0.914   3.170  0.3915  0.1212 -0.1417
 6687TIP3    H120025   0.555   0.996   3.139 -2.3228 -0.6494  1.0740
 6687TIP3    H220026   0.533   0.846   3.145  0.7337 -1.1349  2.1431
 6688TIP3   OH220027   3.705   3.925   3.828 -0.3473  0.0578 -0.1669
 6688TIP3    H120028   3.716   3.983   3.753  0.7158 -0.7484 -0.6617
 6688TIP3    H220029   3.624   3.877   3.809  0.1267 -0.4282 -1.0058
 6689TIP3   OH220030   0.593   3.743   1.229  0.2388  0.2070 -0.2311
 6689TIP3    H120031   0.682   3.711   1.242  0.2042  0.1824 -0.0515
 6689TIP3    H220032   0.602   3.837   1.216  0.2967  0.1961 -0.2666
 6690TIP3   OH220033   6.162   4.780   1.667  0.4076 -0.4632 -0.3497
 6690TIP3    H120034   6.192   4.792   1.576 -0.6535 -1.2292 -0.8214
 6690TIP3    H220035   6.081   4.730   1.659 -1.0249  1.5050  0.8610
 6691TIP3   OH220036   0.222   0.018   2.811 -0.2489  0.0288  0.2883
 6691TIP3    H120037   0.241   0.112   2.802  1.8870 -0.0909  2.5598
 6691TIP3    H220038   0.127   0.014   2.819 -0.6254  1.7135 -2.0608
 6692TIP3   OH220039   5.752   5.811   1.445  0.7242  0.1755  0.4240
 6692TIP3    H120040   5.657   5.807   1.435  0.5636  0.2169  1.7517
 6692TIP3    H220041   5.784   5.839   1.359 -0.1050 -4.0231 -1.5468
 6693TIP3   OH220042   6.154   0.750   4.181 -0.4988 -0.8868  0.0021
 6693TIP3    H120043   6.147   0.780   4.090  1.3833 -0.0020  0.1012
 6693TIP3    H220044   6.188   0.826   4.229 -1.4322 -1.3542  1.4567
 6694TIP3   OH220045   6.797   0.198   3.675  0.0133  0.0829  0.6563
 6694TIP3    H120046   6.775   0.159   3.760  0.4322  0.1275  0.7888
 6694TIP3    H220047   6.797   0.292   3.691  0.9874  0.0622  0.8374
 6695TIP3   OH220048   1.313   6.739   5.713  0.0047 -0.0995 -0.1219
 6695TIP3    H120049   1.351   6.729   5.800  0.2199 -0.6043 -0.2704
 6695TIP3    H220050   1.218   6.736   5.728  0.0429 -0.5473  0.0623
 6696TIP3   OH220051   7.132   5.015   3.138 -0.5582 -0.0450 -0.3442
 6696TIP3    H120052   7.144   5.041   3.230 -0.0129 -3.5098  0.7142
 6696TIP3    H220053   7.218   5.032   3.098  0.9748 -3.2272  1.2407
 6697TIP3   OH220054   6.979   4.679   3.505 -0.1500  0.0830 -0.4018
 6697TIP3    H120055   6.903   4.629   3.537 -0.3339  1.0158  0.6886
 6697TIP3    H220056   7.054   4.641   3.552 -0.0190 -0.3874 -0.9742
 6698TIP3   OH220057   1.646   1.702   5.614 -0.4120 -0.3735  0.0319
 6698TIP3    H120058   1.610   1.787   5.589  0.8100  1.0447  2.7315
 6698TIP3    H220059   1.621   1.691   5.705  0.9974 -2.0927  0.2772
 6699TIP3   OH220060   4.267   4.103   4.006  0.3777  0.2332 -0.0103
 6699TIP3    H120061   4.359   4.117   4.026 -0.1269  1.9841  1.4267
 6699TIP3    H220062   4.251   4.150   3.925  0.3230  1.9129  0.9188
 6700TIP3   OH220063   3.524   4.144   2.028  0.1131 -0.5319  0.3593
 6700TIP3    H120064   3.533   4.115   1.937 -0.3137 -2.3861  0.8766
 6700TIP3    H220065   3.430   4.151   2.042  0.0054 -3.0827  1.4429
 6701TIP3   OH220066   5.880   1.718   2.433 -0.3041  0.4823 -0.7029
 6701TIP3    H120067   5.902   1.752   2.346 -0.3243 -0.2404 -0.9959
 6701TIP3    H220068   5.830   1.788   2.474 -1.7128  0.2100 -1.8856
 6702TIP3   OH220069   5.902   2.997   2.285 -0.0107  0.2775  0.3974
 6702TIP3    H120070   5.961   2.979   2.358  1.4823  0.6712 -0.6769
 6702TIP3    H220071   5.842   2.922   2.283  0.4982 -0.1733  1.4454
 6703TIP3   OH220072   2.428   0.938   0.844 -0.2711 -0.2004  0.2277
 6703TIP3    H120073   2.426   1.031   0.822 -0.9746 -0.2160  0.2177
 6703TIP3    H220074   2.387   0.895   0.770  1.5119 -0.6874 -0.5260
 6704TIP3   OH220075   5.285   1.610   2.477 -0.3037  0.3217 -0.1206
 6704TIP3    H120076   5.245   1.533   2.517  0.2817  0.7447  1.3353
 6704TIP3    H220077   5.232   1.627   2.399 -0.8869 -1.1089 -0.0662
 6705TIP3   OH220078   3.626   5.836   1.005 -0.1795  0.0787 -0.0554
 6705TIP3    H120079   3.643   5.922   0.967 -2.0769  0.5374  0.0452
 6705TIP3    H220080   3.653   5.774   0.937  1.2195  0.7170 -0.1222
 6706TIP3   OH220081   2.019   3.873   5.213 -0.2909 -0.0319  0.2458
 6706TIP3    H120082   1.928   3.904   5.211 -0.8014 -1.5080 -0.2149
 6706TIP3    H220083   2.064   3.938   5.267 -0.7713  2.8351 -2.5047
 6707TIP3   OH220084   6.173   6.247   0.499  0.1165 -0.6164 -0.3231
 6707TIP3    H120085   6.215   6.255   0.414  0.0515  0.4317 -0.2739
 6707TIP3    H220086   6.090   6.204   0.481 -0.1602  0.1327 -0.8859
 6708TIP3   OH220087   3.373   4.414   5.462  0.2023  0.0550  0.1244
 6708TIP3    H120088   3.454   4.459   5.436  0.3291 -0.8525 -1.1627
 6708TIP3    H220089   3.303   4.468   5.425  0.2876 -0.0019 -0.1232
 6709TIP3   OH220090   2.978   0.084   2.542  0.1671 -0.2158 -0.2495
 6709TIP3    H120091   2.925   0.050   2.613 -0.1675  0.7686 -0.0074
 6709TIP3    H220092   2.992   0.010   2.483 -4.1576  0.0979 -2.0225
 6710TIP3   OH220093   3.907   1.788   3.568  0.0691 -0.0622  0.1749
 6710TIP3    H120094   3.926   1.712   3.622  2.0819 -0.3411 -0.8520
 6710TIP3    H220095   3.895   1.752   3.480  2.1858  0.8696 -0.5414
 6711TIP3   OH220096   2.551   3.146   5.762  0.9081  0.4031  0.0363
 6711TIP3    H120097   2.631   3.198   5.756  0.7136  0.5359 -1.9703
 6711TIP3    H220098   2.570   3.065   5.716  0.1526  0.0627  0.2955
 6712TIP3   OH220099   2.675   5.992   4.806  1.0513  0.1668  0.4206
 6712TIP3    H120100   2.742   6.041   4.759  0.8520 -0.7592 -0.8967
 6712TIP3    H220101   2.702   5.997   4.898  2.5650  0.3603 -0.0003
 6713TIP3   OH220102   4.863   3.641   1.211  0.2068  0.1054 -0.0633
 6713TIP3    H120103   4.942   3.695   1.221  0.1478  0.2345 -0.2842
 6713TIP3    H220104   4.801   3.697   1.165  0.7960 -0.7582 -2.0444
 6714TIP3   OH220105   5.012   2.318   1.382 -0.1456  0.3544 -0.6145
 6714TIP3    H120106   5.097   2.361   1.388  0.1769 -0.4568  2.8098
 6714TIP3    H220107   5.030   2.236   1.336  0.6914  0.6556 -0.8434
 6715TIP3   OH220108   7.050   2.652   3.726  0.0760  0.0182  0.9076
 6715TIP3    H120109   7.086   2.669   3.814 -0.5634 -2.2158  1.6661
 6715TIP3    H220110   7.079   2.564   3.705 -1.4359 -0.2368 -0.2855
 6716TIP3   OH220111   2.581   1.173   0.530  0.5254  0.7814  0.1621
 6716TIP3    H120112   2.501   1.225   0.524 -0.3161 -0.5628 -1.3529
 6716TIP3    H220113   2.557   1.089   0.490  2.2648 -0.2045  1.0875
 6717TIP3   OH220114   6.049   4.540   2.382 -0.0398  0.4861  0.1774
 6717TIP3    H120115   6.089   4.587   2.308  3.4418 -0.7985  1.0435
 6717TIP3    H220116   5.995   4.472   2.341  1.1880  0.2879 -1.1954
 6718TIP3   OH220117   6.017   5.690   3.070 -0.3686  0.2280  0.3903
 6718TIP3    H120118   5.999   5.627   3.140 -0.7569  0.0839  0.1652
 6718TIP3    H220119   6.050   5.767   3.116  1.5926 -0.6563  0.5448
 6719TIP3   OH220120   6.066   2.282   3.184  0.4087  0.3121  0.3995
 6719TIP3    H120121   6.023   2.237   3.111  0.6175  0.2111  0.3379
 6719TIP3    H220122   6.034   2.372   3.178 -1.7878 -0.2970  1.8747
 6720TIP3   OH220123   2.590   0.384   5.179  0.3055  0.3636  0.2017
 6720TIP3    H120124   2.536   0.437   5.121 -1.1808 -0.5458  0.6967
 6720TIP3    H220125   2.680   0.407   5.156 -0.2716  1.4591 -1.0844
 6721TIP3   OH220126   0.479   2.116   0.573  0.5237  0.2401  0.3878
 6721TIP3    H120127   0.514   2.187   0.627 -1.3306  0.1590  1.7906
 6721TIP3    H220128   0.493   2.037   0.625 -0.4646  0.0373  0.3579
 6722TIP3   OH220129   0.274   3.042   3.419 -0.3946  0.0902  0.7079
 6722TIP3    H120130   0.203   3.101   3.443 -1.7567 -1.8385  1.6604
 6722TIP3    H220131   0.246   2.956   3.450  1.0116 -1.3020 -1.5761
 6723TIP3   OH220132   1.549   4.507   1.875 -0.2518 -0.1459  0.4951
 6723TIP3    H120133   1.465   4.524   1.918 -0.7183 -1.1390  0.0130
 6723TIP3    H220134   1.549   4.567   1.800 -1.1194 -1.0159 -0.2287
 6724TIP3   OH220135   3.102   2.426   5.009  0.4314 -0.1118  0.0460
 6724TIP3    H120136   3.047   2.356   4.973  0.6532 -1.1055  1.5445
 6724TIP3    H220137   3.190   2.405   4.978  0.5637 -0.7655  0.8096
 6725TIP3   OH220138   4.427   3.018   1.776  0.0987 -0.0554  0.5030
 6725TIP3    H120139   4.431   3.113   1.769  2.9722 -0.1529 -0.8201
 6725TIP3    H220140   4.507   2.994   1.824  0.3218 -1.8600 -0.6659
 6726TIP3   OH220141   6.307   0.586   3.349  0.0722 -0.1280  0.0209
 6726TIP3    H120142   6.284   0.675   3.376  0.1834 -0.6474  1.9867
 6726TIP3    H220143   6.397   0.594   3.317  0.5412  0.2965  1.3521
 6727TIP3   OH220144   2.430   3.668   2.232 -0.1464  0.2420 -0.1389
 6727TIP3    H120145   2.456   3.668   2.139  1.2254  0.0932  0.2163
 6727TIP3    H220146   2.442   3.577   2.259  0.8144  0.5519  0.5220
 6728TIP3   OH220147   0.824   6.145   5.278  0.4445  0.2178  0.2759
 6728TIP3    H120148   0.747   6.094   5.254 -1.0278  2.7515 -0.7924
 6728TIP3    H220149   0.830   6.213   5.211  1.5854  2.1419  2.1700
 6729TIP3   OH220150   4.196   2.576   2.310 -0.1242  0.5171 -0.0628
 6729TIP3    H120151   4.188   2.497   2.257 -2.2993 -0.3375  1.4114
 6729TIP3    H220152   4.233   2.546   2.393 -0.7904  1.0663  0.4466
 6730TIP3   OH220153   6.871   4.905   4.992 -0.0958 -0.6423 -0.0733
 6730TIP3    H120154   6.799   4.864   5.040 -0.1427 -0.7876 -0.2657
 6730TIP3    H220155   6.839   4.911   4.902  0.5862 -1.8264 -0.4193
 6731TIP3   OH220156   4.546   5.215   1.011  0.8190 -0.4747 -0.0817
 6731TIP3    H120157   4.528   5.122   1.025 -1.9644  0.2527  2.4229
 6731TIP3    H220158   4.585   5.244   1.094 -2.1363  1.2605  0.8318
 6732TIP3   OH220159   1.075   5.540   0.610  0.3234 -0.8496 -0.4997
 6732TIP3    H120160   1.019   5.617   0.606 -0.2635 -1.2637 -0.4600
 6732TIP3    H220161   1.090   5.516   0.518  0.2858 -0.8411 -0.5081
 6733TIP3   OH220162   0.202   0.506   2.504 -0.5744 -0.1385 -0.2454
 6733TIP3    H120163   0.298   0.511   2.503 -0.6043  0.6066 -1.2730
 6733TIP3    H220164   0.181   0.466   2.588  0.6237  0.0824  0.1792
 6734TIP3   OH220165   5.546   1.193   4.224  0.2536  0.0830 -0.0568
 6734TIP3    H120166   5.565   1.171   4.315  1.6914 -1.3773 -0.6430
 6734TIP3    H220167   5.633   1.202   4.183 -0.3003 -1.2436 -1.6647
 6735TIP3   OH220168   3.554   6.060   1.875 -0.6989 -1.0332 -0.1102
 6735TIP3    H120169   3.550   6.145   1.832 -1.6056 -0.7104  0.5792
 6735TIP3    H220170   3.463   6.032   1.883 -0.3764 -2.5378 -1.1917
 6736TIP3   OH220171   2.828   5.501   4.352  0.1714 -0.0536  0.3286
 6736TIP3    H120172   2.885   5.427   4.370  0.0497 -0.3945 -0.6757
 6736TIP3    H220173   2.887   5.572   4.327  0.1949 -0.2359 -0.1353
 6737TIP3   OH220174   5.328   1.348   4.296 -0.6025 -0.4994 -0.4635
 6737TIP3    H120175   5.405   1.293   4.283  1.1441  1.2783  1.7066
 6737TIP3    H220176   5.353   1.434   4.263 -0.3996  0.9187  3.0141
 6738TIP3   OH220177   5.390   4.208   5.108  0.2610  0.2559  0.1024
 6738TIP3    H120178   5.404   4.117   5.084 -1.4234  0.0692 -0.3279
 6738TIP3    H220179   5.392   4.209   5.203  2.6789  0.2285  0.0964
 6739TIP3   OH220180   5.124   5.033   2.559  0.2139 -0.1923 -0.1208
 6739TIP3    H120181   5.170   5.063   2.638 -1.2271  0.6166  0.4553
 6739TIP3    H220182   5.035   5.013   2.590 -0.7058  1.1787 -1.6895
 6740TIP3   OH220183   2.559   0.278   2.380 -0.0065  0.1798  0.0423
 6740TIP3    H120184   2.617   0.345   2.415  0.1441 -0.2745  0.6727
 6740TIP3    H220185   2.607   0.196   2.391  0.2198  0.0572 -1.6099
 6741TIP3   OH220186   1.686   4.765   4.474  0.5731 -0.5903 -0.2906
 6741TIP3    H120187   1.758   4.827   4.465  0.2707 -0.2497 -0.3927
 6741TIP3    H220188   1.723   4.693   4.525  0.4940  0.4181  1.2732
 6742TIP3   OH220189   1.795   0.418   4.857 -0.8454  0.2051 -0.2088
 6742TIP3    H120190   1.719   0.409   4.799 -1.5264  1.8628  0.3750
 6742TIP3    H220191   1.790   0.343   4.916 -0.6658 -0.9964 -1.6533
 6743TIP3   OH220192   4.155   2.281   4.022 -0.4801 -0.8041 -0.1157
 6743TIP3    H120193   4.244   2.245   4.024 -0.8518 -1.7619  1.5085
 6743TIP3    H220194   4.152   2.341   4.096 -1.7081 -2.2779  1.1215
 6744TIP3   OH220195   5.718   4.172   4.615  0.3195  0.2457  0.0453
 6744TIP3    H120196   5.747   4.262   4.628 -2.0016  1.3632 -1.7232
 6744TIP3    H220197   5.700   4.139   4.703  2.5035  0.9880  0.8227
 6745TIP3   OH220198   6.073   1.031   4.016  0.2717  0.0366  0.0279
 6745TIP3    H120199   5.983   1.061   4.005  0.5397  1.2179  0.8478
 6745TIP3    H220200   6.093   0.984   3.935 -1.1856 -0.5510 -0.0195
 6746TIP3   OH220201   2.072   0.583   3.704  0.6526  0.1502  0.1638
 6746TIP3    H120202   2.049   0.597   3.612 -2.2677 -0.0901  0.7522
 6746TIP3    H220203   2.070   0.670   3.743 -0.2013  0.0376  0.3888
 6747TIP3   OH220204   1.269   5.017   0.741  0.0801 -0.1029  0.0508
 6747TIP3    H120205   1.347   5.026   0.686 -0.2772  1.2376 -0.2877
 6747TIP3    H220206   1.203   5.070   0.696 -0.5657  0.0598  1.1702
 6748TIP3   OH220207   2.099   4.441   3.937 -0.0147 -0.8268  0.0771
 6748TIP3    H120208   2.064   4.354   3.916 -0.0247 -0.3801 -1.8893
 6748TIP3    H220209   2.048   4.502   3.884  0.8262  0.2778  0.4900
 6749TIP3   OH220210   3.162   4.985   0.005 -0.1260  0.7222  0.2486
 6749TIP3    H120211   3.231   5.019   0.063  0.0213 -0.0987  0.5674
 6749TIP3    H220212   3.089   5.045   0.019  0.0239  0.7386  1.0316
 6750TIP3   OH220213   1.056   2.435   0.800 -0.0603  0.3119 -0.0723
 6750TIP3    H120214   0.984   2.491   0.769 -1.9759 -1.8059  0.3040
 6750TIP3    H220215   1.070   2.373   0.729  1.9255  1.0634 -0.4084
 6751TIP3   OH220216   3.325   1.855   2.270  0.2052 -0.6330 -0.0690
 6751TIP3    H120217   3.355   1.895   2.188  1.1681 -0.3588  0.3953
 6751TIP3    H220218   3.230   1.857   2.264  0.2557 -0.1664 -0.9689
 6752TIP3   OH220219   0.258   4.253   0.302 -0.2031 -0.2486 -0.0218
 6752TIP3    H120220   0.320   4.305   0.353 -1.5329  2.0093 -0.5694
 6752TIP3    H220221   0.313   4.193   0.250  1.6037  2.1140 -0.9898
 6753TIP3   OH220222   7.094   5.605   4.838  0.4888  0.4276  0.0646
 6753TIP3    H120223   7.162   5.555   4.794  0.4562  3.3677 -3.8463
 6753TIP3    H220224   7.129   5.621   4.926  3.0960 -1.3332 -0.5506
 6754TIP3   OH220225   3.631   0.795   0.204  0.5358  0.0321 -0.2501
 6754TIP3    H120226   3.658   0.732   0.137 -1.5872 -1.0994 -0.1143
 6754TIP3    H220227   3.578   0.859   0.157 -0.1533 -0.2209  0.1718
 6755TIP3   OH220228   7.238   1.616   3.417  0.2233  0.2688 -0.7066
 6755TIP3    H120229   7.213   1.562   3.342  0.6165  0.0971 -0.7164
 6755TIP3    H220230   7.162   1.613   3.475 -0.4280  1.1092 -1.4858
 6756TIP3   OH220231   0.562   3.679   2.123 -0.2664  0.3410 -0.0262
 6756TIP3    H120232   0.487   3.646   2.172 -0.1300 -0.0148 -0.0573
 6756TIP3    H220233   0.566   3.625   2.045 -0.3744  0.7912 -0.3494
 6757TIP3   OH220234   1.466   6.191   5.608 -0.3374 -0.5824  0.0486
 6757TIP3    H120235   1.554   6.228   5.609  0.4583 -2.3468  1.3134
 6757TIP3    H220236   1.430   6.211   5.695 -1.3148  0.3554 -0.5499
 6758TIP3   OH220237   5.061   0.170   5.067  0.0669 -0.1438 -0.1554
 6758TIP3    H120238   5.088   0.158   5.158  0.2776  2.7486  0.2549
 6758TIP3    H220239   4.981   0.118   5.059  1.2855 -2.3215  0.9543
 6759TIP3   OH220240   0.317   6.083   4.533 -0.5069 -0.6563  0.2301
 6759TIP3    H120241   0.313   6.176   4.512  1.4040 -1.1469 -3.0245
 6759TIP3    H220242   0.405   6.071   4.569  0.5495 -1.5566 -2.3797
 6760TIP3   OH220243   3.356   3.963   4.353 -0.4578  0.2149  0.5183
 6760TIP3    H120244   3.330   4.042   4.304 -0.2775 -0.6708 -1.0850
 6760TIP3    H220245   3.293   3.896   4.325 -0.0339 -0.4530  1.1363
 6761TIP3   OH220246   4.081   0.645  -0.027  0.1686 -0.4237  0.4706
 6761TIP3    H120247   4.141   0.593   0.026  1.2508  0.1867 -0.1091
 6761TIP3    H220248   4.091   0.734   0.006  1.4543  0.1064 -1.2263
 6762TIP3   OH220249   3.244   3.149   0.945 -0.8202  0.1159 -0.1303
 6762TIP3    H120250   3.166   3.182   0.900 -1.5008 -1.0725  0.1374
 6762TIP3    H220251   3.210   3.109   1.025  0.1441  0.1925  0.3285
 6763TIP3   OH220252   5.412   6.313   1.699 -0.3706 -0.0814  0.8862
 6763TIP3    H120253   5.490   6.327   1.645  0.7134  0.8373  2.5926
 6763TIP3    H220254   5.359   6.251   1.649 -0.2098  1.8407 -1.9631
 6764TIP3   OH220255   6.888   1.468   0.135 -0.2145 -0.1214  0.7513
 6764TIP3    H120256   6.861   1.380   0.159 -1.1366  0.2102  0.9791
 6764TIP3    H220257   6.808   1.520   0.142  0.3146  0.7291  0.6075
 6765TIP3   OH220258   1.304   5.625   5.247  0.3802  0.3327  0.1494
 6765TIP3    H120259   1.355   5.554   5.284  0.8207  0.7189  0.2914
 6765TIP3    H220260   1.361   5.664   5.180 -0.1651  0.0382 -0.5012
 6766TIP3   OH220261   7.166   5.944   2.248  0.4316 -0.2356 -0.7073
 6766TIP3    H120262   7.182   5.958   2.154 -0.5029 -0.3219 -0.8844
 6766TIP3    H220263   7.100   6.010   2.271 -0.8783 -1.5534 -0.5814
 6767TIP3   OH220264   2.129   6.635   1.189  0.2115 -0.2165  0.0906
 6767TIP3    H120265   2.094   6.700   1.251 -0.6729 -0.9686  0.3942
 6767TIP3    H220266   2.158   6.563   1.244  0.4565 -0.4177 -0.3041
 6768TIP3   OH220267   4.319   5.710   5.210  0.2869  0.2950  0.1940
 6768TIP3    H120268   4.349   5.801   5.208  0.9304  0.1523  1.6638
 6768TIP3    H220269   4.300   5.694   5.303  0.2895 -1.0981 -0.0351
 6769TIP3   OH220270   4.291   5.730   1.818  0.1255 -0.0010 -0.2492
 6769TIP3    H120271   4.346   5.775   1.754 -0.0017 -0.9171 -1.0330
 6769TIP3    H220272   4.238   5.799   1.858  0.0071  0.5640 -1.3428
 6770TIP3   OH220273   0.605   2.794   1.514 -0.0772  0.0418 -0.4186
 6770TIP3    H120274   0.695   2.825   1.512 -0.4180  1.2188  0.7922
 6770TIP3    H220275   0.594   2.761   1.603 -0.6236 -0.8019 -0.7914
 6771TIP3   OH220276   3.567   6.318   1.485  0.4936 -0.8920  0.7411
 6771TIP3    H120277   3.564   6.287   1.394  0.7537 -0.2126  0.4938
 6771TIP3    H220278   3.476   6.312   1.515  0.5014 -1.6423  0.6169
 6772TIP3   OH220279   2.124   6.032   1.506 -0.3649 -0.3020  0.1751
 6772TIP3    H120280   2.141   5.940   1.527 -1.5699 -0.6437 -0.2935
 6772TIP3    H220281   2.096   6.031   1.414 -0.5564  0.5086  0.2175
 6773TIP3   OH220282   0.446   6.198   1.023  0.4396  0.4956 -0.1589
 6773TIP3    H120283   0.476   6.288   1.041  0.6072  0.4383 -0.1464
 6773TIP3    H220284   0.527   6.148   1.011  0.3375  0.4646 -0.7528
 6774TIP3   OH220285   3.424   5.533   0.910 -0.8829  0.2733  0.0651
 6774TIP3    H120286   3.329   5.537   0.895 -0.6597 -0.2087 -1.8056
 6774TIP3    H220287   3.460   5.516   0.823  0.9640  0.8934  0.6784
 6775TIP3   OH220288   0.770   5.231   0.967 -0.1392  0.3653  0.2696
 6775TIP3    H120289   0.684   5.251   0.930  0.5056  1.5772 -0.6585
 6775TIP3    H220290   0.756   5.229   1.061 -1.0503  1.3589  0.1741
 6776TIP3   OH220291   3.964   0.639   2.132  0.2803 -0.6443 -0.1129
 6776TIP3    H120292   3.966   0.615   2.224  1.5489  0.2922  0.1320
 6776TIP3    H220293   3.914   0.570   2.090 -0.4286 -1.0185  1.2931
 6777TIP3   OH220294   5.612   5.702   3.091  0.0371 -0.2246  0.1721
 6777TIP3    H120295   5.625   5.795   3.111 -1.3354 -0.3455  1.9045
 6777TIP3    H220296   5.652   5.690   3.005  1.7593  1.5887  0.6362
 6778TIP3   OH220297   5.572   1.760   0.629 -0.0511  0.3140 -0.1230
 6778TIP3    H120298   5.608   1.674   0.650 -0.3686 -0.1863 -1.5053
 6778TIP3    H220299   5.603   1.778   0.540 -0.9169  1.1059 -0.2849
 6779TIP3   OH220300   3.238   6.597   2.432 -0.4751  0.0307 -0.5650
 6779TIP3    H120301   3.206   6.558   2.513 -0.3783 -0.2761 -0.6755
 6779TIP3    H220302   3.265   6.686   2.458 -2.6828  0.8194 -0.7412
 6780TIP3   OH220303   2.164   3.211   0.256 -0.5443 -0.0126 -0.4585
 6780TIP3    H120304   2.073   3.182   0.266  0.4769 -2.9947  1.4223
 6780TIP3    H220305   2.206   3.143   0.203  0.7974  0.8138 -0.5054
 6781TIP3   OH220306   5.440   3.077   0.094  0.5132 -0.0182 -0.1910
 6781TIP3    H120307   5.512   3.015   0.096 -0.8389 -1.6442  0.1397
 6781TIP3    H220308   5.391   3.054   0.015 -0.0870  0.5360  0.0133
 6782TIP3   OH220309   4.553   1.893   3.532 -0.3682  0.0368  0.2381
 6782TIP3    H120310   4.477   1.951   3.541 -0.0998  1.0376 -2.7915
 6782TIP3    H220311   4.516   1.808   3.508 -0.6162  0.5723 -1.4338
 6783TIP3   OH220312   1.131   5.040   3.599 -0.2609 -0.6590  0.4761
 6783TIP3    H120313   1.219   5.003   3.593 -0.2900 -1.0523  2.0652
 6783TIP3    H220314   1.126   5.100   3.525  1.2747 -0.7587  0.2462
 6784TIP3   OH220315   2.794   0.464   1.382 -0.7247 -0.0846  0.0059
 6784TIP3    H120316   2.797   0.535   1.446  0.3745 -0.8323  0.8347
 6784TIP3    H220317   2.881   0.424   1.387 -1.6556 -2.2076  0.4198
 6785TIP3   OH220318   4.230   0.186   1.156  0.1942 -0.2762  0.0531
 6785TIP3    H120319   4.175   0.180   1.234 -0.0059 -0.2969 -0.0880
 6785TIP3    H220320   4.177   0.145   1.087  0.2958 -0.0947 -0.1326
 6786TIP3   OH220321   3.018   4.599   3.952  0.1685  0.1800 -0.0982
 6786TIP3    H120322   3.085   4.659   3.921  1.6651 -1.8008 -0.9104
 6786TIP3    H220323   2.974   4.647   4.022  2.2490  1.6596  0.2966
 6787TIP3   OH220324   0.498   4.041   1.572  0.0642  0.9188  0.3277
 6787TIP3    H120325   0.536   4.084   1.495 -0.3707  0.8469  0.0657
 6787TIP3    H220326   0.406   4.028   1.548 -0.1493  1.1788  0.9806
 6788TIP3   OH220327   5.047   2.732   4.617 -0.1225  0.6585  0.0052
 6788TIP3    H120328   5.027   2.814   4.572  0.0859  0.3555 -0.6560
 6788TIP3    H220329   5.056   2.667   4.546  0.0047  0.1291  0.4976
 6789TIP3   OH220330   6.156   5.569   0.276 -0.0321  1.0110  0.1284
 6789TIP3    H120331   6.071   5.584   0.318 -0.4432  1.7198 -0.9386
 6789TIP3    H220332   6.135   5.531   0.191  0.7852  0.0020  0.3444
 6790TIP3   OH220333   4.750   3.040   5.300  0.2299  0.5222  0.5733
 6790TIP3    H120334   4.724   3.077   5.384 -1.9262  1.1453 -0.2923
 6790TIP3    H220335   4.684   3.071   5.239  1.9579  0.4068 -1.4621
 6791TIP3   OH220336   3.001   3.570   4.976  0.2123  1.0231 -0.1357
 6791TIP3    H120337   2.990   3.478   5.003  2.1392  0.4161 -1.2313
 6791TIP3    H220338   3.038   3.613   5.054 -0.4335  0.8228  0.2900
 6792TIP3   OH220339   2.899   1.903   2.941 -0.0434 -0.5039  0.4558
 6792TIP3    H120340   2.923   1.830   2.883 -2.5237 -1.0929  0.0334
 6792TIP3    H220341   2.961   1.972   2.919 -0.1018 -1.1375 -2.0559
 6793TIP3   OH220342   4.492   3.094   2.964 -0.3083 -0.3343 -0.4773
 6793TIP3    H120343   4.464   3.011   3.003 -0.5613 -0.3388 -0.6663
 6793TIP3    H220344   4.499   3.154   3.039  0.4597 -0.6846 -0.2657
 6794TIP3   OH220345   3.405   0.420   4.278 -0.5800  0.5038 -0.1781
 6794TIP3    H120346   3.453   0.503   4.266 -0.2528  0.3902  0.2805
 6794TIP3    H220347   3.316   0.447   4.301 -0.3119  0.7551  0.6349
 6795TIP3   OH220348   5.627   0.954   5.116  0.5141 -0.1194  0.0424
 6795TIP3    H120349   5.545   0.915   5.148 -1.2335  1.9422 -1.5978
 6795TIP3    H220350   5.682   0.879   5.094 -1.5236 -1.6398 -0.2112
 6796TIP3   OH220351   5.379   2.307   1.041 -0.5906 -0.3628 -0.2707
 6796TIP3    H120352   5.310   2.248   1.008 -0.0970 -1.1740  0.1180
 6796TIP3    H220353   5.409   2.354   0.963  0.8261 -2.5152 -1.1284
 6797TIP3   OH220354   2.261   2.506   0.622 -0.2924 -0.3688  0.0572
 6797TIP3    H120355   2.273   2.577   0.685 -1.3930  0.0788 -0.2277
 6797TIP3    H220356   2.248   2.550   0.538  1.6829 -0.9564 -0.6285
 6798TIP3   OH220357   1.889   6.755   2.577  0.2346 -0.1968 -0.0892
 6798TIP3    H120358   1.972   6.776   2.619  1.0623  0.6061 -2.0191
 6798TIP3    H220359   1.841   6.703   2.642  1.2139  1.3747  1.9805
 6799TIP3   OH220360   3.664   3.463   1.155 -0.0592  0.4644 -0.5236
 6799TIP3    H120361   3.680   3.429   1.067 -0.0477 -1.2218  0.0856
 6799TIP3    H220362   3.570   3.481   1.157  0.2081  2.1749 -1.3903
 6800TIP3   OH220363   5.360   4.256   3.440 -0.9726  0.5090  0.3068
 6800TIP3    H120364   5.286   4.205   3.473  0.2488 -0.8807  0.9829
 6800TIP3    H220365   5.397   4.298   3.518  0.4347 -0.8126  0.3965
 6801TIP3   OH220366   3.263   2.457   2.138 -0.3537 -0.2449  0.2006
 6801TIP3    H120367   3.309   2.541   2.127 -1.8018  0.4453 -1.0313
 6801TIP3    H220368   3.318   2.394   2.092  0.2251  0.2363  0.2173
 6802TIP3   OH220369   2.339   3.053   3.555  0.2490 -0.6552  0.8456
 6802TIP3    H120370   2.338   2.957   3.549  0.9664 -0.6200  0.0334
 6802TIP3    H220371   2.356   3.071   3.647 -3.5099 -1.2713  1.8305
 6803TIP3   OH220372   6.350   1.787   0.795  0.1071 -0.3378 -0.0480
 6803TIP3    H120373   6.413   1.718   0.818 -0.2973 -0.8741 -0.5215
 6803TIP3    H220374   6.297   1.748   0.725  0.0480  0.5542 -0.5129
 6804TIP3   OH220375   0.346   6.668   4.435 -0.6745 -0.1994  0.0892
 6804TIP3    H120376   0.297   6.712   4.505 -1.4923 -1.4896  0.3634
 6804TIP3    H220377   0.347   6.575   4.461  2.5899 -0.1907  0.4966
 6805TIP3   OH220378   1.242   3.435   4.611  0.1257  0.0055 -0.0674
 6805TIP3    H120379   1.239   3.340   4.616  0.4886  0.0332  3.6311
 6805TIP3    H220380   1.304   3.453   4.540  1.9830 -2.5879  0.7367
 6806TIP3   OH220381   0.879   3.177   4.834 -0.1155 -0.0794 -0.0071
 6806TIP3    H120382   0.900   3.109   4.898  1.4687  1.2025  0.9106
 6806TIP3    H220383   0.832   3.244   4.884 -0.6099  0.0530 -0.6322
 6807TIP3   OH220384   6.899   0.107   5.082  0.2373  0.3316 -0.4790
 6807TIP3    H120385   6.925   0.192   5.046  0.4705  0.6120  0.3450
 6807TIP3    H220386   6.812   0.092   5.045 -0.0999  1.2511 -0.0886
 6808TIP3   OH220387   3.289   1.850   1.154  0.6664 -0.5051 -0.1620
 6808TIP3    H120388   3.288   1.765   1.198  0.3560 -0.8759 -0.8660
 6808TIP3    H220389   3.219   1.900   1.197  1.2308 -0.3975  0.6405
 6809TIP3   OH220390   3.406   5.387   4.608  0.2828 -0.1870 -0.2129
 6809TIP3    H120391   3.330   5.430   4.647  0.5324 -0.5960  0.7507
 6809TIP3    H220392   3.477   5.401   4.671  1.1201  0.5347 -1.2785
 6810TIP3   OH220393   1.821   1.805   0.141 -0.2981  0.3035  0.2266
 6810TIP3    H120394   1.858   1.719   0.160 -0.4371 -0.1703 -1.4281
 6810TIP3    H220395   1.743   1.811   0.196  1.6049  0.9056  3.0269
 6811TIP3   OH220396   5.411   1.220   2.114 -0.1303 -0.0568  0.3277
 6811TIP3    H120397   5.334   1.212   2.058  1.1687 -1.4929 -1.3283
 6811TIP3    H220398   5.417   1.314   2.133 -2.1214  0.1159  0.3074
 6812TIP3   OH220399   0.948   4.909   1.793  0.1848  0.0597  0.0348
 6812TIP3    H120400   0.986   4.955   1.718 -1.0551 -0.2466 -0.8152
 6812TIP3    H220401   0.881   4.968   1.826  0.3155 -0.0677  0.5326
 6813TIP3   OH220402   4.340   1.648   1.353  0.0162  0.1994  0.4547
 6813TIP3    H120403   4.368   1.644   1.261 -2.1998  2.9737 -0.4714
 6813TIP3    H220404   4.416   1.684   1.399  0.8926 -0.4974 -0.3970
 6814TIP3   OH220405   0.863   2.378   3.275 -0.1170 -0.0662  0.1066
 6814TIP3    H120406   0.851   2.462   3.231 -1.8164 -0.4065 -0.1854
 6814TIP3    H220407   0.957   2.363   3.275  0.0421  0.3822 -2.6486
 6815TIP3   OH220408   2.005   4.393   4.850 -0.7711 -0.3811  0.1060
 6815TIP3    H120409   1.990   4.376   4.944  0.0161 -0.1632  0.2793
 6815TIP3    H220410   2.008   4.488   4.843 -1.4490 -0.3860 -0.2470
 6816TIP3   OH220411   2.191   5.428   1.039 -0.3730 -0.6924  0.4336
 6816TIP3    H120412   2.247   5.360   1.002 -0.4437  0.0244 -1.0825
 6816TIP3    H220413   2.177   5.489   0.966 -0.5949  0.7587  1.6445
 6817TIP3   OH220414   6.155   0.169   2.501 -0.4697 -0.2803 -0.0358
 6817TIP3    H120415   6.235   0.119   2.489 -0.6544 -1.0270  1.5355
 6817TIP3    H220416   6.176   0.234   2.568 -0.8526  0.3069 -0.4707
 6818TIP3   OH220417   7.134   1.285   4.390 -0.0749 -0.5917 -0.4846
 6818TIP3    H120418   7.055   1.285   4.336 -0.1531  1.5848 -0.4442
 6818TIP3    H220419   7.188   1.356   4.354 -0.3229  1.2740  2.5094
 6819TIP3   OH220420   1.039   6.521   4.659 -0.3988 -0.0112 -0.1074
 6819TIP3    H120421   0.982   6.494   4.731 -0.5145  0.2679 -0.0949
 6819TIP3    H220422   1.024   6.456   4.591 -0.0265 -0.4840  0.2527
 6820TIP3   OH220423   0.978   3.016   5.029  0.0927 -0.0881 -0.1498
 6820TIP3    H120424   1.053   2.957   5.041  0.7854  1.0592  1.5638
 6820TIP3    H220425   0.978   3.070   5.108 -1.1115  1.5591 -1.2293
 6821TIP3   OH220426   6.947   6.419   3.748  0.5339  0.4861 -0.1865
 6821TIP3    H120427   6.852   6.414   3.734  0.5384 -0.7760  0.1476
 6821TIP3    H220428   6.984   6.413   3.660  0.3121  1.2587 -0.3440
 6822TIP3   OH220429   5.151   2.186   4.899  0.1335 -0.3149 -0.8186
 6822TIP3    H120430   5.086   2.194   4.969  0.7589  0.0553 -0.2683
 6822TIP3    H220431   5.205   2.265   4.908  1.8680 -1.5153 -0.0092
 6823TIP3   OH220432   4.703   3.705   5.489  0.6963 -0.2794  0.4222
 6823TIP3    H120433   4.658   3.658   5.560 -1.5435  0.0289 -0.7078
 6823TIP3    H220434   4.679   3.657   5.410  0.0777  1.5148 -0.5213
 6824TIP3   OH220435   4.915   2.007   3.971  0.5092 -0.0818 -0.0550
 6824TIP3    H120436   4.962   1.925   3.983  2.3847  1.0773  0.9808
 6824TIP3    H220437   4.934   2.032   3.880 -1.4226 -1.5127 -0.9411
 6825TIP3   OH220438   6.644   3.318   5.200  0.3146 -0.7311 -0.2247
 6825TIP3    H120439   6.702   3.246   5.173  0.3580 -0.4523 -0.8946
 6825TIP3    H220440   6.601   3.285   5.279  1.5179 -0.8691  0.3977
 6826TIP3   OH220441   4.272   4.097   5.064 -0.4337 -0.0103  0.4918
 6826TIP3    H120442   4.258   4.192   5.070  0.2595  0.0295  1.6813
 6826TIP3    H220443   4.344   4.080   5.124 -0.1757 -1.2242 -0.1374
 6827TIP3   OH220444   0.612   3.179   3.631  0.7387 -0.1027  0.4718
 6827TIP3    H120445   0.540   3.242   3.638  0.0695 -0.3502 -2.4772
 6827TIP3    H220446   0.571   3.100   3.594  2.6674  0.3793 -3.1816
 6828TIP3   OH220447   7.212   1.226   0.166 -0.7658  0.2144 -0.1336
 6828TIP3    H120448   7.180   1.235   0.256 -0.2651 -0.6816  0.1471
 6828TIP3    H220449   7.184   1.306   0.123 -2.7960 -0.2313  0.2751
 6829TIP3   OH220450   4.653   2.938   5.811 -0.6335  0.3081 -0.1544
 6829TIP3    H120451   4.608   2.976   5.887 -1.0045 -0.5380  0.0597
 6829TIP3    H220452   4.593   2.871   5.779  0.4357 -0.8151  0.1007
 6830TIP3   OH220453   4.037   5.008   5.801  0.4649  0.1227 -0.1308
 6830TIP3    H120454   4.030   5.103   5.787  0.1353  0.0992 -0.1192
 6830TIP3    H220455   3.987   4.992   5.881  0.0107 -0.1479 -0.4665
 6831TIP3   OH220456   3.497   0.995   5.763  0.3231  0.1518 -0.7893
 6831TIP3    H120457   3.482   0.984   5.669 -4.0459 -1.0045 -0.1733
 6831TIP3    H220458   3.480   1.088   5.780  0.5790  0.2497 -1.0663
 6832TIP3   OH220459   1.541   4.901   2.266 -0.0608 -0.0189 -0.1879
 6832TIP3    H120460   1.527   4.973   2.327 -0.4538 -0.0509 -0.2421
 6832TIP3    H220461   1.475   4.913   2.198 -1.0657 -1.2356  0.5400
 6833TIP3   OH220462   6.672   1.216   5.231  0.5138  0.2404 -0.9372
 6833TIP3    H120463   6.605   1.278   5.261 -0.2956 -0.5310 -1.1109
 6833TIP3    H220464   6.739   1.272   5.191  0.4872  1.1035  0.1716
 6834TIP3   OH220465   2.752   5.824   3.539  0.1576  0.4059  0.2142
 6834TIP3    H120466   2.787   5.893   3.595 -1.0207  0.0198  1.4625
 6834TIP3    H220467   2.716   5.871   3.463  0.3641  1.0634  0.5190
 6835TIP3   OH220468   0.842   2.574   2.659 -0.6463  0.7105 -0.2832
 6835TIP3    H120469   0.911   2.622   2.706 -1.0402  2.0694 -1.0328
 6835TIP3    H220470   0.857   2.482   2.682 -0.7959  1.2821  2.4532
 6836TIP3   OH220471   2.486   5.902   1.559 -0.4991  0.4772  0.5298
 6836TIP3    H120472   2.509   5.855   1.638 -1.7727  0.0868  0.6959
 6836TIP3    H220473   2.426   5.843   1.513  1.9577 -0.3421 -1.9055
 6837TIP3   OH220474   4.997   0.758   3.369 -0.2080  0.0347  0.2021
 6837TIP3    H120475   4.997   0.677   3.318  0.2535  1.1030 -1.5796
 6837TIP3    H220476   4.962   0.733   3.454 -0.1916 -2.0029 -0.3440
 6838TIP3   OH220477   2.858   5.556   5.603 -0.2106  0.0451 -0.5163
 6838TIP3    H120478   2.853   5.556   5.699 -0.0548  0.3482 -0.5049
 6838TIP3    H220479   2.768   5.570   5.574 -0.0140  1.9478 -0.3765
 6839TIP3   OH220480   3.948   0.904   0.806  0.3001  0.0034 -0.5564
 6839TIP3    H120481   3.962   0.933   0.896 -0.7008  1.2820 -0.7934
 6839TIP3    H220482   3.906   0.818   0.815  0.3319  0.0581  0.1869
 6840TIP3   OH220483   3.510   2.314   3.557  0.1704 -0.2276 -0.0417
 6840TIP3    H120484   3.454   2.330   3.632  0.4845  0.6800  0.0134
 6840TIP3    H220485   3.587   2.269   3.593 -0.1749 -0.8080 -0.0071
 6841TIP3   OH220486   3.631   0.879   1.667  0.6140 -0.1369 -0.5074
 6841TIP3    H120487   3.631   0.833   1.584 -3.4353  0.1021 -0.8255
 6841TIP3    H220488   3.704   0.941   1.660  2.1820 -2.0663 -2.6280
 6842TIP3   OH220489   0.057   5.223   3.724  0.2000 -0.9909 -0.7618
 6842TIP3    H120490   0.109   5.288   3.772 -1.4822 -1.3513  1.7552
 6842TIP3    H220491  -0.033   5.252   3.734 -0.5729 -3.4223  0.1309
 6843TIP3   OH220492   2.195   0.737   5.223  0.9633  0.1200  0.6619
 6843TIP3    H120493   2.169   0.654   5.261  1.7466  0.3608  1.7601
 6843TIP3    H220494   2.226   0.789   5.297 -0.1501  1.6476  0.0986
 6844TIP3   OH220495   4.932   0.646   3.047  0.7521  0.4355  0.0188
 6844TIP3    H120496   4.946   0.693   2.965 -1.0131 -3.6172 -2.9245
 6844TIP3    H220497   5.009   0.589   3.056 -0.2789 -1.0873 -0.4060
 6845TIP3   OH220498   6.544   3.413   4.426  0.4614 -0.1525  0.4798
 6845TIP3    H120499   6.473   3.463   4.387  2.1472  2.3920  0.4054
 6845TIP3    H220500   6.502   3.337   4.466 -2.4172  1.7867  1.3980
 6846TIP3   OH220501   3.138   4.899   2.646 -0.0447  0.3804 -0.3682
 6846TIP3    H120502   3.045   4.914   2.663  0.1417  0.3782  0.6946
 6846TIP3    H220503   3.175   4.987   2.640 -0.0749  0.3799 -0.5598
 6847TIP3   OH220504   6.805   2.519   0.640  0.0807  0.4417 -0.2746
 6847TIP3    H120505   6.816   2.458   0.713 -1.1942  0.7456  0.1963
 6847TIP3    H220506   6.743   2.584   0.672  0.7247  1.4765 -1.0941
 6848TIP3   OH220507   6.313   1.477   4.576 -0.0144  0.6081  0.5167
 6848TIP3    H120508   6.384   1.541   4.569 -1.9737  2.7511 -1.6380
 6848TIP3    H220509   6.285   1.463   4.485 -0.4457 -2.4845  1.0449
 6849TIP3   OH220510   4.478   2.507   4.768  0.7237 -0.0465  0.3119
 6849TIP3    H120511   4.430   2.586   4.743  0.3123  0.1279  1.5686
 6849TIP3    H220512   4.511   2.526   4.856  1.9967 -0.6707 -0.0059
 6850TIP3   OH220513   5.671   3.864   1.688 -0.6313  0.0937 -0.0576
 6850TIP3    H120514   5.735   3.822   1.745 -0.6635  1.5698  1.1233
 6850TIP3    H220515   5.589   3.817   1.703 -0.2316 -0.6873 -0.2735
 6851TIP3   OH220516   1.457   1.415   4.778  0.1619  0.6760  0.0306
 6851TIP3    H120517   1.459   1.421   4.873 -1.8254 -0.0459  0.1589
 6851TIP3    H220518   1.532   1.467   4.749  0.5609  1.2428  1.9614
 6852TIP3   OH220519   1.517   6.273   4.929  0.4390  0.2001 -0.1023
 6852TIP3    H120520   1.492   6.192   4.973 -0.2606 -0.7907 -2.1417
 6852TIP3    H220521   1.436   6.303   4.887  0.9966  1.1935 -0.5181
 6853TIP3   OH220522   0.247   1.106   1.724  0.0649 -0.3027 -0.2545
 6853TIP3    H120523   0.308   1.066   1.661  0.0499  0.2811 -0.6477
 6853TIP3    H220524   0.165   1.111   1.676  0.3537  1.2641 -0.6276
 6854TIP3   OH220525   2.524   3.132   0.514 -0.2994 -0.1966  0.4597
 6854TIP3    H120526   2.475   3.191   0.573  0.7548  0.8827  0.2965
 6854TIP3    H220527   2.615   3.160   0.523  0.5761 -3.0720  1.8358
 6855TIP3   OH220528   4.500   6.753   0.924 -0.4756 -0.3266  0.1667
 6855TIP3    H120529   4.575   6.800   0.889  0.1854 -1.1501  0.4467
 6855TIP3    H220530   4.434   6.821   0.941  0.9314  0.6925  1.8440
 6856TIP3   OH220531   3.594   4.265   4.854  0.4126  0.0875  0.0497
 6856TIP3    H120532   3.551   4.247   4.938 -1.1535 -0.1923 -0.7745
 6856TIP3    H220533   3.647   4.343   4.871 -0.9329  0.8510  0.9836
 6857TIP3   OH220534   1.679   3.761   1.054 -0.5771 -0.1421 -0.1419
 6857TIP3    H120535   1.601   3.725   1.010  0.6095 -0.1554 -2.3519
 6857TIP3    H220536   1.742   3.689   1.053  0.0386  0.3913  0.1299
 6858TIP3   OH220537   3.473   0.996   0.063  0.0283  0.4777 -0.3051
 6858TIP3    H120538   3.395   1.050   0.078 -0.1709  0.0343  0.2829
 6858TIP3    H220539   3.493   1.008  -0.030  0.0822  1.6883 -0.1529
 6859TIP3   OH220540   3.829   2.942   1.451  0.2348  0.4379  0.2867
 6859TIP3    H120541   3.903   2.948   1.512  1.2950 -0.1066 -0.8994
 6859TIP3    H220542   3.845   3.010   1.386  0.6839 -0.8077 -0.9666
 6860TIP3   OH220543   1.287   3.907   4.318  0.5580 -0.5587 -0.0691
 6860TIP3    H120544   1.259   3.906   4.410 -1.1694 -3.9172 -0.4630
 6860TIP3    H220545   1.380   3.883   4.321  0.8260  0.4878  0.8014
 6861TIP3   OH220546   5.287   4.500   5.339  0.2150 -0.3903 -0.1142
 6861TIP3    H120547   5.212   4.441   5.343 -0.8315  0.8622 -0.6434
 6861TIP3    H220548   5.266   4.570   5.401 -0.4477  1.4994 -2.3431
 6862TIP3   OH220549   3.818   5.998   4.830 -0.1976 -0.3132  0.8075
 6862TIP3    H120550   3.900   5.985   4.877 -0.0280 -1.2475  0.2739
 6862TIP3    H220551   3.776   6.071   4.876  1.1856  0.5802  0.7303
 6863TIP3   OH220552   4.391   5.327   4.364  0.5349  0.0403 -0.0929
 6863TIP3    H120553   4.380   5.308   4.271  1.5409 -0.9614 -0.0301
 6863TIP3    H220554   4.399   5.240   4.405  1.5624  0.5018  0.7202
 6864TIP3   OH220555   2.739   2.379   5.562  0.4559 -0.2399  0.2500
 6864TIP3    H120556   2.694   2.296   5.570 -0.3430  0.0879 -0.6273
 6864TIP3    H220557   2.673   2.445   5.584  0.7339  0.2155 -0.2528
 6865TIP3   OH220558   1.360   3.729   4.951  0.1589 -0.3069 -0.1371
 6865TIP3    H120559   1.301   3.722   5.026  0.5225  0.4371  0.2266
 6865TIP3    H220560   1.353   3.644   4.908 -1.8768  0.0590 -0.6393
 6866TIP3   OH220561   2.545   4.418   5.736  0.3765 -0.0597 -0.4731
 6866TIP3    H120562   2.523   4.351   5.802  1.1851 -0.6824 -0.8240
 6866TIP3    H220563   2.475   4.483   5.745  0.8977  0.3082  1.5804
 6867TIP3   OH220564   5.674   1.252   4.925  0.2638 -0.2271 -0.3790
 6867TIP3    H120565   5.723   1.172   4.946  0.4368  0.6594  3.4059
 6867TIP3    H220566   5.737   1.308   4.880  0.5404 -1.6568 -1.8462
 6868TIP3   OH220567   1.457   2.894   4.580  0.0171  0.3608 -0.3846
 6868TIP3    H120568   1.385   2.911   4.642  0.1284  2.4979 -0.7590
 6868TIP3    H220569   1.535   2.890   4.635 -0.3888 -2.9184  0.1408
 6869TIP3   OH220570   6.177   4.483   3.721  0.5813  0.6655  0.4239
 6869TIP3    H120571   6.222   4.485   3.637  0.5679  0.7827  0.4204
 6869TIP3    H220572   6.130   4.566   3.726 -0.4111  0.1469 -0.0004
 6870TIP3   OH220573   6.338   5.821   5.336  0.4029 -0.2087 -0.0054
 6870TIP3    H120574   6.368   5.900   5.382  1.4089  0.0485 -1.0558
 6870TIP3    H220575   6.370   5.748   5.389  0.5785  0.0817  0.2906
 6871TIP3   OH220576   2.952   1.008   4.106  0.3939  0.0088  0.0331
 6871TIP3    H120577   2.874   0.958   4.128 -0.2892  1.1988  0.4274
 6871TIP3    H220578   2.920   1.080   4.052  0.7384  2.1069  2.4310
 6872TIP3   OH220579   0.837   1.363   2.446  0.0542  0.2059  0.2514
 6872TIP3    H120580   0.786   1.445   2.444  0.1669  0.2781 -2.0574
 6872TIP3    H220581   0.774   1.297   2.474 -0.9939  0.5414 -1.1680
 6873TIP3   OH220582   4.917   4.073   2.043  0.1097 -0.5396  0.5758
 6873TIP3    H120583   4.871   4.002   2.088  0.1449 -0.9492 -0.0241
 6873TIP3    H220584   4.850   4.138   2.023 -0.0746 -0.7854  0.3877
 6874TIP3   OH220585   6.122   4.567   4.001  0.5165 -0.1428 -1.2093
 6874TIP3    H120586   6.109   4.499   4.067  3.0984  2.6648  2.6697
 6874TIP3    H220587   6.201   4.538   3.954  0.7330 -0.5606 -0.6141
 6875TIP3   OH220588   0.981   2.186   2.136  0.2490 -0.1456 -0.4329
 6875TIP3    H120589   0.930   2.267   2.141  0.8035  0.3105 -1.7080
 6875TIP3    H220590   0.915   2.117   2.137 -0.2293  0.3065  0.7096
 6876TIP3   OH220591   5.527   5.012   5.156  0.5289 -0.3087 -0.4368
 6876TIP3    H120592   5.522   4.920   5.180 -2.0059  0.0415  0.6403
 6876TIP3    H220593   5.546   5.058   5.238  1.3932  0.1934 -0.8958
 6877TIP3   OH220594   4.555   6.257   0.473  0.3121 -0.0370 -0.3726
 6877TIP3    H120595   4.640   6.216   0.455  1.9777  2.6512  0.5718
 6877TIP3    H220596   4.503   6.189   0.515  1.3503 -2.2663 -2.4596
 6878TIP3   OH220597   2.480   2.868   5.269  0.0431  0.3393 -0.1244
 6878TIP3    H120598   2.404   2.860   5.210  0.0344 -0.0289 -0.0677
 6878TIP3    H220599   2.455   2.817   5.347  0.0874  0.7546  0.1650
 6879TIP3   OH220600   4.534   4.805   2.462  0.3299  0.0545 -0.9232
 6879TIP3    H120601   4.481   4.884   2.461  1.4271  0.8096 -2.0789
 6879TIP3    H220602   4.517   4.763   2.377  0.6117 -0.3682 -0.7764
 6880TIP3   OH220603   5.160   4.345   4.693 -0.0185 -0.2187  0.3642
 6880TIP3    H120604   5.135   4.354   4.785  0.1712  1.0840  0.3111
 6880TIP3    H220605   5.097   4.283   4.657 -0.7200  0.0266  1.1332
 6881TIP3   OH220606   4.107   6.269   4.712  0.4109  0.2215 -0.0806
 6881TIP3    H120607   4.083   6.220   4.791  0.1101  0.4233 -0.0450
 6881TIP3    H220608   4.184   6.320   4.738 -0.9350  1.9371  0.7469
 6882TIP3   OH220609   0.851   2.160   1.126  0.0912 -0.7310  0.6577
 6882TIP3    H120610   0.920   2.158   1.059 -0.9970 -1.4506 -0.4904
 6882TIP3    H220611   0.860   2.245   1.168  2.3920 -1.2457  1.3393
 6883TIP3   OH220612   0.997   3.312   5.560  0.0757 -0.5311  0.2163
 6883TIP3    H120613   0.947   3.246   5.607 -0.0695 -0.2516  0.4523
 6883TIP3    H220614   0.975   3.395   5.602 -1.9039  0.0750 -1.8120
 6884TIP3   OH220615   3.767   2.783   1.077  0.0682  0.2153 -0.0326
 6884TIP3    H120616   3.827   2.713   1.102 -1.4153 -1.5736 -1.1480
 6884TIP3    H220617   3.707   2.790   1.152 -1.0352 -1.2570 -0.7115
 6885TIP3   OH220618   5.539   1.430   0.705 -0.1934 -0.2365 -0.0465
 6885TIP3    H120619   5.581   1.355   0.747  1.5521 -0.7248 -2.4760
 6885TIP3    H220620   5.483   1.391   0.638  0.0024  0.6199 -0.7107
 6886TIP3   OH220621   2.190   2.184   4.162  0.4461 -0.6248  0.2755
 6886TIP3    H120622   2.234   2.203   4.079  0.5812 -2.3654 -0.1031
 6886TIP3    H220623   2.181   2.269   4.205  2.1740  0.0679 -0.6258
 6887TIP3   OH220624   4.281   1.030   2.167  0.0255  0.0018 -0.0828
 6887TIP3    H120625   4.200   1.033   2.219 -0.0839 -0.2786 -0.2328
 6887TIP3    H220626   4.253   0.996   2.082  0.3185 -0.2001 -0.1010
 6888TIP3   OH220627   0.916   3.643   0.942 -0.0123  0.0381 -0.1529
 6888TIP3    H120628   0.885   3.605   1.024  0.2350 -0.2727 -0.2020
 6888TIP3    H220629   1.001   3.602   0.927 -0.4827 -0.6424 -1.0636
 6889TIP3   OH220630   6.515   5.612   1.768  0.0898 -1.2368  0.5106
 6889TIP3    H120631   6.499   5.624   1.674  2.1987 -0.1114  0.2135
 6889TIP3    H220632   6.590   5.552   1.772 -0.3276 -1.7057  1.5022
 6890TIP3   OH220633   4.277   1.237   5.144  0.6851 -0.3115 -0.2782
 6890TIP3    H120634   4.341   1.307   5.161  2.2446 -1.4941 -1.0580
 6890TIP3    H220635   4.259   1.244   5.051  0.7569 -0.8776 -0.3341
 6891TIP3   OH220636   5.701   4.351   0.545  0.1707 -0.5180  0.0226
 6891TIP3    H120637   5.699   4.255   0.552  1.4458 -0.7101 -1.6862
 6891TIP3    H220638   5.710   4.381   0.636 -0.6084 -1.9755  0.6225
 6892TIP3   OH220639   5.673   3.209   3.129  0.1798 -0.1168  0.8704
 6892TIP3    H120640   5.600   3.177   3.076  1.7639  0.6597 -2.0239
 6892TIP3    H220641   5.701   3.134   3.181 -2.0724 -0.6552  1.4049
 6893TIP3   OH220642   3.745   5.280   3.697  0.6852  0.2852  0.0444
 6893TIP3    H120643   3.735   5.265   3.791 -2.0017  1.9894  0.1309
 6893TIP3    H220644   3.814   5.218   3.670 -1.4002 -3.3934  2.3224
 6894TIP3   OH220645   0.310   2.638   4.584 -0.2843  0.2422 -0.4413
 6894TIP3    H120646   0.241   2.592   4.633  0.2223 -2.0883 -1.7422
 6894TIP3    H220647   0.365   2.677   4.652 -0.7164 -1.1678  0.7821
 6895TIP3   OH220648   5.956   1.824   2.756  0.4639  0.0356  0.6341
 6895TIP3    H120649   5.927   1.739   2.722 -1.6709  1.1440 -0.5237
 6895TIP3    H220650   5.912   1.831   2.841  0.6838 -0.0229  0.7540
 6896TIP3   OH220651   1.099   0.514   3.489 -0.2740  0.9112 -0.1699
 6896TIP3    H120652   1.087   0.506   3.394 -1.0467  1.8616 -0.1603
 6896TIP3    H220653   1.122   0.606   3.503 -2.5948  1.4200  0.7764
 6897TIP3   OH220654   7.056   6.344   3.519  0.7075  0.1419 -0.2407
 6897TIP3    H120655   7.031   6.253   3.500  0.9623  0.3754 -1.8378
 6897TIP3    H220656   7.051   6.388   3.434 -0.0601  1.7911  0.6214
 6898TIP3   OH220657   1.418   6.405   0.811  0.0520 -0.3593  0.0367
 6898TIP3    H120658   1.395   6.479   0.867 -1.4825 -0.3593 -0.5543
 6898TIP3    H220659   1.514   6.410   0.803 -0.1196  2.8366 -1.6698
 6899TIP3   OH220660   2.674   1.155   5.811  0.6096 -0.5691 -0.1059
 6899TIP3    H120661   2.704   1.065   5.828 -0.4804 -0.6135  1.7945
 6899TIP3    H220662   2.753   1.208   5.819  0.6035 -0.8758  3.2829
 6900TIP3   OH220663   3.190   5.863   5.832 -0.0530 -0.0781 -0.0865
 6900TIP3    H120664   3.096   5.864   5.811 -0.0708 -1.7203 -0.2383
 6900TIP3    H220665   3.199   5.928   5.901 -1.2318  0.4128 -0.3558
 6901TIP3   OH220666   2.113   1.542   3.477 -0.5007  0.0963 -0.6389
 6901TIP3    H120667   2.033   1.548   3.425  0.2997  0.4217 -1.8743
 6901TIP3    H220668   2.147   1.455   3.458 -0.6791 -0.1400  0.0860
 6902TIP3   OH220669   1.885   1.047   5.215  0.1340  0.0857 -0.4861
 6902TIP3    H120670   1.896   1.138   5.191  0.5602  0.1772  0.0393
 6902TIP3    H220671   1.962   1.002   5.180 -0.0125 -0.0525 -0.6363
 6903TIP3   OH220672   0.801   4.156   1.923  0.2529 -0.3061  0.7802
 6903TIP3    H120673   0.714   4.138   1.886 -1.0223  0.0233  3.3677
 6903TIP3    H220674   0.858   4.167   1.846 -2.2854  1.0000 -1.0695
 6904TIP3   OH220675   5.118   2.679   3.575  0.5111  0.3425  0.4055
 6904TIP3    H120676   5.155   2.632   3.649 -0.0564 -0.9717 -0.1157
 6904TIP3    H220677   5.028   2.648   3.568  0.4088  0.8028 -0.5396
 6905TIP3   OH220678   0.865   2.548   5.528 -0.1984  0.2243  0.0076
 6905TIP3    H120679   0.780   2.590   5.531  0.7680  2.3934 -1.0030
 6905TIP3    H220680   0.908   2.573   5.610  0.3075  1.0938 -0.5090
 6906TIP3   OH220681   4.856   1.443   1.440  0.1226 -0.0947  0.2155
 6906TIP3    H120682   4.804   1.428   1.361  0.1679  0.6358  0.0471
 6906TIP3    H220683   4.919   1.371   1.442  0.4724  0.1780 -0.6976
 6907TIP3   OH220684   4.887   5.651   2.398  0.4888  0.2189 -0.2242
 6907TIP3    H120685   4.953   5.685   2.338  0.9097 -1.3790 -0.7314
 6907TIP3    H220686   4.934   5.587   2.452 -0.4025 -0.1306  0.1612
 6908TIP3   OH220687   2.193   2.797   0.267 -0.0933  0.8567  0.1927
 6908TIP3    H120688   2.183   2.809   0.361 -0.3752 -1.1397  0.4745
 6908TIP3    H220689   2.271   2.743   0.257 -0.5437  0.3293 -0.6471
 6909TIP3   OH220690   0.574   5.522   2.482 -0.1266 -0.1879 -0.4900
 6909TIP3    H120691   0.598   5.565   2.400  1.6533 -1.7174 -0.8541
 6909TIP3    H220692   0.548   5.433   2.455  1.6240 -1.1071  0.6326
 6910TIP3   OH220693   3.373   6.464   2.189  0.0852 -0.3332  0.3367
 6910TIP3    H120694   3.303   6.481   2.126  0.9308  0.8026 -0.3398
 6910TIP3    H220695   3.354   6.523   2.262  0.8476  0.7113 -0.2801
 6911TIP3   OH220696   5.847   2.540   1.803  0.2715 -0.3596 -0.2800
 6911TIP3    H120697   5.866   2.565   1.712  1.3365 -0.3527 -0.0651
 6911TIP3    H220698   5.792   2.612   1.836  0.2404 -0.1473 -0.7813
 6912TIP3   OH220699   5.707   3.305   4.466 -0.0219 -0.2732 -0.2518
 6912TIP3    H120700   5.637   3.369   4.475 -0.8664 -0.9004 -1.8842
 6912TIP3    H220701   5.781   3.353   4.429 -0.4579 -0.1140 -0.9229
 6913TIP3   OH220702   6.881   2.771   4.231 -0.1741 -0.0523 -0.0530
 6913TIP3    H120703   6.821   2.728   4.292 -0.4729 -0.5323 -0.6723
 6913TIP3    H220704   6.829   2.842   4.193 -0.8590 -1.3063 -1.6206
 6914TIP3   OH220705   5.058   2.933   1.659 -0.3010 -0.3870 -0.8035
 6914TIP3    H120706   4.972   2.974   1.671  0.8767  1.8310  0.8856
 6914TIP3    H220707   5.083   2.903   1.746  0.0156 -2.4359 -1.5557
 6915TIP3   OH220708   2.917   2.370   2.895  0.2289 -0.1377 -0.0522
 6915TIP3    H120709   2.833   2.325   2.900 -0.1122  0.5926  1.6171
 6915TIP3    H220710   2.895   2.463   2.904  1.1821  0.0898  0.0411
 6916TIP3   OH220711   1.194   5.736   0.164  0.3713  0.1886 -0.6941
 6916TIP3    H120712   1.235   5.769   0.244  0.0056 -0.4068 -0.2511
 6916TIP3    H220713   1.104   5.767   0.169  0.1400 -0.4991 -0.4832
 6917TIP3   OH220714   3.339   6.669   0.539  0.2864 -0.5414 -0.6725
 6917TIP3    H120715   3.343   6.657   0.634  0.0790  0.3014 -0.5500
 6917TIP3    H220716   3.428   6.693   0.514  0.2124 -0.1817 -0.6008
 6918TIP3   OH220717   3.474   3.813   0.666 -0.0216  0.2871  0.0744
 6918TIP3    H120718   3.458   3.758   0.743 -0.1678 -0.6952 -0.6278
 6918TIP3    H220719   3.567   3.803   0.649 -0.3279 -1.1591 -1.0409
 6919TIP3   OH220720   3.400   2.716   2.099 -0.1302  0.2812  0.3187
 6919TIP3    H120721   3.352   2.796   2.078 -1.3077 -0.2098  1.0306
 6919TIP3    H220722   3.492   2.742   2.095 -0.3851  1.0815 -1.7951
 6920TIP3   OH220723   4.166   0.875   3.913 -0.0492  0.3219 -0.1213
 6920TIP3    H120724   4.223   0.948   3.934  0.4743  0.1642 -0.9813
 6920TIP3    H220725   4.132   0.847   3.998 -0.7137  1.9061  0.1717
 6921TIP3   OH220726   1.206   4.738   5.811 -0.4060  0.4091  0.4524
 6921TIP3    H120727   1.255   4.814   5.841  1.7153 -0.0397 -1.5734
 6921TIP3    H220728   1.257   4.663   5.843 -0.8058 -0.0993 -0.0805
 6922TIP3   OH220729   5.794   1.106   0.004  0.0888  0.1355 -0.7485
 6922TIP3    H120730   5.872   1.151  -0.027  0.4507 -0.3455 -0.5532
 6922TIP3    H220731   5.822   1.061   0.085 -0.3860 -0.0337 -0.6715
 6923TIP3   OH220732   0.832   2.529   5.130 -0.1572  0.2200  0.2144
 6923TIP3    H120733   0.916   2.533   5.084 -0.4098 -2.7022 -0.7395
 6923TIP3    H220734   0.773   2.581   5.076  0.2579 -0.6799 -1.1817
 6924TIP3   OH220735   6.604   4.274   5.665  0.4023 -0.1094  0.0416
 6924TIP3    H120736   6.697   4.254   5.659  0.2109 -1.6948  1.5823
 6924TIP3    H220737   6.562   4.212   5.604  0.4359  2.2329 -2.5872
 6925TIP3   OH220738   1.933   3.094   5.215  0.5948  1.0578 -0.1084
 6925TIP3    H120739   2.008   3.040   5.239  0.3004  0.0108 -1.4234
 6925TIP3    H220740   1.890   3.114   5.298  1.6690  0.6967  0.5501
 6926TIP3   OH220741   7.060   6.554   2.102 -0.2400  0.0815 -0.6916
 6926TIP3    H120742   7.000   6.605   2.048  0.1643 -0.0126 -1.2399
 6926TIP3    H220743   7.095   6.487   2.043 -1.4491 -1.4232  0.2319
 6927TIP3   OH220744   6.103   6.640   2.386 -0.0319 -0.2240  0.0691
 6927TIP3    H120745   6.195   6.629   2.360  0.0497 -3.1208  1.2379
 6927TIP3    H220746   6.094   6.587   2.465 -2.0809  2.2635  1.6710
 6928TIP3   OH220747   2.400   6.522   1.406  0.4795 -0.2434 -0.4082
 6928TIP3    H120748   2.464   6.588   1.432  1.2042 -0.1258 -2.2867
 6928TIP3    H220749   2.317   6.553   1.443  1.3272  0.0650  1.3236
 6929TIP3   OH220750   3.736   4.601   1.009  0.2256 -0.0794 -0.3491
 6929TIP3    H120751   3.807   4.593   1.072  0.3216  0.0939 -0.4342
 6929TIP3    H220752   3.718   4.510   0.982 -0.6227 -0.2654  0.8029
 6930TIP3   OH220753   2.513   3.764   4.401  0.5418 -0.1595 -0.2448
 6930TIP3    H120754   2.575   3.815   4.350 -0.1031 -0.2170 -1.1008
 6930TIP3    H220755   2.443   3.743   4.340  0.4430 -1.4500  0.2820
 6931TIP3   OH220756   2.504   2.389   1.769 -0.2291 -0.1711 -0.2035
 6931TIP3    H120757   2.461   2.474   1.755  2.2759  1.4538  1.1070
 6931TIP3    H220758   2.496   2.344   1.686  0.0047  2.1779 -1.5805
 6932TIP3   OH220759   1.260   5.694   5.708 -0.1020  0.6299  0.1270
 6932TIP3    H120760   1.192   5.741   5.659  0.5523 -0.2738 -1.7563
 6932TIP3    H220761   1.284   5.621   5.651 -0.5157 -1.5610  2.5962
 6933TIP3   OH220762   2.384   4.107   5.137 -0.0171 -0.3611  0.5857
 6933TIP3    H120763   2.398   4.157   5.057  2.9213 -1.7483  0.0955
 6933TIP3    H220764   2.309   4.050   5.117  0.9403 -1.0175 -1.4178
 6934TIP3   OH220765   4.639   4.527   0.216  0.3664  0.7927  0.1085
 6934TIP3    H120766   4.614   4.464   0.148 -0.1549  1.6287 -0.4877
 6934TIP3    H220767   4.670   4.472   0.288  2.2014 -0.1072 -1.2563
 6935TIP3   OH220768   2.556   1.761   5.755 -0.2229  0.0001 -0.4720
 6935TIP3    H120769   2.596   1.693   5.809  0.7149  0.9186  0.0165
 6935TIP3    H220770   2.581   1.843   5.797 -2.0842  0.6502 -0.5175
 6936TIP3   OH220771   1.107   3.958   3.503  0.3676  0.2631 -0.2508
 6936TIP3    H120772   1.134   4.030   3.561  0.5218 -0.4328  0.5516
 6936TIP3    H220773   1.095   4.000   3.418  1.1418  1.1138  0.0435
 6937TIP3   OH220774   7.154   6.305   2.323 -0.2021  0.0547  0.5575
 6937TIP3    H120775   7.162   6.385   2.375  0.5589  0.2015  0.2339
 6937TIP3    H220776   7.205   6.324   2.244 -1.2318 -0.2110 -0.1782
 6938TIP3   OH220777   0.052   6.724   4.249  0.2938 -0.4771  0.1149
 6938TIP3    H120778   0.037   6.634   4.221  0.3290 -0.5812  0.4194
 6938TIP3    H220779   0.048   6.720   4.345  0.4542 -0.1833  0.1352
 6939TIP3   OH220780   3.462   4.238   2.957 -0.2104 -0.6515 -0.1142
 6939TIP3    H120781   3.423   4.157   2.926 -1.1303 -0.6099  0.8644
 6939TIP3    H220782   3.403   4.268   3.026  0.8247  0.1525  0.4546
 6940TIP3   OH220783   5.522   6.074   2.265 -0.0229  0.0492 -0.8048
 6940TIP3    H120784   5.581   6.138   2.225  0.0611 -0.9791 -2.4518
 6940TIP3    H220785   5.517   6.003   2.200 -0.5903 -1.3259  0.6682
 6941TIP3   OH220786   3.780   5.358   0.967  0.7408 -0.0391  0.1986
 6941TIP3    H120787   3.728   5.336   1.044  1.3863 -1.0640  0.3549
 6941TIP3    H220788   3.806   5.449   0.981  1.0397 -0.2772  1.3052
 6942TIP3   OH220789   2.684   4.420   3.301  0.0397  0.4207  0.1534
 6942TIP3    H120790   2.627   4.432   3.377 -0.5949 -0.2281 -0.2037
 6942TIP3    H220791   2.625   4.389   3.232  0.8476 -0.3319 -0.2066
 6943TIP3   OH220792   7.083   1.070   2.500  0.1132  0.4168  0.2411
 6943TIP3    H120793   7.086   1.007   2.428 -0.0287 -0.2048  0.7786
 6943TIP3    H220794   7.168   1.115   2.496  0.6260 -0.5055  0.4760
 6944TIP3   OH220795   7.100   2.528   1.426  0.4616  0.6081  0.0084
 6944TIP3    H120796   7.061   2.441   1.418 -2.0243  1.5705  0.7386
 6944TIP3    H220797   7.187   2.511   1.463  1.2057 -1.7133 -2.4535
 6945TIP3   OH220798   3.767   2.401   0.055 -0.1055 -0.2904  0.2700
 6945TIP3    H120799   3.765   2.370  -0.035 -1.1341  0.5244 -0.0175
 6945TIP3    H220800   3.858   2.425   0.071 -0.0300  0.1782 -0.7839
 6946TIP3   OH220801   2.489   4.171   2.861 -0.1019  0.4279  0.4252
 6946TIP3    H120802   2.538   4.166   2.779  0.9284  1.4467  0.9387
 6946TIP3    H220803   2.548   4.131   2.926  1.6022  4.4799  1.6701
 6947TIP3   OH220804   5.479   4.757   3.202  0.1420  0.4694 -0.0296
 6947TIP3    H120805   5.429   4.726   3.278  0.1721 -0.7321 -0.4884
 6947TIP3    H220806   5.475   4.685   3.139  1.8027  0.6642 -0.3912
 6948TIP3   OH220807   2.013   2.791   0.050 -0.6500  0.2766 -0.2313
 6948TIP3    H120808   2.074   2.793   0.123 -2.0210 -2.0765  1.1376
 6948TIP3    H220809   1.945   2.855   0.074 -1.3472 -0.8202  0.8987
 6949TIP3   OH220810   1.195   1.232   3.588  0.5012 -0.2616 -0.3734
 6949TIP3    H120811   1.100   1.221   3.587  0.4354  0.2997 -0.3019
 6949TIP3    H220812   1.209   1.324   3.611  1.0523 -0.2318 -0.7999
 6950TIP3   OH220813   0.586   2.593   5.005  0.5989  0.1764  0.1824
 6950TIP3    H120814   0.614   2.506   4.978  1.4850  0.2930  0.6930
 6950TIP3    H220815   0.558   2.635   4.923 -0.4586 -0.7939  0.0228
 6951TIP3   OH220816   6.148   1.927   4.073  0.0375 -0.3353 -0.4868
 6951TIP3    H120817   6.243   1.926   4.062  0.0234  1.4341 -1.1125
 6951TIP3    H220818   6.114   1.957   3.989 -1.2405 -2.6268 -0.8712
 6952TIP3   OH220819   4.835   6.397   4.558  0.0758  0.2896 -0.6321
 6952TIP3    H120820   4.759   6.346   4.529 -0.9125  0.8002  0.9614
 6952TIP3    H220821   4.893   6.333   4.599  1.2703 -0.3625 -3.1538
 6953TIP3   OH220822   5.464   4.285   1.881 -0.4518 -0.5675 -1.0284
 6953TIP3    H120823   5.391   4.273   1.820 -1.4739 -1.4459  0.3066
 6953TIP3    H220824   5.521   4.211   1.865 -1.8639 -2.0843  0.5646
 6954TIP3   OH220825   0.649   2.190   2.344 -0.2556 -0.2293 -0.0713
 6954TIP3    H120826   0.662   2.268   2.290 -0.4697 -0.5149 -0.5386
 6954TIP3    H220827   0.591   2.134   2.293  0.3238 -0.9331  0.0218
 6955TIP3   OH220828   2.330   1.702   5.586  0.7437  0.8278 -0.6706
 6955TIP3    H120829   2.392   1.750   5.641 -0.3375 -1.0274  2.4478
 6955TIP3    H220830   2.344   1.610   5.608 -2.9354  0.2812  0.1890
 6956TIP3   OH220831   2.958   3.878   2.654 -0.1280  0.0684 -0.7864
 6956TIP3    H120832   2.969   3.933   2.731 -0.6320 -1.1044  0.1387
 6956TIP3    H220833   2.867   3.850   2.657 -0.4212  0.7362 -2.3234
 6957TIP3   OH220834   1.468   3.684   5.288 -0.4504  0.0070  0.2933
 6957TIP3    H120835   1.500   3.636   5.365 -1.1756 -0.7458  0.1385
 6957TIP3    H220836   1.383   3.719   5.315  0.5306  2.1726  0.7716
 6958TIP3   OH220837   0.915   4.376   2.905  0.0579  0.2331 -0.0354
 6958TIP3    H120838   0.971   4.385   2.982  0.2068  1.8568 -0.2991
 6958TIP3    H220839   0.960   4.312   2.850  1.7110  1.5184 -0.2570
 6959TIP3   OH220840   5.851   0.675   2.433  0.1719  0.6372  0.9293
 6959TIP3    H120841   5.904   0.747   2.399 -0.4667  1.2660  1.2356
 6959TIP3    H220842   5.913   0.619   2.479  0.5204  1.5694  1.6326
 6960TIP3   OH220843   0.228   3.576   2.542  0.6286  0.4669  0.0752
 6960TIP3    H120844   0.278   3.647   2.503 -0.5520  1.2817 -0.0019
 6960TIP3    H220845   0.229   3.594   2.636  2.2753 -0.7173  0.3267
 6961TIP3   OH220846   6.058   4.907   2.784  1.1067  0.5981  0.1416
 6961TIP3    H120847   6.101   4.825   2.760 -1.2965 -0.6412 -0.2334
 6961TIP3    H220848   6.006   4.929   2.707 -0.7301  0.7428  1.3682
 6962TIP3   OH220849   2.947   3.065   3.632 -0.1726 -0.0780  0.4663
 6962TIP3    H120850   2.979   3.129   3.696 -1.4256  0.6388  0.4075
 6962TIP3    H220851   2.852   3.067   3.641 -0.3040 -0.8921 -0.5422
 6963TIP3   OH220852   3.752   4.721   3.568 -0.3102  0.3674  0.1709
 6963TIP3    H120853   3.780   4.723   3.476  0.0573  0.3345  0.2804
 6963TIP3    H220854   3.679   4.660   3.570 -0.9651  1.1039 -0.2787
 6964TIP3   OH220855   5.928   1.103   0.572  0.0097 -0.1113 -0.4347
 6964TIP3    H120856   5.926   1.016   0.532 -1.6613  0.2161 -1.1676
 6964TIP3    H220857   5.895   1.161   0.503  0.8565  1.0757  0.1264
 6965TIP3   OH220858   0.050   4.301   2.308  0.0306 -0.0787 -0.1692
 6965TIP3    H120859  -0.024   4.243   2.329  0.1148 -0.0193  0.3050
 6965TIP3    H220860   0.009   4.380   2.272 -0.2428  0.5148  1.3445
 6966TIP3   OH220861   5.893   0.396   1.850  0.0661 -0.5224  0.2068
 6966TIP3    H120862   5.799   0.384   1.834  0.6215 -1.4413 -3.4320
 6966TIP3    H220863   5.908   0.489   1.835 -0.3015 -0.3083  1.1435
 6967TIP3   OH220864   3.904   6.608   5.139 -0.1462  0.0097  0.4729
 6967TIP3    H120865   3.942   6.557   5.068 -0.7010 -0.6655  0.6490
 6967TIP3    H220866   3.863   6.543   5.196 -0.1109  0.5781  1.1675
 6968TIP3   OH220867   5.687   6.374   1.318 -0.0802 -0.1531  0.1398
 6968TIP3    H120868   5.622   6.411   1.378 -0.3580  0.9603 -0.8290
 6968TIP3    H220869   5.664   6.281   1.312 -1.1341  0.0834  0.3719
 6969TIP3   OH220870   2.121   6.732   0.658 -0.0041  0.4111  0.2878
 6969TIP3    H120871   2.087   6.646   0.683  1.1028 -0.5534 -1.3491
 6969TIP3    H220872   2.061   6.763   0.590 -0.0481  0.6603  0.4390
 6970TIP3   OH220873   6.601   6.619   2.024 -0.3641 -0.4149 -0.0792
 6970TIP3    H120874   6.513   6.637   2.057 -0.0253 -0.0311  0.6342
 6970TIP3    H220875   6.659   6.668   2.082  0.4152 -1.8137  0.3581
 6971TIP3   OH220876   3.804   3.305   5.860 -0.4036 -0.0915  0.0360
 6971TIP3    H120877   3.896   3.290   5.878 -0.4314  0.2759  0.4921
 6971TIP3    H220878   3.797   3.398   5.842 -0.8861  0.1349  1.3039
 6972TIP3   OH220879   6.544   0.129   2.150  0.6191 -0.3859  0.2243
 6972TIP3    H120880   6.514   0.109   2.062  1.5221  2.3658 -0.8126
 6972TIP3    H220881   6.468   0.169   2.193  0.5583 -0.5090  0.2297
 6973TIP3   OH220882   2.332   3.516   1.241  0.3558 -0.1264 -0.1460
 6973TIP3    H120883   2.367   3.451   1.181  0.2233  1.2522 -1.7813
 6973TIP3    H220884   2.409   3.562   1.275  0.3670 -0.1729 -0.1077
 6974TIP3   OH220885   5.856   0.662   0.924  0.5532  0.4464  0.2291
 6974TIP3    H120886   5.926   0.717   0.889  1.5601 -1.1076 -0.2647
 6974TIP3    H220887   5.899   0.602   0.984 -0.1877 -1.1329 -0.7559
 6975TIP3   OH220888   1.917   5.498   3.434  0.2212 -0.0094  0.6143
 6975TIP3    H120889   1.904   5.486   3.339  1.5038  1.8172  0.1568
 6975TIP3    H220890   1.941   5.411   3.466 -1.8464 -1.0495 -0.3932
 6976TIP3   OH220891   6.225   4.641   0.827 -0.2222 -0.4120 -0.1755
 6976TIP3    H120892   6.224   4.598   0.913  1.6115  1.3901  0.8466
 6976TIP3    H220893   6.302   4.698   0.830 -1.3227  1.3269 -2.2264
 6977TIP3   OH220894   0.908   5.492   3.262  0.0472 -0.5040 -0.0073
 6977TIP3    H120895   0.827   5.499   3.313  0.0278 -1.8169  0.1876
 6977TIP3    H220896   0.879   5.471   3.173  0.1380  0.2385 -0.2174
 6978TIP3   OH220897   6.374   4.449   4.471  0.7121 -0.1715  0.2236
 6978TIP3    H120898   6.292   4.472   4.515 -0.5805  1.2565 -2.6059
 6978TIP3    H220899   6.351   4.373   4.417  1.0649  0.4630 -0.8709
 6979TIP3   OH220900   2.304   3.657   4.235 -0.3111  0.0784 -0.3243
 6979TIP3    H120901   2.314   3.562   4.247 -1.1470 -0.0089 -0.2266
 6979TIP3    H220902   2.291   3.668   4.141  1.4466  0.2796 -0.5775
 6980TIP3   OH220903   3.071   3.073   1.819 -0.4042 -0.2896 -0.0639
 6980TIP3    H120904   3.036   2.996   1.775  0.8930 -0.2657 -1.1822
 6980TIP3    H220905   3.146   3.100   1.766  0.2385  0.7009  1.2778
 6981TIP3   OH220906   4.839   2.442   5.674  0.5758  0.3055 -0.8021
 6981TIP3    H120907   4.746   2.427   5.685  0.7124 -0.8268 -0.9840
 6981TIP3    H220908   4.876   2.436   5.762  0.3911  1.5007 -0.6352
 6982TIP3   OH220909   2.402   4.861   5.880  0.2503  0.2684 -0.2363
 6982TIP3    H120910   2.486   4.907   5.868 -0.4877  1.5408 -0.7375
 6982TIP3    H220911   2.340   4.909   5.825 -0.6329 -1.2035 -0.5919
 6983TIP3   OH220912   4.337   6.344   4.892 -0.7940  0.2768 -0.4478
 6983TIP3    H120913   4.295   6.337   4.978  0.8397 -0.0351  0.3638
 6983TIP3    H220914   4.413   6.286   4.898 -1.5272 -1.0600 -2.6910
 6984TIP3   OH220915   4.826   5.456   0.823 -0.6108  0.0406  0.2059
 6984TIP3    H120916   4.904   5.482   0.774 -1.1668  4.0315  1.1554
 6984TIP3    H220917   4.817   5.522   0.891 -1.9939 -3.1673  3.4611
 6985TIP3   OH220918   1.976   2.848   1.505  0.4825  0.1949 -0.1767
 6985TIP3    H120919   1.988   2.766   1.554 -0.3852  0.5297  0.6227
 6985TIP3    H220920   2.057   2.858   1.455  0.6202 -1.1361 -0.2631
 6986TIP3   OH220921   0.847   2.906   1.578 -0.4443 -0.2627 -0.3407
 6986TIP3    H120922   0.900   2.977   1.614 -0.7084  0.3984 -1.2412
 6986TIP3    H220923   0.905   2.829   1.581 -0.2274 -0.0790  0.8279
 6987TIP3   OH220924   3.396   6.244   3.491 -0.5215 -0.4380 -0.2064
 6987TIP3    H120925   3.415   6.209   3.578 -1.5490  0.5314  0.4362
 6987TIP3    H220926   3.482   6.254   3.450 -0.0148 -0.8174  0.7287
 6988TIP3   OH220927   5.627   2.087   4.863 -0.4101 -0.0808 -0.2716
 6988TIP3    H120928   5.647   2.072   4.955  0.7213  0.7027 -0.3690
 6988TIP3    H220929   5.563   2.158   4.863 -2.5834 -1.9198 -0.0040
 6989TIP3   OH220930   4.595   4.008   2.542  0.2899  0.2307 -0.0407
 6989TIP3    H120931   4.535   4.065   2.494  0.1332  2.0610  2.1600
 6989TIP3    H220932   4.588   3.923   2.498 -2.2748  0.9380 -1.1862
 6990TIP3   OH220933   0.493   4.191   4.319  0.0275  0.8051  0.3571
 6990TIP3    H120934   0.474   4.099   4.300  2.9700  0.5903 -2.2691
 6990TIP3    H220935   0.585   4.192   4.344  0.0747  3.0638  0.2678
 6991TIP3   OH220936   6.304   4.772   3.236  0.0967  0.2585  0.3875
 6991TIP3    H120937   6.367   4.701   3.250 -0.7134 -0.5362  0.0952
 6991TIP3    H220938   6.324   4.803   3.147  0.9085  0.8782  0.7749
 6992TIP3   OH220939   4.821   6.686   3.902  0.1657  0.1198  0.2440
 6992TIP3    H120940   4.803   6.592   3.902  2.4566 -0.3670 -1.0236
 6992TIP3    H220941   4.871   6.701   3.983  0.0173  0.2170  0.3188
 6993TIP3   OH220942   5.989   0.404   5.340  0.2944 -0.1002 -0.1600
 6993TIP3    H120943   6.050   0.368   5.406 -1.0404 -0.3645  0.9735
 6993TIP3    H220944   5.978   0.496   5.366 -1.2207 -0.5262  0.7771
 6994TIP3   OH220945   1.339   1.512   5.291  0.1145  0.6775 -0.5988
 6994TIP3    H120946   1.267   1.558   5.249 -0.7389  1.5072  1.6206
 6994TIP3    H220947   1.304   1.425   5.310  0.6028  0.1961 -1.7913
 6995TIP3   OH220948   6.899   0.576   3.021 -0.1482  0.7892 -0.1506
 6995TIP3    H120949   6.870   0.568   3.112 -3.7430  0.5859 -1.1828
 6995TIP3    H220950   6.933   0.666   3.015  0.1408  0.8096  1.3570
 6996TIP3   OH220951   3.493   4.663   0.650  0.1492  0.4176 -0.1920
 6996TIP3    H120952   3.423   4.726   0.669 -0.1534  0.2177 -0.6323
 6996TIP3    H220953   3.564   4.687   0.710 -0.5759  0.1532  0.7958
 6997TIP3   OH220954   1.535   2.073   2.944 -0.5181  0.3499 -0.6770
 6997TIP3    H120955   1.557   2.106   2.857  0.6752 -2.2938 -1.4955
 6997TIP3    H220956   1.599   2.115   3.002 -0.3414  0.9937 -1.3178
 6998TIP3   OH220957   6.566   4.831   4.404  0.3596 -0.5326  0.0710
 6998TIP3    H120958   6.633   4.775   4.445  1.0733  0.7134  0.6594
 6998TIP3    H220959   6.587   4.919   4.434 -1.8182 -0.1375  0.5916
 6999TIP3   OH220960   3.330   3.306   2.280  0.1506  0.2948 -0.1037
 6999TIP3    H120961   3.351   3.300   2.187  0.4954 -1.5717  0.0657
 6999TIP3    H220962   3.242   3.343   2.282 -0.4807 -1.0559 -1.2686
 7000TIP3   OH220963   2.061   0.745   5.735  0.2438 -0.3321 -0.0329
 7000TIP3    H120964   2.042   0.681   5.666 -1.1619  1.4786 -1.4372
 7000TIP3    H220965   2.072   0.828   5.688  2.2612  0.4586  1.6853
 7001TIP3   OH220966   2.412   2.704   5.527 -0.4006  0.0848  1.0579
 7001TIP3    H120967   2.379   2.751   5.604  0.5948  0.1487  1.4562
 7001TIP3    H220968   2.469   2.636   5.564 -1.6508 -1.3246  0.4903
 7002TIP3   OH220969   3.242   2.990   2.635 -0.8527 -0.0391 -0.4214
 7002TIP3    H120970   3.277   3.070   2.596 -0.4241  0.3516  0.7262
 7002TIP3    H220971   3.273   2.920   2.578  0.1866  0.4718 -0.5112
 7003TIP3   OH220972   4.309   5.316   0.860  0.0670 -0.5278  0.1787
 7003TIP3    H120973   4.285   5.370   0.936  1.6195  1.9842 -1.0069
 7003TIP3    H220974   4.393   5.277   0.884 -0.7088 -1.9365  0.7417
 7004TIP3   OH220975   1.480   3.500   0.518  0.5503 -0.6591  0.0723
 7004TIP3    H120976   1.404   3.544   0.479  0.0537 -2.1369 -0.7487
 7004TIP3    H220977   1.549   3.565   0.517 -0.1636  0.1205 -1.0383
 7005TIP3   OH220978   3.305   4.042   0.873 -0.1434  0.3902 -0.8888
 7005TIP3    H120979   3.370   3.992   0.924 -0.5716 -0.3357 -1.0304
 7005TIP3    H220980   3.350   4.063   0.791  0.2712  0.8308 -0.5528
 7006TIP3   OH220981   2.120   0.929   4.382  0.3054  0.7187 -0.3975
 7006TIP3    H120982   2.190   0.920   4.318 -0.7130  0.1063 -1.4697
 7006TIP3    H220983   2.164   0.956   4.463  1.8988 -0.7820 -0.7225
 7007TIP3   OH220984   5.890   0.264   4.868  0.0486 -0.0265  0.2174
 7007TIP3    H120985   5.874   0.302   4.955 -3.0714 -1.7024  0.5367
 7007TIP3    H220986   5.805   0.268   4.825  1.5199  0.7864 -2.8561
 7008TIP3   OH220987   5.546   2.881   2.714  0.0021  0.4743  0.6082
 7008TIP3    H120988   5.501   2.893   2.630 -0.5950  0.0158  0.8563
 7008TIP3    H220989   5.619   2.822   2.694  0.8439  1.6494  0.0955
 7009TIP3   OH220990   6.399   4.504   3.994 -0.1214 -0.6660 -0.2571
 7009TIP3    H120991   6.426   4.507   4.086 -2.2173  0.8579  0.3647
 7009TIP3    H220992   6.440   4.581   3.954  1.1171 -1.5401 -0.7592
 7010TIP3   OH220993   3.451   3.340   0.101 -0.2096 -0.4065 -0.6297
 7010TIP3    H120994   3.442   3.386   0.018 -0.1822  1.8978  0.5693
 7010TIP3    H220995   3.363   3.312   0.124 -0.6420  1.1485 -0.2851
 7011TIP3   OH220996   0.538   0.937   5.694  0.0314 -0.4720 -0.1780
 7011TIP3    H120997   0.501   0.859   5.653  1.4817 -1.2113 -0.1435
 7011TIP3    H220998   0.527   1.006   5.628 -2.8505 -0.1995  0.4512
 7012TIP3   OH220999   1.058   4.623   0.911 -0.0184  0.3426 -0.1747
 7012TIP3    H121000   1.049   4.528   0.906  0.0526  0.1738  1.9393
 7012TIP3    H221001   1.044   4.653   0.821 -1.2850 -1.5583 -0.6859
 7013TIP3   OH221002   4.580   3.711   2.477  0.0632 -0.2695 -0.3591
 7013TIP3    H121003   4.595   3.626   2.434  2.4175  0.0077 -0.2411
 7013TIP3    H221004   4.615   3.699   2.566  0.0166  0.6888 -0.1987
 7014TIP3   OH221005   0.546   1.173   1.552  0.1761  0.0416 -0.0697
 7014TIP3    H121006   0.601   1.194   1.476 -1.0514  1.1438 -0.6790
 7014TIP3    H221007   0.518   1.258   1.586 -0.7256 -0.4835  0.5384
 7015TIP3   OH221008   5.244   0.653   0.098  0.4940  0.4873  0.0330
 7015TIP3    H121009   5.228   0.666   0.192 -1.2435 -1.5605  0.0871
 7015TIP3    H221010   5.325   0.602   0.095  0.6484  0.6989  0.3931
 7016TIP3   OH221011   4.499   5.867   4.369 -0.4873  0.2033  0.0065
 7016TIP3    H121012   4.466   5.954   4.389 -1.3620 -0.2513  0.5884
 7016TIP3    H221013   4.463   5.811   4.438 -0.4338 -0.7311 -0.7076
 7017TIP3   OH221014   3.633   0.477   3.584 -0.0704  0.3805 -0.1616
 7017TIP3    H121015   3.637   0.440   3.496  0.2886 -0.8273  0.3431
 7017TIP3    H221016   3.653   0.403   3.642  2.0091  1.6315  0.8378
 7018TIP3   OH221017   3.970   4.857   1.593 -0.6932  0.3611 -0.0811
 7018TIP3    H121018   3.907   4.892   1.530 -1.6341 -2.0770 -0.6067
 7018TIP3    H221019   3.952   4.763   1.594  1.2976 -0.0529  1.6419
 7019TIP3   OH221020   3.670   6.194   3.055  0.1515  0.4093  0.0533
 7019TIP3    H121021   3.647   6.123   3.116  1.7736  0.9761  1.4063
 7019TIP3    H221022   3.596   6.197   2.994 -0.9949 -0.9854  1.2601
 7020TIP3   OH221023   0.051   2.998   3.131  0.3854 -0.2956  0.0868
 7020TIP3    H121024   0.044   2.907   3.104  1.5007 -0.8465  1.5315
 7020TIP3    H221025   0.140   3.024   3.110  1.1340 -0.5935  2.6157
 7021TIP3   OH221026   6.206   5.496   3.597  0.1454 -0.6446  0.4815
 7021TIP3    H121027   6.297   5.470   3.583  0.1450 -0.3867 -0.0319
 7021TIP3    H221028   6.195   5.496   3.692  0.1837 -2.3722  0.5223
 7022TIP3   OH221029   2.169   1.423   5.731  0.1743  0.3971  0.5451
 7022TIP3    H121030   2.083   1.464   5.738  0.7868  1.6895  0.8657
 7022TIP3    H221031   2.195   1.436   5.640  0.0075 -0.0868  0.4206
 7023TIP3   OH221032   2.863   2.248   0.507 -0.0218 -0.3136  0.2908
 7023TIP3    H121033   2.801   2.261   0.579  0.7994 -0.4414  1.0387
 7023TIP3    H221034   2.933   2.310   0.524  0.5975 -0.9438  0.0845
 7024TIP3   OH221035   2.768   1.829   1.802 -0.3802  0.7111  0.2951
 7024TIP3    H121036   2.704   1.810   1.872  2.1127  1.1628  2.8780
 7024TIP3    H221037   2.726   1.898   1.750 -2.5433  0.0266  1.0248
 7025TIP3   OH221038   2.848   0.851   4.354 -0.7813 -0.0569  0.3970
 7025TIP3    H121039   2.838   0.946   4.361 -0.8609 -0.0159 -0.2310
 7025TIP3    H221040   2.769   0.815   4.394 -0.4836  0.1223  1.1643
 7026TIP3   OH221041   0.061   1.950   5.096 -0.2056 -0.2612 -0.1991
 7026TIP3    H121042   0.004   1.874   5.106 -1.3515  0.6207  0.2348
 7026TIP3    H221043   0.083   1.976   5.185  0.9150 -0.5940 -0.3619
 7027TIP3   OH221044   0.451   2.063   1.082  0.3599  0.0034  0.4909
 7027TIP3    H121045   0.436   1.968   1.075 -1.2375  0.3628 -2.1510
 7027TIP3    H221046   0.529   2.079   1.030  0.6265  0.1625  0.9322
 7028TIP3   OH221047   3.145   5.219   5.356 -0.4356  0.3086  0.0712
 7028TIP3    H121048   3.071   5.168   5.389  0.2120 -0.8271 -0.1817
 7028TIP3    H221049   3.124   5.234   5.264 -0.9366  1.0923  0.3013
 7029TIP3   OH221050   0.163   2.563   0.304  0.2779  0.3446  0.2489
 7029TIP3    H121051   0.136   2.474   0.323 -2.4675  0.7517 -1.2206
 7029TIP3    H221052   0.088   2.617   0.329  1.2436  2.0670 -0.3865
 7030TIP3   OH221053   1.942   0.731   0.788 -0.1669 -0.4559  0.1213
 7030TIP3    H121054   1.876   0.662   0.800 -0.2666 -0.8736 -2.3203
 7030TIP3    H221055   2.017   0.701   0.840 -0.7862 -1.5535  0.4338
 7031TIP3   OH221056   4.758   0.349   5.611  0.1671 -0.8750  0.1455
 7031TIP3    H121057   4.766   0.255   5.626 -0.6928 -0.9662  0.1113
 7031TIP3    H221058   4.835   0.372   5.559  1.1156 -1.2914  1.3066
 7032TIP3   OH221059   4.607   4.412   3.813  0.1755  0.4551  0.2051
 7032TIP3    H121060   4.530   4.466   3.796 -0.0994 -0.0986 -0.3252
 7032TIP3    H221061   4.586   4.363   3.892  0.3949  1.0579  0.6448
 7033TIP3   OH221062   1.204   0.194   3.074 -0.3665  0.6856 -0.3359
 7033TIP3    H121063   1.153   0.253   3.129 -1.0759  0.1343 -0.3748
 7033TIP3    H221064   1.149   0.115   3.066  0.1934  0.3407 -0.9445
 7034TIP3   OH221065   0.418  -0.006   5.886  0.0790 -0.4719  0.3214
 7034TIP3    H121066   0.323  -0.015   5.888  0.1912 -2.3492 -0.4849
 7034TIP3    H221067   0.435   0.050   5.810 -0.4272  1.7210  1.7450
 7035TIP3   OH221068   4.377   3.497   2.450  0.1089  0.0542 -0.4806
 7035TIP3    H121069   4.430   3.424   2.481 -0.8618  0.0699  1.3523
 7035TIP3    H221070   4.388   3.565   2.516 -1.2541  0.4998 -0.6775
 7036TIP3   OH221071   6.405   1.834   4.046 -0.0785 -0.0976 -0.0554
 7036TIP3    H121072   6.455   1.878   3.978  0.4906 -0.0615  0.3757
 7036TIP3    H221073   6.420   1.741   4.030  0.5725 -0.0806  0.3813
 7037TIP3   OH221074   5.414   1.723   2.692 -0.1956  0.2230 -0.1238
 7037TIP3    H121075   5.469   1.791   2.655  1.6088 -1.1822 -0.1603
 7037TIP3    H221076   5.373   1.681   2.616  0.9064 -0.5252 -0.3205
 7038TIP3   OH221077   0.031   5.601   3.140 -0.0489  0.3097 -0.2977
 7038TIP3    H121078   0.032   5.630   3.049  0.3644  2.3402  0.3012
 7038TIP3    H221079  -0.046   5.544   3.147  0.1012 -0.1336 -1.9604
 7039TIP3   OH221080   3.362   1.684   0.590  0.1758 -0.1664 -0.5174
 7039TIP3    H121081   3.446   1.647   0.562  0.7899  0.7088  0.1251
 7039TIP3    H221082   3.361   1.672   0.685 -0.1228  0.4488 -0.4438
 7040TIP3   OH221083   4.074   5.860   1.380  0.3675  0.5031  0.1984
 7040TIP3    H121084   4.158   5.825   1.407  0.3336 -0.5193 -0.9488
 7040TIP3    H221085   4.012   5.828   1.445  0.8283  1.1673  0.9817
 7041TIP3   OH221086   1.275   2.878   2.979 -0.1931  0.0474 -0.5130
 7041TIP3    H121087   1.262   2.903   3.070 -0.6458  1.7365 -1.0054
 7041TIP3    H221088   1.354   2.925   2.952 -1.4302  1.6042 -1.6439
 7042TIP3   OH221089   0.940   6.163   2.298  0.2566 -0.1549  0.3186
 7042TIP3    H121090   1.035   6.148   2.300  0.3978  0.6236 -0.2507
 7042TIP3    H221091   0.922   6.209   2.380  0.6308  1.1104 -0.2910
 7043TIP3   OH221092   6.071   5.195   3.701 -0.5829 -0.1170  0.6312
 7043TIP3    H121093   6.163   5.187   3.675 -0.4305 -2.3082  1.6523
 7043TIP3    H221094   6.036   5.264   3.644  1.1951 -0.6057 -1.1582
 7044TIP3   OH221095   4.823   6.738   1.548 -0.5232 -0.2462 -0.6438
 7044TIP3    H121096   4.852   6.775   1.465 -0.1517 -0.0072 -0.4087
 7044TIP3    H221097   4.732   6.767   1.557 -0.0640  1.0790 -0.1911
 7045TIP3   OH221098   4.780   4.503   2.746 -0.1660 -0.3314 -0.4208
 7045TIP3    H121099   4.811   4.416   2.722  0.1928 -0.4509  0.4686
 7045TIP3    H221100   4.695   4.511   2.701 -0.5049 -1.3875  0.0145
 7046TIP3   OH221101   2.434   0.254   5.363 -0.1542 -0.1944  0.0657
 7046TIP3    H121102   2.478   0.169   5.357  0.5386  0.1576  0.0789
 7046TIP3    H221103   2.493   0.315   5.318  1.3080  1.0379  3.3121
 7047TIP3   OH221104   5.904   1.137   3.674  0.1101  0.1393  0.2712
 7047TIP3    H121105   5.941   1.151   3.587  0.8447  0.8730  0.6896
 7047TIP3    H221106   5.839   1.067   3.662 -1.7701  2.0507 -1.3724
 7048TIP3   OH221107   4.474   1.171   1.676  0.2166  0.0220 -0.7290
 7048TIP3    H121108   4.457   1.097   1.734  0.7914  0.7541  0.4186
 7048TIP3    H221109   4.531   1.136   1.608  0.9100 -0.4765  0.0900
 7049TIP3   OH221110   0.550   5.070   1.129 -0.0520 -0.0497  0.5803
 7049TIP3    H121111   0.612   5.125   1.176  0.1290  0.9698 -0.7956
 7049TIP3    H221112   0.546   4.989   1.180  3.0822 -0.5219  0.2823
 7050TIP3   OH221113   1.325   3.905   2.517  0.2025  0.5665 -0.1572
 7050TIP3    H121114   1.399   3.857   2.480 -0.8590 -1.4233  0.1926
 7050TIP3    H221115   1.265   3.837   2.548 -0.9666  2.1323  1.1921
 7051TIP3   OH221116   2.922   3.678   5.400 -0.5002  0.0195  0.1364
 7051TIP3    H121117   2.916   3.647   5.490 -0.4835  3.1801  1.3819
 7051TIP3    H221118   2.838   3.720   5.383 -0.5363 -0.5815 -1.3858
 7052TIP3   OH221119   4.481   3.211   0.047 -0.7922 -0.4383  0.4690
 7052TIP3    H121120   4.552   3.275   0.040  0.2253 -1.3457  1.8533
 7052TIP3    H221121   4.437   3.214  -0.038  0.8956  0.1724 -0.4352
 7053TIP3   OH221122   3.827   4.504   0.739 -0.2566 -0.1247  0.5354
 7053TIP3    H121123   3.887   4.533   0.807 -0.5061 -0.0297  0.7175
 7053TIP3    H221124   3.785   4.426   0.775 -1.0105  0.4079  0.8469
 7054TIP3   OH221125   5.975   5.809   0.517 -0.4360 -0.2886 -0.4162
 7054TIP3    H121126   6.029   5.831   0.441 -0.8267 -0.3820 -0.7292
 7054TIP3    H221127   5.942   5.721   0.497 -0.0215 -0.5813  0.1642
 7055TIP3   OH221128   0.575   4.902   0.863 -0.1296  0.5005  0.1043
 7055TIP3    H121129   0.668   4.916   0.842  1.1149 -1.0257  3.7055
 7055TIP3    H221130   0.557   4.964   0.933 -0.5010 -1.8231  2.2203
 7056TIP3   OH221131   1.065   2.597   4.956  0.6193  0.4463  0.3907
 7056TIP3    H121132   0.999   2.657   4.924 -0.9265 -0.8847  0.9634
 7056TIP3    H221133   1.144   2.650   4.965  0.1055  1.7324 -1.8616
 7057TIP3   OH221134   3.922   3.565   0.092 -0.0872 -0.3873 -0.0651
 7057TIP3    H121135   3.844   3.538   0.044  0.7559 -0.0352 -1.7072
 7057TIP3    H221136   3.968   3.484   0.110  0.1307 -0.4478 -0.8531
 7058TIP3   OH221137   4.636   3.602   5.206  0.0949  0.5955 -0.0992
 7058TIP3    H121138   4.566   3.627   5.146  1.3718 -0.3024 -2.0615
 7058TIP3    H221139   4.602   3.524   5.251 -0.7532  1.0945  0.1489
 7059TIP3   OH221140   6.390   1.170   5.781 -0.7577  0.0288  0.4452
 7059TIP3    H121141   6.361   1.132   5.864  1.1439 -2.7261  0.0143
 7059TIP3    H221142   6.460   1.231   5.806 -1.8420  1.0837  0.9806
 7060TIP3   OH221143   2.805   2.460   0.254  0.5770 -0.1988  0.6289
 7060TIP3    H121144   2.715   2.490   0.237  1.0275  1.4012  0.9047
 7060TIP3    H221145   2.794   2.375   0.296 -0.7625 -0.6756 -0.5720
 7061TIP3   OH221146   6.607   3.720   0.947 -0.3877  0.0016  0.0377
 7061TIP3    H121147   6.693   3.725   0.905 -0.3930 -0.7066 -0.0663
 7061TIP3    H221148   6.625   3.689   1.036 -0.4714  0.5431  0.2468
 7062TIP3   OH221149   3.961   4.864   3.741 -0.1960  0.5063  0.1617
 7062TIP3    H121150   3.889   4.814   3.702  1.8464 -2.0466 -0.6452
 7062TIP3    H221151   4.024   4.874   3.670  1.2871  0.5007  1.4367
 7063TIP3   OH221152   0.934   2.317   2.767  0.4657 -0.0275  0.0530
 7063TIP3    H121153   0.876   2.255   2.811  0.8181  0.3271  1.0277
 7063TIP3    H221154   0.936   2.287   2.676  2.6039 -3.0124  0.9491
 7064TIP3   OH221155   4.804   2.446   1.934 -0.2458  0.5287  0.0041
 7064TIP3    H121156   4.888   2.399   1.930 -0.7341 -0.4238  0.5217
 7064TIP3    H221157   4.743   2.388   1.889 -0.8372  0.7286  0.5423
 7065TIP3   OH221158   6.291   1.130   5.175 -0.0167  0.2225 -0.0312
 7065TIP3    H121159   6.288   1.125   5.270  0.7234  0.4054  0.0130
 7065TIP3    H221160   6.292   1.038   5.146  0.1529  0.1641  0.1587
 7066TIP3   OH221161   6.664   0.333   1.936  0.5373 -0.2436 -0.4527
 7066TIP3    H121162   6.748   0.378   1.941 -0.5983  1.9646 -0.1067
 7066TIP3    H221163   6.637   0.321   2.027  1.5888 -3.3500 -0.4310
 7067TIP3   OH221164   4.296   6.650   2.442 -0.4232  0.0737 -0.1385
 7067TIP3    H121165   4.388   6.661   2.468 -0.5260  1.7134 -0.3987
 7067TIP3    H221166   4.284   6.711   2.370 -1.4069 -1.0389 -0.9431
 7068TIP3   OH221167   2.368   4.674   1.663  0.5153  1.2316 -0.0379
 7068TIP3    H121168   2.446   4.667   1.718  1.2981 -0.6924 -1.2567
 7068TIP3    H221169   2.401   4.663   1.573 -1.2691 -1.6721 -0.4878
 7069TIP3   OH221170   0.239   0.888   3.665 -0.4334 -0.1250 -0.8634
 7069TIP3    H121171   0.272   0.948   3.731  0.0293 -2.6126  1.2963
 7069TIP3    H221172   0.187   0.944   3.606 -1.9768  2.0446  2.2930
 7070TIP3   OH221173   3.727   6.201   0.130  0.5535  0.2315  0.2507
 7070TIP3    H121174   3.788   6.199   0.204  2.0785 -0.3188 -0.9647
 7070TIP3    H221175   3.777   6.164   0.057 -0.8356  0.9518 -1.1156
 7071TIP3   OH221176   5.100   1.780   4.026 -0.0386 -0.4118  0.3632
 7071TIP3    H121177   5.144   1.760   4.108 -0.3402 -1.9637  0.1758
 7071TIP3    H221178   5.074   1.695   3.991 -1.0909  0.3100 -0.6935
 7072TIP3   OH221179   0.730   6.537   1.327 -0.4343 -0.0471  0.6072
 7072TIP3    H121180   0.763   6.540   1.417  0.2043 -0.8224  0.4164
 7072TIP3    H221181   0.807   6.553   1.272 -0.1201 -2.6597  0.1248
 7073TIP3   OH221182   1.468   4.918   3.826  0.3454  0.3943 -0.6874
 7073TIP3    H121183   1.464   4.994   3.767 -1.1014  1.2235  0.3990
 7073TIP3    H221184   1.376   4.895   3.841  0.7547 -1.5261 -0.8793
 7074TIP3   OH221185   0.828   0.070   4.177  0.3382 -0.3690 -0.2241
 7074TIP3    H121186   0.743   0.026   4.173  0.2423 -0.1444 -0.6771
 7074TIP3    H221187   0.889   0.000   4.201  0.1850 -0.7601 -0.9300
 7075TIP3   OH221188   2.765   6.343   0.807 -0.1179  0.4470 -0.3373
 7075TIP3    H121189   2.853   6.355   0.843  0.4961 -0.6870 -1.3996
 7075TIP3    H221190   2.761   6.404   0.733 -0.5309  1.0683  0.1827
 7076TIP3   OH221191   1.847   3.855   1.533  0.5560  0.3299 -0.1123
 7076TIP3    H121192   1.923   3.910   1.555  2.1237 -2.0702  0.8416
 7076TIP3    H221193   1.785   3.870   1.604  0.9529  0.8207  0.1380
 7077TIP3   OH221194   2.215   0.000   2.807  0.0436  0.2756 -0.8531
 7077TIP3    H121195   2.218   0.056   2.885  3.0611 -0.5831 -0.2515
 7077TIP3    H221196   2.192   0.060   2.736 -0.3574  1.5501  0.2948
 7078TIP3   OH221197   5.538   0.860   3.188  0.0122  0.1982 -0.0065
 7078TIP3    H121198   5.486   0.885   3.112 -0.9654  0.1262  0.6239
 7078TIP3    H221199   5.532   0.934   3.247  3.8406  1.8797 -1.4547
 7079TIP3   OH221200   4.703   5.194   0.799 -0.2755 -0.2485 -0.4811
 7079TIP3    H121201   4.659   5.180   0.883 -1.5846 -1.5064 -1.3332
 7079TIP3    H221202   4.761   5.269   0.815  0.2015 -1.0058  1.7870
 7080TIP3   OH221203   6.781   4.369   4.654  0.0432 -0.0934 -0.6005
 7080TIP3    H121204   6.784   4.304   4.723  0.7748 -1.5713 -1.9478
 7080TIP3    H221205   6.698   4.415   4.667  0.7989  0.6726  2.0766
 7081TIP3   OH221206   0.787   6.671   5.850 -0.1032  0.8808 -0.1772
 7081TIP3    H121207   0.764   6.755   5.888 -1.9405  0.9940 -1.4366
 7081TIP3    H221208   0.735   6.607   5.899  0.0627  0.6514 -0.2973
 7082TIP3   OH221209   6.672   3.965   3.974 -0.0904 -0.4094  0.3459
 7082TIP3    H121210   6.642   3.895   4.031  0.5263 -1.5702 -0.7175
 7082TIP3    H221211   6.592   4.003   3.937 -0.5567  0.8521  2.4650
 7083TIP3   OH221212   3.585   4.962   3.775 -0.2934 -0.1360 -0.2799
 7083TIP3    H121213   3.568   4.987   3.866 -0.5269  0.1890 -0.4112
 7083TIP3    H221214   3.588   4.867   3.777 -0.6503 -0.1433  0.0079
 7084TIP3   OH221215   4.666   2.913   1.850  0.3614 -0.0491 -0.3655
 7084TIP3    H121216   4.699   2.962   1.775  2.8572 -0.6525  0.2429
 7084TIP3    H221217   4.701   2.824   1.837 -1.4170 -0.8639  0.1594
 7085TIP3   OH221218   2.989   1.193   0.111 -0.3597  0.1203  0.3371
 7085TIP3    H121219   2.993   1.275   0.159  0.3501 -0.2790  0.9731
 7085TIP3    H221220   2.914   1.147   0.148 -0.3684  0.2070  0.4266
 7086TIP3   OH221221   2.606   6.092   0.529 -0.0017 -0.1301  0.0652
 7086TIP3    H121222   2.578   6.142   0.606 -2.3865 -1.2762  0.0468
 7086TIP3    H221223   2.645   6.157   0.471  0.0342  1.1024  1.4281
 7087TIP3   OH221224   6.573   4.416   2.690  0.0613  0.3425 -0.6556
 7087TIP3    H121225   6.544   4.471   2.762  0.5771 -0.6227  0.3350
 7087TIP3    H221226   6.566   4.326   2.724  1.7690 -0.0577 -1.2324
 7088TIP3   OH221227   1.486   5.794   4.329  0.8889  0.1766 -0.0420
 7088TIP3    H121228   1.544   5.781   4.254  1.8169  1.8574  0.3394
 7088TIP3    H221229   1.436   5.873   4.307  0.4593  0.1118  0.6783
 7089TIP3   OH221230   5.195   6.571   5.539 -0.0904  0.4022 -0.4071
 7089TIP3    H121231   5.115   6.539   5.499  1.1276 -3.4850 -0.1979
 7089TIP3    H221232   5.248   6.603   5.466  0.3130 -2.4073 -1.4922
 7090TIP3   OH221233   1.745   2.482   2.752  0.1901  0.1236  0.0381
 7090TIP3    H121234   1.719   2.510   2.665  2.2351  1.0279 -0.3393
 7090TIP3    H221235   1.708   2.548   2.811 -0.6112 -0.1119 -0.1894
 7091TIP3   OH221236   4.750   1.944   0.571  0.0831  0.0189  0.7490
 7091TIP3    H121237   4.710   1.941   0.484  1.4357 -2.2159  0.1309
 7091TIP3    H221238   4.743   2.036   0.597 -0.0328  0.8449 -1.8847
 7092TIP3   OH221239   1.560   4.441   3.602  0.1041 -0.0002  0.4463
 7092TIP3    H121240   1.499   4.380   3.644 -3.5366  2.5398 -0.7023
 7092TIP3    H221241   1.545   4.524   3.647  1.5985  1.0777 -0.9638
 7093TIP3   OH221242   6.197   0.039   5.176  0.4658 -0.6193  0.5483
 7093TIP3    H121243   6.252  -0.036   5.150 -0.1206 -0.6024 -0.8292
 7093TIP3    H221244   6.197   0.096   5.099  0.1749  0.3755  1.2719
 7094TIP3   OH221245   5.564   2.958   1.394  0.5068  0.0370 -0.3479
 7094TIP3    H121246   5.637   2.983   1.337  1.3443  0.0626  0.7015
 7094TIP3    H221247   5.499   3.027   1.383  2.2221  2.1018  1.5205
 7095TIP3   OH221248   4.895   2.457   5.238  0.0007 -0.0248  0.0861
 7095TIP3    H121249   4.919   2.548   5.257  0.3441  0.0437 -0.6411
 7095TIP3    H221250   4.977   2.409   5.239 -0.2428 -0.4481  1.0507
 7096TIP3   OH221251   0.196   0.124   0.940  0.1192  0.0758 -0.4983
 7096TIP3    H121252   0.158   0.036   0.937  0.0737  0.0594  0.2974
 7096TIP3    H221253   0.288   0.111   0.916 -0.0782 -0.0560 -1.2307
 7097TIP3   OH221254   5.565   0.572   0.285  0.2317 -0.0808  0.4053
 7097TIP3    H121255   5.486   0.626   0.294 -1.0388 -1.7433 -0.1421
 7097TIP3    H221256   5.537   0.498   0.231  1.9711 -1.1507  0.8797
 7098TIP3   OH221257   6.942   0.091   4.744 -0.4307 -0.4532 -0.1447
 7098TIP3    H121258   6.997   0.142   4.685 -0.8889 -1.1236 -1.1947
 7098TIP3    H221259   6.962   0.124   4.831  0.5517  0.3047 -0.6409
 7099TIP3   OH221260   7.212   0.610   2.364  0.3229 -0.0679  0.2304
 7099TIP3    H121261   7.141   0.552   2.390 -0.7419  0.6371 -1.0287
 7099TIP3    H221262   7.287   0.579   2.415 -0.4768 -1.8378  0.4181
 7100TIP3   OH221263   6.663   6.818   2.661  0.5355  0.6112 -0.5710
 7100TIP3    H121264   6.630   6.858   2.580 -0.2892 -0.4483 -0.7847
 7100TIP3    H221265   6.660   6.724   2.644 -0.3773  0.3296  0.9485
 7101TIP3   OH221266   3.346   1.957   5.214  0.2258 -0.0512  0.0327
 7101TIP3    H121267   3.276   1.921   5.268  0.4810 -2.0890 -0.9268
 7101TIP3    H221268   3.427   1.933   5.259  0.4360 -1.6425 -1.1168
 7102TIP3   OH221269   5.170   2.126   0.918 -0.1655  0.4690  0.0595
 7102TIP3    H121270   5.116   2.191   0.964  0.8478  1.3306  0.0769
 7102TIP3    H221271   5.110   2.055   0.897 -1.1044  1.0043  0.8654
 7103TIP3   OH221272   2.620   5.199   0.614 -0.0191 -0.1052  0.0137
 7103TIP3    H121273   2.649   5.255   0.686 -0.2443  0.8109 -0.5988
 7103TIP3    H221274   2.539   5.239   0.583 -0.2300 -0.8215 -0.3792
 7104TIP3   OH221275   5.717   3.835   1.395 -0.2906 -0.1927  0.1982
 7104TIP3    H121276   5.675   3.864   1.476  1.6789  1.4090  0.7247
 7104TIP3    H221277   5.778   3.767   1.422 -0.3136 -0.3242 -0.0776
 7105TIP3   OH221278   2.509   3.923   3.692  0.3759 -0.0771 -0.1346
 7105TIP3    H121279   2.519   3.973   3.611 -1.3787  0.7942  0.1344
 7105TIP3    H221280   2.433   3.868   3.676  0.9621 -1.0585  0.3836
 7106TIP3   OH221281   3.831   5.038   1.430 -0.1380 -0.4360  0.0251
 7106TIP3    H121282   3.852   5.125   1.465 -0.6131  0.2730 -1.3587
 7106TIP3    H221283   3.750   5.013   1.474 -0.9406  0.6167 -0.7844
 7107TIP3   OH221284   4.618   1.209   4.975 -0.3946  0.3538 -0.0567
 7107TIP3    H121285   4.660   1.271   4.915  0.6569 -1.1008 -0.9044
 7107TIP3    H221286   4.604   1.259   5.055 -0.2973  1.8878 -0.9520
 7108TIP3   OH221287   4.852   3.479   3.558 -0.0452  1.1198 -0.4167
 7108TIP3    H121288   4.841   3.395   3.602 -0.7174  2.2106  1.6050
 7108TIP3    H221289   4.778   3.485   3.498 -0.1321  0.4051 -0.3903
 7109TIP3   OH221290   0.970   2.799   2.471  0.4162 -0.0544  0.1604
 7109TIP3    H121291   0.975   2.713   2.511  0.4833  0.3613  1.0803
 7109TIP3    H221292   1.012   2.789   2.385  1.0670 -0.7630  0.5564
 7110TIP3   OH221293   2.046   3.807   5.571 -0.3661 -0.0041  0.7214
 7110TIP3    H121294   2.032   3.745   5.500 -0.3498  0.6646  0.1134
 7110TIP3    H221295   2.141   3.818   5.576 -0.4089  0.9523 -0.0763
 7111TIP3   OH221296   2.261   0.137   2.285  0.4478 -0.1081  0.5478
 7111TIP3    H121297   2.168   0.139   2.259  0.3928 -0.5552  0.6988
 7111TIP3    H221298   2.305   0.190   2.219  0.3513 -1.4697 -0.6633
 7112TIP3   OH221299   1.307   4.920   2.902 -0.5911 -0.0205 -0.2091
 7112TIP3    H121300   1.258   4.999   2.879 -2.3846 -0.9017  0.3592
 7112TIP3    H221301   1.320   4.874   2.820  0.1332  0.6749 -0.4918
 7113TIP3   OH221302   5.991   3.243   4.615  0.3316  0.3385  0.6234
 7113TIP3    H121303   5.932   3.297   4.668  2.0979  1.4736  1.5427
 7113TIP3    H221304   5.973   3.153   4.642 -0.5454  0.7186  1.3263
 7114TIP3   OH221305   7.155   4.310   5.565  0.3008  0.0572  0.0317
 7114TIP3    H121306   7.102   4.230   5.559  0.0390  0.0304  2.0301
 7114TIP3    H221307   7.095   4.380   5.541  0.4141 -0.2705 -1.3153
 7115TIP3   OH221308   6.128   2.957   1.374  0.0835 -0.0886 -0.5546
 7115TIP3    H121309   6.096   2.894   1.309 -1.2330 -0.7000  0.6191
 7115TIP3    H221310   6.197   2.910   1.420  0.1603 -0.1141 -0.6959
 7116TIP3   OH221311   4.830   6.026   1.568 -0.4837  0.1680  0.0000
 7116TIP3    H121312   4.741   5.990   1.574 -0.9962  1.2497 -0.7081
 7116TIP3    H221313   4.820   6.118   1.593  0.6477  0.0358  0.9897
 7117TIP3   OH221314   6.392   6.257   2.690  0.1418 -0.1467 -0.6289
 7117TIP3    H121315   6.397   6.169   2.653 -0.7741  0.1978 -1.6300
 7117TIP3    H221316   6.340   6.247   2.770  2.5912 -0.9907  0.9719
 7118TIP3   OH221317   5.841   5.409   1.796  0.1399 -0.3855  0.2427
 7118TIP3    H121318   5.785   5.459   1.737  1.3484  1.9669  0.9524
 7118TIP3    H221319   5.812   5.435   1.884  2.5084  1.2238  0.6279
 7119TIP3   OH221320   5.266   0.073   1.690  0.4248  0.2289 -0.1597
 7119TIP3    H121321   5.184   0.122   1.693  0.0950 -0.2261 -1.2330
 7119TIP3    H221322   5.286   0.066   1.597 -0.6216 -3.4251 -0.2525
 7120TIP3   OH221323   3.798   5.830   3.527 -0.0482 -0.0873 -0.4492
 7120TIP3    H121324   3.710   5.857   3.551  0.2388 -0.1452  0.7121
 7120TIP3    H221325   3.789   5.739   3.500 -0.2448 -0.2744  0.2467
 7121TIP3   OH221326   4.343   1.192   5.423 -0.2119 -0.2643  0.1835
 7121TIP3    H121327   4.418   1.242   5.456 -0.8016  1.6344 -1.1948
 7121TIP3    H221328   4.354   1.192   5.328 -1.4162 -0.8493  0.0285
 7122TIP3   OH221329   0.549   6.228   5.688 -0.3141  0.2270 -0.3877
 7122TIP3    H121330   0.616   6.263   5.629  0.0312  0.4936  0.1597
 7122TIP3    H221331   0.480   6.295   5.688  0.1096  0.6788  0.2426
 7123TIP3   OH221332   2.760   2.518   1.459  0.1762 -0.1763  0.3164
 7123TIP3    H121333   2.799   2.605   1.448  0.1051 -0.1464  0.3015
 7123TIP3    H221334   2.667   2.535   1.474  0.3592 -0.1768  1.5484
 7124TIP3   OH221335   2.954   1.824   5.291 -0.0923  0.1793  0.0661
 7124TIP3    H121336   3.002   1.906   5.303 -0.3215  0.5800 -1.4750
 7124TIP3    H221337   2.924   1.828   5.200 -1.5584 -0.8526  0.4817
 7125TIP3   OH221338   6.617   0.764   3.032 -0.2241  0.2267  0.2635
 7125TIP3    H121339   6.679   0.832   3.058 -0.3518  0.4822 -0.0958
 7125TIP3    H221340   6.597   0.784   2.941  0.3906 -0.7921 -0.1087
 7126TIP3   OH221341   4.361   2.069   5.404  0.2210 -0.7024 -0.0156
 7126TIP3    H121342   4.413   2.002   5.360 -0.2229 -0.5411 -0.8073
 7126TIP3    H221343   4.270   2.049   5.382 -0.0875 -1.0260  1.4159
 7127TIP3   OH221344   5.801   1.030   4.392 -0.0685 -0.1429  0.1955
 7127TIP3    H121345   5.798   0.991   4.305  1.7566  0.9230 -0.3901
 7127TIP3    H221346   5.801   1.125   4.376  0.1813  0.0701  1.3713
 7128TIP3   OH221347   4.843   2.597   4.929  0.4420 -0.6038  0.7496
 7128TIP3    H121348   4.829   2.557   5.014 -1.8583 -0.3850  0.5187
 7128TIP3    H221349   4.788   2.675   4.929 -0.5596 -1.2467 -1.3511
 7129TIP3   OH221350   2.835   6.622   2.606 -0.2232 -0.1381 -0.3545
 7129TIP3    H121351   2.826   6.600   2.513 -1.2203 -0.2040 -0.2507
 7129TIP3    H221352   2.886   6.703   2.606  1.2904 -1.0450 -0.8564
 7130TIP3   OH221353   6.910   2.175   4.602 -0.2177  0.3664 -0.0649
 7130TIP3    H121354   6.848   2.214   4.540 -2.4907 -0.0241  1.8292
 7130TIP3    H221355   6.935   2.248   4.658  1.1262  0.5240 -0.8272
 7131TIP3   OH221356   0.186   0.283   1.152 -1.0941 -0.1660  0.9042
 7131TIP3    H121357   0.211   0.346   1.084 -4.1617  0.3625  0.1121
 7131TIP3    H221358   0.190   0.198   1.109  1.3639 -0.4141  1.4748
 7132TIP3   OH221359   3.258   5.969   2.585 -0.0078  0.2677  0.0377
 7132TIP3    H121360   3.319   5.956   2.512  0.1281 -1.8030  0.4498
 7132TIP3    H221361   3.314   5.993   2.659  0.3077 -1.2184  0.3131
 7133TIP3   OH221362   3.037   4.304   4.000  0.2282 -0.0184 -0.1934
 7133TIP3    H121363   2.993   4.300   4.084 -2.6477  0.7395 -1.5469
 7133TIP3    H221364   3.050   4.397   3.984 -0.6246 -0.0517 -1.2061
 7134TIP3   OH221365   0.502   1.605   4.589 -0.3106  0.6732  0.3275
 7134TIP3    H121366   0.591   1.639   4.580 -0.1972  0.0626 -1.2136
 7134TIP3    H221367   0.498   1.571   4.679  0.6519  1.6771  0.7651
 7135TIP3   OH221368   0.221   0.235   4.698  0.2196  0.2775 -1.0258
 7135TIP3    H121369   0.164   0.262   4.626  1.5781  1.6695 -1.6360
 7135TIP3    H221370   0.226   0.312   4.755  1.3000  0.0978 -0.8624
 7136TIP3   OH221371   0.725   1.080   3.728  0.3766 -0.0791 -0.4589
 7136TIP3    H121372   0.740   1.003   3.783  1.1799  0.4175  0.0526
 7136TIP3    H221373   0.667   1.050   3.659 -0.2625 -0.8461  0.3959
 7137TIP3   OH221374   7.168   0.871   2.336  0.4976  0.2220  0.0212
 7137TIP3    H121375   7.172   0.777   2.353 -0.5387  0.1463 -0.0977
 7137TIP3    H221376   7.259   0.897   2.322  0.7389 -0.8738 -0.5441
 7138TIP3   OH221377   4.612   1.710   4.319  0.5241 -0.1703  0.4172
 7138TIP3    H121378   4.681   1.768   4.351  2.0003 -1.6076  0.0229
 7138TIP3    H221379   4.594   1.741   4.230  2.9763 -1.5935 -0.6924
 7139TIP3   OH221380   5.418   4.757   2.160 -0.2049  0.5176 -0.5920
 7139TIP3    H121381   5.423   4.665   2.137 -0.4839  0.1791  0.6267
 7139TIP3    H221382   5.486   4.799   2.108  0.3341 -0.4737 -0.6999
 7140TIP3   OH221383   5.262   1.785   1.572  0.2594 -0.1672  0.0933
 7140TIP3    H121384   5.286   1.875   1.550 -0.5305 -0.2326 -1.0961
 7140TIP3    H221385   5.264   1.738   1.489 -1.0461 -0.8459  0.4214
 7141TIP3   OH221386   4.500   2.320   4.092  0.0879  0.1384 -1.0002
 7141TIP3    H121387   4.452   2.247   4.054  0.1327  0.8667 -2.5421
 7141TIP3    H221388   4.565   2.279   4.149 -3.0455 -0.8813  2.2053
 7142TIP3   OH221389   5.241   2.504   1.391  0.2729 -0.1932  0.0321
 7142TIP3    H121390   5.235   2.587   1.438 -0.9579 -0.8228  1.0546
 7142TIP3    H221391   5.312   2.517   1.329 -0.2070  1.8026 -0.1858
 7143TIP3   OH221392   3.307   1.811   4.722  0.4421 -0.6336 -0.1961
 7143TIP3    H121393   3.274   1.849   4.804  0.3478 -0.9658 -0.0797
 7143TIP3    H221394   3.338   1.724   4.747  1.5611 -0.2730 -0.2656
 7144TIP3   OH221395   5.942   1.422   5.300  0.1167  0.0231  0.1947
 7144TIP3    H121396   5.980   1.367   5.231 -1.1928  0.4203 -0.9060
 7144TIP3    H221397   5.875   1.474   5.254  0.4429  1.6165  1.4433
 7145TIP3   OH221398   0.461   3.362   1.240  0.1195  0.3158 -0.6567
 7145TIP3    H121399   0.414   3.279   1.242  1.3296 -0.4093 -0.9814
 7145TIP3    H221400   0.434   3.407   1.320 -1.3008  0.0504 -0.9587
 7146TIP3   OH221401   1.923   2.015   0.888  0.6347 -0.8895 -0.0682
 7146TIP3    H121402   1.863   2.045   0.957  0.2992 -0.7354 -0.4279
 7146TIP3    H221403   1.991   2.083   0.886 -1.4505  1.3259 -2.6464
 7147TIP3   OH221404   4.338   2.046   5.879 -0.3867 -0.6038  0.4858
 7147TIP3    H121405   4.393   2.085   5.810 -0.6507  0.1763  0.7105
 7147TIP3    H221406   4.346   1.952   5.864 -2.1137 -0.4621 -1.9598
 7148TIP3   OH221407   5.077   0.044   5.808 -0.0905 -0.0099  0.0577
 7148TIP3    H121408   5.073  -0.016   5.735 -0.5866  1.7443 -1.4412
 7148TIP3    H221409   5.158   0.022   5.854  1.0966 -0.0879 -1.9912
 7149TIP3   OH221410   6.253   6.294   0.231  0.2089 -0.3833  0.1450
 7149TIP3    H121411   6.251   6.249   0.147  3.0627  1.7803 -1.2710
 7149TIP3    H221412   6.343   6.282   0.262  0.3583  2.1478  0.9045
 7150TIP3   OH221413   2.521   1.593   1.402  0.3121  0.5815 -0.3990
 7150TIP3    H121414   2.485   1.621   1.318  0.8499  1.2269 -0.4295
 7150TIP3    H221415   2.455   1.619   1.466 -0.8952 -1.4349 -0.7351
 7151TIP3   OH221416   4.819   1.132   1.113  0.1473 -0.0773 -0.1329
 7151TIP3    H121417   4.729   1.118   1.081 -0.2942  1.8199  0.1408
 7151TIP3    H221418   4.848   1.211   1.068  2.1250 -1.2579 -1.0309
 7152TIP3   OH221419   4.721   1.723   5.859  0.5144  0.2136  0.5901
 7152TIP3    H121420   4.647   1.699   5.915 -1.6434  1.5264 -1.4774
 7152TIP3    H221421   4.692   1.699   5.771  1.7897  2.4037 -0.5102
 7153TIP3   OH221422   1.669   4.044   0.997 -0.3387 -0.0552 -0.1401
 7153TIP3    H121423   1.681   3.951   1.017 -1.4223  0.0487  1.0795
 7153TIP3    H221424   1.713   4.055   0.912 -0.2299 -1.6819 -0.3400
 7154TIP3   OH221425   1.570   5.096   5.370  0.3030 -0.2976 -0.5673
 7154TIP3    H121426   1.645   5.055   5.327  0.7248  0.8924 -1.0057
 7154TIP3    H221427   1.519   5.023   5.405  1.4887 -1.1408 -0.5531
 7155TIP3   OH221428   4.057   5.409   2.913  0.1963  0.8673  0.1976
 7155TIP3    H121429   3.985   5.464   2.884  0.4252  1.1303  0.1212
 7155TIP3    H221430   4.136   5.455   2.882  0.4087  0.7764  0.5964
 7156TIP3   OH221431   0.339   3.828   5.075  0.1947 -0.7014  0.4836
 7156TIP3    H121432   0.318   3.895   5.139  0.3133 -0.5283  0.3404
 7156TIP3    H221433   0.257   3.779   5.064  0.1890 -0.7680  0.8062
 7157TIP3   OH221434   4.683   2.187   0.787 -0.2261 -0.0369 -0.3094
 7157TIP3    H121435   4.711   2.277   0.805  4.0947 -1.5818  2.0714
 7157TIP3    H221436   4.683   2.144   0.872  0.3593 -2.8603 -1.6212
 7158TIP3   OH221437   5.257   4.647   0.317  0.1240  0.1729 -0.5040
 7158TIP3    H121438   5.305   4.574   0.356  1.1378  1.2056  0.3114
 7158TIP3    H221439   5.169   4.640   0.353  0.2252 -0.6040 -0.3910
 7159TIP3   OH221440   4.507   2.967   3.352 -0.1837 -0.3861  0.2519
 7159TIP3    H121441   4.595   2.964   3.391 -0.0965  0.2382  0.1156
 7159TIP3    H221442   4.458   3.025   3.410 -0.5295 -0.7857  0.3624
 7160TIP3   OH221443   2.878   3.035   2.044 -0.2371 -0.1923  0.4219
 7160TIP3    H121444   2.901   3.032   1.951 -1.0861  1.2587  0.1236
 7160TIP3    H221445   2.959   3.014   2.090  1.1207  2.3535 -0.6100
 7161TIP3   OH221446   1.408   2.793   0.789  0.2653 -0.3038 -0.5006
 7161TIP3    H121447   1.314   2.781   0.774  0.1963  0.4646 -0.7511
 7161TIP3    H221448   1.432   2.722   0.848 -1.0166  0.9126  1.6406
 7162TIP3   OH221449   6.688   2.612   5.560 -0.5871 -0.2442  0.6224
 7162TIP3    H121450   6.685   2.536   5.502 -4.6603 -0.5486  0.9313
 7162TIP3    H221451   6.699   2.575   5.648 -1.5554 -0.4569  0.6705
 7163TIP3   OH221452   1.303   5.333   1.802 -0.0178  0.4239  0.0302
 7163TIP3    H121453   1.377   5.301   1.852 -0.8493 -1.0485  0.4056
 7163TIP3    H221454   1.341   5.364   1.720  1.1198  0.7858  0.6813
 7164TIP3   OH221455   4.241   2.795   1.785 -0.2531 -0.2340 -0.0983
 7164TIP3    H121456   4.300   2.845   1.842 -1.5347  0.7227  0.4485
 7164TIP3    H221457   4.271   2.705   1.791  2.8485  0.5185 -1.9620
 7165TIP3   OH221458   1.438   2.745   4.354 -0.1735 -0.2270  0.1790
 7165TIP3    H121459   1.445   2.802   4.430  0.7217  0.3461 -0.3315
 7165TIP3    H221460   1.509   2.771   4.296 -1.4626  0.0765 -1.3538
 7166TIP3   OH221461   4.478   2.360   1.655  0.5467  0.2223 -0.3223
 7166TIP3    H121462   4.501   2.281   1.705  0.9574  0.0345 -0.7882
 7166TIP3    H221463   4.556   2.377   1.602 -0.2802 -0.2729 -1.7573
 7167TIP3   OH221464   6.857   6.461   2.291 -0.5631  0.0257 -0.0718
 7167TIP3    H121465   6.914   6.462   2.214 -1.0796  2.4218 -0.4918
 7167TIP3    H221466   6.876   6.543   2.336  1.2124 -2.1198  3.5962
 7168TIP3   OH221467   0.991   3.785   4.451 -0.1677  0.8529  0.1387
 7168TIP3    H121468   1.052   3.753   4.517 -1.0873  2.9234  2.1391
 7168TIP3    H221469   0.957   3.867   4.487 -1.8088  1.3653 -2.2921
 7169TIP3   OH221470   0.888   6.286   2.536 -0.5045  0.2810  0.1692
 7169TIP3    H121471   0.929   6.221   2.594  1.3942  0.3192 -1.0314
 7169TIP3    H221472   0.845   6.347   2.596  0.7317 -0.0914  1.5176
 7170TIP3   OH221473   3.756   6.798   4.812  0.0396 -0.5740 -0.5028
 7170TIP3    H121474   3.693   6.798   4.740 -1.2054 -2.4076  0.5048
 7170TIP3    H221475   3.731   6.723   4.865  2.1014 -0.3841  0.8327
 7171TIP3   OH221476   0.677   6.785   3.513  0.5935  0.4522  0.2650
 7171TIP3    H121477   0.653   6.876   3.528  1.9252  1.4964 -3.0783
 7171TIP3    H221478   0.594   6.740   3.498  0.0704  1.8579 -1.3212
 7172TIP3   OH221479   6.148   3.876   2.461 -0.2606 -0.6871  0.2869
 7172TIP3    H121480   6.212   3.829   2.514  1.8877 -0.4885 -1.9366
 7172TIP3    H221481   6.194   3.956   2.433 -1.4534 -0.5146 -1.3520
 7173TIP3   OH221482   6.551   4.546   0.627  0.2447 -0.0126 -0.2051
 7173TIP3    H121483   6.647   4.544   0.622  0.3284  0.0719  1.0131
 7173TIP3    H221484   6.531   4.630   0.667 -0.4009  0.3890 -1.3507
 7174TIP3   OH221485   1.836   3.650   5.032 -0.0351  0.1541  0.1092
 7174TIP3    H121486   1.858   3.670   4.941  2.2116 -0.0786  0.5588
 7174TIP3    H221487   1.787   3.568   5.027 -1.8559  1.2249 -1.0172
 7175TIP3   OH221488   6.565   1.683   3.296  0.1281  0.3917  0.1038
 7175TIP3    H121489   6.479   1.692   3.337  1.1031  1.3271  2.0875
 7175TIP3    H221490   6.559   1.733   3.215 -2.3113 -2.6577 -1.8506
 7176TIP3   OH221491   6.698   1.792   3.543  0.2292 -0.1723 -0.2650
 7176TIP3    H121492   6.753   1.870   3.551  1.6523 -0.9787 -1.5363
 7176TIP3    H221493   6.622   1.820   3.492 -0.4649  0.8912  1.2699
 7177TIP3   OH221494   1.847   2.068   2.244  0.3285  0.0568  0.0806
 7177TIP3    H121495   1.781   2.061   2.313  2.3843 -1.2622  2.0790
 7177TIP3    H221496   1.868   2.161   2.240 -0.3819  0.2553  0.7019
 7178TIP3   OH221497   3.950   0.964   1.240  0.2615  0.3410  0.0659
 7178TIP3    H121498   3.859   0.933   1.234  0.3096 -0.0816  1.3887
 7178TIP3    H221499   3.945   1.041   1.296  0.4482  1.6037 -1.5614
 7179TIP3   OH221500   4.796   0.100   5.065 -0.3372 -0.5153 -0.2081
 7179TIP3    H121501   4.767   0.189   5.046  1.3989  0.2393  0.5376
 7179TIP3    H221502   4.715   0.054   5.090 -1.0744  1.2375  0.8419
 7180TIP3   OH221503   5.908   6.603   2.748 -0.0252 -0.5182 -0.2588
 7180TIP3    H121504   5.960   6.636   2.821 -2.4221  0.6103  1.0593
 7180TIP3    H221505   5.929   6.510   2.742  0.6331 -0.5069  1.5304
 7181TIP3   OH221506   3.116   5.185   1.800 -0.0008 -0.2966  1.1374
 7181TIP3    H121507   3.078   5.146   1.878 -1.4084  1.0411  1.1781
 7181TIP3    H221508   3.161   5.264   1.831 -0.7351  0.3495  0.5937
 7182TIP3   OH221509   3.816   4.989   4.566  0.4048 -0.4676  0.0195
 7182TIP3    H121510   3.865   4.989   4.483  1.3165  1.4888  0.5164
 7182TIP3    H221511   3.741   4.932   4.549  0.4616  0.0359 -2.2242
 7183TIP3   OH221512   0.485   2.191   1.900  0.2737  0.5493  0.2118
 7183TIP3    H121513   0.514   2.245   1.826 -0.2075  0.4203 -0.0722
 7183TIP3    H221514   0.478   2.102   1.864 -0.7249  0.6226  0.2057
 7184TIP3   OH221515   5.454   5.192   3.672  0.6836 -0.2706 -0.0020
 7184TIP3    H121516   5.473   5.126   3.739  0.1280 -1.1802 -0.7068
 7184TIP3    H221517   5.522   5.180   3.606  1.3863  0.8004  0.4982
 7185TIP3   OH221518   5.550   3.276   0.583  0.0383 -0.2405  0.0693
 7185TIP3    H121519   5.603   3.294   0.505  0.5246  1.4022  0.7496
 7185TIP3    H221520   5.460   3.293   0.554  0.2464  0.7042 -0.0629
 7186TIP3   OH221521   3.210   3.672   2.107  0.1908 -0.0927 -0.3736
 7186TIP3    H121522   3.211   3.648   2.200  1.2291 -4.5123 -1.3015
 7186TIP3    H221523   3.119   3.657   2.080 -0.6241  3.1809  0.2154
 7187TIP3   OH221524   1.064   2.694   5.368 -0.1356  0.4638 -0.1768
 7187TIP3    H121525   1.132   2.626   5.366 -0.5258  0.0589  0.1067
 7187TIP3    H221526   0.986   2.648   5.399 -0.3225  1.1175  0.3359
 7188TIP3   OH221527   6.563   1.275   3.373  0.2174  0.0372  0.5775
 7188TIP3    H121528   6.472   1.285   3.398 -0.0366  0.8627 -0.6014
 7188TIP3    H221529   6.566   1.194   3.321  0.1593 -0.0058  0.6425
 7189TIP3   OH221530   2.500   0.916   3.696 -0.1014  0.4035  0.5656
 7189TIP3    H121531   2.419   0.866   3.693 -1.4119  2.3132 -3.8666
 7189TIP3    H221532   2.569   0.851   3.684 -1.7054 -0.7785 -4.8095
 7190TIP3   OH221533   1.854   2.538   5.553 -0.1754 -0.3003 -0.1176
 7190TIP3    H121534   1.923   2.594   5.518 -1.8511  1.7015 -0.4108
 7190TIP3    H221535   1.822   2.490   5.477  1.6146 -2.1791  0.2215
 7191TIP3   OH221536   0.314   2.892   5.417 -0.2531  0.0343  0.4770
 7191TIP3    H121537   0.346   2.820   5.363  0.2655  0.5824  0.0436
 7191TIP3    H221538   0.293   2.851   5.501  0.0349 -0.6230  0.2371
 7192TIP3   OH221539   1.253   1.505   3.279  0.0996 -0.2407 -0.0957
 7192TIP3    H121540   1.209   1.427   3.246 -1.0891  0.7029 -0.8127
 7192TIP3    H221541   1.328   1.471   3.328 -2.1299 -1.9783  2.3622
 7193TIP3   OH221542   1.033   5.219   4.716 -0.2997 -0.3093 -0.3889
 7193TIP3    H121543   0.938   5.215   4.710 -0.5672  3.6706 -1.1926
 7193TIP3    H221544   1.063   5.238   4.627  1.4698 -2.6768 -0.4151
 7194TIP3   OH221545   0.317   2.044   4.325 -0.0737  0.3172  0.0301
 7194TIP3    H121546   0.350   2.007   4.407  1.4852  1.6757  0.0700
 7194TIP3    H221547   0.383   2.021   4.260  0.5667  2.2788 -0.0909
 7195TIP3   OH221548   4.313   5.330   4.091  0.2101 -0.1796  0.1085
 7195TIP3    H121549   4.347   5.369   4.011  2.2666  0.4133  1.1901
 7195TIP3    H221550   4.261   5.400   4.131 -0.2341 -0.2400 -0.3560
 7196TIP3   OH221551   0.884   3.309   2.943 -0.1069 -0.2126  0.2792
 7196TIP3    H121552   0.840   3.260   2.874  0.3069  0.9918 -0.8755
 7196TIP3    H221553   0.822   3.378   2.967  0.0030 -0.2517  0.6886
 7197TIP3   OH221554   2.258   4.553   3.217 -0.4949 -0.5129  0.1079
 7197TIP3    H121555   2.258   4.569   3.311 -0.1631 -0.3603  0.0853
 7197TIP3    H221556   2.330   4.491   3.203  1.6631  1.9118 -0.4219
 7198TIP3   OH221557   0.194   2.670   3.962  0.2639 -0.5363  0.0185
 7198TIP3    H121558   0.229   2.619   4.035  0.3028  0.1298  0.4732
 7198TIP3    H221559   0.194   2.760   3.994 -0.1320 -0.2958 -0.6472
 7199TIP3   OH221560   4.256   2.598   0.622 -0.4130 -0.4999 -0.0851
 7199TIP3    H121561   4.195   2.539   0.577 -1.7722  0.0511  0.9619
 7199TIP3    H221562   4.264   2.562   0.710 -0.8259  0.5397  0.3964
 7200TIP3   OH221563   2.915   5.460   0.171  0.2470  0.0288 -0.2042
 7200TIP3    H121564   2.953   5.489   0.088 -1.0172  0.1774 -0.7445
 7200TIP3    H221565   2.821   5.458   0.156 -0.2130  2.0006  1.8098
 7201TIP3   OH221566   0.904   1.759   0.897  0.2668  0.2939 -0.1300
 7201TIP3    H121567   0.839   1.826   0.919  0.7064  1.0093 -0.9534
 7201TIP3    H221568   0.988   1.805   0.902  0.5772 -0.2116 -0.6310
 7202TIP3   OH221569   6.968   5.821   2.427 -0.1206 -0.1290  0.0720
 7202TIP3    H121570   6.994   5.808   2.518  0.1315 -1.3480 -0.1536
 7202TIP3    H221571   7.047   5.853   2.384  0.4947 -1.9182 -0.2021
 7203TIP3   OH221572   0.863   4.948   5.317 -0.4420 -0.0274 -0.0795
 7203TIP3    H121573   0.847   4.969   5.225  0.8988  1.5929  0.0204
 7203TIP3    H221574   0.873   4.853   5.317  0.4073  0.0062 -1.7781
 7204TIP3   OH221575   5.087   1.953   2.690  0.6418  0.1880  0.3371
 7204TIP3    H121576   5.099   1.865   2.723 -0.1484  0.3012  0.9722
 7204TIP3    H221577   5.096   2.009   2.767  0.5643  0.6101  0.0443
 7205TIP3   OH221578   1.932   3.247   1.188 -0.4067  0.4781 -0.1757
 7205TIP3    H121579   1.906   3.191   1.115  0.3636  1.4304 -1.2193
 7205TIP3    H221580   1.854   3.252   1.244 -0.7726 -0.8706 -0.5349
 7206TIP3   OH221581   3.256   0.197   0.913  0.3177 -0.0639 -0.2091
 7206TIP3    H121582   3.267   0.101   0.912 -0.5375 -0.2069 -2.5960
 7206TIP3    H221583   3.330   0.228   0.965  0.7570 -1.9911  0.4382
 7207TIP3   OH221584   0.495   5.802   5.656 -0.5876 -0.4894  0.2301
 7207TIP3    H121585   0.452   5.881   5.690 -0.6901 -0.6498  0.4707
 7207TIP3    H221586   0.566   5.836   5.601  0.2266 -0.2380  1.4150
 7208TIP3   OH221587   6.896   4.551   2.492  0.3197 -0.1606 -0.1968
 7208TIP3    H121588   6.882   4.589   2.405  0.4326 -1.8453 -0.9747
 7208TIP3    H221589   6.810   4.557   2.534  0.1142  0.0948 -0.6397
 7209TIP3   OH221590   6.374   5.464   2.668 -0.3235 -0.0864 -0.4087
 7209TIP3    H121591   6.412   5.548   2.695 -0.6932 -0.8019  2.6775
 7209TIP3    H221592   6.279   5.478   2.674 -0.4173 -0.4340 -0.9740
 7210TIP3   OH221593   6.798   1.281   1.240 -0.3876 -0.1850  0.0636
 7210TIP3    H121594   6.890   1.294   1.264 -0.8244  0.9280  1.2367
 7210TIP3    H221595   6.762   1.228   1.310 -0.9818  0.6061  0.3716
 7211TIP3   OH221596   5.372   0.244   1.186 -0.0404 -0.6266  0.1503
 7211TIP3    H121597   5.372   0.152   1.161  0.4333 -0.5101 -0.2967
 7211TIP3    H221598   5.383   0.243   1.281 -0.1094 -1.0306  0.1566
 7212TIP3   OH221599   4.367   2.364   3.776  0.6590 -0.3152 -0.5157
 7212TIP3    H121600   4.399   2.422   3.708  1.9553 -0.9551 -0.4739
 7212TIP3    H221601   4.285   2.404   3.806  0.7263  0.6282 -1.5695
 7213TIP3   OH221602   5.064   2.260   3.179  0.0750 -0.1537 -1.0018
 7213TIP3    H121603   5.010   2.204   3.235 -0.2403  0.7986 -0.3446
 7213TIP3    H221604   5.082   2.205   3.103 -0.6937 -0.9623 -0.6297
 7214TIP3   OH221605   3.236   6.767   0.104  0.2445  0.1416  0.6026
 7214TIP3    H121606   3.285   6.798   0.027 -0.1564 -0.9621 -0.1186
 7214TIP3    H221607   3.231   6.843   0.161  0.1968  1.1060 -0.6436
 7215TIP3   OH221608   4.486   1.095   3.527  0.4321  0.4163 -0.3100
 7215TIP3    H121609   4.428   1.048   3.467  0.0709  1.9791 -1.2591
 7215TIP3    H221610   4.568   1.046   3.525  0.9215  1.1755 -3.2528
 7216TIP3   OH221611   6.419   4.698   4.891  0.4498 -0.0795  0.3586
 7216TIP3    H121612   6.349   4.726   4.950 -1.1066 -2.9707  0.0246
 7216TIP3    H221613   6.482   4.653   4.947 -0.0613 -1.1194  0.1155
 7217TIP3   OH221614   4.415   4.697   1.039  0.2384 -0.2177 -0.0823
 7217TIP3    H121615   4.387   4.664   0.953 -1.2290 -3.9725  1.6484
 7217TIP3    H221616   4.345   4.758   1.064 -0.7866 -1.2322 -0.4054
 7218TIP3   OH221617   5.437   0.880   0.531 -0.2925 -0.8046 -0.4781
 7218TIP3    H121618   5.351   0.900   0.494 -0.5634  2.2630  1.4364
 7218TIP3    H221619   5.418   0.848   0.619  0.4943  0.2670  0.1019
 7219TIP3   OH221620   1.565   6.805   2.206 -0.7378 -0.5972  0.9961
 7219TIP3    H121621   1.588   6.714   2.187  1.7184  0.5376 -2.3009
 7219TIP3    H221622   1.629   6.834   2.270  0.6143 -0.3604 -0.4074
 7220TIP3   OH221623   7.005   6.157   2.586  0.1146  0.6026 -0.0455
 7220TIP3    H121624   7.032   6.122   2.671  3.0757 -1.3602 -1.6213
 7220TIP3    H221625   7.077   6.213   2.558 -0.3342  0.4239 -1.6844
 7221TIP3   OH221626   1.718   2.442   4.369  0.7694  0.1714 -0.0846
 7221TIP3    H121627   1.627   2.449   4.340 -0.3763  0.9479  3.2625
 7221TIP3    H221628   1.737   2.348   4.363  0.0148  0.0764 -1.4360
 7222TIP3   OH221629   6.927   0.940   2.174 -0.4542  0.4081 -0.0500
 7222TIP3    H121630   6.950   0.931   2.081 -1.6385 -1.3992 -0.2150
 7222TIP3    H221631   7.000   0.899   2.221 -0.7047 -0.3244 -0.2893
 7223TIP3   OH221632   3.145   4.847   1.711 -0.0123  0.5096 -0.0515
 7223TIP3    H121633   3.050   4.854   1.719 -0.1753 -0.6978 -0.6028
 7223TIP3    H221634   3.169   4.782   1.778  0.6445  1.9626  1.1634
 7224TIP3   OH221635   4.300   3.997   5.800 -0.5987  0.1828 -0.3747
 7224TIP3    H121636   4.327   3.962   5.885  0.3279  0.5111 -0.5165
 7224TIP3    H221637   4.277   4.088   5.818 -2.3239 -0.2688 -0.1344
 7225TIP3   OH221638   0.842   5.570   0.251 -0.8049  0.1245 -0.1132
 7225TIP3    H121639   0.931   5.536   0.256 -0.2618  1.4383 -0.3831
 7225TIP3    H221640   0.853   5.662   0.226 -2.2297  0.3646  0.0665
 7226TIP3   OH221641   4.240   1.064   2.571 -0.5368  0.1548 -0.1757
 7226TIP3    H121642   4.316   1.123   2.575 -0.4607  0.0356  0.1634
 7226TIP3    H221643   4.172   1.108   2.622 -0.1332 -0.5441  1.0154
 7227TIP3   OH221644   3.329   2.026   0.393 -0.5507 -0.3766  0.3737
 7227TIP3    H121645   3.255   1.994   0.444 -0.8362  0.7278  0.6645
 7227TIP3    H221646   3.294   2.100   0.343 -0.4777 -1.8571 -2.0106
 7228TIP3   OH221647   2.807   6.588   2.315  0.1396 -0.3425  0.4318
 7228TIP3    H121648   2.751   6.510   2.314 -1.7771  0.9353  1.0953
 7228TIP3    H221649   2.773   6.642   2.244  2.1173 -0.5076 -0.7010
 7229TIP3   OH221650   2.126   3.138   0.546  0.0389 -0.1446 -0.2308
 7229TIP3    H121651   2.117   3.173   0.457  0.1532 -0.6347 -0.4379
 7229TIP3    H221652   2.100   3.047   0.539 -3.4976  0.5979  0.9344
 7230TIP3   OH221653   4.291   3.680   4.161  0.0862  0.4086  0.3812
 7230TIP3    H121654   4.259   3.602   4.115  2.0772 -0.6700  0.7012
 7230TIP3    H221655   4.220   3.743   4.154 -1.4669 -1.3196 -0.1892
 7231TIP3   OH221656   0.594   1.492   3.272 -0.0289 -0.3886  0.2350
 7231TIP3    H121657   0.501   1.514   3.279  0.7556  3.5173  0.9790
 7231TIP3    H221658   0.616   1.512   3.181  0.1743 -0.9513  0.1574
 7232TIP3   OH221659   1.008   3.537   3.271 -0.0606 -0.4781 -0.4512
 7232TIP3    H121660   0.924   3.562   3.311  0.8072  0.5010  0.8152
 7232TIP3    H221661   1.047   3.476   3.334  1.1954  0.8629  0.1320
 7233TIP3   OH221662   3.495   2.663   3.083  0.0550 -0.3888  0.1894
 7233TIP3    H121663   3.443   2.583   3.083  0.8817 -0.9415  0.0010
 7233TIP3    H221664   3.457   2.716   3.153 -0.0568 -1.2425  0.8008
 7234TIP3   OH221665   4.278   3.552   4.700 -0.2533 -0.3909 -0.0345
 7234TIP3    H121666   4.234   3.572   4.618 -0.3327  0.6647  0.2508
 7234TIP3    H221667   4.216   3.497   4.748 -1.1319  0.7758  0.2103
 7235TIP3   OH221668   6.469   1.557   4.033  0.4375 -0.6727 -0.2757
 7235TIP3    H121669   6.536   1.503   4.077 -1.1720 -1.4837  1.3044
 7235TIP3    H221670   6.440   1.503   3.960  0.2031 -1.1392  0.1532
 7236TIP3   OH221671   4.853   4.868   1.459 -0.4373 -0.2274  0.0613
 7236TIP3    H121672   4.775   4.815   1.440 -0.3807 -0.0292 -0.7841
 7236TIP3    H221673   4.924   4.820   1.416 -0.1550 -0.2080  0.5094
 7237TIP3   OH221674   1.653   3.457   2.414  0.4578 -0.2566 -0.7573
 7237TIP3    H121675   1.561   3.434   2.426  0.1278  2.0848  2.6982
 7237TIP3    H221676   1.658   3.487   2.323 -1.8953 -1.3823 -1.3519
 7238TIP3   OH221677   2.300   2.904   0.737  0.0247  0.0191  0.4115
 7238TIP3    H121678   2.320   2.978   0.794 -2.3853  1.7357 -0.8093
 7238TIP3    H221679   2.232   2.855   0.785 -2.7238  2.0008 -1.1813
 7239TIP3   OH221680   3.493   3.818   3.410  0.5144  0.1256 -0.4694
 7239TIP3    H121681   3.492   3.739   3.463  2.2993  0.2990 -0.1093
 7239TIP3    H221682   3.402   3.846   3.406  0.2623 -0.0203  2.3310
 7240TIP3   OH221683   2.884   0.371   5.897 -0.3526  0.1473  0.7613
 7240TIP3    H121684   2.883   0.434   5.825  1.1087  0.1176  0.6828
 7240TIP3    H221685   2.974   0.338   5.899 -0.8036 -1.1263  1.5054
 7241TIP3   OH221686   1.719   2.296   0.887 -0.0545  0.0261 -0.6213
 7241TIP3    H121687   1.777   2.286   0.811 -1.7400  0.0567 -1.9650
 7241TIP3    H221688   1.659   2.222   0.881  0.2883 -0.4353  1.1870
 7242TIP3   OH221689   1.448   4.919   1.232 -0.2344  0.0529 -0.6577
 7242TIP3    H121690   1.420   4.876   1.151  1.3100  0.1340 -1.2643
 7242TIP3    H221691   1.384   4.990   1.244 -1.9101 -1.4389 -0.4605
 7243TIP3   OH221692   4.437   6.358   1.996 -0.0239  0.0060  0.1412
 7243TIP3    H121693   4.471   6.374   2.084  0.1614  1.2253 -0.1358
 7243TIP3    H221694   4.410   6.266   1.997  2.6780 -0.8625  0.5596
 7244TIP3   OH221695   3.966   2.513   1.481  0.5442  0.0193 -0.1350
 7244TIP3    H121696   4.032   2.450   1.452 -0.5068 -0.8146 -0.8269
 7244TIP3    H221697   3.974   2.586   1.420  1.4783  0.3752  0.3996
 7245TIP3   OH221698   6.125   0.359   1.547  0.1201  0.6059 -0.6908
 7245TIP3    H121699   6.193   0.355   1.480  1.1823  0.0850  0.3712
 7245TIP3    H221700   6.068   0.431   1.519  0.9711  0.9052 -1.7296
 7246TIP3   OH221701   6.823   6.544   0.861  0.1354  0.9185  0.3170
 7246TIP3    H121702   6.817   6.599   0.782 -1.8530 -0.4108 -0.5270
 7246TIP3    H221703   6.795   6.458   0.832  0.3298  0.1502  2.2940
 7247TIP3   OH221704   2.233   4.474   4.535 -0.9815  0.1692  0.5451
 7247TIP3    H121705   2.171   4.448   4.466  0.5354 -1.5296 -0.2570
 7247TIP3    H221706   2.213   4.416   4.608  1.2549 -2.3254 -0.6362
 7248TIP3   OH221707   6.417   5.234   2.463 -0.3569 -0.3568  0.0618
 7248TIP3    H121708   6.389   5.304   2.522 -3.0499 -1.7485  0.6186
 7248TIP3    H221709   6.433   5.278   2.380 -1.7245  0.9845  0.4625
 7249TIP3   OH221710   2.372   3.145   4.981 -0.0175  0.3236  0.7674
 7249TIP3    H121711   2.460   3.114   5.002 -0.1178 -0.0393  0.6539
 7249TIP3    H221712   2.386   3.216   4.919  0.0878 -1.7194 -1.7219
 7250TIP3   OH221713   3.011   0.284   2.340  0.2982 -0.0365 -0.4767
 7250TIP3    H121714   3.090   0.258   2.292  1.1961 -0.0006  0.9186
 7250TIP3    H221715   3.021   0.244   2.426 -0.3971  1.3228  0.2738
 7251TIP3   OH221716   6.734   0.942   5.859 -0.7293  0.1761  0.5566
 7251TIP3    H121717   6.722   0.975   5.770  0.5957 -0.4746  0.1201
 7251TIP3    H221718   6.817   0.979   5.887 -0.0342 -1.4246  0.6715
 7252TIP3   OH221719   3.907   1.402   3.162  0.0324 -0.2125  0.3064
 7252TIP3    H121720   3.944   1.450   3.236 -0.1124  0.2117  0.1005
 7252TIP3    H221721   3.817   1.434   3.155 -0.2150 -0.8474  0.4652
 7253TIP3   OH221722   2.496   5.099   4.843  0.1301  0.0542 -0.2334
 7253TIP3    H121723   2.498   5.180   4.792 -1.7784 -0.0440 -0.5371
 7253TIP3    H221724   2.525   5.031   4.781  0.3914  0.3084 -0.3917
 7254TIP3   OH221725   2.026   6.232   4.369  0.5326 -0.2600 -0.2632
 7254TIP3    H121726   2.050   6.259   4.280  3.4881  2.0084  1.0406
 7254TIP3    H221727   2.056   6.141   4.376 -2.3288 -1.5109 -2.3196
 7255TIP3   OH221728   5.591   5.953   4.240  0.5983 -0.0610 -0.1232
 7255TIP3    H121729   5.528   5.971   4.309  0.9777 -1.5345  0.6586
 7255TIP3    H221730   5.647   6.031   4.237 -0.6528  0.8590 -0.1817
 7256TIP3   OH221731   2.222   4.107   2.046 -0.0383  0.0091  0.1863
 7256TIP3    H121732   2.211   4.058   2.127 -2.7014  0.0320 -0.0675
 7256TIP3    H221733   2.188   4.194   2.065  1.1110  0.6223 -0.4355
 7257TIP3   OH221734   6.491   4.548   2.945  0.8365 -0.1256  0.0649
 7257TIP3    H121735   6.426   4.617   2.937  2.2660  1.1086 -1.6733
 7257TIP3    H221736   6.460   4.494   3.018 -2.6592 -0.2360 -1.3117
 7258TIP3   OH221737   4.884   3.232   4.390 -0.5574  0.5430 -0.1374
 7258TIP3    H121738   4.969   3.246   4.431  0.4015 -0.2636 -1.7367
 7258TIP3    H221739   4.884   3.291   4.314 -2.1680  1.8027  0.7733
 7259TIP3   OH221740   2.996   5.320   2.194 -0.5331  0.2531  0.4063
 7259TIP3    H121741   2.981   5.414   2.181 -0.3752  0.4944  1.7971
 7259TIP3    H221742   2.910   5.280   2.185 -0.4465  0.3809 -1.2389
 7260TIP3   OH221743   6.780   5.511   2.880  0.1839  0.2986  0.3043
 7260TIP3    H121744   6.703   5.484   2.930 -2.3889  2.8639 -1.9031
 7260TIP3    H221745   6.811   5.590   2.925  1.0016 -0.2159  0.6632
 7261TIP3   OH221746   5.978   5.032   0.612 -0.1425 -0.1955 -0.0062
 7261TIP3    H121747   5.893   5.075   0.602  0.1987  0.2626 -1.1338
 7261TIP3    H221748   6.006   5.054   0.701 -1.0176 -0.0222  0.2371
 7262TIP3   OH221749   4.941   0.481   4.107  0.1691  0.6331  0.0113
 7262TIP3    H121750   4.956   0.444   4.194 -1.3132  1.5859  0.7216
 7262TIP3    H221751   4.977   0.417   4.046  2.3089  0.4676  1.3417
 7263TIP3   OH221752   6.003   0.589   1.494 -0.7420  0.0495 -0.0906
 7263TIP3    H121753   5.913   0.557   1.502 -0.5501 -0.7153 -0.7734
 7263TIP3    H221754   6.013   0.653   1.563 -2.5504  1.9234 -1.4742
 7264TIP3   OH221755   0.869   5.638   5.220 -0.1121  0.0851 -0.3248
 7264TIP3    H121756   0.885   5.673   5.308 -1.5448 -1.2298  0.5104
 7264TIP3    H221757   0.926   5.562   5.214 -0.0156  0.1745 -0.5387
 7265TIP3   OH221758   2.752   6.371   4.539  0.7572 -0.2078 -0.0001
 7265TIP3    H121759   2.814   6.435   4.574  1.2864 -1.1306  0.7830
 7265TIP3    H221760   2.674   6.423   4.517  1.3239  0.7596  0.2403
 7266TIP3   OH221761   2.515   0.018   0.746 -0.1025 -0.1981 -0.0679
 7266TIP3    H121762   2.588  -0.012   0.801 -0.4442 -0.1050  0.4489
 7266TIP3    H221763   2.557   0.063   0.673  0.3548 -0.0352  0.2895
 7267TIP3   OH221764   1.447   1.507   3.506 -0.1811 -0.0387 -0.1276
 7267TIP3    H121765   1.470   1.596   3.533 -1.7819  0.6934 -1.0469
 7267TIP3    H221766   1.439   1.459   3.588 -2.0536  1.4045  0.6181
 7268TIP3   OH221767   7.061   2.370   1.059 -0.6435  0.0530 -0.5657
 7268TIP3    H121768   7.115   2.348   0.983 -1.5538 -0.8106 -0.9784
 7268TIP3    H221769   7.096   2.316   1.130  0.6181  1.3187 -0.1646
 7269TIP3   OH221770   6.738   3.959   0.778 -0.0524  0.3980  0.0445
 7269TIP3    H121771   6.660   4.012   0.761 -2.4841 -2.1287  2.1918
 7269TIP3    H221772   6.742   3.898   0.704  0.1529  0.8164 -0.2893
 7270TIP3   OH221773   3.996   3.138   1.843 -0.2569 -0.4964 -0.4315
 7270TIP3    H121774   4.019   3.058   1.890  2.8591 -0.4243 -1.5984
 7270TIP3    H221775   4.045   3.207   1.887 -2.1950  0.6770 -0.0079
 7271TIP3   OH221776   1.164   3.482   1.832 -0.1575  0.2772 -0.6937
 7271TIP3    H121777   1.191   3.572   1.847 -0.4583  0.1951  0.4141
 7271TIP3    H221778   1.105   3.486   1.756  1.5841  0.6871 -2.1056
 7272TIP3   OH221779   1.169   1.184   1.257  0.1205 -0.8263  0.4577
 7272TIP3    H121780   1.170   1.096   1.219  1.9591 -1.0645  0.9892
 7272TIP3    H221781   1.130   1.172   1.343 -2.5837 -0.5410 -0.6251
 7273TIP3   OH221782   5.024   5.276   5.239 -0.4107 -0.0554  0.0452
 7273TIP3    H121783   4.948   5.229   5.207 -0.8176  0.0040  0.9047
 7273TIP3    H221784   4.991   5.363   5.262 -0.2959 -0.3543  1.3777
 7274TIP3   OH221785   1.721   0.502   3.427  0.2895  0.4539  0.4830
 7274TIP3    H121786   1.764   0.439   3.369  0.3850  0.5758  0.4222
 7274TIP3    H221787   1.741   0.470   3.515 -0.3071 -0.0355  0.4450
 7275TIP3   OH221788   3.222   5.894   3.077  0.1527 -0.4032 -0.1098
 7275TIP3    H121789   3.143   5.844   3.056  1.5660 -3.2754  0.8290
 7275TIP3    H221790   3.202   5.983   3.050 -2.6856 -1.3841 -1.6808
 7276TIP3   OH221791   5.738   1.381   1.450  0.0609  0.1118 -0.8183
 7276TIP3    H121792   5.787   1.410   1.373 -0.1912  0.8469 -0.7125
 7276TIP3    H221793   5.757   1.447   1.517  0.6712 -0.7790 -0.0870
 7277TIP3   OH221794   1.226   6.677   5.301 -0.3981  0.1395 -0.4881
 7277TIP3    H121795   1.133   6.681   5.323  0.0390 -0.8530  1.8320
 7277TIP3    H221796   1.236   6.598   5.248 -0.4732 -1.5810  1.9176
 7278TIP3   OH221797   2.053   5.772   0.908 -0.3479 -0.1861 -0.5031
 7278TIP3    H121798   1.977   5.793   0.962 -0.1535 -1.3288  0.2498
 7278TIP3    H221799   2.034   5.685   0.873  0.4499 -0.3217 -0.6152
 7279TIP3   OH221800   2.267   0.638   4.098 -0.5919 -0.1091 -0.3552
 7279TIP3    H121801   2.255   0.725   4.136  3.7377 -0.7320  3.1349
 7279TIP3    H221802   2.236   0.577   4.165  1.3452 -1.2465 -0.4263
 7280TIP3   OH221803   3.875   0.715   3.691 -0.5287 -0.1569 -0.6037
 7280TIP3    H121804   3.801   0.689   3.746  0.1075 -0.4817  0.1298
 7280TIP3    H221805   3.951   0.677   3.735  0.2315  1.3707 -0.5440
 7281TIP3   OH221806   6.747   5.980   3.682 -0.0277 -0.3566  0.5253
 7281TIP3    H121807   6.817   5.915   3.678  1.7445  1.3899  1.1714
 7281TIP3    H221808   6.711   5.972   3.771 -0.2152 -0.8216  0.4101
 7282TIP3   OH221809   1.041   2.970   1.260 -0.8999 -0.3533  0.3563
 7282TIP3    H121810   0.985   3.021   1.318 -0.2485  1.6212 -0.6795
 7282TIP3    H221811   1.129   3.003   1.275 -0.4030 -1.3661 -0.1713
 7283TIP3   OH221812   6.893   2.486   5.241  0.0338  0.0995 -0.0389
 7283TIP3    H121813   6.904   2.505   5.147  0.2750 -2.1863 -0.5257
 7283TIP3    H221814   6.809   2.441   5.246 -0.3752  0.9377  0.9999
 7284TIP3   OH221815   1.957   0.745   4.118  0.4139  0.1797  0.2224
 7284TIP3    H121816   1.950   0.713   4.208  1.0005  1.6580  0.8220
 7284TIP3    H221817   1.913   0.830   4.120  1.4427  0.7430 -0.6209
 7285TIP3   OH221818   1.265   6.353   4.851  0.0276 -0.1909 -0.2527
 7285TIP3    H121819   1.303   6.372   4.765  2.6227 -2.3055  0.2874
 7285TIP3    H221820   1.225   6.267   4.841 -1.8033  0.5852  0.0947
 7286TIP3   OH221821   3.938   6.697   1.044  0.3784  0.2787  0.5249
 7286TIP3    H121822   4.031   6.706   1.064  0.2030 -0.1024  1.5926
 7286TIP3    H221823   3.907   6.627   1.102 -0.8036  1.1934  1.0580
 7287TIP3   OH221824   3.127   5.653   3.500  0.2813  0.8045 -0.4816
 7287TIP3    H121825   3.120   5.654   3.405  0.4480  2.1439 -0.4885
 7287TIP3    H221826   3.041   5.625   3.530  0.2974  0.1487 -1.0228
 7288TIP3   OH221827   6.486   5.607   5.480  0.3788 -0.6492  0.4337
 7288TIP3    H121828   6.572   5.572   5.456  2.1822  2.9329  1.1094
 7288TIP3    H221829   6.466   5.566   5.564  3.0708  0.8866  1.9124
 7289TIP3   OH221830   1.802   4.246   1.879 -0.0088 -0.6643  0.3512
 7289TIP3    H121831   1.758   4.195   1.948 -0.0032 -1.2326 -0.0568
 7289TIP3    H221832   1.826   4.328   1.922 -0.0248 -0.9990  1.0258
 7290TIP3   OH221833   6.019   6.122   0.843  0.2251 -0.0417 -0.4208
 7290TIP3    H121834   5.999   6.215   0.852 -0.6487 -0.2294 -0.3307
 7290TIP3    H221835   6.096   6.108   0.898  0.6589  0.7279 -0.8305
 7291TIP3   OH221836   5.342   1.976   1.785 -0.0854 -0.0765  0.0621
 7291TIP3    H121837   5.420   2.024   1.811  0.2675  0.2179 -1.4487
 7291TIP3    H221838   5.329   1.912   1.855  0.5734  0.9174  1.1242
 7292TIP3   OH221839   2.106   4.903   1.992  0.0338 -0.3399  0.5660
 7292TIP3    H121840   2.061   4.821   1.970  0.4154 -0.9736  2.0323
 7292TIP3    H221841   2.195   4.890   1.961 -0.2291  0.0687 -0.4026
 7293TIP3   OH221842   0.468   6.536   3.082 -0.2747 -0.5916  0.2744
 7293TIP3    H121843   0.392   6.521   3.137  0.0949 -1.3713  0.5920
 7293TIP3    H221844   0.440   6.602   3.019 -1.5969 -1.7149 -0.3613
 7294TIP3   OH221845   0.977   4.345   3.196  0.2080 -0.4256  0.2682
 7294TIP3    H121846   1.044   4.402   3.159  0.4616 -0.0285  1.2974
 7294TIP3    H221847   0.970   4.372   3.287 -1.1919 -0.6314  0.2412
 7295TIP3   OH221848   6.780   4.895   2.212 -0.9020 -0.2550 -0.0260
 7295TIP3    H121849   6.807   4.912   2.303 -1.4262  0.7552 -0.0391
 7295TIP3    H221850   6.795   4.978   2.167 -0.4999 -0.8021 -0.9069
 7296TIP3   OH221851   3.712   3.051   3.114  0.1301 -0.1414 -0.2651
 7296TIP3    H121852   3.643   3.031   3.176 -0.2650  0.3783 -0.5317
 7296TIP3    H221853   3.789   3.068   3.169 -0.2701  0.5312  0.0978
 7297TIP3   OH221854   5.924   5.720   0.055 -0.6996 -0.1257  0.3609
 7297TIP3    H121855   5.908   5.626   0.067 -1.0326 -0.1422 -0.1857
 7297TIP3    H221856   5.840   5.760   0.078 -0.7601 -0.0123 -0.0630
 7298TIP3   OH221857   3.420   4.089   3.448  0.7276  0.2600  0.1258
 7298TIP3    H121858   3.491   4.121   3.392  1.0465 -0.9068 -0.1716
 7298TIP3    H221859   3.452   4.006   3.483 -0.4471 -0.2628  0.0432
 7299TIP3   OH221860   0.490   3.634   5.824  0.1877 -0.4526 -0.3524
 7299TIP3    H121861   0.447   3.568   5.879 -0.8543  1.8447  1.7830
 7299TIP3    H221862   0.426   3.656   5.757 -0.5188  0.1634  0.4894
 7300TIP3   OH221863   6.137   1.259   3.130 -0.3936 -0.0532  0.0035
 7300TIP3    H121864   6.151   1.165   3.138  0.9930  0.0914 -0.4094
 7300TIP3    H221865   6.214   1.298   3.172 -1.7550  0.9444  1.6771
 7301TIP3   OH221866   0.728   5.041   4.610  0.6778  0.5773  0.1701
 7301TIP3    H121867   0.645   4.995   4.598  1.0265 -0.6884  2.1210
 7301TIP3    H221868   0.717   5.090   4.692  1.6639  0.8735  0.1415
 7302TIP3   OH221869   4.258   6.013   5.483 -0.4930 -0.0083  0.3476
 7302TIP3    H121870   4.326   6.058   5.534  0.9616 -1.7608  0.0518
 7302TIP3    H221871   4.302   5.985   5.403 -1.6299 -0.9950  0.0295
 7303TIP3   OH221872   0.581   0.293   2.365  0.0048  0.6401 -0.0440
 7303TIP3    H121873   0.567   0.210   2.321 -1.3605  0.8040  0.0365
 7303TIP3    H221874   0.651   0.276   2.428 -1.6494 -1.0329  1.4373
 7304TIP3   OH221875   0.144   0.479   3.298 -0.0360  0.1310 -0.0524
 7304TIP3    H121876   0.069   0.456   3.242 -0.1044 -1.5622  0.6748
 7304TIP3    H221877   0.206   0.407   3.284  0.3348  0.1641  1.3248
 7305TIP3   OH221878   6.968   3.984   0.496 -0.3571  0.1883  0.0596
 7305TIP3    H121879   6.921   4.062   0.469  0.8538  1.2512  0.8915
 7305TIP3    H221880   7.061   4.008   0.488  0.0433 -0.6334  1.7335
 7306TIP3   OH221881   0.053   3.942   3.388  0.1933  0.4820 -0.6254
 7306TIP3    H121882   0.131   3.998   3.396 -0.9816  1.9845  1.0682
 7306TIP3    H221883  -0.008   3.993   3.336 -0.3151  0.0742 -0.4370
 7307TIP3   OH221884   0.280   2.868   4.845  0.0428 -0.0943  0.3629
 7307TIP3    H121885   0.190   2.869   4.812 -0.4816  0.5738  1.7492
 7307TIP3    H221886   0.308   2.960   4.841  0.4146 -0.1961  0.6071
 7308TIP3   OH221887   3.159   0.601   2.321  0.1657 -0.0213  0.0251
 7308TIP3    H121888   3.217   0.535   2.285  0.4612  0.4019 -0.2893
 7308TIP3    H221889   3.184   0.607   2.413 -1.2094 -1.7587  0.5679
 7309TIP3   OH221890   0.926   5.075   5.848  0.6940 -0.7215  0.4375
 7309TIP3    H121891   0.890   5.032   5.925  0.3637 -1.0247  0.1152
 7309TIP3    H221892   0.949   5.004   5.789  2.4820 -0.5853  0.9021
 7310TIP3   OH221893   5.824   1.379   5.797 -0.5971  0.0467 -0.3840
 7310TIP3    H121894   5.783   1.453   5.751  0.8375  2.3857  1.8019
 7310TIP3    H221895   5.753   1.339   5.846 -1.1245  1.1259 -0.2337
 7311TIP3   OH221896   2.209   2.876   1.201  0.1758  0.6589 -0.4343
 7311TIP3    H121897   2.209   2.795   1.250 -0.2535 -0.7254 -2.5687
 7311TIP3    H221898   2.300   2.888   1.173  0.3302  1.1911  0.2679
 7312TIP3   OH221899   6.519   5.836   5.008 -0.2748 -0.0205  0.1511
 7312TIP3    H121900   6.610   5.809   5.004 -0.1704  0.3625 -0.0258
 7312TIP3    H221901   6.489   5.807   5.095  0.1291  0.2271  0.3738
 7313TIP3   OH221902   5.854   5.915   2.508  0.0971  0.1702  0.0461
 7313TIP3    H121903   5.932   5.960   2.541 -0.8380  2.1233 -0.2967
 7313TIP3    H221904   5.810   5.884   2.587 -0.4848  2.0386  0.5121
 7314TIP3   OH221905   5.918   2.314   2.632 -0.7225 -0.9806  0.6374
 7314TIP3    H121906   6.007   2.346   2.619 -1.6035  0.4742 -2.9911
 7314TIP3    H221907   5.919   2.225   2.596 -0.8641 -0.7756  0.1318
 7315TIP3   OH221908   3.744   2.896   4.373  0.1522 -0.3599 -0.5222
 7315TIP3    H121909   3.694   2.969   4.410 -0.7223 -0.9329 -0.5492
 7315TIP3    H221910   3.812   2.877   4.439 -1.5875 -1.5972  1.0147
 7316TIP3   OH221911   4.496   6.676   3.293 -0.6814 -0.0333 -0.8333
 7316TIP3    H121912   4.443   6.738   3.243 -0.4938  0.7214 -0.1025
 7316TIP3    H221913   4.473   6.693   3.385 -0.9364 -1.3189 -0.6304
 7317TIP3   OH221914   7.191   5.678   5.089  0.2972  0.3931  0.0697
 7317TIP3    H121915   7.198   5.773   5.096  0.0225  0.3518  1.0914
 7317TIP3    H221916   7.257   5.645   5.151  0.9756 -0.0979 -0.8835
 7318TIP3   OH221917   6.829   3.806   0.064 -0.4468 -0.2652  0.6181
 7318TIP3    H121918   6.902   3.801   0.126 -0.3612 -0.0360  0.5374
 7318TIP3    H221919   6.869   3.838  -0.017 -0.4263 -1.2649  0.2234
 7319TIP3   OH221920   6.999   6.758   1.816 -0.2075  0.0946 -0.8374
 7319TIP3    H121921   7.083   6.780   1.857  0.2545 -0.8038 -1.2620
 7319TIP3    H221922   7.021   6.750   1.723 -1.0909  1.4065 -1.1801
 7320TIP3   OH221923   3.194   5.206   5.067  0.2419  0.4891 -0.2071
 7320TIP3    H121924   3.258   5.135   5.080  0.7052  0.6854 -1.2770
 7320TIP3    H221925   3.133   5.172   5.002  1.6106  1.7441 -2.2451
 7321TIP3   OH221926   6.029   1.116   3.434 -0.0335  0.5167 -1.0265
 7321TIP3    H121927   6.115   1.158   3.436  0.3859 -0.3162  0.9046
 7321TIP3    H221928   6.029   1.065   3.354  1.4681  0.1859 -0.8418
 7322TIP3   OH221929   1.103   3.236   0.326  0.5754 -0.2350 -0.0822
 7322TIP3    H121930   1.100   3.316   0.272  1.9633 -0.9526 -1.2733
 7322TIP3    H221931   1.150   3.262   0.405 -3.1612  1.3648  1.8763
 7323TIP3   OH221932   0.183   5.671   4.843 -0.6522 -0.4663  0.1172
 7323TIP3    H121933   0.173   5.577   4.856  0.2367 -0.8610 -1.6452
 7323TIP3    H221934   0.268   5.679   4.800 -1.0810  1.0704 -0.4879
 7324TIP3   OH221935   5.692   6.186   1.710  0.2255  0.1759  0.1546
 7324TIP3    H121936   5.651   6.183   1.624 -0.4066  0.1161  0.4568
 7324TIP3    H221937   5.621   6.170   1.772  0.8858 -1.1043  0.6277
 7325TIP3   OH221938   0.982   5.146   2.641  0.0877 -0.3246  0.3115
 7325TIP3    H121939   0.920   5.167   2.710  0.9353  0.6635  0.7985
 7325TIP3    H221940   0.929   5.106   2.572 -1.2156  1.2501  0.3533
 7326TIP3   OH221941   7.201   2.449   4.924 -0.0668 -0.0661  0.1478
 7326TIP3    H121942   7.193   2.545   4.924  0.4962 -0.0158 -0.6686
 7326TIP3    H221943   7.195   2.425   5.017  0.1780  0.7870  0.3940
 7327TIP3   OH221944   2.631   5.014   5.895 -0.5158 -0.3278 -0.9837
 7327TIP3    H121945   2.693   4.965   5.841 -1.8439 -1.4572 -1.5397
 7327TIP3    H221946   2.627   5.100   5.855 -0.9334 -0.9221 -2.2763
 7328TIP3   OH221947   3.753   2.353   4.679 -0.1563 -0.2838  0.7332
 7328TIP3    H121948   3.710   2.309   4.605  0.4575 -1.3120  0.9608
 7328TIP3    H221949   3.681   2.389   4.731 -0.5746  0.9675 -0.6516
 7329TIP3   OH221950   1.679   1.674   1.451  0.1036  0.2238 -0.1815
 7329TIP3    H121951   1.765   1.646   1.419  0.1471 -0.4453  0.4959
 7329TIP3    H221952   1.695   1.704   1.540 -0.3952 -0.0717  0.0109
 7330TIP3   OH221953   6.923   4.156   2.898  0.3754  0.3502  0.1868
 7330TIP3    H121954   6.859   4.108   2.950 -1.9106  1.5021 -1.4065
 7330TIP3    H221955   6.895   4.248   2.904 -0.2407  0.5170 -3.2334
 7331TIP3   OH221956   5.336   4.986   1.375  0.3330 -0.1039  0.5030
 7331TIP3    H121957   5.426   5.013   1.360  0.4350 -1.3398 -1.5635
 7331TIP3    H221958   5.327   4.903   1.327 -1.7345 -0.3151  1.1257
 7332TIP3   OH221959   0.688   5.306   4.002  0.1628  0.1031  0.4951
 7332TIP3    H121960   0.711   5.375   3.940 -1.2870  0.7613  0.6523
 7332TIP3    H221961   0.606   5.336   4.042 -0.0127 -1.2827  1.2328
 7333TIP3   OH221962   5.995   5.380   1.216  0.4177  0.4923  0.1969
 7333TIP3    H121963   5.940   5.302   1.228 -0.3255  1.0518  0.4812
 7333TIP3    H221964   6.012   5.411   1.305  0.6848  0.6871  0.0798
 7334TIP3   OH221965   0.498   0.141   0.195  1.1145 -0.0113  0.1146
 7334TIP3    H121966   0.554   0.202   0.243 -0.5112  1.9260 -0.3353
 7334TIP3    H221967   0.555   0.066   0.177  2.9113  0.9210  1.5475
 7335TIP3   OH221968   1.012   0.910   0.153 -0.2741 -0.2811  0.2067
 7335TIP3    H121969   1.014   0.968   0.229 -0.1409 -2.1213  1.6767
 7335TIP3    H221970   0.918   0.901   0.133 -0.5901 -2.1497  2.1377
 7336TIP3   OH221971   4.210   0.772   3.402  0.1154  0.2647  0.0044
 7336TIP3    H121972   4.147   0.702   3.382  0.7532 -0.5474  0.7779
 7336TIP3    H221973   4.163   0.831   3.461 -0.1743  0.0775 -0.0394
 7337TIP3   OH221974   6.108   6.129   4.877 -0.3650  0.4448 -0.1240
 7337TIP3    H121975   6.108   6.063   4.946  1.5441  0.7987  0.2643
 7337TIP3    H221976   6.167   6.094   4.810 -2.0084  0.2105 -1.5185
 7338TIP3   OH221977   0.607   5.546   5.693 -0.0271 -0.1019 -0.0339
 7338TIP3    H121978   0.592   5.640   5.682 -0.0821 -0.0749  0.2446
 7338TIP3    H221979   0.596   5.532   5.787  1.2555 -0.1632  0.1244
 7339TIP3   OH221980   4.569   1.937   4.631 -0.2921  0.1656  0.0879
 7339TIP3    H121981   4.569   1.982   4.715  1.4897  0.2521  0.0756
 7339TIP3    H221982   4.537   2.003   4.569 -0.3446  0.5174  0.4816
 7340TIP3   OH221983   3.860   6.720   5.540  0.1028  0.0347 -0.1455
 7340TIP3    H121984   3.802   6.673   5.600 -0.7555 -1.1177 -1.7762
 7340TIP3    H221985   3.802   6.750   5.470  1.0513  1.4135 -0.3802
 7341TIP3   OH221986   0.910   3.274   1.897 -0.2572 -0.4087 -0.7027
 7341TIP3    H121987   0.937   3.294   1.986 -0.5554 -2.1855 -0.1851
 7341TIP3    H221988   0.864   3.353   1.868 -0.4553  0.0740  0.8311
 7342TIP3   OH221989   5.993   6.060   2.911 -0.1812  0.1415 -0.1604
 7342TIP3    H121990   5.898   6.054   2.917 -0.0385 -2.8537  0.3823
 7342TIP3    H221991   6.023   6.073   3.001 -0.0304 -0.4158 -0.1246
 7343TIP3   OH221992   6.851   1.284   4.395 -0.2100  0.0904  0.2899
 7343TIP3    H121993   6.877   1.206   4.444  1.9828  0.6337  0.0701
 7343TIP3    H221994   6.847   1.354   4.460  0.7179  0.3868  0.0435
 7344TIP3   OH221995   6.720   0.993   1.759 -0.1881  0.1333 -0.7523
 7344TIP3    H121996   6.669   0.931   1.707 -0.3350  0.4186 -0.9532
 7344TIP3    H221997   6.681   0.988   1.846  0.7807 -1.1758 -0.3634
 7345TIP3   OH221998   5.825   4.749   2.399 -0.2194 -0.0031  0.4536
 7345TIP3    H121999   5.895   4.694   2.434 -0.6798 -0.8666  0.0587
 7345TIP3    H222000   5.746   4.717   2.443 -0.3728  0.9782  0.9162
 7346TIP3   OH222001   3.663   1.685   0.848 -0.5318 -0.0633  0.2940
 7346TIP3    H122002   3.673   1.714   0.758 -1.2577 -0.2259  0.1520
 7346TIP3    H222003   3.724   1.738   0.898 -0.5403  0.4323 -0.2141
 7347TIP3   OH222004   7.011   2.834   3.947 -0.0379  0.4738  0.2184
 7347TIP3    H122005   6.946   2.888   3.993  0.2705 -0.0277  1.2667
 7347TIP3    H222006   7.092   2.884   3.953  0.6594 -0.8292  2.7124
 7348TIP3   OH222007   6.363   4.182   2.090  0.0113  0.2820  0.2221
 7348TIP3    H122008   6.313   4.119   2.038  0.6744  0.7069 -0.9782
 7348TIP3    H222009   6.451   4.144   2.095  0.9453  1.8515 -2.0760
 7349TIP3   OH222010   0.427   5.769   4.493 -0.5275  0.8032  0.0697
 7349TIP3    H122011   0.418   5.791   4.586 -1.5001  2.7207 -0.4202
 7349TIP3    H222012   0.355   5.709   4.474  0.0643 -0.1143  0.6824
 7350TIP3   OH222013   4.682   6.252   3.072 -0.5229 -0.3153  0.3273
 7350TIP3    H122014   4.695   6.175   3.017  1.0725 -0.5205  0.9658
 7350TIP3    H222015   4.588   6.250   3.093 -0.5938 -1.8475  0.0070
 7351TIP3   OH222016   0.994   1.143   0.521 -0.2865  0.0935 -0.1641
 7351TIP3    H122017   1.041   1.167   0.440 -0.4091 -0.5368 -0.4240
 7351TIP3    H222018   1.057   1.162   0.591  0.3301 -0.6346 -0.5011
 7352TIP3   OH222019   3.916   2.171   1.021  0.2375  0.0933  0.4314
 7352TIP3    H122020   3.960   2.136   1.099  1.9897  0.3905 -0.3728
 7352TIP3    H222021   3.976   2.152   0.949  0.2921  2.8239 -0.3698
 7353TIP3   OH222022   6.944   2.635   1.618 -0.0767  0.0875  0.2415
 7353TIP3    H122023   6.882   2.651   1.546  0.0681  1.8978  0.4674
 7353TIP3    H222024   7.027   2.615   1.575 -0.3012 -0.1518 -0.0818
 7354TIP3   OH222025   0.236   4.031   2.526 -0.5011  0.1528  0.1258
 7354TIP3    H122026   0.265   4.118   2.500 -0.7286  0.5223  1.0388
 7354TIP3    H222027   0.163   4.011   2.467  1.3718 -0.7016 -2.0429
 7355TIP3   OH222028   3.891   1.394   5.431  0.0009  0.9440  0.2466
 7355TIP3    H122029   3.939   1.456   5.486 -0.2958  1.0539  0.3805
 7355TIP3    H222030   3.954   1.369   5.363  0.7331 -0.0035  1.2465
 7356TIP3   OH222031   1.680   2.452   5.763 -0.1050  0.4332  0.6495
 7356TIP3    H122032   1.725   2.477   5.682 -0.7438 -3.0503 -0.9555
 7356TIP3    H222033   1.749   2.418   5.819 -0.0922 -0.4919  0.0896
 7357TIP3   OH222034   0.726   0.842   0.428 -0.0615  0.6508  0.1972
 7357TIP3    H122035   0.718   0.824   0.522 -1.6009  2.2909  0.4441
 7357TIP3    H222036   0.722   0.938   0.422 -2.2844  0.5256 -1.6748
 7358TIP3   OH222037   5.239   6.222   2.353 -0.0587  0.2064  0.3391
 7358TIP3    H122038   5.233   6.299   2.297 -0.1650 -1.3035 -1.8474
 7358TIP3    H222039   5.175   6.160   2.316 -1.4135 -0.2877  3.1950
 7359TIP3   OH222040   7.119   4.073   5.228 -0.2476  0.4795  0.6851
 7359TIP3    H122041   7.097   4.166   5.228  2.3748  1.1758  0.7904
 7359TIP3    H222042   7.137   4.052   5.319  0.8141  0.3153  0.4460
 7360TIP3   OH222043   2.418   5.811   0.470 -0.2017  0.1320  0.2354
 7360TIP3    H122044   2.448   5.829   0.559 -0.7765  3.1686 -0.0781
 7360TIP3    H222045   2.332   5.770   0.482  0.0391 -0.1614  1.0560
 7361TIP3   OH222046   4.770   2.078   5.777  0.3310  0.0634 -0.0967
 7361TIP3    H122047   4.817   2.042   5.852  2.8572  1.0295 -1.1410
 7361TIP3    H222048   4.678   2.057   5.795  0.8064  0.3774  3.3104
 7362TIP3   OH222049   4.574   2.526   5.520  0.4173  0.0472  0.8296
 7362TIP3    H122050   4.532   2.543   5.605  0.3430 -0.1567  0.8323
 7362TIP3    H222051   4.644   2.592   5.515  0.7490 -0.2670  1.2752
 7363TIP3   OH222052   2.294   5.179   5.003  0.3661 -0.2035 -0.3033
 7363TIP3    H122053   2.359   5.125   4.958 -0.9512 -0.2196 -2.3132
 7363TIP3    H222054   2.277   5.252   4.943 -1.3508 -0.1340  0.2113
 7364TIP3   OH222055   3.373   2.212   1.997  0.0060  0.4906  0.3779
 7364TIP3    H122056   3.417   2.137   2.038 -0.9437 -2.0850 -2.8748
 7364TIP3    H222057   3.437   2.245   1.934 -0.1758  1.5046  0.6930
 7365TIP3   OH222058   4.660   5.014   4.231 -0.2410 -0.0109 -0.4222
 7365TIP3    H122059   4.630   4.985   4.145 -1.3118 -1.3629  0.3604
 7365TIP3    H222060   4.710   5.094   4.213 -1.8406  0.6868 -2.1187
 7366TIP3   OH222061   3.685   0.476   4.588  0.8632  0.5681 -0.2423
 7366TIP3    H122062   3.591   0.494   4.588  0.6914 -0.1616 -2.0502
 7366TIP3    H222063   3.725   0.557   4.558  0.8510  0.9544  0.7465
 7367TIP3   OH222064   2.682   1.930   0.994  0.1192 -0.0555 -0.4884
 7367TIP3    H122065   2.622   1.924   0.920 -0.4469 -0.1900 -0.0223
 7367TIP3    H222066   2.766   1.897   0.960 -0.5699 -1.7753 -0.5917
 7368TIP3   OH222067   5.195   5.593   0.428  0.4111  0.7650 -0.8560
 7368TIP3    H122068   5.211   5.504   0.396 -2.5648 -1.0192  1.9992
 7368TIP3    H222069   5.282   5.628   0.446  1.6869 -2.4248 -0.0667
 7369TIP3   OH222070   1.300   4.888   3.254 -0.0865  0.0100 -0.3998
 7369TIP3    H122071   1.277   4.981   3.263 -0.0598  0.0134 -0.3657
 7369TIP3    H222072   1.385   4.888   3.210 -0.8370 -0.0389 -1.9156
 7370TIP3   OH222073   5.803   4.997   5.492  0.3647  0.4266  1.0317
 7370TIP3    H122074   5.869   5.066   5.482  0.1380  0.5429  0.2103
 7370TIP3    H222075   5.720   5.044   5.494 -0.0245  0.1260 -2.1674
 7371TIP3   OH222076   3.788   5.580   4.265 -0.0378  0.3723  0.1138
 7371TIP3    H122077   3.726   5.573   4.338  0.0023 -0.1319  0.1031
 7371TIP3    H222078   3.733   5.584   4.187 -0.1508  2.4716  0.2354
 7372TIP3   OH222079   5.786   1.138   3.970 -0.1389 -0.1103  0.0527
 7372TIP3    H122080   5.807   1.125   3.877  1.1309  1.4148  0.0739
 7372TIP3    H222081   5.749   1.227   3.973  2.5644  1.0575  1.3437
 7373TIP3   OH222082   1.567   1.024   4.399  0.2480  0.2162  0.2645
 7373TIP3    H122083   1.566   0.934   4.430 -0.1895  0.6111  1.4440
 7373TIP3    H222084   1.483   1.034   4.353 -0.9247  0.7566  2.4116
 7374TIP3   OH222085   3.678   5.729   1.902 -0.5959  0.0554 -0.5312
 7374TIP3    H122086   3.715   5.777   1.829 -0.9622  0.3488 -0.5274
 7374TIP3    H222087   3.715   5.770   1.980  0.5757 -0.8942 -0.5572
 7375TIP3   OH222088   1.711   0.037   0.118 -1.0828 -0.0290 -0.1811
 7375TIP3    H122089   1.753   0.111   0.074 -2.7821  0.6416 -0.7939
 7375TIP3    H222090   1.623   0.070   0.139 -1.4354 -1.4651  0.6940
 7376TIP3   OH222091   6.942   3.253   3.345  0.3850  0.1678  0.0927
 7376TIP3    H122092   6.938   3.293   3.432  2.5952 -1.3096  0.9402
 7376TIP3    H222093   7.003   3.180   3.354  0.0984 -0.5082 -2.5397
 7377TIP3   OH222094   6.003   3.038   5.007 -0.2456  0.5515  0.1004
 7377TIP3    H122095   6.084   3.075   5.042  0.9427 -0.4087 -1.5138
 7377TIP3    H222096   5.956   3.114   4.972  0.2327  1.0531  0.5364
 7378TIP3   OH222097   0.769   1.803   3.554  0.3281 -0.4899  0.1071
 7378TIP3    H122098   0.761   1.824   3.647  0.3234 -2.9979  0.7374
 7378TIP3    H222099   0.679   1.788   3.526  0.4889 -2.0620  0.3415
 7379TIP3   OH222100   5.486   6.264   0.392  0.1182  0.7144  0.3365
 7379TIP3    H122101   5.410   6.299   0.441  0.5091  2.6075 -0.3182
 7379TIP3    H222102   5.543   6.340   0.381  1.3975 -0.3493 -0.5438
 7380TIP3   OH222103   6.754   1.152   4.660 -0.0289  0.7513 -0.2232
 7380TIP3    H122104   6.762   1.221   4.725 -2.7130  0.6193  0.3505
 7380TIP3    H222105   6.678   1.176   4.607  0.0701 -0.8348 -1.1770
 7381TIP3   OH222106   2.973   0.158   0.460 -0.3961 -0.2217 -0.1925
 7381TIP3    H122107   2.917   0.087   0.430 -0.9913  0.7395 -1.4371
 7381TIP3    H222108   3.039   0.115   0.514 -2.2725 -1.4149  1.3123
 7382TIP3   OH222109   0.775   0.601   2.411  0.0998 -0.4280 -0.0064
 7382TIP3    H122110   0.856   0.583   2.459  0.6721 -0.3386 -0.9094
 7382TIP3    H222111   0.736   0.515   2.396  0.1016 -0.4833  0.3065
 7383TIP3   OH222112   2.487   1.556   3.044 -0.0038 -0.2905  0.1542
 7383TIP3    H122113   2.558   1.609   3.081 -0.6906  1.8205 -1.3184
 7383TIP3    H222114   2.433   1.620   2.997 -0.7155 -2.3699 -2.0320
 7384TIP3   OH222115   0.987   0.626   0.810  0.2240  0.3720 -0.3536
 7384TIP3    H122116   0.947   0.712   0.801  1.6822  1.1632  0.4326
 7384TIP3    H222117   0.931   0.580   0.872 -1.1036  0.3756 -1.5027
 7385TIP3   OH222118   0.793   5.926   0.453  0.0867 -0.0367 -0.1483
 7385TIP3    H122119   0.791   5.918   0.358 -1.6491  0.2247 -0.1720
 7385TIP3    H222120   0.712   5.883   0.482  1.0547 -0.9923  1.2923
 7386TIP3   OH222121   2.786   5.915   4.214 -0.1745 -0.2825 -0.0275
 7386TIP3    H122122   2.800   5.854   4.142  0.6250 -0.7244  0.4957
 7386TIP3    H222123   2.697   5.948   4.200  0.0005 -0.3003 -1.2561
 7387TIP3   OH222124   1.362   4.871   0.974  0.5663  0.1056  0.4374
 7387TIP3    H122125   1.287   4.830   1.017  0.8461  1.1856  1.9967
 7387TIP3    H222126   1.326   4.909   0.894 -0.3362 -0.2757  0.6517
 7388TIP3   OH222127   5.235   2.221   0.670  0.0974 -0.0245 -0.0481
 7388TIP3    H122128   5.328   2.246   0.662  0.5590 -2.0570 -1.9217
 7388TIP3    H222129   5.226   2.192   0.761  1.2797  0.2798  0.1858
 7389TIP3   OH222130   1.908   1.756   4.582  0.2748 -0.3234 -0.7453
 7389TIP3    H122131   1.850   1.747   4.506  0.0953 -0.8104 -0.5557
 7389TIP3    H222132   1.926   1.666   4.608 -0.7512 -0.1590  0.6185
 7390TIP3   OH222133   6.589   3.191   1.376  0.1447  0.3118  0.7432
 7390TIP3    H122134   6.503   3.203   1.418  0.3584  0.9017  1.0259
 7390TIP3    H222135   6.611   3.100   1.392 -1.4644 -0.5149 -1.3129
 7391TIP3   OH222136   3.188   6.510   0.101 -0.3489 -0.2026  0.2790
 7391TIP3    H122137   3.185   6.605   0.116  1.4122 -0.2735  1.3760
 7391TIP3    H222138   3.269   6.482   0.144 -0.7874 -2.1993 -0.1184
 7392TIP3   OH222139   0.418   5.303   0.395  0.5222  0.7764  0.0350
 7392TIP3    H122140   0.335   5.293   0.441  1.2957 -0.9492  1.1382
 7392TIP3    H222141   0.442   5.395   0.408 -0.5571  0.9630  0.8111
 7393TIP3   OH222142   0.329   2.467   4.103 -0.5248 -0.2203 -0.1476
 7393TIP3    H122143   0.287   2.468   4.189  3.3225 -1.1289  1.9326
 7393TIP3    H222144   0.315   2.378   4.070  0.0592 -0.6267  0.6864
 7394TIP3   OH222145   0.683   3.923   0.624  0.1721  0.4481  1.1041
 7394TIP3    H122146   0.618   3.907   0.693 -1.0650  0.6759  0.0241
 7394TIP3    H222147   0.688   4.018   0.617  0.1179  0.4204  0.7058
 7395TIP3   OH222148   5.384   4.034   2.016 -0.5141 -0.0750  0.1003
 7395TIP3    H122149   5.345   4.071   2.096 -0.5649 -0.5052  0.2775
 7395TIP3    H222150   5.429   4.108   1.975 -0.3141  0.1058  0.6363
 7396TIP3   OH222151   7.021   3.367   2.067 -0.7361 -0.2882 -0.1001
 7396TIP3    H122152   6.983   3.442   2.111 -1.4368 -0.9855  0.5167
 7396TIP3    H222153   6.976   3.362   1.983 -1.9375 -1.0225  0.5649
 7397TIP3   OH222154   4.235   6.296   1.460  0.0088 -0.0161 -0.3214
 7397TIP3    H122155   4.212   6.385   1.435  0.0039 -0.3750 -1.6365
 7397TIP3    H222156   4.201   6.287   1.549 -2.0700  0.5470 -1.0017
 7398TIP3   OH222157   5.048   0.216   1.011 -0.1087 -0.1362  0.1095
 7398TIP3    H122158   5.121   0.277   1.022  0.6851 -0.8375 -1.0668
 7398TIP3    H222159   4.970   0.270   1.020  0.4929  0.4897  2.3253
 7399TIP3   OH222160   6.292   6.615   3.296  0.2083 -0.1369  0.0255
 7399TIP3    H122161   6.240   6.599   3.374 -0.1306  0.4266 -0.0761
 7399TIP3    H222162   6.284   6.710   3.281  0.5623 -0.1826 -0.4809
 7400TIP3   OH222163   5.421   0.759   5.848 -0.5137 -0.6850  0.0247
 7400TIP3    H122164   5.387   0.804   5.770 -0.0999 -0.6443 -0.1326
 7400TIP3    H222165   5.407   0.667   5.830 -1.5535 -0.6163  0.4351
 7401TIP3   OH222166   0.199   1.577   3.811 -0.0426 -0.1431 -0.1850
 7401TIP3    H122167   0.284   1.608   3.781  1.0547 -1.8687  0.9642
 7401TIP3    H222168   0.180   1.501   3.756 -0.8947  0.2664 -0.4757
 7402TIP3   OH222169   6.131   2.789   5.321 -0.3414  0.1283 -0.2319
 7402TIP3    H122170   6.181   2.713   5.354  1.9941  1.6338 -0.0742
 7402TIP3    H222171   6.194   2.860   5.320 -2.2095  1.8651 -1.3522
 7403TIP3   OH222172   0.529   2.061   3.386  0.1843 -0.0416  0.0454
 7403TIP3    H122173   0.563   2.081   3.474  1.5110  0.6229 -0.5784
 7403TIP3    H222174   0.475   1.984   3.398 -1.1151  1.0558  1.7554
 7404TIP3   OH222175   4.874   0.108   4.612 -0.2276  0.0882  0.2566
 7404TIP3    H122176   4.852   0.190   4.656 -1.1816  0.4272 -0.7876
 7404TIP3    H222177   4.936   0.134   4.544 -0.0219 -0.1536  0.3562
 7405TIP3   OH222178   3.569   3.281   3.427  0.1804  0.5907  0.4070
 7405TIP3    H122179   3.531   3.211   3.479 -0.7806  1.3804  0.8102
 7405TIP3    H222180   3.661   3.257   3.416 -0.1818 -0.8164  0.3497
 7406TIP3   OH222181   1.325   1.189   5.007  0.0323  0.2189  0.9001
 7406TIP3    H122182   1.240   1.219   5.040 -0.2487 -2.0277  2.4668
 7406TIP3    H222183   1.389   1.245   5.050 -0.6109  3.0962 -1.6084
 7407TIP3   OH222184   6.776   3.571   1.324 -0.2974 -0.4018 -0.3471
 7407TIP3    H122185   6.865   3.595   1.348 -0.4677 -0.9680  0.8826
 7407TIP3    H222186   6.732   3.551   1.407 -1.2798 -1.1284 -1.0115
 7408TIP3   OH222187   1.417   5.388   0.104 -0.0501  0.2629 -0.2037
 7408TIP3    H122188   1.405   5.309   0.156  0.9369 -0.4993 -1.0903
 7408TIP3    H222189   1.487   5.435   0.149  0.9130 -0.4721 -0.8946
 7409TIP3   OH222190   6.450   2.194   3.832 -0.0624  0.1331 -0.4177
 7409TIP3    H122191   6.472   2.283   3.861 -0.3129 -0.2004  0.8561
 7409TIP3    H222192   6.359   2.201   3.801 -0.4291  0.1405  0.6076
 7410TIP3   OH222193   4.443   1.793   5.394 -0.2908  0.2823  0.0219
 7410TIP3    H122194   4.483   1.754   5.471  0.2348 -0.7310 -0.7421
 7410TIP3    H222195   4.513   1.797   5.329 -0.8799  0.5172 -0.6193
 7411TIP3   OH222196   1.997   2.592   0.928 -0.0599 -0.0754 -0.3194
 7411TIP3    H122197   1.968   2.572   1.016  0.1249 -0.0829 -0.2603
 7411TIP3    H222198   2.035   2.680   0.935  0.5077 -0.3198 -0.2642
 7412TIP3   OH222199   3.329   4.359   3.162  0.8176 -0.1205 -0.0157
 7412TIP3    H122200   3.279   4.435   3.189  0.4598 -0.1679 -0.5187
 7412TIP3    H222201   3.352   4.314   3.243  0.2527  0.0349  0.2317
 7413TIP3   OH222202   3.366   4.010   4.634  0.7694  0.4063 -0.6148
 7413TIP3    H122203   3.460   4.013   4.654  0.8437  0.3588 -0.9465
 7413TIP3    H222204   3.363   3.987   4.541  0.4146 -0.4729 -0.3899
 7414TIP3   OH222205   6.623   3.766   4.170  0.3967  0.8302 -0.3964
 7414TIP3    H122206   6.582   3.681   4.159 -0.8076  1.2921  0.2774
 7414TIP3    H222207   6.672   3.759   4.252 -0.1234  0.9250 -0.0699
 7415TIP3   OH222208   3.198   3.748   4.292  0.3477 -0.1434  0.0822
 7415TIP3    H122209   3.121   3.739   4.236  0.3432  1.2588 -0.1626
 7415TIP3    H222210   3.162   3.777   4.376  0.4077 -1.7198  0.6966
 7416TIP3   OH222211   6.654   6.261   3.749 -0.0131  0.2188  0.2462
 7416TIP3    H122212   6.711   6.201   3.702 -0.0994  0.9150 -0.7615
 7416TIP3    H222213   6.581   6.206   3.779 -1.0290  0.1049 -2.2352
 7417TIP3   OH222214   2.913   1.510   0.138 -0.1262 -0.2934  0.1604
 7417TIP3    H122215   2.930   1.571   0.210 -3.2249  0.4336  0.4254
 7417TIP3    H222216   2.957   1.548   0.063  1.2633  0.1598  1.1703
 7418TIP3   OH222217   4.814   3.043   1.678  0.1322 -0.1643  0.0294
 7418TIP3    H122218   4.792   3.047   1.585 -0.0263  0.2954  0.0829
 7418TIP3    H222219   4.853   3.129   1.697  0.0581 -0.2131  0.4111
 7419TIP3   OH222220   5.450   1.928  -0.006  0.1181  0.0062 -0.4110
 7419TIP3    H122221   5.443   1.871   0.071  1.6917 -0.3957 -0.5336
 7419TIP3    H222222   5.403   2.008   0.019 -0.6636 -0.6898  0.3991
 7420TIP3   OH222223   2.652   0.835   0.689  0.2248  0.1613 -1.1574
 7420TIP3    H122224   2.605   0.855   0.608 -0.5848  1.2735 -0.4563
 7420TIP3    H222225   2.592   0.864   0.758  0.9047 -0.7413 -0.1574
 7421TIP3   OH222226   6.054   5.739   0.898  0.2744  0.1456  0.5089
 7421TIP3    H122227   6.068   5.730   0.992  1.0216 -0.7615  0.3161
 7421TIP3    H222228   6.140   5.763   0.863  0.7606 -2.5287 -0.3122
 7422TIP3   OH222229   4.749   5.281   4.870 -0.1198 -0.0534 -0.5578
 7422TIP3    H122230   4.684   5.230   4.918  1.4890 -1.3314  0.3650
 7422TIP3    H222231   4.791   5.218   4.812  2.1815  0.0359  0.8881
 7423TIP3   OH222232   5.545   5.250   4.988  0.0558  0.3794  0.6795
 7423TIP3    H122233   5.507   5.176   5.036 -2.2875  1.2804  0.3602
 7423TIP3    H222234   5.470   5.305   4.966  1.5109  1.9221 -0.7195
 7424TIP3   OH222235   4.094   5.490   4.858 -0.1329 -0.1366  0.0290
 7424TIP3    H122236   4.134   5.403   4.852 -0.4488 -0.3441  0.7926
 7424TIP3    H222237   4.020   5.478   4.918 -0.3359  0.6054 -0.0636
 7425TIP3   OH222238   7.030   3.840   0.247  0.2597 -0.5433 -0.0448
 7425TIP3    H122239   6.975   3.850   0.325 -0.2840 -0.5238 -0.4184
 7425TIP3    H222240   7.056   3.929   0.224 -0.3548 -0.4502 -0.4179
 7426TIP3   OH222241   5.413   0.791   1.897 -0.4328 -0.0096  0.5485
 7426TIP3    H122242   5.435   0.800   1.989  0.7275  1.0785  0.1934
 7426TIP3    H222243   5.360   0.868   1.877 -1.1550 -0.5295  0.4345
 7427TIP3   OH222244   6.850   3.295   5.579  0.1701 -0.1960 -0.0666
 7427TIP3    H122245   6.789   3.347   5.526  1.1762  1.8134  0.6640
 7427TIP3    H222246   6.809   3.292   5.665  0.5873  0.2836  0.1552
 7428TIP3   OH222247   1.858   2.021   4.651  0.2464  0.0148  0.5236
 7428TIP3    H122248   1.855   1.929   4.625 -0.6345  0.6672 -1.9736
 7428TIP3    H222249   1.784   2.032   4.710  0.1648 -0.7952  0.5807
 7429TIP3   OH222250   2.121   4.114   2.309 -0.6291  0.0672 -0.0647
 7429TIP3    H122251   2.072   4.195   2.312 -1.1305 -0.2494  0.4453
 7429TIP3    H222252   2.144   4.096   2.400 -1.7747 -1.1051  0.0183
 7430TIP3   OH222253   5.282   0.376   0.960  0.0692 -0.4764  0.3741
 7430TIP3    H122254   5.341   0.330   1.019  0.3228 -0.6627 -0.0250
 7430TIP3    H222255   5.313   0.467   0.961  1.2375 -0.8272 -0.8938
 7431TIP3   OH222256   1.181   0.613   4.709 -0.0654  0.3295  0.2098
 7431TIP3    H122257   1.109   0.669   4.736 -0.6581 -0.2337 -0.1607
 7431TIP3    H222258   1.208   0.646   4.624 -1.5750 -0.9817 -0.8231
 7432TIP3   OH222259   2.417   6.382   0.281 -0.3618  1.0727 -0.6301
 7432TIP3    H122260   2.387   6.378   0.372  2.0826  0.8902  0.2569
 7432TIP3    H222261   2.352   6.332   0.232 -2.1636  1.8108  0.8522
 7433TIP3   OH222262   1.206   6.169   2.409 -0.5199 -0.3788 -0.2141
 7433TIP3    H122263   1.206   6.164   2.505  0.1855  1.5212 -0.0704
 7433TIP3    H222264   1.255   6.092   2.381  0.6935 -0.1093  1.0589
 7434TIP3   OH222265   2.781   5.653   4.582 -0.1372  0.1779 -0.4533
 7434TIP3    H122266   2.861   5.636   4.631 -1.0374 -1.3339  0.5995
 7434TIP3    H222267   2.781   5.588   4.512 -1.2968 -1.1836  0.7123
 7435TIP3   OH222268   5.973   6.074   0.578 -0.0163 -0.0808 -0.7152
 7435TIP3    H122269   5.976   5.978   0.571  1.9073 -0.0735 -0.6001
 7435TIP3    H222270   5.975   6.090   0.673 -1.7092  0.0937 -0.6762
 7436TIP3   OH222271   0.673   2.972   2.503  0.4311 -0.8357 -0.1434
 7436TIP3    H122272   0.660   2.930   2.588 -1.9793  1.5928  0.8589
 7436TIP3    H222273   0.598   2.943   2.451  0.5274 -0.3791 -0.5445
 7437TIP3   OH222274   6.400   2.637   4.687 -0.4418  0.2011  0.0420
 7437TIP3    H122275   6.319   2.673   4.648 -0.5695  0.1821  0.2886
 7437TIP3    H222276   6.457   2.620   4.612  0.5568  3.1238 -0.0003
 7438TIP3   OH222277   0.049   0.853   0.083 -0.8391 -0.0265  0.0673
 7438TIP3    H122278   0.133   0.840   0.125 -1.3116 -0.6731  0.8438
 7438TIP3    H222279   0.028   0.768   0.044 -2.5661 -0.9035  2.5986
 7439TIP3   OH222280   1.592   1.077   2.978 -0.4474 -0.0880 -0.6020
 7439TIP3    H122281   1.547   0.995   2.959 -0.9799 -0.1142  0.6374
 7439TIP3    H222282   1.650   1.057   3.051 -2.0851  1.0459  1.1246
 7440TIP3   OH222283   1.711   4.955   1.175 -0.0775  0.0120  0.6815
 7440TIP3    H122284   1.620   4.956   1.206 -0.5201  2.7701 -0.3770
 7440TIP3    H222285   1.744   5.043   1.194  2.0856 -0.6295  0.1984
 7441TIP3   OH222286   7.147   4.446   2.680 -0.4338 -0.4464 -0.0385
 7441TIP3    H122287   7.090   4.506   2.728  0.0676 -0.9536  1.2523
 7441TIP3    H222288   7.094   4.414   2.608 -1.9378 -1.2000  1.3461
 7442TIP3   OH222289   0.655   0.323   0.351 -0.0140  0.1381 -0.1541
 7442TIP3    H122290   0.683   0.410   0.325  2.3872 -0.9040 -1.3980
 7442TIP3    H222291   0.729   0.288   0.401 -1.6213 -0.5932  1.8297
 7443TIP3   OH222292   5.647   6.459   2.674  0.0754 -0.1658  0.8008
 7443TIP3    H122293   5.635   6.540   2.625  1.3870  0.2013  1.0402
 7443TIP3    H222294   5.692   6.401   2.613 -0.1596 -0.4461  0.8915
 7444TIP3   OH222295   2.168   4.476   1.458 -0.1401  0.0999 -0.0084
 7444TIP3    H122296   2.252   4.432   1.474 -0.5046 -0.9973 -0.9702
 7444TIP3    H222297   2.102   4.415   1.492 -0.6108  0.4001 -0.3678
 7445TIP3   OH222298   6.298   2.201   0.466  0.0211  0.0655 -0.2478
 7445TIP3    H122299   6.298   2.239   0.554 -0.6463  1.4008 -0.8117
 7445TIP3    H222300   6.365   2.250   0.418  0.7223 -0.9762 -0.3835
 7446TIP3   OH222301   2.466   6.161   3.189 -0.1607  0.3722  0.0894
 7446TIP3    H122302   2.417   6.221   3.134 -0.4813 -1.7279 -2.0918
 7446TIP3    H222303   2.557   6.172   3.162 -0.2227 -0.1356 -0.3279
 7447TIP3   OH222304   3.727   1.288   3.508  0.1088  0.3381 -0.2970
 7447TIP3    H122305   3.740   1.269   3.600  0.2790  1.5024 -0.0652
 7447TIP3    H222306   3.686   1.374   3.507  1.7162  1.1385 -1.3477
 7448TIP3   OH222307   0.418   6.666   3.555 -0.2741  0.1663  0.1490
 7448TIP3    H122308   0.410   6.738   3.617  0.7252  0.3412  0.0986
 7448TIP3    H222309   0.388   6.589   3.603  2.6684 -0.1475  1.7511
 7449TIP3   OH222310   4.583   1.789   5.119 -0.0807  0.0566 -0.0871
 7449TIP3    H122311   4.617   1.706   5.153 -3.0197 -0.7216  1.1939
 7449TIP3    H222312   4.535   1.764   5.040 -0.8592  0.5367  0.2251
 7450TIP3   OH222313   4.732   5.238   1.239 -0.5146 -0.0612 -0.0915
 7450TIP3    H122314   4.799   5.278   1.295  1.7120  0.0468 -2.6116
 7450TIP3    H222315   4.782   5.187   1.175 -3.0626 -3.0288  0.0809
 7451TIP3   OH222316   4.255   6.800   1.833 -0.0176  0.0297  0.1034
 7451TIP3    H122317   4.300   6.768   1.911  0.7062 -1.1674 -0.7751
 7451TIP3    H222318   4.170   6.828   1.865  0.0250 -1.0297  1.2276
 7452TIP3   OH222319   3.718   2.431   3.454 -0.3329 -0.9081  0.1942
 7452TIP3    H122320   3.696   2.441   3.361 -0.2534 -0.1068  0.2553
 7452TIP3    H222321   3.635   2.414   3.497 -0.7644  1.2939  0.3118
 7453TIP3   OH222322   4.075   3.893   4.164 -0.1589  0.4483  0.2539
 7453TIP3    H122323   4.102   3.980   4.132  0.3678 -0.2516 -1.2772
 7453TIP3    H222324   3.993   3.875   4.119  0.7149 -0.6573 -0.9413
 7454TIP3   OH222325   4.263   2.597   1.479 -0.0153  0.1400 -0.0959
 7454TIP3    H122326   4.281   2.689   1.498 -2.8769  0.7360  0.2207
 7454TIP3    H222327   4.186   2.576   1.531 -1.4561 -1.4439 -2.6313
 7455TIP3   OH222328   3.724   6.374   5.221 -0.3392 -0.4499 -0.3992
 7455TIP3    H122329   3.679   6.458   5.211  0.0971 -0.2469 -0.6601
 7455TIP3    H222330   3.661   6.319   5.267 -0.0648  0.5135  1.2533
 7456TIP3   OH222331   1.109   2.743   0.828 -0.1850  0.7630  0.0957
 7456TIP3    H122332   1.068   2.829   0.842 -2.1510  0.0511 -0.9520
 7456TIP3    H222333   1.039   2.689   0.793  1.0961 -1.2226  0.4826
 7457TIP3   OH222334   2.531   6.689   4.347 -0.1268  0.0009  0.1340
 7457TIP3    H122335   2.440   6.713   4.330 -0.8535 -0.8286  2.3671
 7457TIP3    H222336   2.526   6.635   4.427  2.4736  1.1164  1.1416
 7458TIP3   OH222337   5.795   2.152   4.678 -0.0045 -0.6209  0.2031
 7458TIP3    H122338   5.839   2.227   4.719 -0.2303  0.4052 -1.3614
 7458TIP3    H222339   5.727   2.128   4.742  0.5549  0.0119  1.0690
 7459TIP3   OH222340   1.673   5.083   3.553 -0.3547  0.6383 -0.4363
 7459TIP3    H122341   1.693   5.162   3.604 -0.2816 -0.2923  1.0332
 7459TIP3    H222342   1.722   5.094   3.472 -1.4684  2.7640 -0.9049
 7460TIP3   OH222343   5.990   5.943   5.527  0.5340  0.7894 -0.0826
 7460TIP3    H122344   6.052   5.870   5.519  2.6200  2.5255 -0.7268
 7460TIP3    H222345   6.008   5.981   5.613  0.4481  1.3797 -0.3197
 7461TIP3   OH222346   1.390   4.822   2.639  0.1454  0.2933 -0.3067
 7461TIP3    H122347   1.479   4.798   2.667  0.3497  1.0047 -0.3231
 7461TIP3    H222348   1.344   4.739   2.632  0.9843 -0.1452 -0.8831
 7462TIP3   OH222349   0.274   6.698   2.949 -0.4874 -0.4741  0.0165
 7462TIP3    H122350   0.287   6.783   2.993 -0.3948 -0.5268  0.0928
 7462TIP3    H222351   0.191   6.708   2.902 -0.1874 -0.1445 -0.4451
 7463TIP3   OH222352   4.872   6.491   0.723 -0.4525  0.1851 -0.0775
 7463TIP3    H122353   4.915   6.415   0.684 -0.3422  1.2474 -2.1697
 7463TIP3    H222354   4.852   6.548   0.648  2.1681  3.6240  1.5556
 7464TIP3   OH222355   4.374   0.868   0.328  0.5102 -0.2213  0.7529
 7464TIP3    H122356   4.464   0.878   0.298  0.5677 -0.3055  0.8998
 7464TIP3    H222357   4.365   0.932   0.399 -0.2316  1.4660 -0.7710
 7465TIP3   OH222358   6.683   2.863   4.831 -0.0312  0.4756  0.2147
 7465TIP3    H122359   6.627   2.940   4.830  0.2603  0.7112  1.2079
 7465TIP3    H222360   6.626   2.792   4.801 -0.4807  0.9471 -0.0704
 7466TIP3   OH222361   2.371   5.784   2.687  0.1446 -0.4522 -0.4900
 7466TIP3    H122362   2.380   5.777   2.592  0.9759 -0.6036 -0.4098
 7466TIP3    H222363   2.289   5.831   2.701  0.3280  0.1063 -1.2886
 7467TIP3   OH222364   4.182   6.014   0.430 -0.1414  0.0457 -0.4488
 7467TIP3    H122365   4.230   6.055   0.359  0.4750  0.0392 -0.0398
 7467TIP3    H222366   4.095   6.053   0.426  0.2267  0.8756 -0.5043
 7468TIP3   OH222367   6.512   3.595   1.199  0.6643  0.2462  0.1445
 7468TIP3    H122368   6.548   3.561   1.281 -0.9354 -0.6172  0.5203
 7468TIP3    H222369   6.505   3.518   1.143  0.3419  0.5793 -0.2709
 7469TIP3   OH222370   6.469   4.357   3.768 -0.0692  0.0823 -0.2688
 7469TIP3    H122371   6.437   4.401   3.689  0.1706 -1.3384 -1.2000
 7469TIP3    H222372   6.440   4.413   3.840 -3.0516 -0.1364 -1.1456
 7470TIP3   OH222373   1.802   6.723   4.240 -0.0196 -0.1778 -0.3147
 7470TIP3    H122374   1.817   6.808   4.198  1.1880 -0.6340 -0.8468
 7470TIP3    H222375   1.744   6.742   4.314  1.6422  1.4072  0.6540
 7471TIP3   OH222376   2.711   6.284   5.759 -0.0404 -0.5056  0.1841
 7471TIP3    H122377   2.744   6.332   5.682  0.0568 -2.0818 -0.7885
 7471TIP3    H222378   2.709   6.193   5.732  1.1350 -1.2864  2.4510
 7472TIP3   OH222379   2.150   3.613   5.856  0.0736 -0.2070  0.0714
 7472TIP3    H122380   2.167   3.554   5.930 -0.8618  0.0687  0.5200
 7472TIP3    H222381   2.220   3.678   5.861 -1.1741  1.1119  2.0949
 7473TIP3   OH222382   7.168   3.540   0.199  0.5406  0.4086  0.4532
 7473TIP3    H122383   7.253   3.509   0.231  1.1168  1.0503 -0.3789
 7473TIP3    H222384   7.127   3.462   0.162  0.8784  0.1410  0.6318
 7474TIP3   OH222385   5.008   0.265   3.967 -0.4777 -0.5161 -0.1409
 7474TIP3    H122386   5.027   0.192   3.907 -0.3751 -1.1358  0.6332
 7474TIP3    H222387   4.962   0.224   4.041 -1.2605  0.3514 -0.1226
 7475TIP3   OH222388   6.734   1.240   2.863 -0.3989 -0.0897  0.0751
 7475TIP3    H122389   6.767   1.330   2.853  0.3036 -0.4715 -1.2349
 7475TIP3    H222390   6.741   1.223   2.957 -0.0730  1.0491  0.2795
 7476TIP3   OH222391   1.537   0.894   0.487  0.3436  0.2144  0.6462
 7476TIP3    H122392   1.519   0.988   0.493 -1.6586 -0.1401  1.1202
 7476TIP3    H222393   1.600   0.877   0.557  1.1919  1.2800  0.1700
 7477TIP3   OH222394   0.612   4.670   1.991  0.0576 -0.4348 -0.2895
 7477TIP3    H122395   0.673   4.731   2.032 -1.7301  0.9915  0.4255
 7477TIP3    H222396   0.642   4.583   2.018  1.3423  0.2528  0.5911
 7478TIP3   OH222397   1.685   1.692   2.618  0.6859  0.0835 -0.3043
 7478TIP3    H122398   1.624   1.619   2.624  1.4544 -0.4907  1.0901
 7478TIP3    H222399   1.695   1.708   2.525  0.2862 -1.4266 -0.6267
 7479TIP3   OH222400   6.732   2.388   0.241  0.5970 -0.5958 -0.0628
 7479TIP3    H122401   6.781   2.306   0.230 -0.3878 -1.1600 -0.2998
 7479TIP3    H222402   6.659   2.365   0.297  0.1091  0.0391 -0.4298
 7480TIP3   OH222403   2.938   2.116   4.006 -0.4952 -0.1254  0.3885
 7480TIP3    H122404   2.944   2.021   3.989  0.8242 -0.0630  0.3884
 7480TIP3    H222405   2.967   2.126   4.096 -0.2008  0.3288  0.2452
 7481TIP3   OH222406   4.445   2.858   1.282 -0.8327 -0.1592  0.5031
 7481TIP3    H122407   4.375   2.862   1.348 -0.4630 -4.7277  1.4910
 7481TIP3    H222408   4.512   2.803   1.321  1.6059  0.8314 -1.9673
 7482TIP3   OH222409   2.590   1.391   0.870  0.0729 -0.0236 -0.4405
 7482TIP3    H122410   2.630   1.388   0.957  0.7550 -0.1224 -0.7569
 7482TIP3    H222411   2.566   1.483   0.858 -0.9847 -0.1767  0.2731
 7483TIP3   OH222412   5.576   6.605   1.970 -0.0195  0.0627 -0.0944
 7483TIP3    H122413   5.501   6.634   2.023  0.3264  1.3954 -0.2963
 7483TIP3    H222414   5.602   6.522   2.009 -0.4512  0.4908  1.1492
 7484TIP3   OH222415   5.823   0.006   5.072  0.2820  0.6853  0.2215
 7484TIP3    H122416   5.832   0.090   5.028 -2.3703  0.8159 -0.2279
 7484TIP3    H222417   5.771   0.026   5.151 -0.7865 -0.5549 -0.1285
 7485TIP3   OH222418   2.466   5.526   0.271 -0.3352 -0.0294 -0.5768
 7485TIP3    H122419   2.506   5.478   0.198 -2.1452 -2.3414 -0.1796
 7485TIP3    H222420   2.390   5.570   0.232 -0.5835 -0.2471 -0.3476
 7486TIP3   OH222421   3.421   4.525   2.940 -0.1507  0.4647  0.1739
 7486TIP3    H122422   3.413   4.540   3.034  1.1346  1.0042  0.2182
 7486TIP3    H222423   3.447   4.433   2.933 -1.2199  0.1384  0.2742
 7487TIP3   OH222424   3.076   0.681   4.341 -0.1972  0.2161  0.5176
 7487TIP3    H122425   3.062   0.590   4.316 -0.9449  0.1277  1.2198
 7487TIP3    H222426   3.003   0.729   4.301 -0.5585  0.2947  1.2552
 7488TIP3   OH222427   2.542   2.595   5.114 -0.2564  0.3888 -0.1935
 7488TIP3    H122428   2.493   2.521   5.077 -1.3215  0.3556  1.2138
 7488TIP3    H222429   2.477   2.664   5.124 -0.1461  0.2239  2.0567
 7489TIP3   OH222430   3.103   2.094   0.036  0.1751 -0.3743  0.1662
 7489TIP3    H122431   3.143   2.139   0.111  0.3067  3.4308 -1.9472
 7489TIP3    H222432   3.177   2.059  -0.014  0.1523 -1.7603  1.0331
 7490TIP3   OH222433   2.008   1.297   5.180 -0.5352 -0.4321 -0.2043
 7490TIP3    H122434   2.016   1.290   5.275 -0.4211  1.4032 -0.0509
 7490TIP3    H222435   1.964   1.381   5.165  0.0516 -0.3646 -1.8046
 7491TIP3   OH222436   0.988   6.032   3.884 -0.1088  0.2799  0.2522
 7491TIP3    H122437   1.047   6.085   3.831  1.5472 -1.8242 -0.1552
 7491TIP3    H222438   1.028   6.031   3.971 -0.5604  0.3494  0.4629
 7492TIP3   OH222439   6.282   1.896   5.633  0.4130 -0.4869  0.2647
 7492TIP3    H122440   6.217   1.849   5.580  1.3755 -0.9074 -0.5704
 7492TIP3    H222441   6.363   1.891   5.582  1.0171  0.3638  1.1068
 7493TIP3   OH222442   2.367   3.055   3.823  0.6826 -0.3726 -0.3166
 7493TIP3    H122443   2.331   2.997   3.891  1.9869  0.6435  1.3108
 7493TIP3    H222444   2.363   3.143   3.862 -1.0992  0.6798 -2.6662
 7494TIP3   OH222445   5.094   5.819   0.331  0.2247  0.3110 -0.0740
 7494TIP3    H122446   5.114   5.746   0.390  0.2032 -0.0749 -0.5399
 7494TIP3    H222447   5.042   5.780   0.261 -1.5539  1.1635  0.7282
 7495TIP3   OH222448   1.223   6.063   4.849  0.4507 -0.7369  0.0357
 7495TIP3    H122449   1.132   6.034   4.857  0.3198 -0.6278 -0.9435
 7495TIP3    H222450   1.262   6.002   4.786  0.8149 -0.2356 -0.2284
 7496TIP3   OH222451   3.054   3.961   1.278 -0.3847  0.1754  0.2340
 7496TIP3    H122452   2.966   3.980   1.311 -1.2587 -1.6605 -0.8699
 7496TIP3    H222453   3.050   3.986   1.185  1.1329  2.5289  0.7038
 7497TIP3   OH222454   4.659   2.210   2.918 -0.2147 -0.4531 -0.1048
 7497TIP3    H122455   4.721   2.215   2.845 -2.0687 -0.2954 -1.7359
 7497TIP3    H222456   4.641   2.116   2.927 -0.1880 -0.4503 -0.0235
 7498TIP3   OH222457   4.791   0.952   4.046 -0.1993 -0.2998 -0.3534
 7498TIP3    H122458   4.757   1.010   4.113 -0.7958 -1.1060  0.0602
 7498TIP3    H222459   4.871   0.995   4.015 -0.4819  0.5929  0.1245
 7499TIP3   OH222460   1.714   6.297   1.914 -0.2112 -0.6930  0.1585
 7499TIP3    H122461   1.803   6.292   1.949 -0.6101 -0.2421  1.2840
 7499TIP3    H222462   1.658   6.294   1.991 -1.0962  1.5740 -0.3187
 7500TIP3   OH222463   0.505   0.937   1.288 -0.5411  0.2135  0.2727
 7500TIP3    H122464   0.433   0.936   1.351  0.7888  0.4544  1.8340
 7500TIP3    H222465   0.467   0.976   1.209 -1.8263  1.3271  1.4050
 7501TIP3   OH222466   0.375   0.367   0.088  0.2612  0.0282  0.2452
 7501TIP3    H122467   0.412   0.287   0.125  1.6380  0.2050 -0.6665
 7501TIP3    H222468   0.314   0.337   0.021 -1.2257 -0.2668  1.6648
 7502TIP3   OH222469   7.116   1.225   5.518  0.2935  0.2636  0.8062
 7502TIP3    H122470   7.188   1.234   5.456 -1.5943  0.0233 -1.5734
 7502TIP3    H222471   7.107   1.131   5.532  1.6648  0.3539  2.7639
 7503TIP3   OH222472   1.155   4.806   1.134 -0.1347 -0.0842 -0.8261
 7503TIP3    H122473   1.189   4.894   1.149  0.6523 -0.0523 -2.5289
 7503TIP3    H222474   1.068   4.806   1.174  0.4321  0.9777  0.4951
 7504TIP3   OH222475   1.489   2.501   4.193  0.3791  0.1352  0.4666
 7504TIP3    H122476   1.452   2.556   4.262 -0.0072  0.7018 -0.1739
 7504TIP3    H222477   1.413   2.476   4.140  0.2253 -2.6455  1.8109
 7505TIP3   OH222478   6.379   1.580   1.566 -0.0767 -0.4081 -0.2330
 7505TIP3    H122479   6.437   1.549   1.636 -1.5266  0.7911  1.5882
 7505TIP3    H222480   6.293   1.548   1.590 -1.2158  2.7782  0.4474
 7506TIP3   OH222481   2.767   3.764   2.210  0.1137  0.5745  0.7027
 7506TIP3    H122482   2.698   3.830   2.198  0.3731  0.8085  0.4823
 7506TIP3    H222483   2.736   3.710   2.283 -0.9780 -0.1793 -0.2766
 7507TIP3   OH222484   4.909   4.994   3.342 -0.5799 -0.0744 -0.0943
 7507TIP3    H122485   4.849   5.068   3.330 -0.6479 -0.1896 -0.4669
 7507TIP3    H222486   4.863   4.936   3.403 -0.0871  0.6683  1.0124
 7508TIP3   OH222487   1.396   1.200   2.743  0.3101 -0.2700 -0.2722
 7508TIP3    H122488   1.432   1.289   2.735  0.1451 -0.2080 -0.3315
 7508TIP3    H222489   1.462   1.153   2.794  0.6313 -0.2508 -0.6680
 7509TIP3   OH222490   6.481   4.795   0.745  0.0030  0.3339  0.2465
 7509TIP3    H122491   6.541   4.855   0.788 -0.1743  0.0344  0.9215
 7509TIP3    H222492   6.451   4.842   0.667  1.4091  0.3353 -0.3094
 7510TIP3   OH222493   4.160   5.411   1.098  0.2349  0.1724  0.2448
 7510TIP3    H122494   4.125   5.486   1.146  0.8317  0.0668  0.8668
 7510TIP3    H222495   4.190   5.351   1.166  0.1906 -0.4241 -0.2549
 7511TIP3   OH222496   6.223   2.203   3.685  0.7743  0.2668 -0.0496
 7511TIP3    H122497   6.156   2.203   3.617  0.1673 -1.4149  0.4808
 7511TIP3    H222498   6.231   2.294   3.712 -1.4131  0.5125 -0.0448
 7512TIP3   OH222499   6.390   0.058   2.454  0.2657  0.2825 -0.1534
 7512TIP3    H122500   6.471   0.110   2.463 -0.9753  2.2170  0.5566
 7512TIP3    H222501   6.378   0.018   2.540  0.9864 -0.8997 -0.5723
 7513TIP3   OH222502   5.033   4.326   3.117  0.0889 -0.4463  0.0443
 7513TIP3    H122503   5.070   4.407   3.083  2.3679 -1.2725  0.3844
 7513TIP3    H222504   4.974   4.354   3.188 -0.8157  0.9778 -1.2036
 7514TIP3   OH222505   3.811   2.140   2.298 -0.4282 -0.4023  0.1478
 7514TIP3    H122506   3.895   2.144   2.252 -0.2251  1.0443  0.5916
 7514TIP3    H222507   3.820   2.065   2.357  1.4097  0.9561  1.7392
 7515TIP3   OH222508   5.211   0.927   3.350  0.0665  0.3165 -0.2331
 7515TIP3    H122509   5.258   0.882   3.420 -3.2528  2.8558  4.1779
 7515TIP3    H222510   5.127   0.881   3.343 -1.1422  2.2970  0.3226
 7516TIP3   OH222511   6.199   3.345   0.794  0.1667 -0.4376 -0.4641
 7516TIP3    H122512   6.127   3.356   0.732  1.1779 -1.4582 -1.8833
 7516TIP3    H222513   6.278   3.361   0.743  1.0065 -0.5196  0.7640
 7517TIP3   OH222514   1.752   0.669   4.936 -0.4178  0.2048  0.2599
 7517TIP3    H122515   1.664   0.687   4.969 -1.0746 -0.5551 -1.0009
 7517TIP3    H222516   1.747   0.579   4.902  1.1780 -0.2956  1.2435
 7518TIP3   OH222517   2.052   4.217   1.047  0.1248 -0.0054  0.1682
 7518TIP3    H122518   1.961   4.201   1.070 -0.3845  0.4308 -1.4362
 7518TIP3    H222519   2.056   4.310   1.027  0.3630 -0.4081 -1.9593
 7519TIP3   OH222520   7.116   2.783   2.009 -0.1853 -0.3551  0.0197
 7519TIP3    H122521   7.203   2.747   1.991 -0.6642 -0.6902 -1.8616
 7519TIP3    H222522   7.087   2.740   2.089  1.1316 -0.6738  0.3361
 7520TIP3   OH222523   2.879   6.250   3.330  0.9032  0.4436  0.0395
 7520TIP3    H122524   2.882   6.169   3.380  0.3039  0.6478  0.4152
 7520TIP3    H222525   2.970   6.269   3.308  0.8888 -1.8394 -2.5201
 7521TIP3   OH222526   5.249   1.451   1.322 -0.3678  0.4585 -0.0272
 7521TIP3    H122527   5.166   1.404   1.318 -1.6237  2.3437  1.5674
 7521TIP3    H222528   5.307   1.394   1.373 -1.2679 -0.1450  0.3463
 7522TIP3   OH222529   4.341   0.393   1.453 -0.1761 -0.8896 -0.6743
 7522TIP3    H122530   4.280   0.454   1.411 -1.3161 -0.3003  1.6732
 7522TIP3    H222531   4.298   0.307   1.444 -0.7790 -0.6569 -0.1125
 7523TIP3   OH222532   6.230   6.321   1.462 -0.2670 -0.0007 -0.1825
 7523TIP3    H122533   6.257   6.258   1.529 -1.5218 -1.3227 -0.8786
 7523TIP3    H222534   6.312   6.360   1.432  0.3344  0.7591  2.1939
 7524TIP3   OH222535   0.207   2.176   1.046 -0.2794  0.0318  0.1249
 7524TIP3    H122536   0.292   2.133   1.054 -1.3480 -1.9210  2.2525
 7524TIP3    H222537   0.181   2.193   1.137 -3.3571 -2.0495 -0.2415
 7525TIP3   OH222538   2.706   5.826   1.093  0.4395  0.3008  0.0670
 7525TIP3    H122539   2.651   5.903   1.075 -1.5950 -0.8308  1.0982
 7525TIP3    H222540   2.650   5.751   1.073  1.0336 -0.9195  2.5824
 7526TIP3   OH222541   0.708   3.019   0.379  0.0630  1.1145 -0.1657
 7526TIP3    H122542   0.687   3.033   0.471  0.4987  1.8838 -0.1716
 7526TIP3    H222543   0.804   3.012   0.377  0.0614  1.1569 -0.5627
 7527TIP3   OH222544   5.829   0.912   0.174 -0.1301 -0.6262 -0.1294
 7527TIP3    H122545   5.815   0.847   0.105 -1.3976 -0.7714  0.2375
 7527TIP3    H222546   5.753   0.902   0.231 -0.6385  1.5660 -0.3619
 7528TIP3   OH222547   1.060   4.260   1.361  0.4082 -0.3208  0.4624
 7528TIP3    H122548   1.052   4.182   1.416  0.6941 -0.6829 -0.0053
 7528TIP3    H222549   1.028   4.233   1.275 -0.4806  0.3736  0.5556
 7529TIP3   OH222550   5.746   4.032   5.863 -0.0917  0.2452 -0.4236
 7529TIP3    H122551   5.657   4.032   5.826  0.0867 -1.1596 -0.9003
 7529TIP3    H222552   5.793   3.966   5.813  1.2510  0.9706 -0.1808
 7530TIP3   OH222553   4.582   6.294   3.574  0.0090  0.8601 -0.2102
 7530TIP3    H122554   4.584   6.219   3.633  0.2408  0.8388 -0.2434
 7530TIP3    H222555   4.655   6.349   3.603 -0.1165  1.0381 -0.2304
 7531TIP3   OH222556   0.196   0.957   5.573  0.9099  0.2892 -0.3757
 7531TIP3    H122557   0.249   0.882   5.599  1.2523  0.5991 -0.1579
 7531TIP3    H222558   0.106   0.928   5.582  1.0171 -0.6772 -2.0019
 7532TIP3   OH222559   3.792   0.631   0.707 -0.3745 -0.0788 -0.2917
 7532TIP3    H122560   3.744   0.574   0.647  0.7292 -1.3347 -0.0505
 7532TIP3    H222561   3.729   0.651   0.776 -1.6219  1.2775 -1.7489
 7533TIP3   OH222562   6.923   3.918   3.867  0.3137 -0.2707  0.1871
 7533TIP3    H122563   6.835   3.954   3.852  1.3283  2.0851 -0.7049
 7533TIP3    H222564   6.939   3.932   3.960 -0.6761 -1.8361  0.6215
 7534TIP3   OH222565   1.191   3.008   3.889  0.1885 -0.0496 -0.0460
 7534TIP3    H122566   1.140   2.951   3.946  0.4470  0.4699  0.7152
 7534TIP3    H222567   1.279   2.970   3.889 -0.1640 -0.9512 -1.3663
 7535TIP3   OH222568   3.026   1.798   1.826  0.0285  0.0598  0.8402
 7535TIP3    H122569   2.938   1.833   1.837 -0.1355  0.0603 -0.3178
 7535TIP3    H222570   3.049   1.821   1.736  0.6338 -1.2235  0.6521
 7536TIP3   OH222571   3.258   3.456   2.638 -0.6642  1.0217 -0.7083
 7536TIP3    H122572   3.218   3.536   2.671 -0.2944  0.7291  0.5094
 7536TIP3    H222573   3.189   3.390   2.642 -0.4112  0.7948  0.2950
 7537TIP3   OH222574   2.204   5.460   0.069  0.3389  0.1662 -0.0803
 7537TIP3    H122575   2.115   5.430   0.051  0.7655 -0.9267 -0.5005
 7537TIP3    H222576   2.193   5.537   0.124 -0.8597 -0.0922  0.0787
 7538TIP3   OH222577   4.415   6.336   3.976  0.7877  0.0077  0.0855
 7538TIP3    H122578   4.401   6.241   3.970  2.2324 -0.2471  0.2704
 7538TIP3    H222579   4.351   6.374   3.915 -2.5274 -0.7699  2.7698
 7539TIP3   OH222580   4.788   0.034   3.100 -0.2344 -0.3942  0.0044
 7539TIP3    H122581   4.789  -0.020   3.021 -0.8197 -0.3417 -0.0409
 7539TIP3    H222582   4.704   0.079   3.098 -1.0126 -1.6877  1.5394
 7540TIP3   OH222583   4.457   2.925   0.554  0.5771  0.1714 -0.2379
 7540TIP3    H122584   4.552   2.917   0.560  0.5177 -1.1690 -0.5825
 7540TIP3    H222585   4.435   2.884   0.470 -0.3443 -0.0212  0.0840
 7541TIP3   OH222586   2.866   6.026   0.613  0.3910 -0.3248  1.1695
 7541TIP3    H122587   2.770   6.034   0.618  0.2401 -1.2462  0.1621
 7541TIP3    H222588   2.884   5.936   0.641  0.7441 -0.8446 -0.5692
 7542TIP3   OH222589   3.872   2.103   2.773 -0.3038 -0.2943  0.1251
 7542TIP3    H122590   3.960   2.141   2.773 -0.5924  0.3865 -0.2464
 7542TIP3    H222591   3.828   2.145   2.847 -0.2659 -0.7642  0.4194
 7543TIP3   OH222592   6.476   3.762   4.502  0.8042 -0.2587  0.2447
 7543TIP3    H122593   6.571   3.753   4.497  0.7289 -0.5128 -1.2200
 7543TIP3    H222594   6.462   3.831   4.567  2.0850  1.2875 -1.0483
 7544TIP3   OH222595   0.051   4.481   1.434  0.1716  0.2178  0.0289
 7544TIP3    H122596   0.010   4.417   1.491  0.4217 -1.3571 -1.4769
 7544TIP3    H222597   0.118   4.432   1.386  1.0245  1.8174 -0.5200
 7545TIP3   OH222598   2.612   1.267   2.371 -0.1424  0.3028 -0.2702
 7545TIP3    H122599   2.677   1.314   2.423  0.0497 -0.8113  0.5416
 7545TIP3    H222600   2.627   1.296   2.281 -0.3251  2.0975  0.2378
 7546TIP3   OH222601   5.212   3.473   2.751 -0.7139  0.0605  0.2016
 7546TIP3    H122602   5.202   3.529   2.828 -0.4982  1.0345 -0.4656
 7546TIP3    H222603   5.306   3.470   2.736 -0.6793 -0.9498  0.5570
 7547TIP3   OH222604   2.200   6.738   2.447  0.2077  0.1298 -0.2462
 7547TIP3    H122605   2.171   6.805   2.386  1.5817  0.0866 -0.9833
 7547TIP3    H222606   2.294   6.753   2.457  0.5718 -1.6681 -0.4483
 7548TIP3   OH222607   0.535   5.832   1.136  0.6510 -0.4927  0.2389
 7548TIP3    H122608   0.589   5.767   1.181  2.8505  3.0941  3.3276
 7548TIP3    H222609   0.579   5.844   1.052  1.8019 -1.0743  0.7329
 7549TIP3   OH222610  -0.007   6.724   4.539 -0.1725  0.3489 -0.2268
 7549TIP3    H122611   0.053   6.653   4.560  0.3981  0.7214 -0.5813
 7549TIP3    H222612   0.038   6.803   4.569 -1.4591  0.4489  1.5874
 7550TIP3   OH222613   1.303   0.213   1.123  0.2347  0.5209 -0.2884
 7550TIP3    H122614   1.299   0.127   1.166 -0.4082  0.6744 -0.0289
 7550TIP3    H222615   1.240   0.207   1.051 -0.8988  1.2323  0.5985
 7551TIP3   OH222616   5.731   2.444   3.894 -0.0103  0.0009 -0.6983
 7551TIP3    H122617   5.773   2.507   3.952 -0.5190 -0.9960  0.7878
 7551TIP3    H222618   5.735   2.361   3.941 -1.3761 -0.6286 -1.6341
 7552TIP3   OH222619   5.337   6.434   2.776 -0.4294  0.3508  1.1210
 7552TIP3    H122620   5.263   6.400   2.725 -0.9776  1.4815  1.1388
 7552TIP3    H222621   5.391   6.480   2.711  0.7378 -1.1812  0.9475
 7553TIP3   OH222622   6.839   5.253   4.954 -0.4192  0.2867 -0.0153
 7553TIP3    H122623   6.881   5.335   4.979 -0.7561  0.2695  0.6307
 7553TIP3    H222624   6.909   5.187   4.962  0.2078  0.6816 -1.8067
 7554TIP3   OH222625   2.713   3.420   4.538  0.4832  0.2482 -0.3577
 7554TIP3    H122626   2.755   3.501   4.509 -1.4608  1.9679  1.3055
 7554TIP3    H222627   2.727   3.418   4.633 -1.2930 -0.1839 -0.0591
 7555TIP3   OH222628   1.359   3.034   0.624 -0.2462  0.1342 -0.0303
 7555TIP3    H122629   1.282   2.993   0.584 -0.5706  0.5772  0.1364
 7555TIP3    H222630   1.383   2.974   0.695  0.2804 -0.6132 -0.8124
 7556TIP3   OH222631   6.017   1.620   3.032 -0.0759 -0.5753 -0.1586
 7556TIP3    H122632   6.071   1.604   2.954 -0.0645 -1.6964  0.0769
 7556TIP3    H222633   5.974   1.704   3.013  0.7354 -0.3067 -0.9100
 7557TIP3   OH222634   1.853   5.671   4.306  0.2097  0.2761 -0.3726
 7557TIP3    H122635   1.777   5.721   4.274 -0.4435 -0.0222  0.6385
 7557TIP3    H222636   1.908   5.659   4.229  0.2252  2.2580 -0.7207
 7558TIP3   OH222637   6.871   2.132   0.112 -0.0888 -0.2070  0.3198
 7558TIP3    H122638   6.795   2.116   0.169  0.5894  0.7748  1.5555
 7558TIP3    H222639   6.890   2.047   0.073 -0.8506 -0.8108  1.2178
 7559TIP3   OH222640   3.990   6.406   0.503 -0.1092 -0.0876  0.1042
 7559TIP3    H122641   3.954   6.493   0.492 -2.2289 -0.3978  3.2760
 7559TIP3    H222642   4.061   6.417   0.567  0.3395 -0.5486 -0.3067
 7560TIP3   OH222643   3.905   3.970   4.661  0.4773  0.1245 -0.8025
 7560TIP3    H122644   3.831   3.909   4.661  0.5221  0.0307  0.6897
 7560TIP3    H222645   3.907   4.005   4.750  2.4831 -0.1876 -0.6773
 7561TIP3   OH222646   4.671   0.263   2.597 -0.5761  0.0175  0.0630
 7561TIP3    H122647   4.707   0.251   2.685 -0.6738  1.5733  0.3445
 7561TIP3    H222648   4.746   0.254   2.538  0.1292  2.2096  0.5645
 7562TIP3   OH222649   1.449   6.648   1.203  0.1290  0.2809  0.3625
 7562TIP3    H122650   1.469   6.728   1.154  1.2995 -0.1801  0.0348
 7562TIP3    H222651   1.535   6.613   1.227 -0.4025  0.1476  2.2051
 7563TIP3   OH222652   1.902   6.653   3.004 -0.5828  0.2105  0.4676
 7563TIP3    H122653   1.911   6.727   2.944 -0.1143 -1.2419 -1.3757
 7563TIP3    H222654   1.861   6.690   3.082 -0.3220  2.3980 -0.3494
 7564TIP3   OH222655   3.924   5.196   2.649  0.0975 -0.3425  0.5678
 7564TIP3    H122656   3.840   5.239   2.631 -0.2171 -0.0371  2.5730
 7564TIP3    H222657   3.905   5.102   2.639 -0.6575 -0.3142  1.5599
 7565TIP3   OH222658   4.895   1.061   5.194  1.0081 -0.2543  0.2686
 7565TIP3    H122659   4.985   1.050   5.163  0.5764 -0.1536 -1.0790
 7565TIP3    H222660   4.855   1.121   5.132 -0.3424 -1.2318  0.1356
 7566TIP3   OH222661   7.104   5.386   1.762 -0.6158 -0.5969  0.2401
 7566TIP3    H122662   7.080   5.360   1.673 -0.2505 -0.8216  0.2032
 7566TIP3    H222663   7.041   5.340   1.818  0.1426 -1.7577  0.1887
 7567TIP3   OH222664   5.971   4.425   1.384  0.2510  0.5226 -0.6883
 7567TIP3    H122665   5.897   4.479   1.358 -1.7365 -1.3784  0.6564
 7567TIP3    H222666   5.945   4.336   1.361  0.5825 -0.6320  2.7329
 7568TIP3   OH222667   4.224   0.272   0.525 -0.3948  0.4241  0.3411
 7568TIP3    H122668   4.240   0.255   0.432  0.6499 -1.0153  0.7454
 7568TIP3    H222669   4.143   0.225   0.544  0.9945 -1.9799  0.7984
 7569TIP3   OH222670   6.590   1.208   4.043  0.7022 -0.3894 -0.7566
 7569TIP3    H122671   6.648   1.149   3.996  0.1331 -2.2737  0.8029
 7569TIP3    H222672   6.503   1.188   4.010  0.4497 -0.7789  0.1321
 7570TIP3   OH222673   5.696   5.853   5.471  0.1755  0.1602 -0.0659
 7570TIP3    H122674   5.708   5.784   5.536 -0.2800  1.0823  1.0339
 7570TIP3    H222675   5.605   5.881   5.482  0.4208  1.0960 -0.3194
 7571TIP3   OH222676   4.911   4.139   3.594 -0.1872  0.7367 -0.4503
 7571TIP3    H122677   5.002   4.127   3.618 -0.2098  1.9088  0.3384
 7571TIP3    H222678   4.904   4.103   3.506  0.7678 -0.3516 -0.1049
 7572TIP3   OH222679   3.328   3.775   4.028 -0.1536 -0.1321 -0.2643
 7572TIP3    H122680   3.328   3.792   4.123  2.2633 -1.0422 -0.0241
 7572TIP3    H222681   3.404   3.719   4.014 -0.6352 -0.2694 -2.7359
 7573TIP3   OH222682   3.500   1.322   1.350 -0.0535  0.5758 -0.2089
 7573TIP3    H122683   3.586   1.304   1.310 -0.8003  0.1387 -1.6722
 7573TIP3    H222684   3.519   1.386   1.419  1.5853 -0.2158  0.1342
 7574TIP3   OH222685   7.164   5.680   1.407 -0.4775  0.0917 -0.5954
 7574TIP3    H122686   7.141   5.744   1.474 -0.7389 -0.8779  0.2678
 7574TIP3    H222687   7.215   5.614   1.453  0.3578 -0.0005 -1.6073
 7575TIP3   OH222688   6.073   3.578   4.448 -0.0652  0.3869 -0.4623
 7575TIP3    H122689   5.997   3.525   4.472  0.3020  0.7294  1.6888
 7575TIP3    H222690   6.111   3.603   4.532  2.1731  0.6021 -1.4890
 7576TIP3   OH222691   6.090   0.496   0.090 -0.6522  0.4827 -0.4906
 7576TIP3    H122692   6.088   0.415   0.039  0.5881  0.6510 -0.8503
 7576TIP3    H222693   6.092   0.467   0.181 -0.3258  0.1113 -0.6154
 7577TIP3   OH222694   0.177   0.067   1.379 -0.2082  0.0961 -0.4897
 7577TIP3    H122695   0.138   0.113   1.304 -1.2631 -1.4430 -0.9172
 7577TIP3    H222696   0.255   0.119   1.400 -1.1299  1.8435 -1.1881
 7578TIP3   OH222697   5.454   4.758   0.570 -0.2193  0.5509 -0.4140
 7578TIP3    H122698   5.404   4.679   0.552  2.2834 -1.2015 -0.2045
 7578TIP3    H222699   5.397   4.810   0.627 -2.3779 -0.5314 -1.4652
 7579TIP3   OH222700   2.400   1.187   0.769 -0.3165 -0.4967 -0.1215
 7579TIP3    H122701   2.476   1.240   0.790  0.0614 -0.6352 -1.1235
 7579TIP3    H222702   2.332   1.250   0.744 -1.1146 -0.2426  2.3820
 7580TIP3   OH222703   3.166   3.409   4.401 -0.2137 -0.1807 -0.2332
 7580TIP3    H122704   3.085   3.434   4.357 -0.2765  0.1517  0.0700
 7580TIP3    H222705   3.206   3.492   4.427  0.6744 -0.2821 -1.1869
 7581TIP3   OH222706   1.297   0.438   1.764  0.3304 -0.7500  0.4532
 7581TIP3    H122707   1.322   0.415   1.854  0.5122  0.8138  0.8208
 7581TIP3    H222708   1.215   0.485   1.773  1.0495  0.6395 -0.0548
 7582TIP3   OH222709   0.302   3.028   4.543  0.2201 -0.1161 -0.1807
 7582TIP3    H122710   0.349   3.038   4.626  1.0082  0.4958 -0.6779
 7582TIP3    H222711   0.294   3.117   4.510  1.5201 -0.4742 -1.6045
 7583TIP3   OH222712   6.387   6.471   2.510 -0.3727 -0.1928  0.3233
 7583TIP3    H122713   6.375   6.413   2.585 -0.6148  0.2061  0.5949
 7583TIP3    H222714   6.482   6.475   2.497 -0.3702 -0.9929  0.0286
 7584TIP3   OH222715   5.595   0.936   2.829  0.2560 -0.4517  0.8521
 7584TIP3    H122716   5.653   0.873   2.870  1.2572 -0.6899 -0.8413
 7584TIP3    H222717   5.508   0.912   2.860  0.7157 -2.0639  0.9901
 7585TIP3   OH222718   7.167   3.656   0.625 -0.5328  0.1434  0.3469
 7585TIP3    H122719   7.209   3.681   0.542 -1.2837  1.6873  0.3859
 7585TIP3    H222720   7.159   3.739   0.673 -0.8618 -0.6011  1.6151
 7586TIP3   OH222721   5.890   6.666   0.119  0.0938  0.2765  0.3194
 7586TIP3    H122722   5.967   6.668   0.063  0.0016  1.7739  0.1965
 7586TIP3    H222723   5.871   6.573   0.131  1.2260 -0.0955 -0.5834
 7587TIP3   OH222724   5.411   1.966   3.569  0.3336 -0.1319  0.0986
 7587TIP3    H122725   5.392   2.014   3.650  0.9586 -0.6396  0.5566
 7587TIP3    H222726   5.411   1.874   3.595  0.0568 -0.3295 -0.5833
 7588TIP3   OH222727   4.829   4.354   2.286 -0.4969 -0.2871 -0.8744
 7588TIP3    H122728   4.787   4.435   2.315  3.0233  1.1344  0.8891
 7588TIP3    H222729   4.829   4.298   2.363  0.3673 -0.4434 -0.9778
 7589TIP3   OH222730   2.799   4.235   4.278 -0.0160 -0.3877  0.1585
 7589TIP3    H122731   2.864   4.169   4.301 -0.6320 -0.6075  1.3851
 7589TIP3    H222732   2.779   4.278   4.361  0.2127  1.2048 -0.5904
 7590TIP3   OH222733   0.284   1.655   5.056  0.0279 -0.2592 -0.0202
 7590TIP3    H122734   0.341   1.694   4.990 -0.6610  1.7821  0.5121
 7590TIP3    H222735   0.235   1.588   5.009  1.1831 -0.4378 -1.0225
 7591TIP3   OH222736   5.973  -0.014   4.600 -0.1395  0.3529  0.1920
 7591TIP3    H122737   5.954  -0.037   4.509 -0.2776  0.7487  0.1163
 7591TIP3    H222738   6.011   0.074   4.594  1.7853 -0.4072  0.3165
 7592TIP3   OH222739   1.002   6.163   0.306 -0.0945 -0.2058 -0.1983
 7592TIP3    H122740   0.916   6.184   0.343 -0.3086 -2.5017  0.7654
 7592TIP3    H222741   0.990   6.079   0.263  1.3817  0.0782 -1.2688
 7593TIP3   OH222742   0.768   5.253   1.533  0.6305 -0.3551  0.0444
 7593TIP3    H122743   0.823   5.231   1.607  1.3695 -1.7479 -0.8802
 7593TIP3    H222744   0.697   5.305   1.570  0.5130 -1.7356  1.8686
 7594TIP3   OH222745   2.341   0.902   4.232  0.1824 -0.1907  0.0084
 7594TIP3    H122746   2.392   0.979   4.207 -1.1924  1.2386  1.3529
 7594TIP3    H222747   2.379   0.875   4.316 -0.0348 -0.3072  0.0707
 7595TIP3   OH222748   4.738   6.125   4.538 -0.0282 -0.3136  0.1599
 7595TIP3    H122749   4.686   6.060   4.585 -0.3599  0.0282  0.2680
 7595TIP3    H222750   4.825   6.085   4.530 -0.1355 -0.6258  0.5308
 7596TIP3   OH222751   6.886   3.898   1.510  0.3259 -0.3183  0.0269
 7596TIP3    H122752   6.867   3.948   1.590 -1.0627 -1.3541  0.3850
 7596TIP3    H222753   6.934   3.959   1.454 -1.0804  1.3385  0.5487
 7597TIP3   OH222754   3.978   2.166   4.625  0.4814 -0.0178  0.2513
 7597TIP3    H122755   3.944   2.250   4.655  0.2394 -0.6269  1.7721
 7597TIP3    H222756   3.909   2.103   4.645  0.6586 -0.6025 -0.8708
 7598TIP3   OH222757   6.149   2.889   0.683 -0.0353 -0.0142 -0.2075
 7598TIP3    H122758   6.212   2.893   0.611 -0.0613  0.4725 -0.2073
 7598TIP3    H222759   6.082   2.827   0.654  0.7176 -0.9500  0.0156
 7599TIP3   OH222760   5.848   5.794   4.571  0.0821 -0.2983  0.4893
 7599TIP3    H122761   5.926   5.840   4.539  1.1094 -0.7619  2.2349
 7599TIP3    H222762   5.882   5.717   4.617 -1.2816  0.2494  2.5565
 7600TIP3   OH222763   5.574   2.251   1.245  0.0331  0.2471  0.7284
 7600TIP3    H122764   5.484   2.248   1.211 -0.5767 -0.5275  2.3013
 7600TIP3    H222765   5.616   2.172   1.212 -0.1398  0.1651  0.7053
 7601TIP3   OH222766   4.684   2.229   1.824  0.7429 -0.0959 -0.0628
 7601TIP3    H122767   4.743   2.156   1.807 -0.1496 -0.6713 -0.7957
 7601TIP3    H222768   4.596   2.191   1.821  0.2881  0.8587  0.3545
 7602TIP3   OH222769   2.543   3.254   4.764 -0.2685 -0.0880 -0.0205
 7602TIP3    H122770   2.495   3.179   4.729  0.1567  0.7033 -2.4927
 7602TIP3    H222771   2.619   3.262   4.706 -2.2096  4.4960 -2.4231
 7603TIP3   OH222772   0.740   6.547   0.676 -0.3079  0.2871  0.3029
 7603TIP3    H122773   0.798   6.521   0.605 -0.1303  0.3173  0.4356
 7603TIP3    H222774   0.689   6.468   0.696  0.3128 -0.0005  0.7848
 7604TIP3   OH222775   4.564   4.238   4.403  0.5054  0.3726 -0.1628
 7604TIP3    H122776   4.578   4.145   4.391 -1.0635  0.1867 -0.8825
 7604TIP3    H222777   4.537   4.247   4.495 -0.9746 -0.1363 -0.5231
 7605TIP3   OH222778   5.504   0.897   1.147 -0.4714  0.3062  0.7317
 7605TIP3    H122779   5.497   0.990   1.168  0.8621  0.7601 -0.6447
 7605TIP3    H222780   5.534   0.896   1.056  0.3164 -1.4614  0.9816
 7606TIP3   OH222781   6.220   6.640   2.668 -0.3518  0.2614  0.4491
 7606TIP3    H122782   6.248   6.597   2.588 -0.7126  0.3331  0.2835
 7606TIP3    H222783   6.227   6.573   2.736  0.9147  0.4647  0.5581
 7607TIP3   OH222784   1.427   1.180   1.085  0.4749  0.2207 -0.1512
 7607TIP3    H122785   1.379   1.185   1.167 -2.2642  0.1550 -1.6445
 7607TIP3    H222786   1.448   1.088   1.075 -1.1538 -0.1440 -0.5153
 7608TIP3   OH222787   5.672   3.023   5.701  0.1545 -0.5450  0.3983
 7608TIP3    H122788   5.700   3.110   5.730  0.1992 -1.2098  2.5322
 7608TIP3    H222789   5.753   2.973   5.693  0.0018 -0.9894  1.4050
 7609TIP3   OH222790   3.120   3.359   1.305 -0.4116  0.1016 -0.2100
 7609TIP3    H122791   3.208   3.325   1.288  0.0526  0.0849  1.9218
 7609TIP3    H222792   3.113   3.362   1.400 -2.7110  0.1849 -0.3083
 7610TIP3   OH222793   4.443   1.861   3.834 -0.9367 -0.0992  0.8286
 7610TIP3    H122794   4.444   1.936   3.774 -2.4422  0.3217  1.2877
 7610TIP3    H222795   4.406   1.789   3.782  2.0155 -1.0599 -0.1321
 7611TIP3   OH222796   1.554   1.736   3.899 -0.1557  0.0942 -0.2856
 7611TIP3    H122797   1.576   1.769   3.986 -0.4544  1.5019 -0.7184
 7611TIP3    H222798   1.469   1.693   3.910  0.3095 -0.7042  0.3178
 7612TIP3   OH222799   6.304   3.462   1.431 -0.2316 -0.3578 -0.1007
 7612TIP3    H122800   6.261   3.386   1.392 -2.9239  1.5712 -1.1988
 7612TIP3    H222801   6.270   3.537   1.382  2.6852  1.5796  0.5625
 7613TIP3   OH222802   1.878   5.742   1.368  0.7061 -0.1207  0.0133
 7613TIP3    H122803   1.890   5.785   1.452 -1.0026 -2.6409  1.6870
 7613TIP3    H222804   1.921   5.657   1.378 -1.9676 -1.6551 -0.5193
 7614TIP3   OH222805   2.781   5.403   0.737 -0.0663  0.6982 -0.3880
 7614TIP3    H122806   2.755   5.491   0.709  0.5979  0.8964 -0.3841
 7614TIP3    H222807   2.812   5.360   0.658 -1.7045 -0.0365 -0.6823
 7615TIP3   OH222808   6.549   3.934   2.170 -0.1950 -0.0305  0.0286
 7615TIP3    H122809   6.536   3.890   2.086 -0.2625 -0.8239  0.4444
 7615TIP3    H222810   6.638   3.969   2.165 -0.0627 -0.4020 -0.2299
 7616TIP3   OH222811   4.406  -0.001   0.412  0.0486 -0.1030  0.3952
 7616TIP3    H122812   4.442  -0.068   0.353  1.4656  0.6585  0.3385
 7616TIP3    H222813   4.382   0.072   0.354 -0.8057 -0.2641  0.5318
 7617TIP3   OH222814   6.162   1.991   1.455 -0.4388  0.2397 -0.3520
 7617TIP3    H122815   6.174   1.905   1.495 -0.1370  1.3977  2.2527
 7617TIP3    H222816   6.233   1.998   1.391 -1.6174 -2.1351 -2.0433
 7618TIP3   OH222817   4.635   2.149   4.357 -0.0916  0.3166 -0.4054
 7618TIP3    H122818   4.654   2.105   4.274 -1.8018 -2.8138  0.7066
 7618TIP3    H222819   4.721   2.178   4.389  0.7906  0.0609 -2.4182
 7619TIP3   OH222820   5.467   6.683   1.108 -1.1780 -0.3022 -0.1359
 7619TIP3    H122821   5.447   6.744   1.179  0.3504 -1.5369  1.4694
 7619TIP3    H222822   5.383   6.644   1.085 -2.1562  2.1548 -1.0542
 7620TIP3   OH222823   4.896   5.029   0.167 -0.7100  0.5649 -1.0336
 7620TIP3    H122824   4.805   5.003   0.157 -1.1349  1.9798 -1.1000
 7620TIP3    H222825   4.892   5.124   0.181  0.7103  0.5465 -0.3801
 7621TIP3   OH222826   6.501   0.482   1.069  0.0149 -0.5894  0.5779
 7621TIP3    H122827   6.421   0.532   1.055  0.6392  0.6928  1.4667
 7621TIP3    H222828   6.514   0.436   0.986 -0.3206  1.1022 -0.4641
 7622TIP3   OH222829   6.797   4.924   5.485 -0.0257 -0.1972  0.5246
 7622TIP3    H122830   6.871   4.907   5.428  0.0533  2.9235 -0.4674
 7622TIP3    H222831   6.815   5.010   5.523 -2.8088  0.3975  0.7138
 7623TIP3   OH222832   5.959   4.283   0.221  0.0131  0.1551  0.3570
 7623TIP3    H122833   5.942   4.342   0.294  0.4530 -1.0655  1.4728
 7623TIP3    H222834   6.027   4.328   0.169 -1.2123  1.6206 -0.0575
 7624TIP3   OH222835   3.166   6.007   1.596 -0.1995 -0.1343 -0.2630
 7624TIP3    H122836   3.166   5.949   1.519  1.9166 -4.0275  2.3465
 7624TIP3    H222837   3.073   6.016   1.619 -0.6538 -2.0324 -1.1604
 7625TIP3   OH222838   2.362   5.989   4.743  0.1685  0.3464  0.4362
 7625TIP3    H122839   2.457   5.986   4.754  0.4690 -0.5318 -1.8873
 7625TIP3    H222840   2.341   5.912   4.690 -1.6111  1.4793 -0.6233
 7626TIP3   OH222841   6.469   3.243   5.426 -0.2640 -0.4945  0.0096
 7626TIP3    H122842   6.474   3.256   5.521 -0.1690 -0.6266  0.0235
 7626TIP3    H222843   6.481   3.148   5.415  0.0976 -0.4314 -0.1592
 7627TIP3   OH222844   2.344   5.063   0.959 -0.3550  0.2140 -0.3816
 7627TIP3    H122845   2.293   4.993   0.919 -2.1285  0.8481  0.6359
 7627TIP3    H222846   2.355   5.128   0.889  0.4964 -0.6489 -1.0657
 7628TIP3   OH222847   1.810   1.546   2.141  0.5590 -0.7388  0.6024
 7628TIP3    H122848   1.787   1.460   2.107 -1.7604 -0.0024  0.1796
 7628TIP3    H222849   1.809   1.604   2.065 -1.4504  0.3035  1.3508
 7629TIP3   OH222850   2.429   2.371   3.101 -0.0955 -0.1055  0.6633
 7629TIP3    H122851   2.351   2.387   3.155  0.4512  2.3404  0.8631
 7629TIP3    H222852   2.502   2.403   3.155  1.0766 -2.2667  0.4488
 7630TIP3   OH222853   1.959   1.651   0.610  0.1542  0.0612  0.3754
 7630TIP3    H122854   1.920   1.618   0.690  0.6045  0.9616  0.9726
 7630TIP3    H222855   1.909   1.609   0.540 -2.1448  1.4705  1.0869
 7631TIP3   OH222856   3.448   5.142   5.649  0.0204  0.0940  0.1553
 7631TIP3    H122857   3.514   5.163   5.584  0.3220 -0.8059  0.1641
 7631TIP3    H222858   3.365   5.161   5.606  0.2283 -0.2582 -0.4102
 7632TIP3   OH222859   6.528   6.764   2.354 -0.3721 -0.2080  0.6220
 7632TIP3    H122860   6.462   6.735   2.291  0.2832 -0.4644  0.0304
 7632TIP3    H222861   6.502   6.853   2.378 -0.2784  0.1425 -0.5120
 7633TIP3   OH222862   3.623   3.928   4.353  0.2440 -0.3679  0.2959
 7633TIP3    H122863   3.663   3.973   4.279 -1.8644  0.4316 -0.4174
 7633TIP3    H222864   3.545   3.979   4.373 -0.4900 -1.9095  1.5607
 7634TIP3   OH222865   3.267   3.020   4.376  0.0159 -0.0287 -0.1820
 7634TIP3    H122866   3.214   2.980   4.307 -0.6191  0.7808 -0.1827
 7634TIP3    H222867   3.297   3.103   4.338  1.3173 -0.4842 -0.1913
 7635TIP3   OH222868   4.664   5.776   4.088 -0.5745 -0.2194 -0.0474
 7635TIP3    H122869   4.643   5.751   3.997  0.4925  0.3721 -0.4756
 7635TIP3    H222870   4.633   5.867   4.095 -0.2926 -0.1328  0.0548
 7636TIP3   OH222871   0.128   4.657   2.715 -0.5644 -0.3781 -0.4958
 7636TIP3    H122872   0.199   4.593   2.719 -0.9123 -0.7439  0.0782
 7636TIP3    H222873   0.049   4.603   2.708 -0.7263  0.0478 -2.0979
 7637TIP3   OH222874   5.066   6.503   0.224 -0.5379 -0.4796  0.0066
 7637TIP3    H122875   5.155   6.534   0.205 -0.3533  0.2149  1.8173
 7637TIP3    H222876   5.009   6.571   0.189 -0.3956 -1.0877 -1.4657
 7638TIP3   OH222877   2.362   0.504   4.414  0.4098  0.3454  0.0327
 7638TIP3    H122878   2.348   0.542   4.500 -1.0680 -0.9125  0.3925
 7638TIP3    H222879   2.363   0.409   4.430 -2.3673 -0.0449 -1.6061
 7639TIP3   OH222880   2.316   1.421   3.264 -0.2160  0.0720  0.0850
 7639TIP3    H122881   2.330   1.455   3.176 -1.8946  0.0936 -0.2145
 7639TIP3    H222882   2.348   1.491   3.322 -0.8089  0.8673 -0.5174
 7640TIP3   OH222883   1.797   1.269   4.846  0.2335  0.0304 -0.2274
 7640TIP3    H122884   1.797   1.178   4.874 -0.8637  0.2924  0.6886
 7640TIP3    H222885   1.759   1.267   4.758 -1.0194 -0.2770  0.2994
 7641TIP3   OH222886   3.029   4.313   4.474 -0.3809  0.3108 -0.0215
 7641TIP3    H122887   3.063   4.399   4.450 -0.9915  0.4785 -0.3248
 7641TIP3    H222888   3.051   4.257   4.400  0.5873  0.0429  0.4579
 7642TIP3   OH222889   4.159   1.313   4.449  0.6513  0.3499  0.0377
 7642TIP3    H122890   4.192   1.369   4.379  0.7520 -0.9668 -1.0130
 7642TIP3    H222891   4.229   1.312   4.514  0.5241  1.6550  0.2076
 7643TIP3   OH222892   4.812   0.933   3.284  0.4926 -0.8627 -0.4090
 7643TIP3    H122893   4.780   0.864   3.225 -0.5770 -0.6333 -0.1224
 7643TIP3    H222894   4.892   0.896   3.322  0.9822 -1.1763 -1.6788
 7644TIP3   OH222895   5.390   5.014   1.065  0.0328  0.1851 -0.5567
 7644TIP3    H122896   5.459   5.030   1.000 -0.4323 -0.1749 -1.1471
 7644TIP3    H222897   5.398   4.921   1.086  0.6171  0.4368  0.4263
 7645TIP3   OH222898   0.121   6.496  -0.031 -0.3194  0.3071  0.6905
 7645TIP3    H122899   0.179   6.510   0.044  1.5534 -1.4157 -0.3333
 7645TIP3    H222900   0.035   6.479   0.008  0.5269 -0.2395  2.4376
 7646TIP3   OH222901   2.764   5.419   1.968  0.0539  0.2043 -0.5815
 7646TIP3    H122902   2.794   5.464   2.047  0.2035 -3.2527  1.5344
 7646TIP3    H222903   2.797   5.473   1.896  3.1814  1.6050  1.6588
 7647TIP3   OH222904   6.523   3.357   0.256  0.2861  0.0467  0.3692
 7647TIP3    H122905   6.529   3.408   0.175 -1.0805 -0.5909 -0.1678
 7647TIP3    H222906   6.462   3.406   0.311  0.3820 -0.0712  0.5838
 7648TIP3   OH222907   5.427   4.932   1.943 -0.3729  0.2156 -0.1800
 7648TIP3    H122908   5.361   4.917   2.011  2.0254 -0.4999  2.1357
 7648TIP3    H222909   5.433   4.848   1.897 -0.5291  0.0314  0.1285
 7649TIP3   OH222910   3.146   2.567   5.786 -0.1244 -0.7065  0.3340
 7649TIP3    H122911   3.080   2.509   5.749 -0.1178 -1.7724  1.9147
 7649TIP3    H222912   3.181   2.615   5.711 -1.2004 -1.6469 -0.7986
 7650TIP3   OH222913   2.658   2.489   3.236 -0.1078 -0.5419  0.1322
 7650TIP3    H122914   2.644   2.444   3.320 -0.3488  0.4515  0.6424
 7650TIP3    H222915   2.701   2.571   3.260 -0.7716  0.0495 -0.6431
 7651TIP3   OH222916   0.066   3.003   0.381  0.4128  0.3444 -0.0561
 7651TIP3    H122917   0.140   2.982   0.437 -0.9330  0.1753  1.7741
 7651TIP3    H222918  -0.010   2.971   0.430 -0.8113 -0.4800 -2.3478
 7652TIP3   OH222919   3.791   2.046   3.621  0.2955 -0.2517  0.0902
 7652TIP3    H122920   3.711   2.038   3.672 -1.1505  0.2648 -1.9810
 7652TIP3    H222921   3.824   1.956   3.615  0.4850 -0.3395  1.7915
 7653TIP3   OH222922   7.188   4.161   3.252 -0.3591 -0.3018 -0.0282
 7653TIP3    H122923   7.244   4.197   3.320 -0.0424  0.1704 -0.5304
 7653TIP3    H222924   7.201   4.219   3.177 -0.7915 -0.7447 -0.4548
 7654TIP3   OH222925   6.606   4.496   1.069  0.5256 -0.6689 -0.0622
 7654TIP3    H122926   6.663   4.573   1.071 -0.7508  0.3057 -0.1530
 7654TIP3    H222927   6.666   4.422   1.060  1.7040  0.4216 -1.7182
 7655TIP3   OH222928   0.940   6.740   2.609  0.2186  0.5609 -0.3616
 7655TIP3    H122929   0.875   6.798   2.649 -0.1617 -0.5093  0.5948
 7655TIP3    H222930   0.963   6.678   2.677  1.1320 -0.0137 -1.1644
 7656TIP3   OH222931   3.705   4.741   5.591 -0.2880 -1.0051  0.1039
 7656TIP3    H122932   3.621   4.713   5.627 -0.1689 -0.6612  0.6558
 7656TIP3    H222933   3.704   4.837   5.599 -0.2682 -0.9140 -0.8297
 7657TIP3   OH222934   5.241   6.064   5.052  0.2678 -1.1463 -0.1719
 7657TIP3    H122935   5.234   6.159   5.053 -2.4937 -1.2322 -1.2950
 7657TIP3    H222936   5.268   6.040   5.141 -0.2875  0.6109  0.4997
 7658TIP3   OH222937   6.966   6.590   4.198  0.0979 -0.1860 -0.1465
 7658TIP3    H122938   6.964   6.628   4.286 -0.3655  0.1015 -0.2734
 7658TIP3    H222939   6.883   6.544   4.191  0.3831 -0.6871 -0.2289
 7659TIP3   OH222940   4.585   2.390   3.137 -0.3089 -0.3030 -0.2980
 7659TIP3    H122941   4.579   2.469   3.084  0.1277 -0.0040  0.0926
 7659TIP3    H222942   4.636   2.329   3.084 -0.5959 -0.3070 -0.5730
 7660TIP3   OH222943   6.187   6.149   4.527  0.2643  0.3123  0.3033
 7660TIP3    H122944   6.227   6.219   4.580  1.0041 -1.0911  1.7015
 7660TIP3    H222945   6.244   6.141   4.451  1.3257 -0.0529  1.1048
 7661TIP3   OH222946   0.939   6.764   3.194 -0.2437  0.3472 -0.2105
 7661TIP3    H122947   0.917   6.733   3.281  0.0204  0.2564 -0.1748
 7661TIP3    H222948   0.880   6.838   3.179  0.5735  1.1941  0.5696
 7662TIP3   OH222949   0.920   3.494   5.764  0.5606 -0.1313  0.3182
 7662TIP3    H122950   0.863   3.570   5.775 -0.1846 -0.8134  1.4923
 7662TIP3    H222951   1.009   3.529   5.770  0.2227  0.5258  2.0382
 7663TIP3   OH222952   2.751   6.684   4.019  0.1736  0.3053 -0.1587
 7663TIP3    H122953   2.737   6.597   3.982 -0.7368 -0.1679  1.2338
 7663TIP3    H222954   2.663   6.723   4.023  0.5661  1.2899 -0.7304
 7664TIP3   OH222955   0.132   0.269   2.034  0.1508 -0.0612 -0.4756
 7664TIP3    H122956   0.207   0.262   1.973  1.8932  1.9934  1.2620
 7664TIP3    H222957   0.070   0.326   1.988  1.0857  0.8118 -0.7178
 7665TIP3   OH222958   0.012   0.146   4.948  0.2597  0.4687 -0.3511
 7665TIP3    H122959  -0.014   0.202   5.021 -0.0302 -0.2542  0.1099
 7665TIP3    H222960   0.082   0.194   4.904 -0.5545  1.5695 -0.4733
 7666TIP3   OH222961   4.154   2.212   3.509 -0.6220  0.0153 -0.1222
 7666TIP3    H122962   4.158   2.185   3.418  0.0260 -0.9967  0.1797
 7666TIP3    H222963   4.094   2.286   3.510  1.1359  1.5682 -1.7245
 7667TIP3   OH222964   0.713   5.994   3.377  0.1000 -0.1703  0.1770
 7667TIP3    H122965   0.790   5.939   3.360 -0.8611 -0.8675 -2.4895
 7667TIP3    H222966   0.748   6.072   3.421  2.1632 -0.9201 -0.0337
 7668TIP3   OH222967   1.636   2.431   0.165 -0.0682 -0.6700 -0.1946
 7668TIP3    H122968   1.711   2.487   0.181 -0.1196 -0.3282 -1.0936
 7668TIP3    H222969   1.609   2.402   0.252  0.8443 -0.4684  0.1666
 7669TIP3   OH222970   0.807   1.201   1.398 -0.2876  0.1395  0.0363
 7669TIP3    H122971   0.804   1.124   1.454 -0.9820 -0.3443 -0.6461
 7669TIP3    H222972   0.900   1.225   1.395  0.2571 -1.8331 -1.2651
 7670TIP3   OH222973   4.759   6.296   5.714  0.7636  0.3388 -0.0131
 7670TIP3    H122974   4.740   6.375   5.764 -1.1170  0.6866 -1.1892
 7670TIP3    H222975   4.758   6.325   5.622  0.8906 -0.8971 -0.4244
 7671TIP3   OH222976   6.763   4.067   4.238 -0.1937  0.1681 -0.0222
 7671TIP3    H122977   6.780   3.979   4.272 -0.9250 -0.6510 -1.7023
 7671TIP3    H222978   6.746   4.055   4.145 -0.6177  2.0652 -0.2400
 7672TIP3   OH222979   3.376   1.048   2.936  0.0851 -0.4520 -0.6750
 7672TIP3    H122980   3.467   1.077   2.941  0.1328 -0.7837  1.6999
 7672TIP3    H222981   3.329   1.109   2.993 -1.0927 -0.6643 -1.3925
 7673TIP3   OH222982   7.117   1.933   3.263  0.4487 -0.1132 -0.3803
 7673TIP3    H122983   7.087   1.928   3.354 -1.5829  2.3238 -0.7948
 7673TIP3    H222984   7.037   1.938   3.211  1.5647  0.5682 -2.1330
 7674TIP3   OH222985   4.399   5.373   5.678  0.3333  0.8914  0.3066
 7674TIP3    H122986   4.352   5.421   5.610  2.7914  2.4962 -0.3558
 7674TIP3    H222987   4.475   5.427   5.699  2.7363 -2.1852  0.2617
 7675TIP3   OH222988   5.325   4.593   3.366 -0.2156  0.0474  0.1236
 7675TIP3    H122989   5.278   4.597   3.450 -0.8297 -1.1669 -0.1360
 7675TIP3    H222990   5.272   4.535   3.312  0.1180  0.9134 -1.1637
 7676TIP3   OH222991   5.755   3.520   0.744  0.6073 -0.1621 -0.1424
 7676TIP3    H122992   5.797   3.540   0.827  0.9698  2.2164 -0.8086
 7676TIP3    H222993   5.662   3.518   0.764  0.7058  0.1529  0.3734
 7677TIP3   OH222994   5.006   0.193   1.673  0.1863 -0.0388 -0.0517
 7677TIP3    H122995   4.998   0.269   1.731 -0.9607 -1.2842  1.5220
 7677TIP3    H222996   4.988   0.227   1.586 -1.2390  1.3437  0.7286
 7678TIP3   OH222997   3.937   6.240   0.947 -0.3464  0.1438  0.3405
 7678TIP3    H122998   3.963   6.272   1.033 -1.4215 -1.1953  1.1977
 7678TIP3    H222999   4.019   6.220   0.902  0.2920  2.3791  0.4045
 7679TIP3   OH223000   4.810   2.153   5.443 -0.0890  1.0714 -0.1822
 7679TIP3    H123001   4.768   2.206   5.375 -1.2966  1.9012  1.1626
 7679TIP3    H223002   4.885   2.206   5.471  0.5592  0.6164 -1.0015
 7680TIP3   OH223003   3.953   4.043   4.927 -0.1462 -0.4879  0.7133
 7680TIP3    H123004   4.022   4.007   4.983 -1.2233 -1.8496  1.2334
 7680TIP3    H223005   3.871   4.020   4.972 -1.0623 -1.4627 -1.2875
 7681TIP3   OH223006   5.986   1.261   0.775  0.0930  0.2339 -0.0007
 7681TIP3    H123007   5.984   1.222   0.688  1.2402  2.2025 -0.9818
 7681TIP3    H223008   5.909   1.318   0.777  0.9386  1.4375 -0.4022
 7682TIP3   OH223009   1.307   3.959   3.126  0.1204  0.4433  0.0324
 7682TIP3    H123010   1.232   4.005   3.162  0.5094  0.1356  1.2726
 7682TIP3    H223011   1.328   3.892   3.191  0.9474 -0.0173 -0.6856
 7683TIP3   OH223012   5.173   6.229   3.049  0.2094  0.0482 -0.2059
 7683TIP3    H123013   5.143   6.197   2.964  0.2595 -1.9463  0.4789
 7683TIP3    H223014   5.092   6.246   3.097  0.1913  0.4602 -0.3688
 7684TIP3   OH223015   0.858   5.286   5.348 -0.4042  0.0201 -0.0412
 7684TIP3    H123016   0.862   5.192   5.328  0.4485 -0.3461  1.6800
 7684TIP3    H223017   0.886   5.329   5.267  0.0909 -1.2409 -0.5656
 7685TIP3   OH223018   5.903   0.192   3.818 -0.0384 -0.0828 -0.0465
 7685TIP3    H123019   5.983   0.239   3.841 -1.1975  2.4947 -0.9942
 7685TIP3    H223020   5.856   0.183   3.901  0.8240 -0.8784  0.3758
 7686TIP3   OH223021   0.211   0.011   0.241 -0.1122  0.0041  0.1244
 7686TIP3    H123022   0.136  -0.023   0.193 -0.1226 -0.5412  0.5120
 7686TIP3    H223023   0.272   0.040   0.173  0.6726 -2.4554 -0.3248
 7687TIP3   OH223024   2.059   0.375   0.391  0.2199  0.4812  0.3583
 7687TIP3    H123025   2.094   0.440   0.452  0.6135 -0.9926  1.7680
 7687TIP3    H223026   2.125   0.305   0.389 -1.4061 -1.1687  1.0997
 7688TIP3   OH223027   3.214   1.157   5.342  0.4460  0.2222 -0.1746
 7688TIP3    H123028   3.292   1.209   5.360  0.7310  0.6208 -2.2975
 7688TIP3    H223029   3.152   1.219   5.302 -0.8780 -0.1541  1.1939
 7689TIP3   OH223030   1.420   6.024   0.957 -0.0475 -0.4738  0.1710
 7689TIP3    H123031   1.348   6.078   0.925  0.0602 -0.3090  0.2081
 7689TIP3    H223032   1.473   6.083   1.010  1.3595 -0.0050 -1.6687
 7690TIP3   OH223033   6.713   2.956   1.492  0.5104 -0.4003  0.0180
 7690TIP3    H123034   6.782   2.898   1.458  0.7732  0.8825 -1.7703
 7690TIP3    H223035   6.748   2.988   1.575  2.7391  1.1989 -1.4086
 7691TIP3   OH223036   1.465   3.713   4.188  0.3085 -0.0107  0.4082
 7691TIP3    H123037   1.538   3.694   4.129 -0.0187 -0.7845  0.2499
 7691TIP3    H223038   1.396   3.651   4.163  0.1023 -0.2398  1.4889
 7692TIP3   OH223039   0.815   6.024   5.836 -0.0843  0.1158  0.2065
 7692TIP3    H123040   0.803   6.071   5.754 -0.4618 -1.7459 -0.8671
 7692TIP3    H223041   0.884   5.960   5.818  0.3297  0.1508  1.5614
 7693TIP3   OH223042   0.897   4.088   4.069 -0.4122 -0.0661 -0.3161
 7693TIP3    H123043   0.986   4.105   4.037  0.1752 -1.7138  0.3542
 7693TIP3    H223044   0.906   4.083   4.164 -1.1444 -0.6459 -0.2687
 7694TIP3   OH223045   6.414   3.602   3.681 -0.6804  0.4555 -0.4074
 7694TIP3    H123046   6.376   3.550   3.751  0.0477  0.3334 -0.0904
 7694TIP3    H223047   6.369   3.573   3.602  0.5119 -1.5398 -0.4230
 7695TIP3   OH223048   4.807   2.927   0.385 -0.2531  0.3647  0.1317
 7695TIP3    H123049   4.770   2.839   0.381  0.6009 -0.0042  0.0437
 7695TIP3    H223050   4.739   2.984   0.351  0.0108 -0.5236 -2.0530
 7696TIP3   OH223051   0.333   4.475   2.763 -0.2631  0.3382  0.3342
 7696TIP3    H123052   0.251   4.428   2.751  0.0131  0.2673 -1.6213
 7696TIP3    H223053   0.396   4.408   2.789 -0.1897 -0.1772 -1.0644
 7697TIP3   OH223054   2.116   6.442   1.945  0.4059 -0.0132 -0.2940
 7697TIP3    H123055   2.193   6.411   1.898  0.6036 -1.2357  0.7831
 7697TIP3    H223056   2.090   6.369   2.001 -1.3302  0.4915 -0.3614
 7698TIP3   OH223057   3.566   3.354   1.680  0.2246 -0.3949 -0.3637
 7698TIP3    H123058   3.633   3.322   1.740 -0.5155 -3.2980 -0.9047
 7698TIP3    H223059   3.512   3.277   1.662 -1.5321  1.1498 -2.1935
 7699TIP3   OH223060   0.631   1.861   5.384  0.5873 -0.1013 -0.0363
 7699TIP3    H123061   0.636   1.832   5.475  0.2564  1.7400  0.6086
 7699TIP3    H223062   0.643   1.956   5.388  1.6375 -0.0961 -2.0374
 7700TIP3   OH223063   4.126   1.305   1.386 -0.2183  0.1605 -0.0412
 7700TIP3    H123064   4.168   1.221   1.403 -1.2970 -0.2308  0.7959
 7700TIP3    H223065   4.032   1.285   1.378 -0.2540  0.8815 -2.6794
 7701TIP3   OH223066   4.628   5.812   5.094  0.1518 -0.3832 -0.4044
 7701TIP3    H123067   4.545   5.817   5.048 -1.3649  0.1613  2.1966
 7701TIP3    H223068   4.624   5.883   5.159  1.4899 -1.9504  1.5186
 7702TIP3   OH223069   5.343   5.859   0.108 -0.3917  0.0201  0.9934
 7702TIP3    H123070   5.367   5.813   0.189  0.6421 -0.1748  0.5848
 7702TIP3    H223071   5.416   5.919   0.092 -0.1032 -0.6636 -0.3396
 7703TIP3   OH223072   6.706   3.713   5.281  0.4473 -0.6663  0.5023
 7703TIP3    H123073   6.746   3.674   5.204  0.9875  0.5578  0.1344
 7703TIP3    H223074   6.775   3.714   5.347  0.6735  0.2890  0.2752
 7704TIP3   OH223075   0.389   0.135   2.168 -0.4916 -0.0444  0.1547
 7704TIP3    H123076   0.340   0.062   2.207 -0.6816  0.2792  0.5261
 7704TIP3    H223077   0.330   0.210   2.174 -0.1102  0.2539  0.2247
 7705TIP3   OH223078   6.255   0.222   2.118 -0.5021 -0.4576  0.4285
 7705TIP3    H123079   6.225   0.136   2.147 -1.8369 -0.9970 -2.2608
 7705TIP3    H223080   6.175   0.268   2.092  0.5165 -0.4224 -3.1360
 7706TIP3   OH223081   3.300   2.846   1.847 -0.2284  0.2206 -0.0905
 7706TIP3    H123082   3.334   2.929   1.812 -0.1904  0.3304  0.1994
 7706TIP3    H223083   3.339   2.779   1.792 -0.1188  0.3875 -0.2189
 7707TIP3   OH223084   5.407   2.533   2.797 -0.0375  0.3183 -0.0912
 7707TIP3    H123085   5.384   2.621   2.768  1.0769  0.8549  0.6059
 7707TIP3    H223086   5.345   2.513   2.867 -1.1473 -0.0015 -1.1410
 7708TIP3   OH223087   5.408   2.052   3.044  0.1385 -0.1144 -0.1986
 7708TIP3    H123088   5.500   2.074   3.055  0.3685 -0.9157 -0.4206
 7708TIP3    H223089   5.409   1.961   3.012 -0.7092 -0.0198 -0.5271
 7709TIP3   OH223090   3.298   4.248   0.277  0.1282  0.2234  0.5730
 7709TIP3    H123091   3.209   4.237   0.309  0.1542 -1.1921  0.2151
 7709TIP3    H223092   3.297   4.332   0.231 -1.3434 -0.3207 -0.4502
 7710TIP3   OH223093   4.658   1.423   4.460  0.2134  0.3373  0.4366
 7710TIP3    H123094   4.606   1.503   4.449  0.8539  0.4978 -1.8878
 7710TIP3    H223095   4.724   1.428   4.391  0.0956 -2.3386  0.0386
 7711TIP3   OH223096   2.749   5.167   0.303 -0.3733  0.2339 -0.3525
 7711TIP3    H123097   2.730   5.102   0.235 -0.9434 -0.9311  0.8632
 7711TIP3    H223098   2.672   5.224   0.304 -0.5731 -0.0296 -0.3983
 7712TIP3   OH223099   6.727   2.285   5.315 -0.1961  0.2018  0.4866
 7712TIP3    H123100   6.797   2.262   5.375 -0.2721 -0.2643  0.3979
 7712TIP3    H223101   6.693   2.201   5.284 -1.4593  0.3722  1.2987
 7713TIP3   OH223102   3.147   1.167   4.455 -0.0094 -0.6341 -0.0948
 7713TIP3    H123103   3.217   1.158   4.519 -0.6325 -0.2324  0.6454
 7713TIP3    H223104   3.072   1.199   4.504 -0.1483  0.8982 -1.2401
 7714TIP3   OH223105   5.010   1.921   0.910 -0.1083 -0.3330 -0.1297
 7714TIP3    H123106   4.969   1.956   0.989  0.5062 -0.9459  0.4774
 7714TIP3    H223107   4.980   1.830   0.905  0.0637 -0.3750 -0.4591
 7715TIP3   OH223108   3.309   0.438   0.203  0.2639  0.2012  0.3789
 7715TIP3    H123109   3.311   0.499   0.129 -0.3394 -0.0735  0.1294
 7715TIP3    H223110   3.340   0.490   0.278 -0.2452  0.8125  0.1724
 7716TIP3   OH223111   4.420   0.281   0.802 -0.0328  1.3428 -0.2163
 7716TIP3    H123112   4.415   0.301   0.709 -1.2728  1.2422 -0.1910
 7716TIP3    H223113   4.354   0.338   0.842  0.2695  1.1597  0.5560
 7717TIP3   OH223114   0.591   4.425   3.203 -0.0073  0.1796 -0.1265
 7717TIP3    H123115   0.510   4.458   3.243 -0.1158  0.7798 -0.8190
 7717TIP3    H223116   0.658   4.489   3.227  0.3334 -0.4563  0.6700
 7718TIP3   OH223117   0.044   3.806   5.795  0.1664  0.0939 -0.7175
 7718TIP3    H123118   0.105   3.880   5.792 -0.5665  0.7183 -0.5620
 7718TIP3    H223119   0.056   3.768   5.882  0.1333  0.3896 -0.5828
 7719TIP3   OH223120   2.871   4.329   3.000  0.1801  0.3071 -0.5522
 7719TIP3    H123121   2.859   4.421   3.023  2.2275  0.6045 -0.4604
 7719TIP3    H223122   2.921   4.292   3.072  0.9337 -0.4166 -1.4215
 7720TIP3   OH223123   6.899   1.196   3.345 -0.0248  0.3103 -0.0507
 7720TIP3    H123124   6.992   1.218   3.344 -0.0078  0.2552  0.3730
 7720TIP3    H223125   6.861   1.253   3.411 -0.5052  1.1493 -1.0112
 7721TIP3   OH223126   3.546   0.669   3.746  0.2602  0.6628 -0.0078
 7721TIP3    H123127   3.570   0.613   3.672 -1.2080  0.3188 -0.2639
 7721TIP3    H223128   3.519   0.751   3.706  0.6619  0.9141  0.2365
 7722TIP3   OH223129   2.618   2.984   3.457  0.0998  0.0758  0.8051
 7722TIP3    H123130   2.647   2.971   3.547  0.8201 -2.7167  0.2724
 7722TIP3    H223131   2.523   2.994   3.463  0.1763  0.2783  1.8858
 7723TIP3   OH223132   0.392   0.751   2.846 -0.1630 -0.4994  0.1931
 7723TIP3    H123133   0.341   0.808   2.788 -0.5751  0.2736  1.2976
 7723TIP3    H223134   0.382   0.663   2.808  0.5246  0.1293 -1.5626
 7724TIP3   OH223135   3.312   6.175   2.223  0.1058  0.0723 -0.0176
 7724TIP3    H123136   3.395   6.130   2.234 -0.2006 -0.2235  1.3112
 7724TIP3    H223137   3.331   6.267   2.245  0.4150  0.3314 -1.3040
 7725TIP3   OH223138   0.591   0.381   0.717 -0.2570  0.1221  0.0450
 7725TIP3    H123139   0.627   0.296   0.691 -1.3024 -0.3424  0.1037
 7725TIP3    H223140   0.504   0.362   0.752 -0.6580  1.2520 -0.2824
 7726TIP3   OH223141   0.887   4.280   3.460  0.4333  0.3992  0.2824
 7726TIP3    H123142   0.834   4.278   3.540  0.4959 -0.3538  0.3164
 7726TIP3    H223143   0.968   4.324   3.486  1.7045 -2.4045  1.4705
 7727TIP3   OH223144   0.474   3.393   2.703 -0.2268  0.1538  0.4498
 7727TIP3    H123145   0.455   3.432   2.788 -1.4637 -0.0036  0.2656
 7727TIP3    H223146   0.569   3.388   2.699 -0.1575 -1.1548  2.4339
 7728TIP3   OH223147   3.126   3.759   1.436 -0.4871  0.2036 -0.5857
 7728TIP3    H123148   3.039   3.733   1.467 -0.2352  2.5407  2.6942
 7728TIP3    H223149   3.109   3.837   1.383 -0.4629  0.3901 -0.3248
 7729TIP3   OH223150   1.726   2.712   1.298  0.0321  0.0736  0.3559
 7729TIP3    H123151   1.702   2.803   1.283 -2.2088 -0.4417  0.4043
 7729TIP3    H223152   1.667   2.663   1.240  0.4749 -1.3765  1.1013
 7730TIP3   OH223153   4.487   4.305   0.096 -0.4552  0.0448  0.0715
 7730TIP3    H123154   4.562   4.246   0.099 -0.2536  0.2699 -0.3501
 7730TIP3    H223155   4.422   4.265   0.154 -1.0378 -1.5878 -1.6107
 7731TIP3   OH223156   1.188   2.846   1.551 -0.0808  0.0053  0.4241
 7731TIP3    H123157   1.189   2.928   1.502 -0.1679 -0.2416  0.0069
 7731TIP3    H223158   1.241   2.864   1.628  0.1482  0.3619  0.1866
 7732TIP3   OH223159   2.158   4.907   0.116 -0.1355 -0.2849 -0.0410
 7732TIP3    H123160   2.099   4.839   0.084 -0.9900  1.1923 -1.7748
 7732TIP3    H223161   2.111   4.946   0.190 -1.6217  1.1232 -1.6285
 7733TIP3   OH223162   2.240   6.729   0.935  0.4579  0.1344 -0.5029
 7733TIP3    H123163   2.216   6.664   1.000  0.0393  2.1295  1.4434
 7733TIP3    H223164   2.161   6.739   0.881  0.6863 -1.2640 -1.1344
 7734TIP3   OH223165   5.038   1.671   2.680  0.0719  0.9707 -0.0209
 7734TIP3    H123166   4.957   1.668   2.730 -0.4667  1.5962 -0.8341
 7734TIP3    H223167   5.010   1.670   2.588  1.0290  0.1053 -0.3235
 7735TIP3   OH223168   3.504   2.019   0.851  0.5531  0.2668 -0.0837
 7735TIP3    H123169   3.458   1.936   0.865  1.5989 -0.0852  1.4704
 7735TIP3    H223170   3.563   2.027   0.925  1.1589  1.9649 -0.6951
 7736TIP3   OH223171   1.619   2.476   5.265  0.1852  0.0332  0.2934
 7736TIP3    H123172   1.673   2.419   5.319  0.0589 -1.3602 -0.9807
 7736TIP3    H223173   1.585   2.542   5.325  1.2734 -0.5533  1.5908
 7737TIP3   OH223174   1.752   6.284   5.586 -0.0780 -0.0510  0.2758
 7737TIP3    H123175   1.737   6.369   5.544 -1.6637  0.8306  2.4196
 7737TIP3    H223176   1.843   6.288   5.616  1.8409 -1.4751 -4.3622
 7738TIP3   OH223177   3.315   4.506   1.267  0.3163  0.6296  0.4810
 7738TIP3    H123178   3.269   4.430   1.303  0.6189 -0.0686 -0.5568
 7738TIP3    H223179   3.250   4.577   1.269  0.2090  0.5245  2.0065
 7739TIP3   OH223180   5.458   2.385   1.718  0.5492  0.0401 -0.0226
 7739TIP3    H123181   5.406   2.418   1.791  0.4825 -0.3725  0.1159
 7739TIP3    H223182   5.475   2.463   1.664  0.3318  0.2883  0.2625
 7740TIP3   OH223183   2.574   3.935   5.415 -0.0170  0.3210  0.2580
 7740TIP3    H123184   2.552   3.988   5.491  0.9291  1.7879 -0.4604
 7740TIP3    H223185   2.666   3.954   5.397  0.7818 -2.5597  0.7309
 7741TIP3   OH223186   4.421   0.099   2.280  0.2781 -0.3805 -0.3766
 7741TIP3    H123187   4.456   0.186   2.300  0.0949 -0.5323  0.6665
 7741TIP3    H223188   4.327   0.106   2.296  0.2682 -0.7819 -0.2441
 7742TIP3   OH223189   5.122   2.549   5.011  0.3941 -0.1075  0.1766
 7742TIP3    H123190   5.182   2.551   4.936 -0.9161 -1.5824 -0.9658
 7742TIP3    H223191   5.043   2.592   4.979  0.1077 -0.0097  1.0055
 7743TIP3   OH223192   1.106   5.523   0.327  0.5261 -0.6695  0.0522
 7743TIP3    H123193   1.126   5.482   0.243  1.3756  2.0476 -1.1837
 7743TIP3    H223194   1.173   5.590   0.337  0.6530 -1.1323  3.1393
 7744TIP3   OH223195   2.819   4.124   3.465 -0.4968  0.2785 -0.4394
 7744TIP3    H123196   2.833   4.214   3.492 -0.0312  0.1124 -0.1074
 7744TIP3    H223197   2.725   4.111   3.471 -0.3211 -0.3914  3.2887
 7745TIP3   OH223198   4.935   4.750   3.953 -0.1642  0.5044 -0.2487
 7745TIP3    H123199   4.869   4.713   4.012  1.7046 -2.1599  0.3429
 7745TIP3    H223200   4.923   4.702   3.871  1.1149 -0.1119 -0.0851
 7746TIP3   OH223201   2.925   2.520   0.621  0.3353  0.5474 -0.1151
 7746TIP3    H123202   2.916   2.510   0.716 -0.8279 -1.2803 -0.3773
 7746TIP3    H223203   2.840   2.552   0.592 -0.8530 -2.9136 -0.9482
 7747TIP3   OH223204   1.687   2.881   3.424  0.1832  0.1126 -0.0815
 7747TIP3    H123205   1.771   2.925   3.440 -0.5215  1.9163 -0.9763
 7747TIP3    H223206   1.691   2.802   3.476  3.6868 -1.4929 -2.3767
 7748TIP3   OH223207   5.150   3.628   1.424  0.0981 -0.0745  0.3797
 7748TIP3    H123208   5.234   3.618   1.379 -1.0921 -1.5054 -1.7056
 7748TIP3    H223209   5.127   3.540   1.452 -1.5778 -0.0850 -0.8617
 7749TIP3   OH223210   6.248   0.872   5.093 -0.1220  0.2441 -0.1434
 7749TIP3    H123211   6.173   0.816   5.072 -0.0261 -0.3257  0.9626
 7749TIP3    H223212   6.293   0.885   5.009 -1.0402 -0.0210 -0.6857
 7750TIP3   OH223213   4.402   6.371   0.292  0.6483 -0.5731 -0.3529
 7750TIP3    H123214   4.459   6.433   0.246  0.1668 -1.5166 -2.3228
 7750TIP3    H223215   4.461   6.323   0.350  1.3229  0.4962 -0.1146
 7751TIP3   OH223216   4.430   3.107   1.166  0.0127  0.2747 -0.8689
 7751TIP3    H123217   4.435   3.050   1.243  1.9687  1.6508  0.1138
 7751TIP3    H223218   4.350   3.158   1.179 -1.1659 -1.4138 -1.2131
 7752TIP3   OH223219   6.746   0.849   0.793 -0.1113 -0.3905  0.1890
 7752TIP3    H123220   6.670   0.839   0.737  0.5588  1.3783 -1.1181
 7752TIP3    H223221   6.713   0.832   0.882 -1.8896 -0.1485 -0.3931
 7753TIP3   OH223222   1.957   5.917   4.625 -0.1370 -0.6437 -0.0080
 7753TIP3    H123223   1.942   5.970   4.704 -0.3801 -1.4831  0.5276
 7753TIP3    H223224   1.873   5.915   4.580 -0.2239 -0.8619  0.1606
 7754TIP3   OH223225   7.001   1.690   4.876  0.4529  0.2837 -0.2038
 7754TIP3    H123226   6.982   1.778   4.844 -1.1972 -0.7089 -2.2375
 7754TIP3    H223227   7.043   1.647   4.801 -1.9640 -1.6378 -0.5800
 7755TIP3   OH223228   3.054   2.616   4.400  0.2998 -0.4420  0.5266
 7755TIP3    H123229   3.046   2.692   4.458  1.7717 -0.6009  0.9777
 7755TIP3    H223230   2.990   2.632   4.330  2.0359  2.3226 -0.5837
 7756TIP3   OH223231   3.281   4.014   2.841 -0.0482  0.4899  0.4094
 7756TIP3    H123232   3.271   3.999   2.747 -1.5184 -0.3810  0.6748
 7756TIP3    H223233   3.192   4.036   2.871  0.5858  1.7913  1.4346
 7757TIP3   OH223234   4.007   4.229   0.654  0.6667 -0.1535 -0.0829
 7757TIP3    H123235   4.068   4.291   0.694  1.5336 -0.3642 -1.0550
 7757TIP3    H223236   3.970   4.276   0.579  0.9564 -0.6299 -0.5304
 7758TIP3   OH223237   5.370   0.277   2.250 -0.3525  0.0435 -0.6210
 7758TIP3    H123238   5.421   0.308   2.325 -2.4419  0.3617  0.7669
 7758TIP3    H223239   5.418   0.200   2.219 -0.2061 -1.0526  2.0555
 7759TIP3   OH223240   6.146   3.389   0.469  0.3286  0.6774 -0.2755
 7759TIP3    H123241   6.205   3.457   0.437 -0.6345  0.5659 -2.4627
 7759TIP3    H223242   6.185   3.307   0.440  1.5615  0.1481  2.4761
 7760TIP3   OH223243   0.619   1.560   0.857  0.2728 -0.1601  0.1852
 7760TIP3    H123244   0.712   1.573   0.840  0.0917  1.2921  0.1613
 7760TIP3    H223245   0.593   1.492   0.795  1.0652  0.2828 -0.6630
 7761TIP3   OH223246   1.120   4.106   3.254 -0.5675  0.3112  0.0350
 7761TIP3    H123247   1.188   4.169   3.276  0.6673 -0.6777 -0.8197
 7761TIP3    H223248   1.043   4.160   3.235  0.3923  1.5558 -0.4887
 7762TIP3   OH223249   3.777   1.783   3.088 -1.0267  0.4604 -0.0666
 7762TIP3    H123250   3.770   1.759   2.996  0.4923 -0.4155  0.0145
 7762TIP3    H223251   3.687   1.798   3.116 -1.6850 -1.0967 -1.2236
 7763TIP3   OH223252   5.990   0.073   3.340  0.3222  0.2886 -0.3773
 7763TIP3    H123253   6.013   0.147   3.396  0.8232  1.5352 -2.1109
 7763TIP3    H223254   5.895   0.080   3.328  0.3917  0.7983 -0.6832
 7764TIP3   OH223255   6.335   5.272   5.472  0.6898 -0.1699  0.3043
 7764TIP3    H123256   6.285   5.202   5.428 -0.1056 -0.6707  1.9390
 7764TIP3    H223257   6.420   5.270   5.429  0.8283 -2.4439  0.5279
 7765TIP3   OH223258   5.916   2.974   1.621 -0.0575  0.2561 -0.2116
 7765TIP3    H123259   5.968   3.005   1.547  0.6806  0.0141  0.1862
 7765TIP3    H223260   5.981   2.958   1.690 -0.4269 -1.8845 -0.3010
 7766TIP3   OH223261   4.794   4.849   4.878  0.4955  0.8335 -0.1751
 7766TIP3    H123262   4.857   4.803   4.933  0.5402  1.4031  0.2605
 7766TIP3    H223263   4.717   4.861   4.934  0.2827  0.8084 -0.4589
 7767TIP3   OH223264   1.507   0.433   2.586 -0.0232  0.0710  0.7740
 7767TIP3    H123265   1.431   0.383   2.555  1.5366 -1.1938 -1.2903
 7767TIP3    H223266   1.516   0.409   2.678 -1.2084 -0.9687  0.6399
 7768TIP3   OH223267   6.704   0.707   2.365 -0.0592 -0.0509  0.3022
 7768TIP3    H123268   6.746   0.793   2.369 -3.0287  1.5325  0.3551
 7768TIP3    H223269   6.658   0.699   2.449 -1.1030 -0.9738 -0.3406
 7769TIP3   OH223270   6.415   5.001   3.859  0.6064  0.4512  0.2697
 7769TIP3    H123271   6.424   4.960   3.772 -2.1441 -2.6543  1.2271
 7769TIP3    H223272   6.495   4.975   3.905 -0.3226 -2.9044  0.3105
 7770TIP3   OH223273   6.683   6.662   4.985 -0.1672 -0.2945 -0.1222
 7770TIP3    H123274   6.651   6.642   5.073 -1.1186 -1.1079 -0.6315
 7770TIP3    H223275   6.768   6.619   4.979 -0.5788 -1.1491  0.0481
 7771TIP3   OH223276   1.496   3.735   3.461 -0.2386  0.7803 -0.2403
 7771TIP3    H123277   1.538   3.702   3.382  1.3116 -1.1600  1.2814
 7771TIP3    H223278   1.460   3.657   3.504  1.0311  1.4033  2.1058
 7772TIP3   OH223279   3.045   4.598   4.558 -0.1856 -0.1877  0.3601
 7772TIP3    H123280   2.961   4.617   4.515 -0.6389 -0.9914  0.8642
 7772TIP3    H223281   3.020   4.562   4.643  0.6918  0.3824  0.8663
 7773TIP3   OH223282   7.169   4.836   5.652 -0.1163 -0.0818 -0.1776
 7773TIP3    H123283   7.245   4.895   5.656 -0.5727  0.5852 -1.0725
 7773TIP3    H223284   7.134   4.848   5.564 -2.0452  0.5979  0.6388
 7774TIP3   OH223285   0.829   0.839   3.288  0.2767 -0.1860  0.4293
 7774TIP3    H123286   0.739   0.854   3.259 -0.3377 -1.3572  1.6432
 7774TIP3    H223287   0.855   0.758   3.245  0.4677 -0.2718  0.7045
 7775TIP3   OH223288   2.871   2.951   1.655  0.0369  0.3272  0.0344
 7775TIP3    H123289   2.921   2.896   1.594  1.9349  0.6410  1.2289
 7775TIP3    H223290   2.843   3.026   1.602  1.7124  0.6385 -0.4601
 7776TIP3   OH223291   4.953   2.695   4.108 -0.0601  0.1169 -0.0028
 7776TIP3    H123292   4.950   2.745   4.026  1.1465  1.6074  0.8113
 7776TIP3    H223293   4.891   2.740   4.165 -0.4818 -0.5774  0.0953
 7777TIP3   OH223294   6.744   4.074   3.428 -0.1056  0.4489 -0.3082
 7777TIP3    H123295   6.829   4.111   3.405  0.4065 -0.5886 -0.1428
 7777TIP3    H223296   6.724   4.112   3.514  1.1135 -0.7522  0.5465
 7778TIP3   OH223297   2.279   1.131   0.228  0.3987 -0.0120  0.2650
 7778TIP3    H123298   2.202   1.083   0.259  0.6494 -0.1959  0.5929
 7778TIP3    H223299   2.284   1.109   0.135 -0.2625  0.4242  0.1172
 7779TIP3   OH223300   3.109   0.798   2.743  0.0570 -0.2380  0.0227
 7779TIP3    H123301   3.202   0.802   2.766 -0.0997 -0.7842  0.7862
 7779TIP3    H223302   3.076   0.886   2.763  0.7513  0.5349 -1.9242
 7780TIP3   OH223303   5.206   3.137   4.799 -0.0450 -0.1024  0.1561
 7780TIP3    H123304   5.274   3.071   4.811  0.2439  0.5847  2.9421
 7780TIP3    H223305   5.252   3.214   4.768  0.0967 -0.2579 -0.0254
 7781TIP3   OH223306   3.253   0.917   2.128 -0.4006  0.1077  0.3247
 7781TIP3    H123307   3.304   0.845   2.165  1.8748  1.6934  0.4110
 7781TIP3    H223308   3.211   0.958   2.204  1.3538  1.1383  0.7837
 7782TIP3   OH223309   4.652   3.329   5.170 -0.1766  0.0400  0.1909
 7782TIP3    H123310   4.642   3.337   5.265 -0.8939  0.4979  0.0829
 7782TIP3    H223311   4.579   3.273   5.143 -1.2271  1.6194 -0.3424
 7783TIP3   OH223312   5.210   5.352   1.966  0.7810 -0.2098 -0.4808
 7783TIP3    H123313   5.132   5.358   2.021  1.3378  2.0974  0.1257
 7783TIP3    H223314   5.279   5.323   2.025  0.9618  0.3618 -0.4136
 7784TIP3   OH223315   5.293   3.414   4.725  0.0753 -0.8257  0.1583
 7784TIP3    H123316   5.345   3.424   4.805 -1.6779 -0.9583  1.3713
 7784TIP3    H223317   5.249   3.498   4.715  1.7555 -0.1048 -1.8297
 7785TIP3   OH223318   1.914   3.514   3.004 -0.0854  0.1324  0.0257
 7785TIP3    H123319   1.896   3.512   3.098 -1.8075  1.3606 -0.2285
 7785TIP3    H223320   1.840   3.562   2.967  0.9113  0.2706 -1.8834
 7786TIP3   OH223321   1.569   0.459   4.390 -0.3184 -0.4247 -0.3074
 7786TIP3    H123322   1.523   0.541   4.407  0.7338 -0.2280  1.9563
 7786TIP3    H223323   1.585   0.422   4.477  2.0387 -1.4573 -1.1058
 7787TIP3   OH223324   3.427   4.701   1.489 -0.3216  0.2871  0.3083
 7787TIP3    H123325   3.385   4.631   1.538  0.2142  0.9040  1.6873
 7787TIP3    H223326   3.362   4.726   1.423 -1.6996  0.4510  1.6532
 7788TIP3   OH223327   3.375   6.493   5.214  0.2001 -0.0060  0.3351
 7788TIP3    H123328   3.462   6.533   5.211 -0.3055  1.4263  2.4857
 7788TIP3    H223329   3.314   6.567   5.214 -0.8566 -0.7848  2.4184
 7789TIP3   OH223330   3.330   2.617   3.760 -0.0335 -0.4932 -0.7528
 7789TIP3    H123331   3.276   2.576   3.828  0.3159  0.5309  0.1465
 7789TIP3    H223332   3.363   2.543   3.709  2.3680 -1.5898  2.1437
 7790TIP3   OH223333   2.793   4.794   2.310 -0.0014 -0.1036  0.3056
 7790TIP3    H123334   2.806   4.816   2.402 -0.4974 -1.1062  0.6350
 7790TIP3    H223335   2.712   4.839   2.286  1.2775  1.9877 -0.3049
 7791TIP3   OH223336   3.809   0.952   0.380  0.0270 -0.1195  0.6175
 7791TIP3    H123337   3.745   0.881   0.372  0.6524 -0.5632 -0.7644
 7791TIP3    H223338   3.801   1.000   0.298  2.5540 -1.1518 -0.3380
 7792TIP3   OH223339   2.196   2.277   2.351  0.5056  0.3325 -0.2371
 7792TIP3    H123340   2.206   2.207   2.286  1.7037 -0.6894  0.9740
 7792TIP3    H223341   2.112   2.259   2.392  0.5639 -0.0905 -0.2967
 7793TIP3   OH223342   4.793   2.677   1.779 -0.8285 -0.4477  0.0603
 7793TIP3    H123343   4.809   2.608   1.844 -2.8491 -2.2312 -1.2137
 7793TIP3    H223344   4.856   2.659   1.709 -0.7148 -0.4105  0.1523
 7794TIP3   OH223345   1.337   2.933   2.274  0.5228  0.1208 -0.3146
 7794TIP3    H123346   1.423   2.943   2.232  1.2360 -1.5050  0.6781
 7794TIP3    H223347   1.294   2.864   2.225 -0.2111  0.8710 -0.7504
 7795TIP3   OH223348   3.391   3.625   0.318  0.4897 -0.0723  0.1787
 7795TIP3    H123349   3.378   3.717   0.294 -1.7740 -0.3942 -0.0395
 7795TIP3    H223350   3.318   3.579   0.278  0.9228 -1.8074  1.2640
 7796TIP3   OH223351   1.252   5.298   3.997  0.0051 -0.5248  0.3500
 7796TIP3    H123352   1.313   5.342   4.057 -0.4343 -1.2030  1.3334
 7796TIP3    H223353   1.306   5.272   3.923  0.4281  0.9738  0.0841
 7797TIP3   OH223354   2.349   4.280   4.023  0.0451 -0.0212  0.0627
 7797TIP3    H123355   2.388   4.250   4.105 -0.6509 -1.2009  0.0037
 7797TIP3    H223356   2.272   4.330   4.050  0.8028  1.1389  0.1466
 7798TIP3   OH223357   3.974   2.547   0.527  0.2917  0.1207 -0.0362
 7798TIP3    H123358   3.923   2.515   0.601 -0.7247  0.0149 -0.7684
 7798TIP3    H223359   3.914   2.542   0.452  0.9882  1.1348 -0.6852
 7799TIP3   OH223360   0.932   0.515   1.547 -0.2877 -0.6638  0.6141
 7799TIP3    H123361   1.006   0.571   1.569 -1.4332  1.9267 -1.4340
 7799TIP3    H223362   0.877   0.515   1.626 -0.0355  0.8251  0.8153
 7800TIP3   OH223363   0.936   4.863   3.598  0.1191 -0.5762 -0.1202
 7800TIP3    H123364   1.015   4.917   3.595  0.2330 -0.7284  0.1018
 7800TIP3    H223365   0.885   4.892   3.523 -0.5484  0.9351  0.8643
 7801TIP3   OH223366   2.107   5.973   4.408  0.2721 -0.8039  0.0102
 7801TIP3    H123367   2.186   5.923   4.427  0.4143 -1.1613 -1.3894
 7801TIP3    H223368   2.046   5.950   4.477  1.0561 -1.2975  0.5441
 7802TIP3   OH223369   0.430   5.479   4.473  0.8093  0.2553 -0.9789
 7802TIP3    H123370   0.507   5.433   4.438  0.4366 -0.7905 -0.4840
 7802TIP3    H223371   0.461   5.568   4.489  2.5258 -0.5994  1.0198
 7803TIP3   OH223372   2.231   0.994   4.699 -0.2664 -0.2937 -0.2393
 7803TIP3    H123373   2.162   1.060   4.700 -1.8678 -1.8817 -0.6448
 7803TIP3    H223374   2.264   0.994   4.789  0.2668  1.5183 -0.4035
 7804TIP3   OH223375   2.829   6.580   1.321 -0.0251 -0.2934  0.1396
 7804TIP3    H123376   2.813   6.609   1.231 -0.5962 -0.3515  0.2153
 7804TIP3    H223377   2.914   6.617   1.344 -0.4739  0.8549  0.0302
 7805TIP3   OH223378   5.959   0.698   2.140 -0.6475  0.7700  0.2411
 7805TIP3    H123379   6.027   0.761   2.163 -1.0974  0.9488  1.1029
 7805TIP3    H223380   5.939   0.652   2.221 -1.2249  0.3950 -0.0994
 7806TIP3   OH223381   3.177   0.935   0.352  0.2166 -0.0410 -0.3821
 7806TIP3    H123382   3.164   1.023   0.317 -2.1453 -0.4624 -0.7311
 7806TIP3    H223383   3.173   0.878   0.275 -0.8073 -0.6325  0.0811
 7807TIP3   OH223384   4.764   1.770   3.103  0.1472  0.2842 -0.0168
 7807TIP3    H123385   4.668   1.767   3.102  0.1719 -0.5709 -0.2255
 7807TIP3    H223386   4.790   1.697   3.160  0.7082 -0.7547 -1.5345
 7808TIP3   OH223387   5.681   1.074   2.583  0.2614 -0.1143  0.4221
 7808TIP3    H123388   5.682   1.005   2.516 -1.8691  0.3884 -0.1855
 7808TIP3    H223389   5.675   1.027   2.666  0.7610 -0.6918  0.1371
 7809TIP3   OH223390   6.192   0.352   2.708  0.9734  0.5121  0.4417
 7809TIP3    H123391   6.150   0.305   2.781  2.1989 -0.0770  0.7898
 7809TIP3    H223392   6.277   0.378   2.743  1.7402 -0.1156 -0.8962
 7810TIP3   OH223393   0.400   1.067   1.065  0.3636 -0.3750  0.1349
 7810TIP3    H123394   0.310   1.099   1.068  0.5354  0.0287  2.0051
 7810TIP3    H223395   0.410   1.032   0.976 -1.3683  0.3043 -0.3651
 7811TIP3   OH223396   0.458   1.976   2.878  0.1107  0.2566  0.6057
 7811TIP3    H123397   0.456   2.071   2.862  3.4781  0.3956  0.3410
 7811TIP3    H223398   0.477   1.938   2.792  0.5497 -0.4831  1.0228
 7812TIP3   OH223399   3.628   6.051   3.287  0.0786 -0.5445 -0.0067
 7812TIP3    H123400   3.658   6.127   3.338 -1.0784  0.0869 -0.2376
 7812TIP3    H223401   3.706   5.996   3.279  0.5804 -0.1124  1.4602
 7813TIP3   OH223402   0.531   4.092   1.832  0.1068 -0.0758 -0.0040
 7813TIP3    H123403   0.525   4.068   1.740 -0.6241 -0.3175  0.0985
 7813TIP3    H223404   0.464   4.039   1.875  0.6845 -0.2384  0.7239
 7814TIP3   OH223405   6.711   3.809   4.983  0.3428 -0.4283  0.3889
 7814TIP3    H123406   6.732   3.722   5.017 -0.2280 -0.7581 -0.0891
 7814TIP3    H223407   6.778   3.866   5.020 -0.9064 -0.5366  3.1285
 7815TIP3   OH223408   4.157   4.216   5.646  0.4138  0.1280 -0.1535
 7815TIP3    H123409   4.086   4.166   5.685 -0.2671  0.8001 -0.5034
 7815TIP3    H223410   4.220   4.150   5.616 -0.2005 -0.4863 -0.1164
 7816TIP3   OH223411   4.541   3.345   0.399  0.1037 -0.3647 -0.1134
 7816TIP3    H123412   4.465   3.397   0.374  0.6945  0.7192  0.3124
 7816TIP3    H223413   4.514   3.302   0.481  0.8275  2.1094  1.5161
 7817TIP3   OH223414   4.466   5.610   0.901 -0.5323 -0.5389  0.6370
 7817TIP3    H123415   4.559   5.632   0.907 -0.5576 -0.4529  0.7314
 7817TIP3    H223416   4.459   5.553   0.824 -0.2437 -1.3829  1.2197
 7818TIP3   OH223417   5.766   4.720   0.611 -0.1911 -0.0569 -0.0905
 7818TIP3    H123418   5.820   4.691   0.537  0.6027 -0.1713  0.5170
 7818TIP3    H223419   5.676   4.705   0.582  0.1538 -2.1523 -0.2123
 7819TIP3   OH223420   3.520   4.195   4.101 -0.6883 -0.2176  0.1176
 7819TIP3    H123421   3.469   4.257   4.153 -0.2760 -0.5354  0.9209
 7819TIP3    H223422   3.550   4.246   4.025 -0.7376  0.4417  0.5304
 7820TIP3   OH223423   6.250   6.242   2.924  0.1526  0.1686  0.5016
 7820TIP3    H123424   6.216   6.198   3.002  1.3907 -0.8023  0.5311
 7820TIP3    H223425   6.281   6.326   2.957 -0.8551  0.4715  0.7285
 7821TIP3   OH223426   4.988   2.990   0.612  0.1156 -0.4591 -0.1540
 7821TIP3    H123427   5.040   2.910   0.601  0.8845  0.0846 -0.5812
 7821TIP3    H223428   4.931   2.992   0.535  0.9874  0.0323 -0.8170
 7822TIP3   OH223429   6.545   6.474   4.210  0.4967  0.6587 -0.2089
 7822TIP3    H123430   6.520   6.439   4.124  1.2639  1.6640 -0.8544
 7822TIP3    H223431   6.464   6.469   4.262  0.5187 -2.0069 -0.2480
 7823TIP3   OH223432   6.109   2.576   2.086 -0.3404 -0.1265  0.1572
 7823TIP3    H123433   6.138   2.666   2.099  0.6346 -0.3767 -0.2026
 7823TIP3    H223434   6.164   2.543   2.015 -0.9397 -0.8930  0.0350
 7824TIP3   OH223435   4.212   5.768   2.402 -0.1701 -0.1227  0.5071
 7824TIP3    H123436   4.138   5.799   2.349  0.0968  0.5994  0.5442
 7824TIP3    H223437   4.276   5.839   2.397 -0.1894  0.0153  1.9163
 7825TIP3   OH223438   0.199   4.535   0.566  0.3667 -0.5681 -0.6142
 7825TIP3    H123439   0.195   4.567   0.656  0.1834 -0.4254 -0.6726
 7825TIP3    H223440   0.135   4.463   0.564  0.6330 -0.8101 -0.5360
 7826TIP3   OH223441   0.578   6.079   2.433 -0.5840 -0.8421  0.5371
 7826TIP3    H123442   0.612   6.154   2.384  0.9910 -1.6194  0.4023
 7826TIP3    H223443   0.486   6.101   2.448 -0.7321  0.1111 -1.4286
 7827TIP3   OH223444   6.741   5.452   4.681  0.0110  0.0013  0.0261
 7827TIP3    H123445   6.700   5.524   4.728  0.4945  1.0458 -1.0791
 7827TIP3    H223446   6.696   5.374   4.712 -2.0171  0.9777 -0.2590
 7828TIP3   OH223447   0.067   4.006   2.285  0.1079  0.0301  0.2743
 7828TIP3    H123448   0.017   3.930   2.315  0.0601 -0.4906 -1.0748
 7828TIP3    H223449   0.069   3.998   2.190  0.5147  1.4696  0.1319
 7829TIP3   OH223450   0.449   4.557   4.961 -0.2198  0.2916 -0.1076
 7829TIP3    H123451   0.530   4.591   4.922 -0.1076  1.2772  0.9272
 7829TIP3    H223452   0.450   4.464   4.940  0.9663  0.3671 -0.4860
 7830TIP3   OH223453   3.136   2.271   5.272  0.0646 -0.0369 -0.2313
 7830TIP3    H123454   3.159   2.342   5.212 -0.6779  0.7301  0.3689
 7830TIP3    H223455   3.040   2.275   5.278  0.1550  0.2425  1.3879
 7831TIP3   OH223456   1.967   4.955   5.619 -0.2215  0.6477 -0.7293
 7831TIP3    H123457   2.053   4.963   5.577  0.2396  2.1894  0.4059
 7831TIP3    H223458   1.923   5.038   5.599 -0.9637  0.3671 -0.2799
 7832TIP3   OH223459   0.175   2.238   2.151 -0.5527 -0.2590 -0.0825
 7832TIP3    H123460   0.178   2.147   2.179  0.3699 -0.7752 -1.7107
 7832TIP3    H223461   0.186   2.234   2.056  1.1513  1.6203 -0.0318
 7833TIP3   OH223462   2.339   0.876   2.780 -0.1645  0.1385 -0.1396
 7833TIP3    H123463   2.313   0.861   2.871  2.9580  0.7883  0.9560
 7833TIP3    H223464   2.261   0.915   2.739 -2.3324 -2.0011  1.6253
 7834TIP3   OH223465   3.731   6.626   0.191  0.0940  0.8681  0.2403
 7834TIP3    H123466   3.689   6.693   0.138 -0.4379  2.0390  2.0267
 7834TIP3    H223467   3.825   6.640   0.178 -0.0072  0.2053 -1.4289
 7835TIP3   OH223468   2.875   4.380   0.795 -0.2732 -0.1728 -0.1648
 7835TIP3    H123469   2.790   4.415   0.769 -0.2653 -0.0848 -0.0723
 7835TIP3    H223470   2.856   4.291   0.825 -0.4324  0.0730  0.4766
 7836TIP3   OH223471   5.091   6.603   3.176  0.1075  0.5837  0.8007
 7836TIP3    H123472   5.182   6.575   3.165 -0.2321 -0.9242  1.5733
 7836TIP3    H223473   5.069   6.577   3.265 -0.6542  2.2412  1.1275
 7837TIP3   OH223474   3.189   3.043   0.640 -1.0538  0.5477 -0.2603
 7837TIP3    H123475   3.178   2.964   0.692  1.1558  0.7693  0.6479
 7837TIP3    H223476   3.121   3.103   0.672 -1.5552 -0.3211  0.3328
 7838TIP3   OH223477   1.018   0.640   0.302  0.1411  0.3720 -0.1303
 7838TIP3    H123478   1.043   0.718   0.252  1.4073  0.1570  0.1402
 7838TIP3    H223479   1.016   0.669   0.393 -3.2086  1.0401 -0.2804
 7839TIP3   OH223480   5.168   4.943   1.759  0.0248  0.0128  0.1515
 7839TIP3    H123481   5.178   4.963   1.852  1.5005 -0.3198  0.1006
 7839TIP3    H223482   5.200   5.021   1.714 -0.3938  0.0537 -0.0787
 7840TIP3   OH223483   3.280   1.431   0.133  0.3448  0.7680  0.1180
 7840TIP3    H123484   3.327   1.484   0.068  0.7738  1.3411  0.8790
 7840TIP3    H223485   3.275   1.487   0.211 -1.6193  0.7420  0.0752
 7841TIP3   OH223486   0.875   2.665   0.705  0.1876  0.5792 -0.1483
 7841TIP3    H123487   0.798   2.709   0.741 -1.6533 -2.2624 -0.2905
 7841TIP3    H223488   0.849   2.639   0.617  0.8441 -1.3941  0.1870
 7842TIP3   OH223489   3.710   2.391   0.986  0.5137 -0.0300  0.2738
 7842TIP3    H123490   3.710   2.441   1.067  0.4265 -0.2175  0.3902
 7842TIP3    H223491   3.739   2.303   1.011 -0.0523 -0.2420  0.2017
 7843TIP3   OH223492   1.619   2.131   4.798 -0.2126 -0.1340 -0.1263
 7843TIP3    H123493   1.564   2.133   4.719 -0.2741  0.6623 -0.0675
 7843TIP3    H223494   1.578   2.193   4.858  0.9089  0.7149 -0.1960
 7844TIP3   OH223495   6.124   4.153   3.495  0.4476 -0.2268 -0.2926
 7844TIP3    H123496   6.072   4.160   3.575  0.6372  0.3251 -0.2138
 7844TIP3    H223497   6.062   4.171   3.424  0.3161 -0.5536 -0.2631
 7845TIP3   OH223498   2.658   0.869   5.819  0.2292 -0.0547  0.1418
 7845TIP3    H123499   2.565   0.858   5.841  0.5195 -0.2814  1.3328
 7845TIP3    H223500   2.705   0.830   5.893  1.2805 -0.0925 -0.5235
 7846TIP3   OH223501   6.104   3.460   1.028 -0.5995 -0.1534  0.2542
 7846TIP3    H123502   6.158   3.421   0.960 -0.6155 -1.8603  1.1796
 7846TIP3    H223503   6.021   3.413   1.023 -0.3813 -0.7853  1.8394
 7847TIP3   OH223504   6.222   3.302   2.533  0.0957 -0.2234 -0.0162
 7847TIP3    H123505   6.209   3.209   2.514 -0.6887 -0.4428  1.4370
 7847TIP3    H223506   6.261   3.338   2.454  0.1360 -1.7336 -0.7076
 7848TIP3   OH223507   0.086   6.378   0.978 -0.3264  0.4416  0.5468
 7848TIP3    H123508  -0.008   6.362   0.975 -0.6205  2.0856 -0.0895
 7848TIP3    H223509   0.099   6.457   0.926  1.3900  0.3696  0.7858
 7849TIP3   OH223510   3.416   0.689   2.209  0.2271 -0.3277  0.6132
 7849TIP3    H123511   3.430   0.632   2.285  0.2176 -1.2425 -0.0597
 7849TIP3    H223512   3.499   0.734   2.198  0.2526 -0.2373  1.1172
 7850TIP3   OH223513   0.097   6.483   1.741 -0.6465 -0.0930  0.2692
 7850TIP3    H123514   0.043   6.431   1.799 -1.2608 -0.2172 -0.4101
 7850TIP3    H223515   0.096   6.437   1.657 -2.1740  1.5809 -0.7035
 7851TIP3   OH223516   3.049   5.414   4.531 -0.6899 -0.4001  0.0161
 7851TIP3    H123517   3.086   5.466   4.602 -0.0761 -2.1373  1.0194
 7851TIP3    H223518   3.105   5.433   4.455  0.3043 -0.5610  0.6931
 7852TIP3   OH223519   0.609   1.655   1.682 -0.2932  0.0504 -0.0812
 7852TIP3    H123520   0.613   1.684   1.591  0.8794  3.0260  0.8171
 7852TIP3    H223521   0.545   1.584   1.681  0.0129 -0.3427 -3.2752
 7853TIP3   OH223522   0.194   5.153   3.488 -0.2848  0.5591  0.1796
 7853TIP3    H123523   0.196   5.236   3.440 -1.5081  0.5227  0.0237
 7853TIP3    H223524   0.159   5.177   3.575  1.3046  0.5218  0.8532
 7854TIP3   OH223525   6.758   6.427   5.754  0.1227 -0.5173 -0.6282
 7854TIP3    H123526   6.671   6.388   5.764  0.0074 -0.3757 -1.0349
 7854TIP3    H223527   6.742   6.507   5.704  0.2827  0.3242  0.6120
 7855TIP3   OH223528   4.170   1.007   3.083  0.1142  0.5127 -0.2896
 7855TIP3    H123529   4.213   1.089   3.108  0.8524 -0.0317  0.2910
 7855TIP3    H223530   4.241   0.942   3.082 -0.6709 -0.4204  0.7256
 7856TIP3   OH223531   6.025   4.105   3.014 -0.6312  0.3647 -0.0172
 7856TIP3    H123532   5.944   4.125   3.061 -2.2177  0.1522 -2.4697
 7856TIP3    H223533   5.996   4.062   2.934  2.0687 -1.5628 -0.0735
 7857TIP3   OH223534   6.302   0.380   5.815 -0.2068 -0.7737  0.1503
 7857TIP3    H123535   6.268   0.374   5.905  0.1786  1.3983  0.4961
 7857TIP3    H223536   6.396   0.368   5.824  0.0049  0.7805  0.2613
 7858TIP3   OH223537   6.624   3.823   2.449 -0.0141  0.4727 -0.3252
 7858TIP3    H123538   6.579   3.753   2.402  1.9183 -1.5083  0.5656
 7858TIP3    H223539   6.694   3.851   2.390  0.0233  0.7321 -0.1592
 7859TIP3   OH223540   2.575   6.623   2.660  0.3535 -0.5123  0.1335
 7859TIP3    H123541   2.537   6.642   2.575 -0.6683  0.9365  0.8642
 7859TIP3    H223542   2.669   6.634   2.649  0.4031 -1.9356 -1.1707
 7860TIP3   OH223543   2.903   2.224   4.328  0.0979  0.4208 -0.3433
 7860TIP3    H123544   2.960   2.270   4.390 -0.7970  1.1923 -0.0662
 7860TIP3    H223545   2.903   2.133   4.357 -1.5204  1.0222  1.7950
 7861TIP3   OH223546   2.419   5.547   5.842 -0.5557  0.7980  0.0852
 7861TIP3    H123547   2.447   5.489   5.772  0.7985  3.3081 -1.6257
 7861TIP3    H223548   2.329   5.571   5.819 -0.8319  0.0309  0.3555
 7862TIP3   OH223549   2.999   3.333   1.842 -0.3565 -0.0857  0.0519
 7862TIP3    H123550   3.018   3.240   1.851 -0.3648 -0.0041  1.0167
 7862TIP3    H223551   2.927   3.349   1.903 -0.5815  0.4862 -0.3539
 7863TIP3   OH223552   7.113   6.149   2.865  0.4297 -0.0882  0.1459
 7863TIP3    H123553   7.088   6.196   2.945 -1.6705  0.2868 -0.6512
 7863TIP3    H223554   7.142   6.063   2.896  1.5504  0.7137  1.4241
 7864TIP3   OH223555   3.427   1.000   5.486 -0.2472  0.3793  1.0605
 7864TIP3    H123556   3.334   1.020   5.481 -0.4051 -0.1546  1.7790
 7864TIP3    H223557   3.467   1.053   5.417 -1.1096  0.4415  0.5988
 7865TIP3   OH223558   5.774   6.126   4.617  0.3161 -0.3316 -0.1464
 7865TIP3    H123559   5.737   6.133   4.529 -0.4193 -0.3347  0.1598
 7865TIP3    H223560   5.865   6.099   4.602 -0.5061 -2.9864 -0.8207
 7866TIP3   OH223561   0.856   4.301   0.478  0.1895  0.1310  0.1230
 7866TIP3    H123562   0.811   4.361   0.420  0.3837 -0.1151 -0.2859
 7866TIP3    H223563   0.848   4.215   0.436 -1.4671 -0.4439  1.4679
 7867TIP3   OH223564   1.272   6.592   4.140 -0.6191  0.2150  0.0225
 7867TIP3    H123565   1.343   6.564   4.083 -1.3771 -1.6909 -0.0565
 7867TIP3    H223566   1.260   6.685   4.119 -0.2916 -0.2005 -2.2958
 7868TIP3   OH223567   4.351   4.659   3.874 -0.3237  0.1998 -0.1263
 7868TIP3    H123568   4.307   4.653   3.959 -0.6724 -0.7182 -0.3641
 7868TIP3    H223569   4.282   4.640   3.810  0.2677 -0.5842 -0.5391
 7869TIP3   OH223570   3.372   0.165   2.955 -0.2902 -0.4226  0.3023
 7869TIP3    H123571   3.316   0.158   2.878  1.9562 -0.5703 -1.4328
 7869TIP3    H223572   3.387   0.075   2.983 -2.4091 -0.3192  2.0160
 7870TIP3   OH223573   0.197   2.271   0.511  0.5881 -0.3924 -0.1996
 7870TIP3    H123574   0.175   2.263   0.418 -0.3152  1.1296 -0.1402
 7870TIP3    H223575   0.287   2.237   0.517  0.5640 -0.7609 -1.5623
 7871TIP3   OH223576   5.625   1.221   2.288  0.4505 -0.0491 -0.9201
 7871TIP3    H123577   5.639   1.148   2.349  0.5299  0.4344 -0.3542
 7871TIP3    H223578   5.533   1.213   2.263  0.6556 -0.7973 -1.4595
 7872TIP3   OH223579   4.669   3.409   0.044  0.0001  0.1394  0.3253
 7872TIP3    H123580   4.763   3.420   0.038 -0.1202  0.9725 -0.0932
 7872TIP3    H223581   4.642   3.467   0.116 -0.1306 -0.5284  0.8326
 7873TIP3   OH223582   4.726   1.276   4.656  0.1992 -0.2805  0.0804
 7873TIP3    H123583   4.698   1.336   4.587 -1.8415 -0.1427  0.9355
 7873TIP3    H223584   4.798   1.226   4.618 -0.0756  0.6218 -1.7071
 7874TIP3   OH223585   4.103   1.229   0.041 -0.0072  0.1384  0.5127
 7874TIP3    H123586   4.051   1.308   0.027 -1.7228 -0.5476  2.5533
 7874TIP3    H223587   4.165   1.253   0.111  0.5363  0.1115  0.0510
 7875TIP3   OH223588   0.047   4.298   5.858 -0.2317 -0.3392  0.4106
 7875TIP3    H123589   0.023   4.301   5.766 -2.3352  1.7447  0.9472
 7875TIP3    H223590   0.022   4.211   5.887 -0.2917 -0.7353 -0.7937
 7876TIP3   OH223591   1.341   2.296   1.035 -0.8403  0.2410  0.0704
 7876TIP3    H123592   1.301   2.339   1.110 -1.8048  1.3251 -1.0223
 7876TIP3    H223593   1.338   2.361   0.965  0.3369 -0.6221 -0.8276
 7877TIP3   OH223594   2.203   5.866   4.161  0.2901 -0.0300  0.1753
 7877TIP3    H123595   2.290   5.860   4.123  0.4893 -0.0859  0.6429
 7877TIP3    H223596   2.216   5.904   4.247 -0.2231  0.6029 -0.0182
 7878TIP3   OH223597   5.490   2.726   3.601  0.3552 -0.4373  0.1764
 7878TIP3    H123598   5.407   2.692   3.634 -0.9772 -0.0879 -2.5085
 7878TIP3    H223599   5.555   2.661   3.628 -0.8362 -0.9610  1.9499
 7879TIP3   OH223600   3.745   0.200   2.815 -0.7460  0.5243  0.4914
 7879TIP3    H123601   3.775   0.252   2.740  1.9614 -2.7550 -0.9476
 7879TIP3    H223602   3.803   0.226   2.887 -0.4044  0.5600  0.2068
 7880TIP3   OH223603   4.735   4.063   1.375  0.0320  0.0982  0.0385
 7880TIP3    H123604   4.733   4.066   1.471  0.4442 -0.3635  0.0647
 7880TIP3    H223605   4.826   4.080   1.352 -0.0088 -0.0768 -0.2577
 7881TIP3   OH223606   2.111   5.667   1.775  0.1956 -0.2111 -0.3052
 7881TIP3    H123607   2.165   5.629   1.845  2.3986 -0.1654 -1.8777
 7881TIP3    H223608   2.040   5.604   1.763  0.8880 -1.2118  0.6397
 7882TIP3   OH223609   6.977   2.578   4.065 -0.6202  0.4731  0.8286
 7882TIP3    H123610   6.993   2.661   4.021 -1.3360  0.3986  0.4194
 7882TIP3    H223611   6.984   2.599   4.158 -0.9345  1.0282  0.7332
 7883TIP3   OH223612   5.408   6.570   2.531  0.0895  0.2824 -0.1989
 7883TIP3    H123613   5.314   6.570   2.512  0.1988 -1.4536 -0.9261
 7883TIP3    H223614   5.444   6.640   2.477 -0.5450 -0.2646 -1.3733
 7884TIP3   OH223615   6.627   4.145   2.798 -0.1994  0.3504 -0.0154
 7884TIP3    H123616   6.710   4.104   2.773 -0.2220  0.2891  0.0100
 7884TIP3    H223617   6.564   4.114   2.734 -0.6333 -1.1612  1.0812
 7885TIP3   OH223618   2.027   6.756   5.839  0.0176 -1.0781 -0.5462
 7885TIP3    H123619   1.988   6.670   5.854 -2.3687  0.0504  0.0929
 7885TIP3    H223620   2.004   6.778   5.749 -0.6599 -0.4957 -0.2361
 7886TIP3   OH223621   2.121   2.133   1.878 -0.1810 -0.3608  0.1285
 7886TIP3    H123622   2.171   2.165   1.954 -1.5565  0.8331  0.5838
 7886TIP3    H223623   2.162   2.176   1.803  0.1740 -0.2592  0.3791
 7887TIP3   OH223624   7.204   2.901   5.524  0.2287  0.4999 -0.2879
 7887TIP3    H123625   7.253   2.820   5.506  0.5210  0.8660 -1.2056
 7887TIP3    H223626   7.182   2.896   5.617 -1.4921 -1.6018 -0.7170
 7888TIP3   OH223627   3.984   3.696   2.755 -0.9293 -0.5606 -0.0929
 7888TIP3    H123628   4.009   3.733   2.671  0.2931  0.0947  0.5239
 7888TIP3    H223629   3.996   3.768   2.817  0.2781 -1.6151  0.9464
 7889TIP3   OH223630   1.044   4.669   1.515 -0.0391 -0.1621 -0.0809
 7889TIP3    H123631   0.989   4.635   1.585  0.5812 -0.2037  0.3909
 7889TIP3    H223632   1.133   4.667   1.550  0.4387 -1.2918 -1.2854
 7890TIP3   OH223633   4.851   0.438   0.945 -0.3783  0.4946  0.1509
 7890TIP3    H123634   4.796   0.378   0.893  0.2338 -0.8789  1.0156
 7890TIP3    H223635   4.903   0.485   0.880 -0.6347 -0.1651 -0.5528
 7891TIP3   OH223636   3.779   2.058   4.324 -0.6521 -0.4107  0.4212
 7891TIP3    H123637   3.718   2.088   4.391 -1.3822 -2.3853  0.7181
 7891TIP3    H223638   3.723   2.033   4.250 -0.0877 -0.8863  0.1454
 7892TIP3   OH223639   1.357   2.543   3.395 -0.6251  0.3512 -0.4702
 7892TIP3    H123640   1.264   2.552   3.375 -1.0698 -0.8574  0.9026
 7892TIP3    H223641   1.377   2.451   3.375 -0.0988  0.2121  0.6341
 7893TIP3   OH223642   6.702   3.036   1.092 -0.3101 -0.2525  0.5065
 7893TIP3    H123643   6.781   3.091   1.092 -0.3099 -0.2218  1.9679
 7893TIP3    H223644   6.723   2.965   1.153 -0.9653 -0.9196 -0.0349
 7894TIP3   OH223645   6.939   3.719   3.530 -0.2838 -0.1985  0.8181
 7894TIP3    H123646   6.849   3.739   3.556 -0.3022 -0.2185  0.7701
 7894TIP3    H223647   6.994   3.765   3.594 -0.3149  0.6281  0.2651
 7895TIP3   OH223648   0.271   1.322   3.207  0.0041  0.3690  0.0851
 7895TIP3    H123649   0.231   1.368   3.134 -0.5853  2.0158  1.3820
 7895TIP3    H223650   0.299   1.391   3.267  0.2375 -0.9286  1.5508
 7896TIP3   OH223651   2.192   2.615   1.331 -0.0797  0.4371  0.2582
 7896TIP3    H123652   2.153   2.609   1.418 -0.7878 -0.2773 -0.0868
 7896TIP3    H223653   2.130   2.568   1.274  1.5329 -1.2124 -0.2320
 7897TIP3   OH223654   3.586   4.821   4.500 -0.2873 -0.4010 -0.1887
 7897TIP3    H123655   3.531   4.746   4.475 -0.0476 -0.1147 -1.6820
 7897TIP3    H223656   3.528   4.877   4.552 -0.2701 -1.9232  1.5911
 7898TIP3   OH223657   2.141   2.936   3.988 -0.3427  0.1895  0.2505
 7898TIP3    H123658   2.089   2.870   3.942 -1.9208  0.2865  1.7852
 7898TIP3    H223659   2.123   2.920   4.081  1.3624  1.0873  0.7734
 7899TIP3   OH223660   1.814   5.176   5.535  0.0091 -0.3690  0.1077
 7899TIP3    H123661   1.741   5.153   5.479  1.1895 -1.3786 -1.1021
 7899TIP3    H223662   1.843   5.262   5.504  0.3698 -0.7188 -0.5408
 7900TIP3   OH223663   2.470   1.804   4.046 -0.0437  0.2395 -0.4125
 7900TIP3    H123664   2.396   1.782   4.102  0.3449  1.8952  0.8288
 7900TIP3    H223665   2.508   1.882   4.086 -0.7301  2.5947 -3.9165
 7901TIP3   OH223666   5.040   2.983   0.261  0.2796 -0.2016  0.1100
 7901TIP3    H123667   5.046   3.078   0.263  0.9969 -0.2045 -1.0068
 7901TIP3    H223668   4.953   2.964   0.296  0.0059  0.8760  0.0553
 7902TIP3   OH223669   5.080   0.622   5.610  0.0630 -0.2607 -0.2565
 7902TIP3    H123670   5.057   0.529   5.600 -2.5120  0.3722 -1.0888
 7902TIP3    H223671   5.063   0.660   5.524  0.7696  1.0537  0.1556
 7903TIP3   OH223672   5.480   4.673   3.746  0.2532  0.1251 -0.0986
 7903TIP3    H123673   5.484   4.723   3.664 -1.8206 -1.6980 -1.4095
 7903TIP3    H223674   5.389   4.680   3.774  0.7604  0.0847  1.6937
 7904TIP3   OH223675   5.485   0.705   4.000 -0.5813 -0.1974  0.1092
 7904TIP3    H123676   5.418   0.701   3.932 -0.3035  1.4104 -0.2878
 7904TIP3    H223677   5.476   0.791   4.039 -1.5147 -1.4718  2.9797
 7905TIP3   OH223678   2.196   5.570   3.899 -0.2884 -0.1436 -0.4822
 7905TIP3    H123679   2.285   5.563   3.935 -0.8234  1.7775  1.3529
 7905TIP3    H223680   2.158   5.483   3.914  0.8524 -0.6018 -0.0989
 7906TIP3   OH223681   3.312   5.943   1.846  0.5209  0.1398 -0.0519
 7906TIP3    H123682   3.261   5.923   1.768  0.9297 -0.3635 -0.1971
 7906TIP3    H223683   3.287   6.032   1.870 -1.1268 -0.4150  0.4171
 7907TIP3   OH223684   5.210   1.713   3.068  0.3981  0.1691 -0.3080
 7907TIP3    H123685   5.203   1.621   3.095 -0.4708  0.2939 -0.0949
 7907TIP3    H223686   5.298   1.720   3.031 -0.9673 -1.8887 -4.5379
 7908TIP3   OH223687   5.840   4.975   3.860  0.0396 -0.3511 -0.3613
 7908TIP3    H123688   5.927   4.945   3.833 -0.4089 -1.6802 -0.4014
 7908TIP3    H223689   5.796   4.896   3.891  0.1450  0.8780  3.3169
 7909TIP3   OH223690   3.555   5.494   5.714 -0.2817  0.2301  0.0057
 7909TIP3    H123691   3.463   5.467   5.714 -1.1473  2.8897 -0.0565
 7909TIP3    H223692   3.577   5.503   5.622 -0.3438  0.6950  0.0316
 7910TIP3   OH223693   1.632   3.318   2.970  0.4390  0.4420  0.1092
 7910TIP3    H123694   1.623   3.338   3.064  0.0901 -1.7306  0.5741
 7910TIP3    H223695   1.589   3.392   2.926 -1.9175  0.1460  1.7430
 7911TIP3   OH223696   5.185   4.034   0.387  0.0542 -0.7140 -0.5131
 7911TIP3    H123697   5.124   4.001   0.453  0.6099 -1.5608 -0.4088
 7911TIP3    H223698   5.265   3.983   0.400  1.2709  1.3052  0.2368
 7912TIP3   OH223699   1.495   0.693   5.041  0.7497 -0.0399 -0.4944
 7912TIP3    H123700   1.408   0.668   5.071  0.9863 -2.0089 -1.2835
 7912TIP3    H223701   1.501   0.786   5.060 -0.8863 -0.2019  1.1068
 7913TIP3   OH223702   7.030   6.408   5.527  0.3284  0.5005  0.0417
 7913TIP3    H123703   6.939   6.392   5.504  1.0622 -3.0545 -1.1232
 7913TIP3    H223704   7.027   6.446   5.615 -2.2432  0.7176 -0.0760
 7914TIP3   OH223705   5.639   3.472   3.175  0.2075 -0.4956 -0.5747
 7914TIP3    H123706   5.545   3.458   3.189  0.2905 -1.0314 -0.5579
 7914TIP3    H223707   5.673   3.387   3.148  1.1423 -0.9676  1.7808
 7915TIP3   OH223708   3.168   3.461   2.934  0.3322  0.3977  0.2196
 7915TIP3    H123709   3.221   3.414   2.869  0.1188  0.0965  0.2631
 7915TIP3    H223710   3.212   3.545   2.944 -1.0654  1.5265 -2.2372
 7916TIP3   OH223711   0.411   5.914   0.712 -0.2367  0.0635  0.2453
 7916TIP3    H123712   0.326   5.874   0.726 -0.5765  0.5109 -0.4903
 7916TIP3    H223713   0.397   6.007   0.729  0.2030  0.0844  0.5119
 7917TIP3   OH223714   2.639   2.401   1.189 -0.2888  0.7234 -0.3886
 7917TIP3    H123715   2.676   2.314   1.199 -0.8412  0.6553  1.6372
 7917TIP3    H223716   2.678   2.452   1.261 -0.7872  1.8454 -0.8815
 7918TIP3   OH223717   7.076   4.993   4.800 -0.1549 -0.2002 -0.4512
 7918TIP3    H123718   7.053   4.909   4.841 -2.3594 -0.1218 -1.3704
 7918TIP3    H223719   7.151   4.972   4.744 -1.4763 -1.9239 -1.6993
 7919TIP3   OH223720   4.914   0.321   0.146  0.0719  0.1715 -0.0709
 7919TIP3    H123721   4.852   0.337   0.217  0.3206 -3.7348  1.2991
 7919TIP3    H223722   4.998   0.352   0.179 -0.1297 -0.0024  0.6083
 7920TIP3   OH223723   0.718   4.330   1.573  0.1791  0.0049  0.5317
 7920TIP3    H123724   0.634   4.371   1.593 -0.0259  0.0834 -0.4319
 7920TIP3    H223725   0.769   4.399   1.530  1.2194  0.3316  2.2332
 7921TIP3   OH223726   4.655   4.338   5.472 -0.0031 -0.1061 -0.0849
 7921TIP3    H123727   4.594   4.327   5.544  0.9146  1.0303  0.9084
 7921TIP3    H223728   4.690   4.426   5.483 -1.1042  0.8146 -2.9440
 7922TIP3   OH223729   2.053   5.057   5.048  0.4823  0.0893  0.0664
 7922TIP3    H123730   2.139   5.092   5.023  0.0373 -0.2949 -2.2824
 7922TIP3    H223731   2.001   5.134   5.071  0.5838  0.6888 -1.5365
 7923TIP3   OH223732   6.890   3.097   4.381  0.3081  0.5157  0.0380
 7923TIP3    H123733   6.912   3.030   4.317  0.0853  0.5377 -0.0597
 7923TIP3    H223734   6.803   3.127   4.356 -1.0417 -1.4489  1.9820
 7924TIP3   OH223735   3.596   1.861   2.573 -0.2221 -0.2280 -0.2431
 7924TIP3    H123736   3.685   1.885   2.548  1.2444 -1.4499  3.1859
 7924TIP3    H223737   3.549   1.944   2.578  1.4052  0.7059  0.1514
 7925TIP3   OH223738   6.239   2.491   0.995  0.5050  0.1374  0.0531
 7925TIP3    H123739   6.207   2.513   1.082  1.2899  2.0187 -0.0840
 7925TIP3    H223740   6.161   2.490   0.939 -0.0888 -1.7190  0.8550
 7926TIP3   OH223741   5.761   5.398   5.807  0.0626 -0.2652 -0.0483
 7926TIP3    H123742   5.803   5.433   5.728 -0.7943  0.0366 -0.3801
 7926TIP3    H223743   5.824   5.416   5.877  0.0583  1.1351 -0.3649
 7927TIP3   OH223744   2.473   0.104   4.921 -0.1761  0.1860  0.6515
 7927TIP3    H123745   2.415   0.177   4.941  1.2844  1.8859 -0.8965
 7927TIP3    H223746   2.557   0.129   4.958  1.1473  0.8445 -2.4643
 7928TIP3   OH223747   4.896   0.876   0.523 -0.3355 -0.1504  0.6559
 7928TIP3    H123748   4.986   0.892   0.494 -0.9357  0.8959 -0.7389
 7928TIP3    H223749   4.844   0.941   0.477 -2.1425 -2.2841 -0.5282
 7929TIP3   OH223750   5.955   6.747   2.150  0.2525 -0.1993 -0.2643
 7929TIP3    H123751   5.895   6.673   2.142 -1.1411  0.8381  0.2084
 7929TIP3    H223752   6.031   6.712   2.197 -0.7692 -1.1225  0.7444
 7930TIP3   OH223753   4.850   1.580   0.313 -0.2747 -0.1465 -0.1397
 7930TIP3    H123754   4.821   1.489   0.323 -2.1359  0.5057  0.9152
 7930TIP3    H223755   4.866   1.610   0.403  2.6200 -0.0770 -0.6001
 7931TIP3   OH223756   3.633   0.733   1.904  0.5676 -0.3427 -0.0736
 7931TIP3    H123757   3.550   0.686   1.916 -0.3797  0.9994 -1.1009
 7931TIP3    H223758   3.629   0.768   1.815  0.6631  2.6552  0.9783
 7932TIP3   OH223759   4.699   0.887   1.262 -0.0393  0.3451  0.4823
 7932TIP3    H123760   4.688   0.970   1.216  0.4890 -0.7740 -1.7760
 7932TIP3    H223761   4.616   0.841   1.249  0.1431 -0.0222  0.6035
 7933TIP3   OH223762   2.990   5.245   1.223  0.0848  0.0926  0.3513
 7933TIP3    H123763   2.967   5.154   1.203  0.3498 -0.2335  1.4968
 7933TIP3    H223764   2.999   5.286   1.137  0.2742 -1.0412 -0.1898
 7934TIP3   OH223765   1.845   6.690   1.881 -0.4191 -0.5858 -0.3601
 7934TIP3    H123766   1.845   6.729   1.968 -1.1563 -1.6736  0.1482
 7934TIP3    H223767   1.764   6.640   1.877  1.5843 -4.2079  0.0460
 7935TIP3   OH223768   0.075   6.091   0.817  0.1203  0.7109  0.0120
 7935TIP3    H123769   0.101   6.109   0.727  0.0858  0.4833 -0.0436
 7935TIP3    H223770   0.121   6.158   0.869  2.5725 -0.9445  0.1462
 7936TIP3   OH223771   1.873   0.819   4.757 -0.2914 -0.4648 -0.2024
 7936TIP3    H123772   1.825   0.779   4.829  0.9470  0.5006  1.2436
 7936TIP3    H223773   1.902   0.746   4.703  0.2957 -1.3841  1.3025
 7937TIP3   OH223774   3.029   6.297   1.693  0.0265 -0.6174 -0.0121
 7937TIP3    H123775   3.091   6.277   1.763  0.8573  0.4577 -0.4284
 7937TIP3    H223776   3.040   6.390   1.676 -1.1072 -0.5872 -0.6779
 7938TIP3   OH223777   6.861   3.541   2.234 -0.3419  0.0628  0.0880
 7938TIP3    H123778   6.793   3.576   2.176  0.5937 -0.0539 -1.1305
 7938TIP3    H223779   6.891   3.616   2.284 -1.0282  0.2082  0.2956
 7939TIP3   OH223780   2.163   2.574   3.913 -0.7853 -0.1065 -0.0127
 7939TIP3    H123781   2.104   2.544   3.844 -1.9224  2.8478 -0.4855
 7939TIP3    H223782   2.107   2.587   3.990 -0.1170 -0.3901  0.5395
 7940TIP3   OH223783   6.131   2.373   4.663 -0.1226 -0.0163 -0.1392
 7940TIP3    H123784   6.043   2.352   4.695  0.4998 -1.5559  0.6675
 7940TIP3    H223785   6.181   2.390   4.743  0.3308  0.8804 -0.5982
 7941TIP3   OH223786   4.792   0.564   5.439 -0.0970  0.3042 -0.1973
 7941TIP3    H123787   4.719   0.608   5.481 -2.4725 -0.4973 -3.0971
 7941TIP3    H223788   4.825   0.627   5.374 -0.2817 -0.4064 -1.0044
 7942TIP3   OH223789   3.434   3.203   0.663 -0.5290  0.2152 -0.2773
 7942TIP3    H123790   3.338   3.194   0.663 -0.6213  1.0423  0.3863
 7942TIP3    H223791   3.449   3.295   0.646  0.0853  0.4346  1.3149
 7943TIP3   OH223792   5.599   4.143   2.338 -0.2280 -0.2796  0.3503
 7943TIP3    H123793   5.676   4.105   2.294  1.1534  0.8788  1.6405
 7943TIP3    H223794   5.558   4.069   2.383 -0.5965 -1.1333 -1.2941
 7944TIP3   OH223795   4.167   3.921   3.420  0.7602  0.4652  0.1328
 7944TIP3    H123796   4.072   3.924   3.417  0.7739  0.0833 -1.0482
 7944TIP3    H223797   4.194   3.917   3.328  1.9137  0.5894  0.4523
 7945TIP3   OH223798   5.912   4.125   0.577  0.1336  0.4979  0.1426
 7945TIP3    H123799   5.990   4.098   0.625 -1.0719 -0.8258  1.4594
 7945TIP3    H223800   5.874   4.044   0.544 -2.6915  0.5209  2.7878
 7946TIP3   OH223801   4.271   3.057   4.143 -0.3879  0.1296  0.1624
 7946TIP3    H123802   4.326   2.983   4.166 -1.5227 -0.1758  2.1638
 7946TIP3    H223803   4.247   3.043   4.051  3.4453  0.7430 -1.0946
 7947TIP3   OH223804   1.870   2.767   2.859 -0.3820  0.0674  0.0931
 7947TIP3    H123805   1.901   2.843   2.907  1.0442 -0.0599 -0.5763
 7947TIP3    H223806   1.786   2.795   2.822 -0.1017  1.1466  0.2462
 7948TIP3   OH223807   1.420   6.457   5.480 -0.0971  0.4621 -0.7642
 7948TIP3    H123808   1.407   6.411   5.563 -1.3104  0.6232 -0.8503
 7948TIP3    H223809   1.332   6.477   5.449  0.3643  1.2214 -1.6429
 7949TIP3   OH223810   1.032   3.484   0.231  0.1755  0.2867 -0.0062
 7949TIP3    H123811   1.066   3.539   0.160 -0.1001 -0.2471 -0.5626
 7949TIP3    H223812   1.028   3.542   0.307 -1.1706  1.3658 -0.8499
 7950TIP3   OH223813   1.120   4.565   2.410 -0.6188 -0.2228 -0.0129
 7950TIP3    H123814   1.126   4.649   2.365  0.7550 -0.9146 -1.2011
 7950TIP3    H223815   1.027   4.545   2.411 -0.7799  0.2609 -1.7720
 7951TIP3   OH223816   4.620   4.307   1.289  0.2923 -0.0510  0.0602
 7951TIP3    H123817   4.669   4.225   1.286  0.4078  0.0106  0.2963
 7951TIP3    H223818   4.577   4.307   1.374  0.4603  0.2307  0.1481
 7952TIP3   OH223819   0.220   6.661   5.083  0.3360 -0.8695  0.1627
 7952TIP3    H123820   0.258   6.637   4.998 -0.3076 -1.2101 -0.0404
 7952TIP3    H223821   0.205   6.755   5.077  0.7335 -0.8072  0.0838
 7953TIP3   OH223822   3.696   1.529   5.048  0.1264  0.1523 -0.3010
 7953TIP3    H123823   3.781   1.548   5.088  0.2565  0.2776 -0.6269
 7953TIP3    H223824   3.654   1.615   5.039 -0.0199  0.0940 -0.1703
 7954TIP3   OH223825   0.696   3.991   5.707  0.5328 -0.0777  0.4623
 7954TIP3    H123826   0.770   4.051   5.701  1.0556 -0.6889  0.7145
 7954TIP3    H223827   0.623   4.039   5.668  0.9777  0.6615  0.5184
 7955TIP3   OH223828   5.730   6.149   3.668  0.3368  0.3502  0.2742
 7955TIP3    H123829   5.820   6.126   3.645  0.3303  0.8794 -0.3152
 7955TIP3    H223830   5.728   6.244   3.663 -0.1896  0.3547  0.5400
 7956TIP3   OH223831   1.573   0.649   3.044  0.1044  0.0002 -0.6099
 7956TIP3    H123832   1.484   0.623   3.067  0.3026 -0.5592 -0.4652
 7956TIP3    H223833   1.563   0.734   3.001 -0.3668  0.6234  0.6672
 7957TIP3   OH223834   6.466   2.509   5.836  0.1285  0.0931 -0.8559
 7957TIP3    H123835   6.476   2.491   5.742  0.4021  2.1675 -1.2839
 7957TIP3    H223836   6.518   2.588   5.850 -1.6301  1.0604  0.5850
 7958TIP3   OH223837   3.086   4.128   5.000 -0.2241  0.0710 -0.4719
 7958TIP3    H123838   3.078   4.066   4.928 -0.5925 -0.0934 -0.2936
 7958TIP3    H223839   3.117   4.209   4.959 -1.3141  0.2632 -0.9775
 7959TIP3   OH223840   6.535   5.861   3.515 -0.3026 -0.1723  0.3499
 7959TIP3    H123841   6.452   5.904   3.538 -0.5514 -0.5992  0.2557
 7959TIP3    H223842   6.601   5.908   3.566 -0.0368  2.7318 -2.4038
 7960TIP3   OH223843   5.420   5.036   5.796 -0.0566 -0.3949 -0.3414
 7960TIP3    H123844   5.497   5.078   5.757 -0.2796 -0.7596 -1.1748
 7960TIP3    H223845   5.368   5.109   5.830 -0.1879 -0.0323 -1.3121
 7961TIP3   OH223846   3.153   0.509   1.471 -0.5383  0.3078 -1.1991
 7961TIP3    H123847   3.085   0.443   1.486 -0.0306 -0.0599 -0.4773
 7961TIP3    H223848   3.178   0.539   1.558 -0.0326  0.7107 -1.4739
 7962TIP3   OH223849   2.925   3.330   4.306  0.1932  0.5413  0.5465
 7962TIP3    H123850   2.878   3.381   4.240 -0.9802  0.0113  0.9330
 7962TIP3    H223851   2.880   3.350   4.388  1.1110  0.5625  1.0586
 7963TIP3   OH223852   6.993   1.750   0.610 -0.6430 -0.0535 -0.3949
 7963TIP3    H123853   7.008   1.785   0.698  1.9994 -0.7130 -0.4753
 7963TIP3    H223854   7.005   1.825   0.552 -1.3788  0.1751 -0.2595
 7964TIP3   OH223855   1.100   1.291   2.527  0.5275 -0.3784  0.0729
 7964TIP3    H123856   1.136   1.269   2.441 -0.0013  2.1404 -0.9057
 7964TIP3    H223857   1.012   1.325   2.508  1.3063  2.6070  1.2193
 7965TIP3   OH223858   2.784   6.808   3.314  0.1347  0.3506  0.0603
 7965TIP3    H123859   2.700   6.791   3.358 -0.0422  0.8033 -0.0864
 7965TIP3    H223860   2.848   6.760   3.365 -0.0709  0.8584  0.8157
 7966TIP3   OH223861   6.547   5.764   0.433  0.2932 -0.4256  0.2049
 7966TIP3    H123862   6.513   5.678   0.407 -0.0434 -0.5940  1.1533
 7966TIP3    H223863   6.469   5.814   0.458  0.6058 -0.3784  1.1430
 7967TIP3   OH223864   2.343   2.786   5.049  0.2286  0.1155 -0.2439
 7967TIP3    H123865   2.257   2.816   5.079  0.7565  1.2931  0.1359
 7967TIP3    H223866   2.345   2.809   4.957 -0.0412 -0.3459 -0.3687
 7968TIP3   OH223867   3.954   0.465   1.795  0.4026 -0.4559 -0.0379
 7968TIP3    H123868   3.866   0.464   1.833 -0.6887  2.1554 -2.1585
 7968TIP3    H223869   3.948   0.412   1.716  0.7069 -0.2869 -0.1799
 7969TIP3   OH223870   2.306   3.111   4.348  0.6526 -0.0064  0.5386
 7969TIP3    H123871   2.229   3.056   4.364 -0.9819  2.1013  0.3024
 7969TIP3    H223872   2.378   3.064   4.391 -1.2260 -0.7775  3.1187
 7970TIP3   OH223873   5.853   4.710   1.532 -0.6204  0.1530  0.0343
 7970TIP3    H123874   5.782   4.668   1.484 -1.5030 -0.6958  1.9713
 7970TIP3    H223875   5.816   4.792   1.564  0.5490  1.6723 -2.2061
 7971TIP3   OH223876   2.553   3.595   1.363 -0.1814  0.2094  0.0799
 7971TIP3    H123877   2.593   3.594   1.450  0.3603 -1.0691 -0.1649
 7971TIP3    H223878   2.624   3.573   1.304 -0.2666  2.1580 -0.8490
 7972TIP3   OH223879   0.479   1.847   2.637 -0.1892 -0.3595  0.4685
 7972TIP3    H123880   0.574   1.836   2.636 -0.2100 -0.5873  0.7871
 7972TIP3    H223881   0.450   1.811   2.553 -0.0192 -0.5194  0.4785
 7973TIP3   OH223882   4.196   1.973   4.364  0.3238  0.1310  0.1352
 7973TIP3    H123883   4.125   2.032   4.338  0.3021  0.6653  1.3214
 7973TIP3    H223884   4.160   1.924   4.438  1.2606  0.5943  0.9219
 7974TIP3   OH223885   6.841   6.718   3.644  0.0785  0.5041  0.6813
 7974TIP3    H123886   6.808   6.753   3.727  0.2928 -0.5148  1.2164
 7974TIP3    H223887   6.787   6.641   3.627 -1.9819  2.2973 -1.6925
 7975TIP3   OH223888   1.001   3.435   4.364 -0.3248 -0.3014 -0.1224
 7975TIP3    H123889   1.039   3.476   4.442  0.4053  0.2589 -0.7551
 7975TIP3    H223890   0.953   3.360   4.397  0.8013 -0.6454  0.7800
 7976TIP3   OH223891   4.994   5.451   2.570  0.0247 -0.2211 -0.3715
 7976TIP3    H123892   4.935   5.405   2.630  0.8470 -1.9097 -0.8002
 7976TIP3    H223893   5.082   5.433   2.603  0.4306 -0.1945 -1.4104
 7977TIP3   OH223894   3.216   0.494   1.219 -0.2587  0.2457  0.3711
 7977TIP3    H123895   3.198   0.515   1.310  1.6217 -0.3276  0.9102
 7977TIP3    H223896   3.131   0.467   1.184 -0.8909 -0.1673  2.1147
 7978TIP3   OH223897   6.366   0.993   3.589  0.4252  0.1825  0.5717
 7978TIP3    H123898   6.289   0.945   3.559 -0.6137  1.0118  1.8194
 7978TIP3    H223899   6.370   1.069   3.530 -0.1308  0.4995  0.9350
 7979TIP3   OH223900   6.703   4.595   0.016 -0.7183  0.4299 -0.2123
 7979TIP3    H123901   6.632   4.634   0.067 -1.3437 -1.0738  0.1129
 7979TIP3    H223902   6.659   4.561  -0.063 -0.0589  1.0692 -0.8711
 7980TIP3   OH223903   0.584   2.555   5.543 -0.5338  0.1885  0.2026
 7980TIP3    H123904   0.518   2.534   5.609 -0.2120 -0.4257  0.3334
 7980TIP3    H223905   0.598   2.649   5.552  0.4470 -0.0889  1.8944
 7981TIP3   OH223906   6.678   3.331   3.621  0.2223  0.1261 -0.2143
 7981TIP3    H123907   6.767   3.364   3.605  0.1413  0.4710  0.0319
 7981TIP3    H223908   6.665   3.344   3.714  0.3727 -1.0821 -0.0100
 7982TIP3   OH223909   5.439   1.487   2.120 -0.3624  0.1312  0.1132
 7982TIP3    H123910   5.520   1.525   2.154 -0.6908  1.3090 -0.3579
 7982TIP3    H223911   5.371   1.521   2.179 -0.3214 -2.9541  2.1741
 7983TIP3   OH223912   1.918   4.688   1.905  0.6074 -0.0479 -0.0053
 7983TIP3    H123913   1.842   4.726   1.861 -0.4636  0.3470  2.0499
 7983TIP3    H223914   1.883   4.612   1.951  1.4747  0.1001  0.9233
 7984TIP3   OH223915   5.134   1.045   5.829 -0.2417 -0.4337  0.4268
 7984TIP3    H123916   5.114   0.963   5.874 -2.3611  0.3297  1.0082
 7984TIP3    H223917   5.109   1.029   5.738 -0.7768 -0.4108  0.5665
 7985TIP3   OH223918   1.343   5.871   2.629  0.2130 -0.2262 -0.6775
 7985TIP3    H123919   1.315   5.850   2.540 -0.8584  1.3613 -0.7629
 7985TIP3    H223920   1.261   5.882   2.677  0.6989  1.5928 -0.1876
 7986TIP3   OH223921   0.147   0.532   2.965  0.3122  0.2089 -0.2576
 7986TIP3    H123922   0.094   0.611   2.952 -1.2704 -0.9035 -0.9574
 7986TIP3    H223923   0.207   0.555   3.036 -1.5742  1.3509  1.0828
 7987TIP3   OH223924   6.182   0.629   4.930  0.4931 -0.8218  0.0818
 7987TIP3    H123925   6.172   0.557   4.993  0.1951 -1.5832 -0.8096
 7987TIP3    H223926   6.273   0.657   4.940  0.6089 -1.3132  0.4555
 7988TIP3   OH223927   2.555   5.336   4.714 -0.1097 -0.3243 -0.0275
 7988TIP3    H123928   2.641   5.350   4.754 -0.3100  1.0998 -0.0463
 7988TIP3    H223929   2.570   5.352   4.620 -0.5054  0.5472  0.0486
 7989TIP3   OH223930   5.322   5.688   0.854  0.5863  0.1110 -0.2137
 7989TIP3    H123931   5.380   5.612   0.864  0.5404  0.3450  2.4464
 7989TIP3    H223932   5.370   5.747   0.796  0.6774 -1.8363 -2.2254
 7990TIP3   OH223933   2.461   2.494   0.323 -0.6741 -0.8145 -0.0080
 7990TIP3    H123934   2.485   2.574   0.277 -1.0554 -1.3741 -1.2023
 7990TIP3    H223935   2.385   2.460   0.276 -1.0357 -1.4455  0.9942
 7991TIP3   OH223936   5.571   4.285   5.565  0.7085 -0.1153  0.5361
 7991TIP3    H123937   5.519   4.352   5.609 -0.5019  0.9685 -2.2572
 7991TIP3    H223938   5.558   4.206   5.616  0.8764  1.3861  3.0477
 7992TIP3   OH223939   1.665   1.055   0.964 -0.0387  0.4207  0.2691
 7992TIP3    H123940   1.734   1.013   1.015 -0.7113  0.2298  1.0384
 7992TIP3    H223941   1.683   1.029   0.874  0.5336 -0.1353  0.5335
 7993TIP3   OH223942   4.408   3.856   0.260 -0.0332  0.1036 -0.0001
 7993TIP3    H123943   4.496   3.852   0.296  0.0532 -0.1539 -0.2325
 7993TIP3    H223944   4.418   3.902   0.176 -0.3370  1.3044  0.5993
 7994TIP3   OH223945   7.012   2.502   2.055 -0.2569 -0.0655 -0.3567
 7994TIP3    H123946   6.947   2.558   2.098  0.5207  0.8304 -0.3040
 7994TIP3    H223947   6.978   2.490   1.966 -2.1118 -2.3092  0.5497
 7995TIP3   OH223948   3.681   3.926   1.286  0.6573 -0.0969 -0.0897
 7995TIP3    H123949   3.701   3.850   1.232 -0.9357 -0.2535 -0.5080
 7995TIP3    H223950   3.716   4.001   1.237 -0.8472 -0.2320 -1.4083
 7996TIP3   OH223951   4.396   6.431   3.421  0.2460  0.1136  0.3775
 7996TIP3    H123952   4.463   6.385   3.470  1.1657  0.4024 -0.5834
 7996TIP3    H223953   4.441   6.505   3.381 -0.6744  0.4102 -0.1591
 7997TIP3   OH223954   4.528   6.782   2.620 -0.2604 -0.4113 -0.5357
 7997TIP3    H123955   4.512   6.777   2.714  0.6650  0.9447 -0.2817
 7997TIP3    H223956   4.618   6.750   2.610 -0.4016 -0.6731 -0.9780
 7998TIP3   OH223957   0.249   3.516   0.462 -0.2557  0.0921  0.0627
 7998TIP3    H123958   0.330   3.481   0.501 -0.2765  0.9452  0.9046
 7998TIP3    H223959   0.234   3.461   0.385 -0.3325 -1.8225  1.3764
 7999TIP3   OH223960   4.076   2.016   2.275  0.5484  0.1730 -0.0919
 7999TIP3    H123961   4.098   1.957   2.347  0.9495 -1.6355 -1.6332
 7999TIP3    H223962   3.999   1.976   2.234  0.6117  0.9086 -0.9546
 8000TIP3   OH223963   6.739   4.724   3.226  0.3457 -0.2633 -0.5396
 8000TIP3    H123964   6.719   4.700   3.136 -0.4699  3.0377 -1.3901
 8000TIP3    H223965   6.816   4.780   3.220 -0.2151  0.6989  0.6752
 8001TIP3   OH223966   1.569   0.073   2.724  0.0798 -0.0925 -0.2854
 8001TIP3    H123967   1.645   0.047   2.673 -0.3307  0.1962 -1.0525
 8001TIP3    H223968   1.512  -0.004   2.725  0.3330 -0.2827  0.2237
 8002TIP3   OH223969   4.481   5.143   4.600 -0.1103 -0.3020 -0.2038
 8002TIP3    H123970   4.558   5.170   4.550  1.0993 -2.0494  0.6008
 8002TIP3    H223971   4.474   5.207   4.671 -0.4709  0.8518 -1.2291
 8003TIP3   OH223972   5.010   5.918   3.799 -0.0291 -0.0785  0.0223
 8003TIP3    H123973   5.039   5.840   3.751  1.2894  0.7388 -0.5800
 8003TIP3    H223974   5.027   5.897   3.891  1.4262 -0.0744 -0.2277
 8004TIP3   OH223975   0.243   2.336   1.906  0.3882  0.4071 -0.4698
 8004TIP3    H123976   0.301   2.409   1.883  1.8709 -0.6824 -0.2724
 8004TIP3    H223977   0.297   2.258   1.898 -1.0624 -0.6587 -0.2729
 8005TIP3   OH223978   5.839   4.848   1.245  0.6135  0.1801 -0.2991
 8005TIP3    H123979   5.839   4.877   1.154  0.4416  0.5414 -0.1866
 8005TIP3    H223980   5.809   4.758   1.242 -0.5338  0.5547 -0.4935
 8006TIP3   OH223981   4.197   1.317   5.624  0.0684  0.1150 -0.4529
 8006TIP3    H123982   4.245   1.273   5.555  0.3226 -0.0107 -0.1957
 8006TIP3    H223983   4.119   1.263   5.638  0.1346  0.0144 -0.4764
 8007TIP3   OH223984   1.152   4.541   3.151 -0.1606 -0.3543 -0.0494
 8007TIP3    H123985   1.192   4.565   3.067 -0.9618  0.0538 -0.3216
 8007TIP3    H223986   1.108   4.621   3.180 -0.9881 -0.8589  0.1170
 8008TIP3   OH223987   7.093   2.344   3.996 -0.0011  0.1653 -0.0096
 8008TIP3    H123988   7.057   2.433   4.002 -0.2668  0.1022 -0.5387
 8008TIP3    H223989   7.056   2.297   4.071  0.3596  0.5746  0.4281
 8009TIP3   OH223990   2.342   3.360   4.270 -0.9024 -0.3236  0.7532
 8009TIP3    H123991   2.437   3.366   4.259 -0.9066  1.3547  1.4030
 8009TIP3    H223992   2.326   3.268   4.289  0.8006 -0.3295  2.4330
 8010TIP3   OH223993   5.923   0.632   4.503 -0.3719 -0.1758  0.0301
 8010TIP3    H123994   5.860   0.697   4.474 -1.5397 -1.4119 -0.3134
 8010TIP3    H223995   5.870   0.556   4.526  0.9076 -0.8545  0.8775
 8011TIP3   OH223996   6.686   3.847   1.262  0.4386  0.0273 -0.5455
 8011TIP3    H123997   6.762   3.868   1.316 -0.8690  0.7906  1.0967
 8011TIP3    H223998   6.637   3.781   1.312 -0.7869  0.7270 -0.7657
 8012TIP3   OH223999   4.315   3.310   3.911  0.6671 -0.2535  0.5507
 8012TIP3    H124000   4.299   3.218   3.931 -0.8160  0.4086  2.8708
 8012TIP3    H224001   4.405   3.313   3.878  0.4172 -2.6181 -0.4882
 8013TIP3   OH224002   1.448   0.095   3.228 -0.2198  0.3394 -0.4233
 8013TIP3    H124003   1.483   0.075   3.141 -0.5163  0.8067 -0.6544
 8013TIP3    H224004   1.459   0.189   3.237  0.4346  0.2007  0.3293
 8014TIP3   OH224005   3.956   6.551   3.288 -0.0193 -0.1370 -0.0277
 8014TIP3    H124006   3.952   6.455   3.290  0.2164 -0.1327  0.5751
 8014TIP3    H224007   3.875   6.579   3.331 -1.5279 -0.0411 -2.6756
 8015TIP3   OH224008   3.464   5.266   4.019 -0.1429  0.3559 -0.3446
 8015TIP3    H124009   3.539   5.302   3.971 -1.4157 -0.5436 -3.2033
 8015TIP3    H224010   3.499   5.188   4.062  0.6397  0.1005 -1.4143
 8016TIP3   OH224011   1.690   1.158   5.592 -0.8739 -0.1275 -0.1127
 8016TIP3    H124012   1.667   1.146   5.684 -1.8261 -1.2174 -0.4692
 8016TIP3    H224013   1.710   1.251   5.584  0.7478 -0.2896  1.5088
 8017TIP3   OH224014   5.617   5.131   3.954 -0.3431 -0.3070 -0.7502
 8017TIP3    H124015   5.631   5.219   3.919 -0.1684 -0.1401 -0.2710
 8017TIP3    H224016   5.703   5.089   3.948  0.5659  0.8032  2.4279
 8018TIP3   OH224017   5.487   6.545   1.425 -0.2151 -0.2755 -0.0554
 8018TIP3    H124018   5.476   6.620   1.366  3.2549  0.7029  0.3243
 8018TIP3    H224019   5.463   6.580   1.511 -0.6092 -0.2543 -0.1696
 8019TIP3   OH224020   5.748   6.786   4.987 -0.5706 -0.0306  0.1196
 8019TIP3    H124021   5.739   6.691   4.994 -0.1015 -0.0283  0.9234
 8019TIP3    H224022   5.832   6.805   5.029 -0.3751  0.6836 -0.5658
 8020TIP3   OH224023   2.364   3.380   3.872  0.3350  0.1044  0.0649
 8020TIP3    H124024   2.370   3.472   3.898  1.1122 -0.0040  0.2697
 8020TIP3    H224025   2.436   3.337   3.917  1.2229 -0.2407 -1.6316
 8021TIP3   OH224026   0.033   4.388   0.871  0.5328 -0.0521 -0.3434
 8021TIP3    H124027   0.090   4.334   0.817  0.4214  0.9530 -1.4979
 8021TIP3    H224028  -0.025   4.432   0.809  0.5365  1.2933  0.5606
 8022TIP3   OH224029   1.972   5.289   2.554 -0.1261 -0.1722 -0.5966
 8022TIP3    H124030   1.999   5.217   2.610  0.2418  1.6407  1.7138
 8022TIP3    H224031   2.053   5.324   2.518 -0.0766  0.4861  0.1347
 8023TIP3   OH224032   0.702   6.113   4.994  0.7079 -0.0065 -0.0625
 8023TIP3    H124033   0.718   6.020   5.009 -0.9463 -0.1262  1.1967
 8023TIP3    H224034   0.606   6.121   4.991  0.8224  1.4210 -1.8324
 8024TIP3   OH224035   6.769   4.359   0.141 -0.3464 -0.4355  0.4046
 8024TIP3    H124036   6.844   4.346   0.083 -1.7498 -0.8305 -1.4117
 8024TIP3    H224037   6.749   4.452   0.133 -1.1569 -0.6821 -0.5700
 8025TIP3   OH224038   3.909   0.501   4.735  0.0600 -0.2145  0.1599
 8025TIP3    H124039   3.902   0.566   4.806 -1.1898 -0.5141  0.3370
 8025TIP3    H224040   3.819   0.488   4.706  0.3664 -1.3995 -0.3151
 8026TIP3   OH224041   2.242   2.397   0.178 -0.3939  0.4919 -0.3918
 8026TIP3    H124042   2.233   2.305   0.205  1.1752  0.7737  1.3680
 8026TIP3    H224043   2.161   2.417   0.132 -1.8728 -1.0639  1.3796
 8027TIP3   OH224044   6.854   0.287   5.420  0.1227 -0.3355 -0.4629
 8027TIP3    H124045   6.873   0.381   5.423 -0.8347 -0.1269 -0.6807
 8027TIP3    H224046   6.764   0.282   5.389  0.2577 -1.3434 -0.7167
 8028TIP3   OH224047   0.604   2.452   5.285  0.1909  0.2186  0.1975
 8028TIP3    H124048   0.614   2.512   5.359 -0.4011  1.9426 -1.0680
 8028TIP3    H224049   0.676   2.473   5.226 -0.3236  0.0457 -0.5101
 8029TIP3   OH224050   0.057   2.489   2.142  0.7209 -0.2224 -0.4457
 8029TIP3    H124051   0.099   2.404   2.128 -0.1369 -0.5165 -1.3464
 8029TIP3    H224052  -0.036   2.470   2.138  0.5233  0.8178 -0.9763
 8030TIP3   OH224053   2.888   5.617   1.788 -0.9554  0.4960  0.1422
 8030TIP3    H124054   2.971   5.587   1.826  0.4836  1.4282 -2.0511
 8030TIP3    H224055   2.852   5.676   1.854  0.1727  0.1626  1.1089
 8031TIP3   OH224056   4.218   1.034   1.450 -0.3045 -0.0447 -0.2492
 8031TIP3    H124057   4.138   1.000   1.489 -0.7408  0.5947 -0.5659
 8031TIP3    H224058   4.282   0.963   1.460 -1.0260 -0.7273 -0.3884
 8032TIP3   OH224059   1.750   6.161   3.342 -0.9837 -0.7707 -0.3813
 8032TIP3    H124060   1.781   6.224   3.277 -3.0315 -0.3456 -1.0081
 8032TIP3    H224061   1.804   6.083   3.328 -0.2673 -0.0998 -1.4377
 8033TIP3   OH224062   0.809   3.963   3.440 -0.0905 -0.6141 -0.4618
 8033TIP3    H124063   0.897   3.993   3.459 -0.9143  2.2265 -0.6990
 8033TIP3    H224064   0.786   4.005   3.357 -1.6121 -1.4503 -0.5183
 8034TIP3   OH224065   7.194   0.110   2.913  0.0063  0.3958 -0.3003
 8034TIP3    H124066   7.155   0.197   2.922 -1.3924 -0.0779 -1.5336
 8034TIP3    H224067   7.135   0.052   2.962  0.1458 -0.0812 -0.6917
 8035TIP3   OH224068   1.435   6.353   1.861 -0.7160 -0.0301 -0.3783
 8035TIP3    H124069   1.420   6.341   1.767  0.4521  1.1701 -0.7611
 8035TIP3    H224070   1.509   6.296   1.880 -1.2503 -0.6260 -0.0772
 8036TIP3   OH224071   4.040   3.332   0.086 -0.1231  0.2934 -0.4980
 8036TIP3    H124072   4.067   3.349  -0.005  1.1731 -0.3389 -0.2518
 8036TIP3    H224073   4.114   3.285   0.124 -0.8158  0.2203  0.7874
 8037TIP3   OH224074   6.677   5.742   3.915 -0.2536  0.2088  0.2582
 8037TIP3    H124075   6.657   5.656   3.878 -1.9476  0.4186  0.6243
 8037TIP3    H224076   6.638   5.740   4.003 -1.7365  1.8922 -0.3216
 8038TIP3   OH224077   0.374   0.719   2.331  0.6707  0.0982  0.0405
 8038TIP3    H124078   0.327   0.663   2.393  1.0269 -0.2611 -0.0106
 8038TIP3    H224079   0.429   0.658   2.282  1.5029  0.5666  0.3871
 8039TIP3   OH224080   3.084   4.169   3.708 -0.0534 -0.1360  0.1363
 8039TIP3    H124081   2.995   4.186   3.677  0.1951  2.4493  0.6094
 8039TIP3    H224082   3.078   4.174   3.803  0.4645 -0.7398  0.2061
 8040TIP3   OH224083   1.309   5.917   1.783  0.1476  0.1239 -0.1628
 8040TIP3    H124084   1.285   5.931   1.875  0.4209 -0.2493 -0.0316
 8040TIP3    H224085   1.257   5.841   1.757 -1.0782  1.1163 -0.7736
 8041TIP3   OH224086   5.241   0.442   1.580 -0.7341  0.1960  0.2578
 8041TIP3    H124087   5.203   0.506   1.520  0.0443  1.0449  0.6562
 8041TIP3    H224088   5.246   0.487   1.664  0.1669 -0.2546  0.4618
 8042TIP3   OH224089   1.181   1.789   5.760 -0.1415  0.1494 -0.1396
 8042TIP3    H124090   1.128   1.722   5.717 -0.7703  0.4188  0.1960
 8042TIP3    H224091   1.237   1.739   5.820 -2.0383 -0.0070  1.6519
 8043TIP3   OH224092   2.969   3.653   3.528 -0.1200 -0.5252 -0.4346
 8043TIP3    H124093   2.880   3.637   3.558 -0.0147  1.0321  0.8247
 8043TIP3    H224094   2.984   3.746   3.545  1.8447 -0.8138 -0.3543
 8044TIP3   OH224095   6.099   2.997   2.500 -0.4099 -0.8036  0.4407
 8044TIP3    H124096   6.142   2.915   2.478 -0.7987 -0.7252 -0.6747
 8044TIP3    H224097   6.112   3.007   2.595  2.1307 -0.7135  0.1314
 8045TIP3   OH224098   6.129   5.411   1.882  0.1137  0.1315  0.0655
 8045TIP3    H124099   6.049   5.394   1.832  1.3171  0.6608 -2.1716
 8045TIP3    H224100   6.164   5.324   1.901  1.1643 -0.1557 -2.7295
 8046TIP3   OH224101   4.525   3.148   1.485 -0.1888 -0.3156  0.0377
 8046TIP3    H124102   4.515   3.213   1.555  0.6778 -0.1372 -0.0003
 8046TIP3    H224103   4.439   3.107   1.479  0.3429 -2.1110  2.9523
 8047TIP3   OH224104   2.169   6.625   1.474  0.2191  0.2621  0.6483
 8047TIP3    H124105   2.219   6.707   1.466 -1.2903  1.3009  1.3889
 8047TIP3    H224106   2.136   6.626   1.564 -1.0363 -0.4368  0.2167
 8048TIP3   OH224107   0.557   1.474   2.931 -0.0823 -0.4714 -0.5802
 8048TIP3    H124108   0.609   1.401   2.967  0.3411 -0.6799 -1.5964
 8048TIP3    H224109   0.467   1.442   2.934  0.0411 -0.8166 -0.5016
 8049TIP3   OH224110   4.150   1.642   2.852 -0.0610  0.0122 -0.5363
 8049TIP3    H124111   4.131   1.643   2.946  0.1591  1.2125 -0.4850
 8049TIP3    H224112   4.082   1.587   2.814 -0.4564 -0.0631  0.2663
 8050TIP3   OH224113   4.336   3.029   4.544 -0.0539  0.2687  0.1214
 8050TIP3    H124114   4.330   3.063   4.633 -0.0359 -0.9091  0.5908
 8050TIP3    H224115   4.251   3.048   4.505 -0.7799 -0.9160  1.0474
 8051TIP3   OH224116   4.009   0.007   1.036 -0.4558 -0.6685  0.1373
 8051TIP3    H124117   3.967   0.078   1.085 -0.6166 -1.0366  0.5333
 8051TIP3    H224118   4.015   0.040   0.946 -1.3816 -0.5213  0.1232
 8052TIP3   OH224119   2.078   0.439   2.451 -0.0155 -0.2609  0.2629
 8052TIP3    H124120   2.003   0.491   2.422  0.9287  0.6123 -0.7151
 8052TIP3    H224121   2.041   0.353   2.473 -1.4536  0.5068  0.9297
 8053TIP3   OH224122   6.126   2.673   2.526 -0.0289  0.3189 -0.0616
 8053TIP3    H124123   6.221   2.665   2.516 -0.1166 -0.2905 -0.5106
 8053TIP3    H224124   6.091   2.610   2.463 -0.7259  0.2867  0.3526
 8054TIP3   OH224125   4.808   1.479   4.215 -0.7610  0.5729 -0.4723
 8054TIP3    H124126   4.841   1.569   4.213  0.2239  0.3206  1.8212
 8054TIP3    H224127   4.886   1.424   4.219 -1.3826 -0.2853  0.3790
 8055TIP3   OH224128   0.067   2.935   0.033 -0.1657 -0.0962  0.0197
 8055TIP3    H124129   0.135   2.901  -0.026  0.2217  1.3768 -0.4229
 8055TIP3    H224130   0.057   2.866   0.099  1.0883 -0.7603 -0.4363
 8056TIP3   OH224131   5.047   2.189   4.137  0.0953 -0.1015  0.2214
 8056TIP3    H124132   5.068   2.216   4.048 -0.6135 -0.7637 -0.1555
 8056TIP3    H224133   5.007   2.103   4.128  0.2273 -0.2840  1.2034
 8057TIP3   OH224134   4.513   4.252   5.681  0.1163  0.2493  0.0884
 8057TIP3    H124135   4.507   4.157   5.674 -1.7001  0.3670 -0.4519
 8057TIP3    H224136   4.466   4.273   5.762  1.0422  0.6691  0.5428
 8058TIP3   OH224137   1.547   6.279   2.153  0.0244 -0.2849  0.5380
 8058TIP3    H124138   1.453   6.284   2.170  0.1134  0.4730  0.8466
 8058TIP3    H224139   1.576   6.200   2.199 -0.2244  0.2458  1.6425
 8059TIP3   OH224140   0.040   1.752   2.119 -0.1006  0.2092 -0.1231
 8059TIP3    H124141  -0.006   1.698   2.184 -0.9471  0.1598 -0.7400
 8059TIP3    H224142  -0.029   1.778   2.057  0.2339  2.1770  0.2656
 8060TIP3   OH224143   4.795   0.031   1.371 -0.2449  0.0770 -0.2560
 8060TIP3    H124144   4.754   0.085   1.440  0.4310  1.7120 -1.0693
 8060TIP3    H224145   4.866  -0.015   1.416  1.0220  2.0998 -0.0030
 8061TIP3   OH224146   7.082   4.539   0.437  0.6518  0.3676 -0.0134
 8061TIP3    H124147   7.128   4.622   0.423  0.4968  0.4815  0.1480
 8061TIP3    H224148   7.148   4.472   0.420  0.3996  0.4877 -1.5482
 8062TIP3   OH224149   6.950   1.007   0.414 -0.0635  0.5039 -0.0614
 8062TIP3    H124150   6.880   1.005   0.479 -1.0670  0.5499 -1.1025
 8062TIP3    H224151   7.010   1.074   0.445  0.4333 -0.6961  1.7356
 8063TIP3   OH224152   4.861   3.380   4.142  0.5007 -0.2795  0.1692
 8063TIP3    H124153   4.954   3.371   4.120  0.7162  2.4138 -0.4553
 8063TIP3    H224154   4.850   3.474   4.156 -2.0472 -0.6071  0.7182
 8064TIP3   OH224155   5.945   0.122   0.696  0.3157  0.7065 -0.0958
 8064TIP3    H124156   6.035   0.118   0.662 -0.1621  0.2487 -1.3499
 8064TIP3    H224157   5.903   0.191   0.645 -0.2713  0.3650 -0.0795
 8065TIP3   OH224158   4.133   5.501   1.585 -0.4317  0.1710  0.2216
 8065TIP3    H124159   4.076   5.572   1.555  2.0852  1.9564 -0.7146
 8065TIP3    H224160   4.157   5.454   1.506 -0.2562 -0.2670  0.5290
 8066TIP3   OH224161   2.847   0.764   0.298 -0.1626 -0.0724  0.1043
 8066TIP3    H124162   2.757   0.743   0.323  0.3303  0.4315  2.5446
 8066TIP3    H224163   2.893   0.775   0.381  2.6744 -2.2597 -1.0140
 8067TIP3   OH224164   2.157   2.254   1.626  0.0862  0.0481 -0.1805
 8067TIP3    H124165   2.147   2.222   1.537  0.8893  0.2120 -0.3367
 8067TIP3    H224166   2.159   2.350   1.617  0.1380  0.0667  0.0184
 8068TIP3   OH224167   2.864   2.762   1.416  0.2430 -0.4109  0.2493
 8068TIP3    H124168   2.956   2.774   1.392  1.0183  0.2605  3.2397
 8068TIP3    H224169   2.819   2.839   1.381  2.0266  2.6269  3.9287
 8069TIP3   OH224170   5.307   6.524   3.744  0.0094 -0.2957 -0.3969
 8069TIP3    H124171   5.222   6.494   3.775  0.6823 -0.7313  1.1551
 8069TIP3    H224172   5.298   6.619   3.739 -0.8473 -0.4037 -1.2151
 8070TIP3   OH224173   6.478   5.528   5.092 -0.4901  0.1380 -0.0908
 8070TIP3    H124174   6.450   5.436   5.090 -1.1171  0.1537  2.9444
 8070TIP3    H224175   6.397   5.577   5.105  0.2018  0.6743  2.8801
 8071TIP3   OH224176   2.816   0.317   2.686  0.2241  0.0221 -0.2850
 8071TIP3    H124177   2.833   0.340   2.595  0.6089  0.8677 -0.0064
 8071TIP3    H224178   2.738   0.368   2.710  0.4677  0.2441  0.0327
 8072TIP3   OH224179   6.152   6.628   1.944 -0.2819 -0.9074 -0.1779
 8072TIP3    H124180   6.058   6.617   1.930 -0.6296  2.7844 -1.7941
 8072TIP3    H224181   6.190   6.633   1.856  0.5057  2.9809  0.2114
 8073TIP3   OH224182   1.191   5.428   2.770  0.2152  0.3738 -0.4351
 8073TIP3    H124183   1.137   5.465   2.700 -0.6367  0.0587  0.0312
 8073TIP3    H224184   1.158   5.469   2.850 -0.4463 -0.9977  0.0410
 8074TIP3   OH224185   1.847   3.280   2.340  0.0313  0.0030  0.1615
 8074TIP3    H124186   1.769   3.318   2.382  0.2515  0.6510 -0.0049
 8074TIP3    H224187   1.852   3.324   2.255  0.7554  0.2046  0.3010
 8075TIP3   OH224188   0.319   5.999   5.189 -0.3790  0.2085  0.1182
 8075TIP3    H124189   0.296   5.921   5.240 -0.1272  0.5466  0.7531
 8075TIP3    H224190   0.314   5.970   5.098 -0.1968 -0.5807  0.3503
 8076TIP3   OH224191   5.951   5.663   5.380  0.0455  0.0512  0.3396
 8076TIP3    H124192   5.873   5.612   5.401  0.7964 -1.1408  0.2998
 8076TIP3    H224193   6.024   5.603   5.396  1.0966  1.6986  2.1622
 8077TIP3   OH224194   3.659   6.731   3.687 -0.2619 -0.4015 -0.3375
 8077TIP3    H124195   3.728   6.733   3.753  0.1043 -0.7141 -0.7052
 8077TIP3    H224196   3.664   6.816   3.643 -0.4801 -0.2095  0.0079
 8078TIP3   OH224197   0.383   3.204   0.784 -0.3410 -0.0347  0.6902
 8078TIP3    H124198   0.295   3.225   0.752 -0.0338 -0.1654 -0.2919
 8078TIP3    H224199   0.413   3.285   0.825  0.1544  0.9627 -1.4968
 8079TIP3   OH224200   3.926   1.673   3.292  0.2674  0.0573 -0.1794
 8079TIP3    H124201   4.016   1.693   3.265  0.1774  1.8109  0.6866
 8079TIP3    H224202   3.871   1.713   3.225  0.1070 -1.0638 -0.7399
 8080TIP3   OH224203   0.124   4.030   2.916  0.0361 -0.2671  0.0198
 8080TIP3    H124204   0.216   4.041   2.942  0.1816 -0.6981 -0.3037
 8080TIP3    H224205   0.094   4.120   2.899  0.0885 -0.0302  1.1299
 8081TIP3   OH224206   2.757   3.363   3.693  1.0164  1.1995  0.0702
 8081TIP3    H124207   2.752   3.287   3.636  0.1337  0.5873  0.9252
 8081TIP3    H224208   2.850   3.382   3.700  1.3852 -0.7402  1.0097
 8082TIP3   OH224209   5.672   4.100   2.824 -0.5442 -0.0574  0.3109
 8082TIP3    H124210   5.626   4.048   2.890 -0.0023 -1.3283 -0.2892
 8082TIP3    H224211   5.609   4.108   2.752 -0.8501  0.6710  0.6430
 8083TIP3   OH224212   4.003   0.410   3.617 -0.2166 -0.4317 -0.3044
 8083TIP3    H124213   3.984   0.492   3.662  0.6802 -1.0630  1.3335
 8083TIP3    H224214   4.098   0.402   3.619 -0.2982 -1.6001 -0.2247
 8084TIP3   OH224215   5.873   6.763   3.105  0.3390  0.0077  0.2407
 8084TIP3    H124216   5.878   6.774   3.200 -0.3961  2.4624  0.0681
 8084TIP3    H224217   5.787   6.724   3.089  1.3534 -2.5905  0.6497
 8085TIP3   OH224218   3.932   2.176   3.169 -0.0575 -0.2487 -0.5058
 8085TIP3    H124219   3.881   2.244   3.124 -0.7721 -0.1442  0.4073
 8085TIP3    H224220   3.869   2.135   3.228  0.8678 -0.2792  0.4921
 8086TIP3   OH224221   5.328   6.486   0.149  0.1315 -0.0974 -0.4255
 8086TIP3    H124222   5.327   6.466   0.055  1.7123 -3.1921  0.0857
 8086TIP3    H224223   5.421   6.492   0.171 -0.0230 -2.9225  1.4875
 8087TIP3   OH224224   4.901   5.741   2.969 -0.0417  0.0345 -0.4649
 8087TIP3    H124225   4.973   5.728   3.032  1.1676 -0.5488 -1.8974
 8087TIP3    H224226   4.872   5.652   2.948 -0.2937  0.2123 -0.8748
 8088TIP3   OH224227   3.677   4.301   0.280 -0.1696  0.2861  0.3068
 8088TIP3    H124228   3.610   4.283   0.345 -2.7272 -0.3558 -2.3109
 8088TIP3    H224229   3.642   4.374   0.228  1.2056  0.0396 -1.0698
 8089TIP3   OH224230   3.241   2.076   4.505  0.6752  0.4508  0.1935
 8089TIP3    H124231   3.176   2.050   4.570 -0.5416 -0.1544 -1.1934
 8089TIP3    H224232   3.237   2.172   4.505  0.6139  0.4535  0.9239
 8090TIP3   OH224233   3.609   0.488   1.274 -0.5028 -0.1157  0.6283
 8090TIP3    H124234   3.681   0.454   1.222 -0.9637  1.5248 -1.1677
 8090TIP3    H224235   3.581   0.413   1.327  2.1584 -0.9201  1.0345
 8091TIP3   OH224236   0.344   3.298   3.683  0.0449  0.2873 -0.4810
 8091TIP3    H124237   0.275   3.265   3.624  0.2496  1.0079 -1.1466
 8091TIP3    H224238   0.300   3.310   3.767 -0.0444 -1.6305 -0.2049
 8092TIP3   OH224239   5.375   0.872   2.974  0.3610 -0.2236 -0.2220
 8092TIP3    H124240   5.315   0.929   2.925 -0.3229  0.0732  0.9138
 8092TIP3    H224241   5.334   0.786   2.969  0.0245 -0.0961  0.2261
 8093TIP3   OH224242   3.572   6.331   2.029 -0.1664 -0.1185 -0.0566
 8093TIP3    H124243   3.541   6.385   2.101 -0.4574  0.2194 -0.4358
 8093TIP3    H224244   3.504   6.338   1.962 -1.2932 -2.6488  0.6865
 8094TIP3   OH224245   0.537   1.285   5.091  0.5128  0.0503  0.3096
 8094TIP3    H124246   0.495   1.226   5.029 -0.8937  1.6767 -0.3493
 8094TIP3    H224247   0.482   1.281   5.170  0.2453  0.6737  0.1610
 8095TIP3   OH224248   4.160   1.096   4.655 -0.2967  0.5517 -0.3629
 8095TIP3    H124249   4.080   1.144   4.633 -0.7669 -0.1543 -0.2358
 8095TIP3    H224250   4.164   1.026   4.591 -1.0432 -0.8073  1.0177
 8096TIP3   OH224251   1.700   2.649   2.443  0.1767  0.1930 -0.2605
 8096TIP3    H124252   1.662   2.695   2.368 -0.0714  0.0183 -0.2430
 8096TIP3    H224253   1.785   2.619   2.413  0.2344  0.4460 -0.3532
 8097TIP3   OH224254   5.327   1.267   0.483 -0.0197  0.1354  0.1380
 8097TIP3    H124255   5.359   1.246   0.396  0.7380  0.9154  0.2149
 8097TIP3    H224256   5.242   1.308   0.468 -0.7905 -1.4803 -0.0987
 8098TIP3   OH224257   3.210   4.320   2.701 -0.1396 -0.0147  0.1692
 8098TIP3    H124258   3.233   4.236   2.661 -1.4143 -0.4593  0.3331
 8098TIP3    H224259   3.247   4.385   2.642 -1.0615 -0.6690 -1.1846
 8099TIP3   OH224260   6.300   3.463   2.326  0.4172 -0.0436  0.1981
 8099TIP3    H124261   6.274   3.515   2.250  1.8656  0.1097 -0.2287
 8099TIP3    H224262   6.361   3.519   2.373  1.6095 -1.1475  0.0039
 8100TIP3   OH224263   1.339   0.390   2.968  0.3267  0.3797  0.1565
 8100TIP3    H124264   1.276   0.326   3.001 -0.0811  0.9568  0.5057
 8100TIP3    H224265   1.389   0.418   3.045 -0.4483  1.5280  0.2639
 8101TIP3   OH224266   4.628   0.220   4.438  0.0385  0.4216 -0.2314
 8101TIP3    H124267   4.535   0.231   4.419 -0.0472  0.1263  0.0059
 8101TIP3    H224268   4.638   0.251   4.528  0.0463 -0.1747 -0.0273
 8102TIP3   OH224269   4.902   1.724   1.572  0.1397 -0.1852 -0.3112
 8102TIP3    H124270   4.943   1.697   1.653  0.9265  0.8008 -0.3599
 8102TIP3    H224271   4.901   1.645   1.517 -0.1701 -0.7875  0.5482
 8103TIP3   OH224272   3.666   3.857   5.506  0.0340 -0.2277 -0.1791
 8103TIP3    H124273   3.577   3.842   5.475 -0.5960  0.8130  1.0780
 8103TIP3    H224274   3.696   3.934   5.458  0.2640 -0.5715 -0.5945
 8104TIP3   OH224275   5.136   2.268   2.173  0.3548 -0.1960 -0.4600
 8104TIP3    H124276   5.203   2.331   2.198  1.5273 -1.7933  0.5668
 8104TIP3    H224277   5.093   2.308   2.097  1.4712  1.5348 -0.2272
 8105TIP3   OH224278   2.452   3.562   5.534  0.2623  0.6809 -0.1957
 8105TIP3    H124279   2.445   3.522   5.621  1.0461 -2.4154 -1.4017
 8105TIP3    H224280   2.372   3.533   5.489  0.4358  1.2382 -0.8642
 8106TIP3   OH224281   5.762   3.735   4.978 -0.2136  0.6099  0.1926
 8106TIP3    H124282   5.839   3.771   4.933 -0.7681  1.6960  0.0679
 8106TIP3    H224283   5.796   3.662   5.029  0.3332 -1.1210 -2.4810
 8107TIP3   OH224284   1.884   4.759   3.594 -0.4501  0.4366  0.1736
 8107TIP3    H124285   1.841   4.694   3.649 -0.1954 -0.0214 -0.1628
 8107TIP3    H224286   1.905   4.831   3.654  1.5901 -0.8701  1.1359
 8108TIP3   OH224287   6.078   3.988   5.616  0.0466 -0.5054 -0.2841
 8108TIP3    H124288   6.073   3.982   5.521 -0.8593 -2.1538 -0.1834
 8108TIP3    H224289   6.169   3.967   5.637  1.0357  2.7159 -0.8763
 8109TIP3   OH224290   3.663   0.801   2.174  0.4470  0.1889 -0.3285
 8109TIP3    H124291   3.694   0.891   2.164 -0.2083  0.4564 -0.0222
 8109TIP3    H224292   3.688   0.757   2.093 -1.5700  1.3396 -1.6310
 8110TIP3   OH224293   0.088   4.430   5.358  0.1494  0.1665 -0.4707
 8110TIP3    H124294   0.048   4.379   5.428  0.7381  2.1171  1.4077
 8110TIP3    H224295   0.030   4.418   5.283 -1.2190 -0.9897  0.7113
 8111TIP3   OH224296   5.566  -0.008   4.447  0.1923 -0.2524  0.0119
 8111TIP3    H124297   5.599   0.000   4.537 -0.8251 -0.6314  0.4403
 8111TIP3    H224298   5.482   0.038   4.448 -1.1998 -2.6262  0.0457
 8112TIP3   OH224299   0.788   3.253   0.688  0.0760 -0.3321  0.1582
 8112TIP3    H124300   0.880   3.278   0.681 -0.2506  0.5694 -1.8037
 8112TIP3    H224301   0.741   3.336   0.680 -0.9150 -0.8541  0.4829
 8113TIP3   OH224302   6.041   2.189   4.021 -0.6559  0.4786 -0.7222
 8113TIP3    H124303   5.949   2.184   3.995 -0.5930  0.5573 -0.9633
 8113TIP3    H224304   6.047   2.134   4.099 -1.0872  1.1577 -0.1980
 8114TIP3   OH224305   5.274   2.464   4.408 -0.3936 -0.5767  0.1875
 8114TIP3    H124306   5.275   2.372   4.384 -2.1714 -0.3010 -1.2001
 8114TIP3    H224307   5.293   2.465   4.502 -1.0682 -2.4232  0.3905
 8115TIP3   OH224308   1.024   1.416   3.899 -0.7548 -0.4668 -0.3648
 8115TIP3    H124309   0.962   1.343   3.904 -0.3572 -0.8515 -0.9357
 8115TIP3    H224310   1.110   1.375   3.887 -0.4616  0.0780 -0.2050
 8116TIP3   OH224311   0.891   3.828   2.665 -0.3073  0.3233 -0.2103
 8116TIP3    H124312   0.806   3.847   2.704 -0.0138 -0.1468  0.6895
 8116TIP3    H224313   0.919   3.747   2.707  1.2042  1.1816  0.5333
 8117TIP3   OH224314   0.573   6.254   3.106  0.1998  0.5383  0.8161
 8117TIP3    H124315   0.508   6.193   3.141 -0.4532  1.3438  1.0198
 8117TIP3    H224316   0.524   6.333   3.085  0.9207  0.7504 -0.1265
 8118TIP3   OH224317   6.030   0.377   3.057 -0.4408 -0.1903  0.2595
 8118TIP3    H124318   5.991   0.295   3.088 -0.8230 -0.2071 -0.2589
 8118TIP3    H224319   5.992   0.444   3.113 -1.3299 -0.1902 -0.3269
 8119TIP3   OH224320   2.885   3.823   5.054  0.0552  0.3028  0.1816
 8119TIP3    H124321   2.870   3.882   4.980 -0.2529 -0.9847 -0.8367
 8119TIP3    H224322   2.860   3.736   5.020  0.9174 -0.4805  1.4681
 8120TIP3   OH224323   2.425   4.964   0.688  0.7663 -0.0575  0.1997
 8120TIP3    H124324   2.417   5.059   0.689  0.3616 -0.0915  0.1323
 8120TIP3    H224325   2.463   4.944   0.602 -0.5413 -0.0626 -0.4009
 8121TIP3   OH224326   4.984   4.671   4.887  0.1359  0.0738 -0.7529
 8121TIP3    H124327   5.072   4.705   4.897  1.1884 -2.2904 -1.3360
 8121TIP3    H224328   4.951   4.714   4.808  1.2104  0.1108 -1.1926
 8122TIP3   OH224329   2.116   3.241   2.662 -0.5415 -0.2532 -0.3242
 8122TIP3    H124330   2.052   3.240   2.733  0.2817  1.5162  0.5265
 8122TIP3    H224331   2.095   3.320   2.612 -0.6575 -1.0942 -1.6188
 8123TIP3   OH224332   4.814   3.619   4.325 -0.5463  0.2640  0.0272
 8123TIP3    H124333   4.858   3.541   4.359  1.9852  1.2086 -0.7716
 8123TIP3    H224334   4.868   3.692   4.357 -2.6338  1.6876  0.4622
 8124TIP3   OH224335   1.384   5.725   3.686 -0.3361 -0.0397  0.0582
 8124TIP3    H124336   1.391   5.633   3.660  1.2181 -0.1898  0.9066
 8124TIP3    H224337   1.422   5.773   3.612 -0.8350 -0.0786 -0.2336
 8125TIP3   OH224338   2.883   0.826   0.568  0.4346 -0.7509 -0.2293
 8125TIP3    H124339   2.894   0.921   0.569 -0.1507 -0.6730 -0.8985
 8125TIP3    H224340   2.814   0.809   0.633  0.9859 -0.7888  0.3605
 8126TIP3   OH224341   3.525   1.284   0.186  0.0562  0.8239 -0.5739
 8126TIP3    H124342   3.586   1.285   0.112 -1.0472 -2.5931 -1.7431
 8126TIP3    H224343   3.441   1.310   0.147 -0.3764 -0.2432 -0.3887
 8127TIP3   OH224344   1.490   3.625   5.541 -0.2394 -0.6891  0.0915
 8127TIP3    H124345   1.486   3.683   5.617  1.6538 -1.3143  0.7240
 8127TIP3    H224346   1.443   3.546   5.568 -1.0854 -0.2405 -0.0446
 8128TIP3   OH224347   6.713   2.463   4.075 -0.2965 -0.1715 -0.5717
 8128TIP3    H124348   6.804   2.493   4.076 -0.6982  1.1397 -0.8543
 8128TIP3    H224349   6.709   2.393   4.140  0.8250  0.0171 -0.2874
 8129TIP3   OH224350   6.081   4.261   4.610  0.1802  0.1705 -0.3445
 8129TIP3    H124351   6.067   4.225   4.522  0.0144 -0.8330  0.0789
 8129TIP3    H224352   6.083   4.356   4.597 -0.5055  0.0662 -1.3418
 8130TIP3   OH224353   0.718   3.533   2.982 -0.1774 -0.0378 -0.3072
 8130TIP3    H124354   0.645   3.568   2.931 -0.5585  1.2446  1.0378
 8130TIP3    H224355   0.684   3.527   3.071  0.4753 -2.1988 -0.1579
 8131TIP3   OH224356   0.679   4.111   4.863 -0.0558  0.1131 -0.0274
 8131TIP3    H124357   0.611   4.054   4.826  0.2867  0.0379 -0.5514
 8131TIP3    H224358   0.750   4.052   4.886 -0.6073  0.0472  1.6100
 8132TIP3   OH224359   5.460   1.272   1.418  0.2992  0.0693  0.1618
 8132TIP3    H124360   5.556   1.279   1.414  0.3779  0.9887  2.2730
 8132TIP3    H224361   5.443   1.218   1.495 -0.8963 -0.0097 -0.1332
 8133TIP3   OH224362   6.707   2.463   2.569 -0.2381 -0.4277  0.3250
 8133TIP3    H124363   6.708   2.542   2.623 -1.1323 -0.3643  0.2681
 8133TIP3    H224364   6.778   2.409   2.603 -0.8714 -0.4447  1.6525
 8134TIP3   OH224365   6.795   2.731   0.393 -0.5993  0.2182 -0.5050
 8134TIP3    H124366   6.801   2.668   0.464  2.1235  0.1702 -0.6576
 8134TIP3    H224367   6.802   2.816   0.435 -0.2334  0.2375 -0.5990
 8135TIP3   OH224368   5.027   1.518   3.955  0.0907  0.0349  0.7262
 8135TIP3    H124369   5.085   1.529   3.879 -0.1753  1.1334  0.6775
 8135TIP3    H224370   5.044   1.428   3.984  0.8708 -0.0926 -0.0702
 8136TIP3   OH224371   2.679   1.679   3.534 -0.4447 -0.2632 -0.1825
 8136TIP3    H124372   2.747   1.612   3.537 -0.5068 -0.3816 -1.1141
 8136TIP3    H224373   2.654   1.692   3.626 -0.0728 -1.1409  0.0522
 8137TIP3   OH224374   3.762   2.431   5.895  0.4549 -0.0098  0.0377
 8137TIP3    H124375   3.771   2.416   5.801 -0.0857  2.8570 -0.5813
 8137TIP3    H224376   3.671   2.408   5.915  0.8732 -1.6884  0.1535
 8138TIP3   OH224377   4.653   4.309   1.014  0.1290  0.4496 -0.0221
 8138TIP3    H124378   4.623   4.232   0.965  2.6455  0.1063 -1.2058
 8138TIP3    H224379   4.649   4.283   1.106  0.5544 -0.9646 -0.3868
 8139TIP3   OH224380   2.151   0.217   1.417  0.0631 -0.0367 -0.0802
 8139TIP3    H124381   2.174   0.150   1.481 -1.1715  1.3301  1.9033
 8139TIP3    H224382   2.166   0.300   1.462  0.8736  1.0630 -2.2218
 8140TIP3   OH224383   0.757   1.433   3.502 -0.2203 -0.2137  0.0296
 8140TIP3    H124384   0.716   1.465   3.583 -0.1410  0.4488 -0.1888
 8140TIP3    H224385   0.701   1.466   3.432  0.2468  0.0292 -0.2314
 8141TIP3   OH224386   0.890   6.316   1.103 -0.3416 -0.2670  0.7459
 8141TIP3    H124387   0.945   6.357   1.036 -2.3435  1.3422 -0.0156
 8141TIP3    H224388   0.930   6.340   1.186  1.4088 -1.1467  0.2183
 8142TIP3   OH224389   6.673   2.751   5.847  0.2893 -0.0004 -0.2953
 8142TIP3    H124390   6.712   2.731   5.932 -0.5509  1.1594  0.4013
 8142TIP3    H224391   6.742   2.800   5.800  0.0747  1.1300  0.5235
 8143TIP3   OH224392   5.481   6.209   2.852 -0.1167 -0.0417 -0.0980
 8143TIP3    H124393   5.404   6.190   2.907  0.1825 -0.5901  0.1424
 8143TIP3    H224394   5.471   6.301   2.827 -0.6363  0.0069  0.2767
 8144TIP3   OH224395   2.431   0.604   2.645  0.0167  0.2698 -0.0368
 8144TIP3    H124396   2.366   0.669   2.674  1.2092  1.7402 -0.5120
 8144TIP3    H224397   2.389   0.520   2.659 -2.0054  1.1700 -0.3678
 8145TIP3   OH224398   5.587   2.943   0.684 -0.3033 -0.0815  0.7488
 8145TIP3    H124399   5.528   3.018   0.694  0.3779  0.6101 -0.2290
 8145TIP3    H224400   5.578   2.918   0.592 -0.4228 -1.1312  1.0354
 8146TIP3   OH224401   5.339   2.440   0.077  0.1316 -0.0796  0.5820
 8146TIP3    H124402   5.297   2.497   0.013 -1.6356  0.9242  2.5449
 8146TIP3    H224403   5.428   2.475   0.086  0.0613  0.4185 -0.4930
 8147TIP3   OH224404   1.563   0.643   2.160  0.0496  0.2317  0.0327
 8147TIP3    H124405   1.608   0.705   2.217  1.3928 -2.0899  1.6729
 8147TIP3    H224406   1.470   0.661   2.174  0.3885  2.3865 -0.2084
 8148TIP3   OH224407   6.976   2.281   4.252  0.1737  0.2908 -0.6280
 8148TIP3    H124408   6.902   2.319   4.300  1.9574 -0.9383  3.5742
 8148TIP3    H224409   6.963   2.187   4.257  0.2422  0.0703 -3.1719
 8149TIP3   OH224410   2.418   6.057   0.328  0.1203 -0.3328  0.2198
 8149TIP3    H124411   2.483   6.084   0.393 -0.4791  0.2445  0.5852
 8149TIP3    H224412   2.397   5.967   0.351  0.2673 -0.2887  0.5313
 8150TIP3   OH224413   1.785   5.354   4.051 -0.6292 -0.0926 -0.1776
 8150TIP3    H124414   1.707   5.367   3.997 -0.8462  0.8853  0.3434
 8150TIP3    H224415   1.751   5.343   4.140 -0.1909  0.3680  0.0559
 8151TIP3   OH224416   3.954   0.213   0.562  0.3958  0.0963 -0.5996
 8151TIP3    H124417   3.862   0.187   0.573  0.5196 -0.6791 -1.3188
 8151TIP3    H224418   3.949   0.301   0.524 -0.0831 -0.5192 -2.0248
 8152TIP3   OH224419   1.542   6.008   1.586  0.0203 -0.2223 -0.0315
 8152TIP3    H124420   1.505   5.944   1.647  0.9716  1.1937  2.1710
 8152TIP3    H224421   1.635   6.011   1.607  0.3538  0.4868 -1.4554
 8153TIP3   OH224422   2.833   1.462   3.170  0.1575  0.2581  0.3043
 8153TIP3    H124423   2.771   1.534   3.171 -0.6220 -0.3764 -0.3316
 8153TIP3    H224424   2.791   1.395   3.116  1.4752 -0.1262 -0.2939
 8154TIP3   OH224425   3.747   2.758   2.974  0.4932 -0.0916  0.4532
 8154TIP3    H124426   3.733   2.847   3.006  1.2382  0.0783  0.3045
 8154TIP3    H224427   3.660   2.717   2.980  0.1412  0.6458  0.4997
 8155TIP3   OH224428   0.871   4.696   2.077 -0.3111  0.3177  0.3899
 8155TIP3    H124429   0.950   4.664   2.123  0.4971  1.6086 -0.0443
 8155TIP3    H224430   0.834   4.618   2.038 -0.0312 -0.5481  1.7578
 8156TIP3   OH224431   3.159   5.592   1.601 -0.0736 -0.2882  0.2205
 8156TIP3    H124432   3.109   5.517   1.569  0.5488 -0.8976  0.6580
 8156TIP3    H224433   3.116   5.617   1.683 -1.7132  1.3174 -1.0386
 8157TIP3   OH224434   1.879   2.635   1.868  0.1633 -0.2234  0.7064
 8157TIP3    H124435   1.972   2.653   1.859  0.5174 -1.4606  1.6940
 8157TIP3    H224436   1.861   2.568   1.803  0.4601 -1.5471  1.9356
 8158TIP3   OH224437   0.647   3.100   2.146  0.3726  0.1647  0.5558
 8158TIP3    H124438   0.558   3.133   2.150  0.8644  1.7322 -0.5650
 8158TIP3    H224439   0.673   3.111   2.054  1.2142 -1.6804  0.5198
 8159TIP3   OH224440   5.983   1.665   4.963  0.3360 -0.3368 -0.1391
 8159TIP3    H124441   5.921   1.609   5.010  0.3573 -0.6986 -0.5442
 8159TIP3    H224442   5.990   1.744   5.018 -0.2562 -0.4156  0.0578
 8160TIP3   OH224443   1.387   6.441   3.328  0.4274 -0.2462 -0.6979
 8160TIP3    H124444   1.417   6.527   3.299 -0.8605  0.0570 -1.2259
 8160TIP3    H224445   1.291   6.447   3.323  0.2601 -1.1556  0.8527
 8161TIP3   OH224446   5.684   1.203   0.338  0.0183 -0.0135  0.2768
 8161TIP3    H124447   5.718   1.114   0.353  0.6997  0.1154 -0.4468
 8161TIP3    H224448   5.589   1.192   0.334  0.1511 -0.8761 -0.8667
 8162TIP3   OH224449   6.030   4.151   1.800  0.1610 -0.3997  0.5150
 8162TIP3    H124450   6.030   4.063   1.764  2.1781 -0.5186  0.6712
 8162TIP3    H224451   6.008   4.140   1.892  1.5993 -0.9370  0.8265
 8163TIP3   OH224452   2.374   6.238   4.268 -0.7273 -0.5765 -0.2562
 8163TIP3    H124453   2.300   6.299   4.271  0.1475  0.5377 -0.4644
 8163TIP3    H224454   2.402   6.229   4.359  1.2127  2.0454 -0.4534
 8164TIP3   OH224455   0.085   0.623   5.512  0.8204  0.1006  0.1266
 8164TIP3    H124456   0.027   0.684   5.558  0.6329 -0.6343  0.8797
 8164TIP3    H224457   0.172   0.660   5.525  0.5894  0.9925 -0.6718
 8165TIP3   OH224458   0.718   3.795   4.706  0.0181 -0.0219  0.0437
 8165TIP3    H124459   0.663   3.761   4.776 -0.0742 -1.2395 -0.5817
 8165TIP3    H224460   0.726   3.722   4.645 -0.1995  1.1080 -1.3950
 8166TIP3   OH224461   7.208   0.907   1.281  0.1858 -0.1634  0.1193
 8166TIP3    H124462   7.248   0.911   1.194  2.0036  1.1691  0.9421
 8166TIP3    H224463   7.147   0.833   1.276 -1.1727  0.9849 -2.8120
 8167TIP3   OH224464   5.780   6.223   5.886  0.1943  0.5227 -0.2293
 8167TIP3    H124465   5.823   6.300   5.924  0.7838  0.1951 -0.2261
 8167TIP3    H224466   5.804   6.226   5.793 -0.5082  0.8209 -0.4155
 8168TIP3   OH224467   6.017   6.491   1.376 -0.1326 -0.1848 -0.1898
 8168TIP3    H124468   6.082   6.423   1.395  1.0517  0.7724 -0.6688
 8168TIP3    H224469   5.979   6.464   1.292 -0.1850 -0.6148 -0.0330
 8169TIP3   OH224470   3.916   5.931   1.168 -0.6318  0.1385  0.4587
 8169TIP3    H124471   3.975   5.961   1.236  0.1165 -0.0776 -0.0820
 8169TIP3    H224472   3.830   5.931   1.209  0.1251 -2.7250  2.3293
 8170TIP3   OH224473   4.041   1.016   2.824 -0.3682  0.4367 -0.1495
 8170TIP3    H124474   4.100   1.033   2.897 -1.3168  0.8890  0.5427
 8170TIP3    H224475   3.965   0.973   2.864 -0.5105 -0.1406 -1.0106
 8171TIP3   OH224476   0.009   4.693   4.311  0.2064 -0.6181  0.5043
 8171TIP3    H124477  -0.046   4.651   4.244 -0.6679  1.1799  0.0476
 8171TIP3    H224478   0.079   4.736   4.261  0.6644 -0.8875  0.9097
 8172TIP3   OH224479   1.857   6.296   1.383 -0.2482  0.3177  0.2203
 8172TIP3    H124480   1.887   6.251   1.304 -1.0818  0.4444 -0.1798
 8172TIP3    H224481   1.872   6.233   1.454 -0.5044 -0.2152 -0.1951
 8173TIP3   OH224482   4.612   5.826   1.976  0.8735  0.0983  0.4639
 8173TIP3    H124483   4.527   5.793   2.006  0.6674 -0.2291 -0.4472
 8173TIP3    H224484   4.632   5.898   2.036  1.1544 -1.3978  2.2664
 8174TIP3   OH224485   5.723   0.183   3.537  0.1082  0.0478  0.4482
 8174TIP3    H124486   5.663   0.113   3.512  2.6710 -1.7958 -0.9848
 8174TIP3    H224487   5.756   0.157   3.623  0.4855 -0.0998  0.2596
 8175TIP3   OH224488   4.177   1.852   0.190  0.3243  0.5094  0.3618
 8175TIP3    H124489   4.250   1.889   0.142 -0.2944  1.0525 -0.1770
 8175TIP3    H224490   4.114   1.924   0.198 -0.8676 -0.3707 -0.6272
 8176TIP3   OH224491   4.136   0.761   0.383  0.2713  0.3980  0.3256
 8176TIP3    H124492   4.227   0.783   0.362  1.1598 -1.3190  2.0849
 8176TIP3    H224493   4.091   0.762   0.299  1.4415  3.1150 -0.3950
 8177TIP3   OH224494   2.136   1.659   0.303 -0.7500 -0.1276  0.1327
 8177TIP3    H124495   2.078   1.721   0.259 -2.1192 -0.3361  1.5715
 8177TIP3    H224496   2.162   1.597   0.234  0.2953  1.7146 -1.2318
 8178TIP3   OH224497   1.277   3.361   1.546 -0.1068  0.4364 -0.0724
 8178TIP3    H124498   1.187   3.392   1.532 -0.0564  0.7800  0.3575
 8178TIP3    H224499   1.312   3.419   1.613 -0.0400 -0.5982  0.8293
 8179TIP3   OH224500   2.480   2.107   5.410  0.0662  0.4497  0.6176
 8179TIP3    H124501   2.432   2.026   5.394  1.0764 -0.0662  0.0738
 8179TIP3    H224502   2.440   2.171   5.351  1.6361 -0.6208 -1.8308
 8180TIP3   OH224503   5.112   6.807   3.925 -0.4585  0.0497  0.0224
 8180TIP3    H124504   5.023   6.835   3.949 -0.5977 -1.2886  1.2113
 8180TIP3    H224505   5.115   6.714   3.950  1.9213  0.5576  1.9487
 8181TIP3   OH224506   5.218   6.765   1.898 -0.0134  0.0731 -1.1215
 8181TIP3    H124507   5.269   6.684   1.904  0.6356  0.5834  0.9950
 8181TIP3    H224508   5.144   6.751   1.957  0.7765  1.4557  0.2528
 8182TIP3   OH224509   4.197   2.139   1.950 -0.3670  0.1936 -0.0735
 8182TIP3    H124510   4.165   2.050   1.939  1.6300 -0.5628 -0.3149
 8182TIP3    H224511   4.218   2.147   2.043 -2.0156  0.9823  0.2543
 8183TIP3   OH224512   5.150   1.224   1.883 -0.0664  0.8356  0.0358
 8183TIP3    H124513   5.126   1.213   1.975 -1.0055  1.9849 -0.0435
 8183TIP3    H224514   5.104   1.303   1.856  2.5787  2.2858 -0.5930
 8184TIP3   OH224515   2.506   3.774   2.776  0.5577 -0.3992  0.4317
 8184TIP3    H124516   2.465   3.690   2.757 -2.3106  1.0610 -0.5191
 8184TIP3    H224517   2.531   3.809   2.691 -0.9054  0.8761  0.4811
 8185TIP3   OH224518   0.080   2.437   2.498  0.3805  0.2704 -0.2929
 8185TIP3    H124519   0.106   2.345   2.496  0.5957  0.2646  1.3682
 8185TIP3    H224520   0.162   2.486   2.505  0.2019  0.5241  0.0636
 8186TIP3   OH224521   7.087   6.252   4.684  0.5380 -0.1880 -0.6164
 8186TIP3    H124522   7.124   6.175   4.641  0.8494 -0.6637  0.4571
 8186TIP3    H224523   7.145   6.324   4.659  0.6651 -0.4400 -1.0517
 8187TIP3   OH224524   3.048   3.268   3.072  0.3307  0.5240 -0.2119
 8187TIP3    H124525   3.118   3.240   3.132  0.0664  0.3874  0.0377
 8187TIP3    H224526   3.089   3.334   3.017  0.2976  1.4690  0.8489
 8188TIP3   OH224527   6.221   4.773   5.674 -0.3117 -0.3406 -0.1342
 8188TIP3    H124528   6.158   4.804   5.609  1.4281  1.5002 -1.0554
 8188TIP3    H224529   6.304   4.767   5.626  0.6181 -0.8560  1.4656
 8189TIP3   OH224530   0.155   6.203   4.932  0.6228  0.2347  0.1437
 8189TIP3    H124531   0.174   6.289   4.896  0.7575  0.3048  0.3813
 8189TIP3    H224532   0.198   6.142   4.872  0.4481  0.3266 -0.0755
 8190TIP3   OH224533   1.677   4.655   3.372  0.1858  0.0603  0.2542
 8190TIP3    H124534   1.725   4.687   3.449  0.7644  1.3561 -0.5984
 8190TIP3    H224535   1.744   4.648   3.303 -0.6711  1.0937 -0.7326
 8191TIP3   OH224536   1.212   4.004   5.426 -0.2244 -0.2809  0.4055
 8191TIP3    H124537   1.295   4.010   5.379 -1.8876 -0.9646 -2.9153
 8191TIP3    H224538   1.212   3.916   5.464 -1.0997 -2.1410 -3.4212
 8192TIP3   OH224539   5.425   5.143   4.143 -0.2096 -0.2359  0.3202
 8192TIP3    H124540   5.506   5.164   4.095 -0.9344 -2.4244 -2.0599
 8192TIP3    H224541   5.366   5.215   4.121  0.1116 -0.2109 -0.5317
 8193TIP3   OH224542   1.036   0.882   5.726 -0.0147 -0.0318  0.2811
 8193TIP3    H124543   0.956   0.928   5.754  0.1120 -1.6194  3.7751
 8193TIP3    H224544   1.103   0.911   5.789  1.7953  0.0107 -1.5679
 8194TIP3   OH224545   3.323   3.281   5.089  0.0511 -0.1209  0.4212
 8194TIP3    H124546   3.385   3.269   5.017  1.1767  1.0980  1.1518
 8194TIP3    H224547   3.347   3.365   5.128 -1.6192  0.0381  1.1759
 8195TIP3   OH224548   6.444   0.708   4.887 -0.5377  0.1581  0.1176
 8195TIP3    H124549   6.470   0.711   4.795 -1.2780  0.7389 -0.0795
 8195TIP3    H224550   6.526   0.719   4.935 -0.1522 -0.0993 -0.4711
 8196TIP3   OH224551   0.680   4.573   1.214 -0.0951  0.2758  0.0000
 8196TIP3    H124552   0.736   4.603   1.142 -0.2985  1.5388  0.3426
 8196TIP3    H224553   0.737   4.517   1.267  1.3164  2.6236  1.1013
 8197TIP3   OH224554   4.436   2.808   3.802 -0.1901  0.1628 -0.6207
 8197TIP3    H124555   4.377   2.768   3.738  2.1788 -0.7255 -2.4184
 8197TIP3    H224556   4.467   2.734   3.855  4.0562 -0.8096 -3.8276
 8198TIP3   OH224557   1.558   4.129   5.624 -0.1199  0.0126 -0.2923
 8198TIP3    H124558   1.548   4.110   5.717  1.1567 -0.4545 -0.2309
 8198TIP3    H224559   1.505   4.208   5.609 -1.5596 -0.7735  0.4910
 8199TIP3   OH224560   4.383   4.341   3.559 -0.2500 -0.4461  0.7438
 8199TIP3    H124561   4.312   4.323   3.497 -0.0373  1.1292  0.0027
 8199TIP3    H224562   4.456   4.369   3.504  1.0197 -2.1155  1.4826
 8200TIP3   OH224563   3.884   6.519   1.235 -0.0787 -0.4058  0.1468
 8200TIP3    H124564   3.789   6.535   1.243 -0.0860 -0.6428  0.6141
 8200TIP3    H224565   3.892   6.424   1.242  0.1607 -0.4217 -0.3215
 8201TIP3   OH224566   4.000   3.157   5.567  0.3546  0.8239 -0.0063
 8201TIP3    H124567   4.010   3.205   5.485  1.4517  0.2740 -0.2188
 8201TIP3    H224568   4.066   3.088   5.562  0.6134  0.9368  1.4544
 8202TIP3   OH224569   3.760   3.724   0.869 -0.7342  0.2480 -0.5985
 8202TIP3    H124570   3.702   3.648   0.863 -0.0500 -0.3219 -0.2172
 8202TIP3    H224571   3.840   3.696   0.824 -0.3873  0.6552 -0.2435
 8203TIP3   OH224572   4.369   2.932   5.848 -0.6410  0.2646  0.5765
 8203TIP3    H124573   4.287   2.890   5.875  0.0582 -0.3673  1.7672
 8203TIP3    H224574   4.380   3.005   5.909 -0.5045  0.6089  0.1542
 8204TIP3   OH224575   2.370   5.285   3.836  0.2355 -0.0749  0.1358
 8204TIP3    H124576   2.317   5.219   3.790  2.8131 -1.8620 -0.4560
 8204TIP3    H224577   2.401   5.241   3.915  1.6389  0.5511 -0.0353
 8205TIP3   OH224578   2.107   3.013   4.961 -0.0922 -0.4920 -0.2308
 8205TIP3    H124579   2.077   3.027   4.871  0.7848  1.2583 -0.3054
 8205TIP3    H224580   2.201   3.032   4.958  0.5051 -2.9981  0.5654
 8206TIP3   OH224581   2.111   0.692   1.049  0.3652  0.1443 -0.1781
 8206TIP3    H124582   2.206   0.692   1.036  0.2385 -0.0773 -1.1740
 8206TIP3    H224583   2.098   0.650   1.134  1.0907 -1.1099 -0.6637
 8207TIP3   OH224584   4.931   0.598   0.732 -0.0681  0.4628  0.0082
 8207TIP3    H124585   4.908   0.690   0.747  1.6949  0.8523  0.5552
 8207TIP3    H224586   4.936   0.590   0.637  2.3227  1.6787 -0.0510
 8208TIP3   OH224587   1.037   1.954   2.883  0.8311 -1.0313 -0.1718
 8208TIP3    H124588   0.997   1.869   2.903  0.9657 -0.9389  0.5200
 8208TIP3    H224589   1.086   1.939   2.803  0.5062 -1.5000 -0.2856
 8209TIP3   OH224590   0.193   4.666   0.041 -0.8345  0.2433 -0.2514
 8209TIP3    H124591   0.250   4.743   0.046 -0.1020 -0.3911  1.8202
 8209TIP3    H224592   0.240   4.605  -0.016 -0.0638  0.2438  0.3733
 8210TIP3   OH224593   0.670   5.810   2.372 -0.1425 -0.2811 -0.1343
 8210TIP3    H124594   0.656   5.753   2.297  1.8651 -0.3826 -0.4806
 8210TIP3    H224595   0.604   5.879   2.363  0.7893  0.3720 -2.6650
 8211TIP3   OH224596   0.896   0.236   0.760 -0.1450 -0.2164  0.4170
 8211TIP3    H124597   0.857   0.193   0.836 -1.6126 -0.9073 -0.6751
 8211TIP3    H224598   0.855   0.322   0.758  0.2410 -0.0255  0.6656
 8212TIP3   OH224599   2.384   4.530   0.674 -0.7213  0.0288  0.4624
 8212TIP3    H124600   2.459   4.587   0.654  1.3868 -1.5694  3.0009
 8212TIP3    H224601   2.424   4.447   0.699 -3.4208 -1.1067  1.3795
 8213TIP3   OH224602   6.699   1.908   4.977  0.7417 -0.1174  0.1439
 8213TIP3    H124603   6.685   1.919   5.071  1.0261 -0.7474  0.2685
 8213TIP3    H224604   6.793   1.926   4.965  0.6510  0.2288 -0.0646
 8214TIP3   OH224605   2.557   2.809   5.883 -0.4134 -0.7337 -0.0650
 8214TIP3    H124606   2.618   2.735   5.887  0.4904 -0.0244 -0.3861
 8214TIP3    H224607   2.589   2.862   5.810 -1.2073 -0.1544 -0.0006
 8215TIP3   OH224608   0.668   2.522   1.817 -0.4228 -0.3416  0.7640
 8215TIP3    H124609   0.735   2.587   1.839 -1.0315  0.8029 -0.6126
 8215TIP3    H224610   0.712   2.462   1.757 -0.0120 -0.9385  1.6317
 8216TIP3   OH224611   4.206   5.428   5.467 -0.0573  0.1240 -0.3774
 8216TIP3    H124612   4.182   5.415   5.375  0.0479 -1.5346 -0.1908
 8216TIP3    H224613   4.130   5.399   5.516  0.4800 -0.5238  0.0909
 8217TIP3   OH224614   1.427   5.406   1.579  0.5471  0.2295 -0.2801
 8217TIP3    H124615   1.484   5.341   1.622 -2.1911 -1.1736  1.5253
 8217TIP3    H224616   1.399   5.363   1.498  1.8729  0.8721 -1.1092
 8218TIP3   OH224617   5.608   5.298   0.876  0.3144 -0.3206  0.2131
 8218TIP3    H124618   5.642   5.360   0.941  1.1465 -1.2597  0.7038
 8218TIP3    H224619   5.516   5.286   0.901  0.2984  0.2509  0.4682
 8219TIP3   OH224620   6.270   1.836   1.660 -0.0558 -0.2316  0.2462
 8219TIP3    H124621   6.285   1.796   1.746 -0.7919 -2.2962 -0.5306
 8219TIP3    H224622   6.327   1.787   1.600 -1.7267 -0.8687 -0.9007
 8220TIP3   OH224623   5.801   1.528   4.428  0.4642 -0.5029 -0.0337
 8220TIP3    H124624   5.785   1.611   4.472 -0.8728 -0.2339 -0.9753
 8220TIP3    H224625   5.821   1.552   4.338  0.7934 -1.1754 -0.1477
 8221TIP3   OH224626   0.265   4.086   5.240  0.2103  0.1943  0.1357
 8221TIP3    H124627   0.349   4.109   5.200  1.4331  0.9137  2.9107
 8221TIP3    H224628   0.218   4.170   5.247 -0.0416  0.0568  0.0988
 8222TIP3   OH224629   7.109   2.626   0.900 -0.0577  0.2783  0.1571
 8222TIP3    H124630   7.021   2.605   0.869 -0.6307 -2.8462  3.2843
 8222TIP3    H224631   7.162   2.550   0.877  1.1437  0.9351  0.6583
 8223TIP3   OH224632   4.452   1.661   3.082  1.1072  0.1109 -0.5598
 8223TIP3    H124633   4.360   1.640   3.099  1.3093 -0.3247  0.0390
 8223TIP3    H224634   4.483   1.591   3.026  1.3391 -0.2981  0.0712
 8224TIP3   OH224635   4.983   5.330   2.124  0.5825 -0.6778 -0.0752
 8224TIP3    H124636   4.965   5.256   2.065 -1.0895  0.0162 -0.5046
 8224TIP3    H224637   4.984   5.291   2.211  2.8002 -1.6751 -0.4760
 8225TIP3   OH224638   3.018   3.202   5.318  0.6082  0.0668 -0.4254
 8225TIP3    H124639   3.090   3.221   5.379 -0.0380 -0.9532  0.7102
 8225TIP3    H224640   3.015   3.106   5.316 -0.3892  0.1068 -0.8542
 8226TIP3   OH224641   0.768   0.472   2.755  0.2116 -0.6091  0.6788
 8226TIP3    H124642   0.828   0.438   2.688  1.6298  1.6553  0.6779
 8226TIP3    H224643   0.780   0.414   2.830  0.4334 -1.7370 -0.2087
 8227TIP3   OH224644   6.712   5.588   2.438  0.2361 -0.0961  0.7347
 8227TIP3    H124645   6.679   5.526   2.503 -1.2913  0.5329  0.6181
 8227TIP3    H224646   6.696   5.674   2.477 -0.9138  0.2936 -0.5318
 8228TIP3   OH224647   3.561   1.074   4.693 -0.0103  0.2076  0.7071
 8228TIP3    H124648   3.646   1.079   4.735  0.1933  0.7503  0.2382
 8228TIP3    H224649   3.554   0.983   4.663  1.7693  0.8528 -2.0188
 8229TIP3   OH224650   1.978   4.172   3.860  0.8228  0.2381  0.0516
 8229TIP3    H124651   1.959   4.105   3.925  0.7731  0.7966  0.6182
 8229TIP3    H224652   1.950   4.133   3.777 -1.6399  0.5235  0.6686
 8230TIP3   OH224653   0.527   0.346   4.409 -0.2553  0.3557 -0.2136
 8230TIP3    H124654   0.443   0.391   4.416 -0.1656  0.2742  2.1280
 8230TIP3    H224655   0.583   0.407   4.361 -0.8681  1.6367  0.6387
 8231TIP3   OH224656  -0.022   5.457   3.531  0.1430 -0.4336  0.0304
 8231TIP3    H124657   0.029   5.439   3.452 -1.4967  0.2530 -1.2445
 8231TIP3    H224658   0.044   5.472   3.599  1.6062 -1.1218 -1.1692
 8232TIP3   OH224659   0.609   0.876   5.127 -0.4066  0.1559 -0.5579
 8232TIP3    H124660   0.563   0.882   5.043 -0.8040 -1.0601 -0.4485
 8232TIP3    H224661   0.694   0.916   5.111 -1.3031  2.0182 -0.8947
 8233TIP3   OH224662   0.485   4.716   2.337 -0.3908 -0.5305  0.2678
 8233TIP3    H124663   0.477   4.641   2.395 -1.9143  0.3158  1.2152
 8233TIP3    H224664   0.397   4.753   2.333  0.2935  1.1362 -0.2856
 8234TIP3   OH224665   0.183   1.561   4.744  0.4356 -0.4365  0.0538
 8234TIP3    H124666   0.239   1.620   4.694 -0.7970 -0.9608 -2.0739
 8234TIP3    H224667   0.211   1.474   4.718 -0.8758 -0.7134 -0.5094
 8235TIP3   OH224668   4.427   3.643   5.047 -0.4585 -0.1614  0.4730
 8235TIP3    H124669   4.473   3.598   4.976 -0.2215 -0.8668  1.0716
 8235TIP3    H224670   4.402   3.728   5.009  1.0385  0.1043  0.0320
 8236TIP3   OH224671   0.728   1.219   4.198  0.0760 -0.4277 -0.2022
 8236TIP3    H124672   0.727   1.306   4.240 -2.0790 -0.1984 -0.5771
 8236TIP3    H224673   0.635   1.201   4.180  0.5575 -2.4696 -0.8653
 8237TIP3   OH224674   5.871   5.989   5.237 -0.0010 -0.0074  0.1018
 8237TIP3    H124675   5.963   5.983   5.211  0.0562 -0.3798  0.3821
 8237TIP3    H224676   5.822   5.984   5.154  0.2307  0.2177 -0.0484
 8238TIP3   OH224677   0.316   1.062   1.474 -0.0141 -0.2089  0.3328
 8238TIP3    H124678   0.399   1.107   1.492  0.7796 -1.8737  1.0571
 8238TIP3    H224679   0.258   1.131   1.443  1.5979  1.0365 -0.0736
 8239TIP3   OH224680   3.039   6.278   5.590  0.1075  1.2388 -0.1829
 8239TIP3    H124681   3.028   6.184   5.578 -0.7705  1.3284 -0.1132
 8239TIP3    H224682   3.123   6.298   5.549 -0.7064  0.7874 -2.1701
 8240TIP3   OH224683   2.854   0.458   3.535  0.0225  0.7847 -0.1287
 8240TIP3    H124684   2.896   0.420   3.612  0.2105  0.1585 -0.5318
 8240TIP3    H224685   2.766   0.481   3.565 -0.6281 -1.3541 -0.2355
 8241TIP3   OH224686   0.198   1.494   5.419 -0.3630  0.4546 -0.7094
 8241TIP3    H124687   0.211   1.481   5.513  2.3718 -0.3362 -1.1128
 8241TIP3    H224688   0.207   1.588   5.405  1.7179  0.3241 -0.4449
 8242TIP3   OH224689   6.888   3.631   0.920 -0.2972 -0.1800 -0.1777
 8242TIP3    H124690   6.971   3.595   0.887  0.0549  0.1217  0.3574
 8242TIP3    H224691   6.824   3.562   0.904 -0.5045  0.5271 -2.9944
 8243TIP3   OH224692   4.801   4.518   1.394  0.2648  0.5934 -0.1828
 8243TIP3    H124693   4.723   4.493   1.344  0.4057 -0.0251 -0.0992
 8243TIP3    H224694   4.797   4.463   1.472  1.3768 -0.2294 -0.6944
 8244TIP3   OH224695   4.198   0.213   4.166  0.1751  0.2157 -0.4639
 8244TIP3    H124696   4.167   0.236   4.079  0.1006  0.9752 -0.2443
 8244TIP3    H224697   4.169   0.285   4.222 -0.7066 -0.7564  0.3957
 8245TIP3   OH224698   1.368   1.000   0.286  0.6163 -0.1332  0.1158
 8245TIP3    H124699   1.378   1.057   0.363 -2.0408 -1.1517  1.3683
 8245TIP3    H224700   1.414   0.920   0.310 -1.2290 -0.9127  1.2788
 8246TIP3   OH224701   4.581   1.316   4.142 -0.3827  0.0316  0.3207
 8246TIP3    H124702   4.658   1.374   4.140  0.3940 -0.9088 -2.2835
 8246TIP3    H224703   4.513   1.367   4.185  1.6022  0.9897  2.5517
 8247TIP3   OH224704   1.486   2.000   0.161  0.0635  0.2203  0.3781
 8247TIP3    H124705   1.438   1.959   0.089 -1.1781  0.0858  1.2463
 8247TIP3    H224706   1.435   2.078   0.183  0.5131  0.3478  1.0143
 8248TIP3   OH224707   0.379   4.038   3.071 -0.0005 -0.0205 -0.1209
 8248TIP3    H124708   0.380   4.110   3.134 -0.0645  2.3514 -2.6886
 8248TIP3    H224709   0.468   4.033   3.038 -0.0701 -0.9652 -0.2011
 8249TIP3   OH224710   3.059   6.571   3.061 -0.5665 -0.3936 -0.4152
 8249TIP3    H124711   2.982   6.607   3.018 -1.5475 -1.4184  0.4249
 8249TIP3    H224712   3.133   6.618   3.021 -1.6137  0.6972 -1.1456
 8250TIP3   OH224713   6.837   4.477   5.329 -0.2529  0.5454 -0.1144
 8250TIP3    H124714   6.862   4.554   5.278  1.3662 -0.0824 -0.3258
 8250TIP3    H224715   6.838   4.405   5.265  0.4445 -0.0187  0.5217
 8251TIP3   OH224716   2.932   4.672   2.902  0.1998 -0.4031  0.1144
 8251TIP3    H124717   2.989   4.749   2.905 -0.8989  0.4824 -0.5974
 8251TIP3    H224718   2.992   4.597   2.904  1.3145  0.4627  0.4707
 8252TIP3   OH224719   2.662   1.893   3.096  0.1632  0.5737  0.0342
 8252TIP3    H124720   2.729   1.871   3.032 -1.0167 -1.3930 -0.6047
 8252TIP3    H224721   2.607   1.957   3.050 -0.6774 -0.8230 -0.9895
 8253TIP3   OH224722   3.420   2.215   2.987  0.3230  0.8189  0.5272
 8253TIP3    H124723   3.486   2.199   2.920  0.9783  0.5397  1.2235
 8253TIP3    H224724   3.337   2.215   2.940  0.8177  1.1169 -0.3507
 8254TIP3   OH224725   1.743   2.138   0.385 -0.1993 -0.3236 -0.3591
 8254TIP3    H124726   1.831   2.173   0.370 -0.7550  0.8519 -1.0104
 8254TIP3    H224727   1.708   2.121   0.297 -0.9154 -0.0046 -0.1475
 8255TIP3   OH224728   4.882   0.430   2.342 -0.2101  0.1058 -0.5533
 8255TIP3    H124729   4.853   0.466   2.258 -0.8500  0.9053  0.0002
 8255TIP3    H224730   4.960   0.379   2.319  0.7506  1.8303 -1.3931
 8256TIP3   OH224731   0.722   5.442   5.010  0.1877  0.5810 -0.2896
 8256TIP3    H124732   0.641   5.398   5.037  0.8691 -0.2184  0.5205
 8256TIP3    H224733   0.719   5.527   5.053  0.4071  0.0189  0.8765
 8257TIP3   OH224734   6.610   2.243   0.957 -0.9745  0.1125 -0.0508
 8257TIP3    H124735   6.563   2.321   0.986 -1.2579 -0.4196  0.9679
 8257TIP3    H224736   6.661   2.216   1.034 -1.0760 -0.8420 -0.3009
 8258TIP3   OH224737   0.407   1.505   4.150 -1.1243 -0.2680  0.3232
 8258TIP3    H124738   0.469   1.440   4.184  0.6294  1.7718  1.2176
 8258TIP3    H224739   0.365   1.461   4.076  0.3622 -2.2330  0.5614
 8259TIP3   OH224740   0.500   0.818   5.357  0.0575 -0.0901 -0.0797
 8259TIP3    H124741   0.440   0.892   5.357  0.0488 -0.0895  0.6325
 8259TIP3    H224742   0.565   0.839   5.290  2.2470  2.3808  2.5936
 8260TIP3   OH224743   2.096   3.434   4.835  0.5469  0.5954  0.8725
 8260TIP3    H124744   2.054   3.357   4.795 -0.0390  0.8004  1.0786
 8260TIP3    H224745   2.046   3.508   4.801  1.4462  0.9347  0.2512
 8261TIP3   OH224746   7.060   4.926   3.606 -0.5340 -0.3019 -0.3952
 8261TIP3    H124747   7.017   4.860   3.551  0.7756 -2.9714  1.5194
 8261TIP3    H224748   7.006   4.931   3.685  0.9173 -1.4600  0.7495
 8262TIP3   OH224749   3.426   5.622   3.392 -0.2203  0.3458  0.2106
 8262TIP3    H124750   3.399   5.712   3.407 -1.2248 -0.1674  1.7535
 8262TIP3    H224751   3.355   5.584   3.340 -1.3584 -0.3264  2.1432
 8263TIP3   OH224752   6.029   3.930   5.335 -0.1121 -0.1522  0.0139
 8263TIP3    H124753   5.992   3.842   5.338 -0.7103  0.1207  0.8723
 8263TIP3    H224754   5.959   3.985   5.301  0.2333  0.0228 -0.4377
 8264TIP3   OH224755   4.800   3.308   0.546 -0.1801 -0.0986  0.1447
 8264TIP3    H124756   4.824   3.260   0.467  0.5692 -0.2822  0.4744
 8264TIP3    H224757   4.704   3.306   0.547 -0.1823 -2.5259  0.6869
 8265TIP3   OH224758   1.004   0.612   3.209  0.0391 -0.3939  0.3419
 8265TIP3    H124759   1.021   0.615   3.115  1.2181 -0.8948  0.5342
 8265TIP3    H224760   1.061   0.679   3.246 -0.9758  0.3330  0.6349
 8266TIP3   OH224761   5.091   3.823   3.494 -0.2326 -0.2201  0.4935
 8266TIP3    H124762   5.086   3.749   3.434  0.1985 -0.3548  0.6241
 8266TIP3    H224763   5.035   3.798   3.567 -2.0127  0.5846 -0.5196
 8267TIP3   OH224764   2.613   3.240   1.341  0.2657 -0.0218  0.0885
 8267TIP3    H124765   2.557   3.191   1.281 -2.9560  2.6296  0.6131
 8267TIP3    H224766   2.628   3.323   1.296  0.8790  0.6135  1.4297
 8268TIP3   OH224767   7.188   0.071   0.526  0.0778 -0.3738 -0.7598
 8268TIP3    H124768   7.145   0.095   0.444 -0.5963  0.9315 -0.0516
 8268TIP3    H224769   7.282   0.074   0.505 -0.0710  0.2972 -1.3863
 8269TIP3   OH224770   7.100   0.205   5.393  0.4442 -0.1761  0.1795
 8269TIP3    H124771   7.020   0.254   5.412 -1.0907 -2.5216  0.1268
 8269TIP3    H224772   7.086   0.168   5.306  1.2365 -1.2835  0.4965
 8270TIP3   OH224773   6.845   5.790   4.899 -0.5174 -0.3642 -0.7390
 8270TIP3    H124774   6.817   5.864   4.845 -1.0079 -0.6676 -0.9016
 8270TIP3    H224775   6.768   5.733   4.904 -0.5674 -0.2232  0.4733
 8271TIP3   OH224776   4.211   3.924   2.720 -0.2663 -0.2679  0.7466
 8271TIP3    H124777   4.247   4.010   2.700 -0.1494 -0.3900  0.4219
 8271TIP3    H224778   4.215   3.876   2.637 -0.5711 -0.5001  0.8635
 8272TIP3   OH224779   3.623   4.202   1.735 -0.6184 -0.0536  0.8418
 8272TIP3    H124780   3.566   4.251   1.675 -0.0261  0.2974  0.5486
 8272TIP3    H224781   3.645   4.122   1.688 -0.1585  0.2188  0.5855
 8273TIP3   OH224782   3.194   5.821   4.591 -0.3362 -0.0188  0.3538
 8273TIP3    H124783   3.140   5.806   4.514  0.6507 -2.2051  0.0019
 8273TIP3    H224784   3.173   5.910   4.619 -2.2500  0.0711 -1.1947
 8274TIP3   OH224785   6.996   1.470   3.179  0.0132 -0.1198 -0.4345
 8274TIP3    H124786   7.072   1.494   3.126 -0.7618  1.7358 -0.8076
 8274TIP3    H224787   6.940   1.548   3.176 -2.1347 -1.5861 -0.5714
 8275TIP3   OH224788   5.988   3.282   1.870  0.0363  0.5934  0.1948
 8275TIP3    H124789   5.907   3.283   1.920  0.6194  1.2934  1.1576
 8275TIP3    H224790   6.048   3.227   1.920  0.0344 -0.2785 -0.7335
 8276TIP3   OH224791   3.620   6.475   3.014 -0.0230 -1.2072 -0.1385
 8276TIP3    H124792   3.667   6.407   3.063 -1.4731 -2.3169 -0.2432
 8276TIP3    H224793   3.546   6.499   3.070 -0.5834 -1.0690 -0.9277
 8277TIP3   OH224794   2.675   0.526   2.792  0.4644 -0.2370  0.3416
 8277TIP3    H124795   2.743   0.574   2.746  2.0572 -2.6642 -0.0354
 8277TIP3    H224796   2.594   0.544   2.744  0.6495  3.0210  1.0324
 8278TIP3   OH224797   1.197   3.131   2.402 -0.8822 -0.4855 -0.6961
 8278TIP3    H124798   1.250   3.056   2.375 -0.0903 -0.2924  0.2967
 8278TIP3    H224799   1.136   3.095   2.466 -0.2167 -0.2096  0.1031
 8279TIP3   OH224800   3.854   3.966   2.661 -0.2638  0.1074 -0.1217
 8279TIP3    H124801   3.899   4.016   2.593  2.5364 -1.5812  0.3055
 8279TIP3    H224802   3.924   3.934   2.718 -2.1034 -1.9919  1.1644
 8280TIP3   OH224803   1.975   3.869   3.665  0.1324 -0.0638 -0.0544
 8280TIP3    H124804   2.010   3.783   3.689  0.8122 -0.2305 -1.5063
 8280TIP3    H224805   1.888   3.851   3.629 -0.8354  0.1735  2.0386
 8281TIP3   OH224806   6.283   1.736   3.290 -0.3551 -0.1383 -0.5553
 8281TIP3    H124807   6.264   1.809   3.230  0.9303  1.7645  1.2297
 8281TIP3    H224808   6.248   1.765   3.374  2.6481 -0.2419  0.8587
 8282TIP3   OH224809   2.902   0.590   0.910 -0.2229 -0.3072  0.0871
 8282TIP3    H124810   2.937   0.657   0.851  0.9560 -1.0372 -0.0660
 8282TIP3    H224811   2.807   0.600   0.903 -0.0832  0.6371 -0.7498
 8283TIP3   OH224812   1.630   3.111   0.452  0.0002 -0.0306 -0.3271
 8283TIP3    H124813   1.638   3.194   0.500 -0.3238 -0.3802  0.3464
 8283TIP3    H224814   1.549   3.121   0.402 -0.4473 -0.2276  0.3464
 8284TIP3   OH224815   1.704   6.121   4.176  0.1974  0.3223 -0.2523
 8284TIP3    H124816   1.674   6.209   4.199 -0.5493 -0.3253  1.3310
 8284TIP3    H224817   1.800   6.127   4.179  0.2613  1.6082 -2.3588
 8285TIP3   OH224818   4.126   5.144   2.103 -0.2880  0.3979 -0.4646
 8285TIP3    H124819   4.059   5.091   2.145 -0.8258  2.0547  0.8961
 8285TIP3    H224820   4.091   5.233   2.106  0.5604  0.8656 -2.6908
 8286TIP3   OH224821   0.844   6.130   1.717  0.0959  0.3612 -0.0824
 8286TIP3    H124822   0.855   6.092   1.630 -1.5380 -1.6840  0.5272
 8286TIP3    H224823   0.750   6.125   1.733  0.2595  1.5080  1.4893
 8287TIP3   OH224824   5.119   2.254   3.872  0.0016  0.1897 -0.4350
 8287TIP3    H124825   5.131   2.175   3.820  1.3019  1.6205 -2.4722
 8287TIP3    H224826   5.040   2.295   3.836  0.5158  0.8406 -0.8576
 8288TIP3   OH224827   5.544   4.499   4.846  0.2299  0.1194 -0.2614
 8288TIP3    H124828   5.555   4.587   4.882  0.8765 -0.2000  0.3489
 8288TIP3    H224829   5.514   4.447   4.920  2.4897 -0.7498  0.1110
 8289TIP3   OH224830   1.338   0.014   5.815 -0.5856 -0.0557  0.3609
 8289TIP3    H124831   1.242   0.014   5.821 -0.6904  2.7366  0.2808
 8289TIP3    H224832   1.357  -0.023   5.729 -1.9243  2.8018 -1.3298
 8290TIP3   OH224833   1.337   4.032   4.898  0.1616  0.0518 -0.2001
 8290TIP3    H124834   1.252   4.047   4.939  1.3715 -0.8176  2.9880
 8290TIP3    H224835   1.374   4.119   4.886 -0.8102  0.3933 -0.7863
 8291TIP3   OH224836   5.922   4.645   0.260  0.1869 -0.6498  0.3510
 8291TIP3    H124837   5.929   4.733   0.297 -1.3190 -0.1866 -0.3779
 8291TIP3    H224838   5.959   4.588   0.327  1.0570  0.5205  0.8979
 8292TIP3   OH224839   0.745   2.676   0.122 -0.1225  0.1031  0.2166
 8292TIP3    H124840   0.685   2.727   0.066 -0.5137  0.0751  0.6051
 8292TIP3    H224841   0.688   2.616   0.169  0.4306 -1.4688 -1.0124
 8293TIP3   OH224842   3.611   4.014   4.744  0.3144  0.1913 -0.3910
 8293TIP3    H124843   3.688   3.962   4.767  1.0411  0.8951 -1.1733
 8293TIP3    H224844   3.625   4.098   4.787  0.0374  0.3666 -0.6426
 8294TIP3   OH224845   3.690   2.292   2.492  0.6520 -0.1352 -0.2308
 8294TIP3    H124846   3.737   2.223   2.445 -0.9668 -0.6937 -1.1419
 8294TIP3    H224847   3.744   2.370   2.481  1.1286 -0.6284 -1.6694
 8295TIP3   OH224848   5.676   1.520   3.024  0.4540 -0.1412 -0.6549
 8295TIP3    H124849   5.688   1.556   2.936  2.1415  0.3214 -0.2690
 8295TIP3    H224850   5.749   1.459   3.035  0.7087  0.3817  0.7118
 8296TIP3   OH224851   0.758   3.383   4.968  0.4670 -0.6057 -0.0571
 8296TIP3    H124852   0.664   3.383   4.954  0.7974 -1.1747 -2.7776
 8296TIP3    H224853   0.769   3.407   5.060 -2.3219 -0.9560  0.4350
 8297TIP3   OH224854   2.881   6.401   2.775 -0.3440  0.1971 -0.4700
 8297TIP3    H124855   2.888   6.483   2.726 -0.3183 -0.0558 -0.8946
 8297TIP3    H224856   2.810   6.416   2.837 -0.4456  0.4823 -0.6533
 8298TIP3   OH224857   6.749   6.650   5.267 -0.0574 -0.1042  0.1441
 8298TIP3    H124858   6.727   6.602   5.346  0.0605  1.2100  0.9973
 8298TIP3    H224859   6.837   6.619   5.244  0.8551  1.0921  1.8199
 8299TIP3   OH224860   2.454   6.596   0.760 -0.4491 -0.0119 -0.6098
 8299TIP3    H124861   2.508   6.674   0.745  0.3623 -0.4485 -0.0551
 8299TIP3    H224862   2.369   6.631   0.789  0.0044  0.6667 -0.0464
 8300TIP3   OH224863   0.076   2.282   0.256  0.2032 -0.1533  0.9362
 8300TIP3    H124864  -0.008   2.313   0.224  0.3707  0.1418  0.7734
 8300TIP3    H224865   0.114   2.235   0.182 -0.3921 -1.4573  1.4285
 8301TIP3   OH224866   6.643   3.529   2.064  0.1616  0.3084 -0.2242
 8301TIP3    H124867   6.634   3.554   1.972  0.8399 -0.7826 -0.6121
 8301TIP3    H224868   6.597   3.445   2.070  0.8600 -0.0472  0.2290
 8302TIP3   OH224869   3.868   6.747   2.228  0.7999 -0.4178  0.2250
 8302TIP3    H124870   3.929   6.675   2.209  0.7530 -0.4584  0.2289
 8302TIP3    H224871   3.890   6.772   2.318 -0.5138 -1.7397  0.9469
 8303TIP3   OH224872   0.582   1.166   3.389 -0.1314  0.3708 -0.0804
 8303TIP3    H124873   0.652   1.168   3.324 -0.3532  0.7341 -0.3123
 8303TIP3    H224874   0.540   1.252   3.381 -1.5002 -0.3549 -0.9347
 8304TIP3   OH224875   7.007   2.033   1.614  0.1317  0.6039  0.4563
 8304TIP3    H124876   7.027   1.943   1.640  0.0632  0.2594 -0.6553
 8304TIP3    H224877   6.915   2.045   1.636 -0.4895 -0.3625 -1.4088
 8305TIP3   OH224878   1.273   1.559   4.563  0.4966 -0.2765 -0.2944
 8305TIP3    H124879   1.270   1.654   4.568  2.6020 -0.0240 -2.3977
 8305TIP3    H224880   1.335   1.533   4.631  2.0508  0.1357 -1.5104
 8306TIP3   OH224881   3.577   6.611   4.349  0.4304  0.3144  0.5225
 8306TIP3    H124882   3.668   6.587   4.368  0.4827 -0.4030 -0.5728
 8306TIP3    H224883   3.529   6.529   4.356  0.3166  0.1677 -1.5560
 8307TIP3   OH224884   0.897   4.100   2.797  0.1321  0.1348  0.2382
 8307TIP3    H124885   0.955   4.150   2.739 -0.1546  0.3970  0.1752
 8307TIP3    H224886   0.920   4.009   2.780  0.9094  0.2479  0.6092
 8308TIP3   OH224887   7.081   2.547   5.670  0.1197 -0.2149 -0.1413
 8308TIP3    H124888   7.053   2.472   5.617  2.0560 -0.5390 -0.7727
 8308TIP3    H224889   7.093   2.617   5.607 -1.4573  0.6125  0.4234
 8309TIP3   OH224890   2.594   2.711   3.665  0.3058  0.5297  0.3220
 8309TIP3    H124891   2.680   2.718   3.624  1.1794 -2.2895  1.3973
 8309TIP3    H224892   2.611   2.726   3.758 -0.5194  0.7837  0.4343
 8310TIP3   OH224893   3.581   5.271   1.174  0.3081 -0.7380  0.2753
 8310TIP3    H124894   3.486   5.267   1.185  0.3831  1.9959  3.8459
 8310TIP3    H224895   3.608   5.181   1.156 -3.0014 -1.3141 -3.0189
 8311TIP3   OH224896   3.562   6.114   0.699 -0.4026 -0.3259 -0.4823
 8311TIP3    H124897   3.612   6.079   0.772  0.3446  1.6399  0.0295
 8311TIP3    H224898   3.620   6.106   0.624 -0.0374  0.2236 -0.2672
 8312TIP3   OH224899   1.261   4.558   1.187  0.0664 -0.0030 -0.4284
 8312TIP3    H124900   1.177   4.514   1.194 -0.6635  1.1966 -1.3652
 8312TIP3    H224901   1.244   4.636   1.135  1.4416  1.1008  0.6891
 8313TIP3   OH224902   6.696   2.930   2.476  0.1662 -0.3925  0.4210
 8313TIP3    H124903   6.752   2.892   2.544  1.4379 -0.3092 -0.5403
 8313TIP3    H224904   6.735   2.900   2.394 -0.0608  1.2275 -0.3142
 8314TIP3   OH224905   4.255   2.936   0.743 -0.1323  0.2866 -0.1139
 8314TIP3    H124906   4.325   2.923   0.679  1.7224  2.4377  1.3138
 8314TIP3    H224907   4.278   2.880   0.817 -1.4484 -1.0506 -0.6743
 8315TIP3   OH224908   6.340   1.486   3.259  0.4292 -0.1358 -0.2009
 8315TIP3    H124909   6.430   1.488   3.225  0.1194  0.8548 -1.0159
 8315TIP3    H224910   6.312   1.578   3.259 -1.7835 -0.6452 -3.2986
 8316TIP3   OH224911   3.775   4.695   2.943 -0.6018 -0.2297  0.1319
 8316TIP3    H124912   3.774   4.601   2.961  0.4925 -0.3623 -0.4149
 8316TIP3    H224913   3.858   4.725   2.978 -0.6729  0.4228 -0.2404
 8317TIP3   OH224914   1.829   3.313   2.747 -0.1280  0.2783  0.4723
 8317TIP3    H124915   1.774   3.328   2.824 -0.4205  2.4602 -0.0864
 8317TIP3    H224916   1.782   3.248   2.695  0.1348 -1.3227  2.1514
 8318TIP3   OH224917   3.760   1.821   0.107 -0.1998  0.1898  0.3869
 8318TIP3    H124918   3.682   1.858   0.148 -1.4585 -0.8263 -0.9536
 8318TIP3    H224919   3.768   1.870   0.024  0.0923 -0.2701  0.1411
 8319TIP3   OH224920   0.631   3.946   2.298  0.3428  0.0210  0.4298
 8319TIP3    H124921   0.696   3.922   2.365 -0.1846  0.4424  1.1013
 8319TIP3    H224922   0.667   3.911   2.217  2.0471  1.3078  0.5734
 8320TIP3   OH224923   5.673   4.691   2.783 -0.0407  0.3126 -0.2245
 8320TIP3    H124924   5.609   4.688   2.711  0.9515  0.2982 -1.1287
 8320TIP3    H224925   5.665   4.605   2.825 -1.9079  0.9587  0.8638
 8321TIP3   OH224926   4.643   5.711   0.271  0.0489  0.2617 -0.3074
 8321TIP3    H124927   4.553   5.713   0.303  0.7669 -0.4525  2.0385
 8321TIP3    H224928   4.637   5.674   0.183 -1.9226  0.0884 -0.1456
 8322TIP3   OH224929   1.458   4.338   2.290  0.0855  0.1925  0.2550
 8322TIP3    H124930   1.453   4.433   2.295 -0.2759  0.1386  4.1864
 8322TIP3    H224931   1.531   4.315   2.347 -0.5780 -1.9131  0.3403
 8323TIP3   OH224932   0.648   5.676   3.627  0.4227  0.0439  0.5045
 8323TIP3    H124933   0.576   5.732   3.598  0.2543 -0.5345 -0.2390
 8323TIP3    H224934   0.724   5.733   3.626 -0.0929  0.7925  1.7769
 8324TIP3   OH224935   6.172   1.272   0.404 -0.6017  0.8088 -0.4482
 8324TIP3    H124936   6.228   1.349   0.408 -0.3544  0.6270 -0.4060
 8324TIP3    H224937   6.087   1.306   0.376 -0.1176  0.8902 -1.8763
 8325TIP3   OH224938   1.645   2.776   0.210 -0.3118 -0.2026  0.2728
 8325TIP3    H124939   1.556   2.756   0.239 -0.2649  0.7463  1.1777
 8325TIP3    H224940   1.654   2.732   0.126 -1.1296 -1.5272  0.8430
 8326TIP3   OH224941   6.033   3.576   4.162 -0.1026  0.8435 -0.2817
 8326TIP3    H124942   6.061   3.594   4.252  0.4396  0.3776 -0.3533
 8326TIP3    H224943   6.068   3.649   4.111 -2.2303  2.2733  0.1907
 8327TIP3   OH224944   2.270   0.688   1.680  0.3782 -0.1940 -0.1979
 8327TIP3    H124945   2.350   0.719   1.639  0.4061 -0.7771 -0.6021
 8327TIP3    H224946   2.264   0.737   1.762  0.5683  0.6429 -0.6751
 8328TIP3   OH224947   0.387   4.998   0.329  0.6016 -0.5492  0.2434
 8328TIP3    H124948   0.373   4.946   0.250 -0.1860 -0.3054  0.2163
 8328TIP3    H224949   0.318   4.970   0.389  0.2186  0.3927  0.2585
 8329TIP3   OH224950   4.936   3.101   2.858  0.0612 -0.2545 -0.0870
 8329TIP3    H124951   4.924   3.016   2.814  0.1562 -0.3418  0.0542
 8329TIP3    H224952   5.024   3.095   2.896  0.8082  0.5911 -1.5910
 8330TIP3   OH224953   6.620   5.216   4.763  0.0584 -0.1325 -0.0240
 8330TIP3    H124954   6.578   5.138   4.800 -0.9488  0.4768  0.1730
 8330TIP3    H224955   6.687   5.240   4.828  1.5118 -1.7329 -0.8452
 8331TIP3   OH224956   6.851   0.858   1.297 -0.2671 -0.1495  0.0078
 8331TIP3    H124957   6.797   0.836   1.221 -0.3898 -0.6265  0.2257
 8331TIP3    H224958   6.792   0.906   1.355  0.1833  1.3645 -0.7609
 8332TIP3   OH224959   3.162   2.508   3.528 -0.3485  0.0429  0.3748
 8332TIP3    H124960   3.136   2.450   3.599 -0.3951  0.8338  1.0170
 8332TIP3    H224961   3.156   2.596   3.565 -0.2916  0.4640 -0.5841
 8333TIP3   OH224962   5.633   5.594   1.714 -0.9903  0.5901  0.1653
 8333TIP3    H124963   5.599   5.579   1.802  0.8053 -1.2829  0.6049
 8333TIP3    H224964   5.717   5.639   1.727  0.1050 -1.1780 -0.4244
 8334TIP3   OH224965   0.110   6.489   5.738 -0.5192 -0.0422  0.0752
 8334TIP3    H124966   0.146   6.525   5.657 -1.5206 -0.1520 -0.4406
 8334TIP3    H224967   0.102   6.395   5.721 -2.1974  0.1304 -0.3199
 8335TIP3   OH224968   0.031   2.924   4.758 -0.0981 -0.4643  0.0578
 8335TIP3    H124969  -0.008   3.004   4.723  0.6584 -0.2851 -0.3952
 8335TIP3    H224970   0.002   2.921   4.849  0.3750  0.6703  0.2655
 8336TIP3   OH224971  -0.002   5.505   5.806  0.3908 -0.4479  0.3904
 8336TIP3    H124972   0.033   5.417   5.796  0.4700 -0.3983  0.2300
 8336TIP3    H224973   0.073   5.559   5.831  0.0718 -0.6997  2.0451
 8337TIP3   OH224974   4.018   2.702   5.242 -0.2028  0.2591  0.0824
 8337TIP3    H124975   4.050   2.688   5.153 -0.4831 -2.6516  0.3659
 8337TIP3    H224976   3.923   2.713   5.232 -0.5784 -2.4047  0.1359
 8338TIP3   OH224977   3.155   6.124   4.479 -0.2796 -0.2455  0.0663
 8338TIP3    H124978   3.086   6.177   4.440 -0.5910 -0.9277 -0.3314
 8338TIP3    H224979   3.200   6.085   4.404 -0.3551 -0.9142  0.3641
 8339TIP3   OH224980   6.757   5.416   1.422 -0.3252 -0.3942  0.3016
 8339TIP3    H124981   6.669   5.397   1.455  0.7279 -0.2042  3.6987
 8339TIP3    H224982   6.768   5.510   1.437  0.0283 -0.1495 -1.3558
 8340TIP3   OH224983   6.049   5.071   1.469  0.3415 -0.3596  0.2931
 8340TIP3    H124984   5.971   5.065   1.413  1.2887  0.9620 -1.2915
 8340TIP3    H224985   6.026   5.135   1.536 -1.0505 -2.4631  1.9544
 8341TIP3   OH224986   2.153   1.052   0.851  0.4378  0.1050 -0.1537
 8341TIP3    H124987   2.175   1.063   0.758  1.3164 -0.4641 -0.0295
 8341TIP3    H224988   2.128   0.960   0.859 -0.6532  0.4054 -0.0122
 8342TIP3   OH224989   4.375   3.242   3.430  0.1959  0.9823 -0.0709
 8342TIP3    H124990   4.321   3.315   3.462  0.8243  1.6330 -0.4656
 8342TIP3    H224991   4.323   3.164   3.449 -0.2093  1.4803  0.9298
 8343TIP3   OH224992   0.261   5.878   1.624  0.3258  0.0802  0.3854
 8343TIP3    H124993   0.188   5.905   1.680  0.2292  1.4377 -0.3512
 8343TIP3    H224994   0.327   5.946   1.637  1.3787 -0.9835  0.8300
 8344TIP3   OH224995   5.100   4.096   2.688 -0.5081  0.2668  0.4971
 8344TIP3    H124996   5.083   4.091   2.782 -2.8092  1.6759  0.2565
 8344TIP3    H224997   5.059   4.018   2.652 -0.0874 -0.0087  0.6154
 8345TIP3   OH224998   2.520   0.995   0.320  0.7340  0.4031  0.0395
 8345TIP3    H124999   2.535   0.906   0.290 -0.7993 -0.1306  0.7297
 8345TIP3    H225000   2.444   1.025   0.270  1.6293  1.5919 -0.6721
 8346TIP3   OH225001   4.529   1.954   2.929  0.1998  0.2082 -0.0150
 8346TIP3    H125002   4.539   1.962   3.024 -1.3967 -0.7197  0.2746
 8346TIP3    H225003   4.436   1.937   2.917  0.0061  2.2672 -1.9039
 8347TIP3   OH225004   1.206   3.691   1.151  0.3771 -0.0237  0.0710
 8347TIP3    H125005   1.142   3.739   1.202  0.9318  0.1053  0.6533
 8347TIP3    H225006   1.278   3.674   1.211  0.7700 -0.4200 -0.4920
 8348TIP3   OH225007   2.509   4.701   2.314 -0.4896 -0.2015 -0.1040
 8348TIP3    H125008   2.460   4.641   2.258 -0.7195  0.5839 -0.7539
 8348TIP3    H225009   2.474   4.788   2.295 -0.8408  0.0576  1.5463
 8349TIP3   OH225010   5.257   2.508   1.854 -0.2027  0.5773  0.0883
 8349TIP3    H125011   5.209   2.557   1.788  1.9075  1.9919 -0.5058
 8349TIP3    H225012   5.281   2.573   1.920  1.0253 -0.0083  0.2491
 8350TIP3   OH225013   3.254   4.865   0.647 -0.4875 -0.1745  0.0398
 8350TIP3    H125014   3.284   4.919   0.574  1.1694  0.4327  1.1067
 8350TIP3    H225015   3.160   4.883   0.653 -0.6667 -0.2471 -1.9040
 8351TIP3   OH225016   6.249   0.847   2.153 -0.1608  0.4506 -0.0188
 8351TIP3    H125017   6.252   0.838   2.058  1.1866 -0.7954  0.0955
 8351TIP3    H225018   6.328   0.896   2.175  0.0074 -0.0380  0.5051
 8352TIP3   OH225019   6.841   3.645   3.842  0.3499 -0.6359 -0.6874
 8352TIP3    H125020   6.879   3.605   3.920  0.2359  1.4345  0.4775
 8352TIP3    H225021   6.797   3.723   3.873 -0.7121 -0.3675 -2.6844
 8353TIP3   OH225022   6.615   4.843   5.113 -0.2443 -0.1831 -0.4101
 8353TIP3    H125023   6.606   4.748   5.120 -2.5009  0.0714  1.1013
 8353TIP3    H225024   6.531   4.878   5.144  0.0588  2.2959 -2.0984
 8354TIP3   OH225025   5.981   0.436   0.397  0.4068  0.2719  0.1094
 8354TIP3    H125026   5.948   0.368   0.455 -0.8263  1.3346  0.7157
 8354TIP3    H225027   5.902   0.475   0.359  1.1696 -0.1740 -2.0687
 8355TIP3   OH225028   1.507   2.281   3.207 -0.3158  0.3835  0.3076
 8355TIP3    H125029   1.512   2.346   3.137  0.5986 -0.1417 -0.1351
 8355TIP3    H225030   1.587   2.293   3.257  1.0063 -1.7707 -1.0682
 8356TIP3   OH225031   4.297   3.273   5.560  0.1719 -0.8087  0.1377
 8356TIP3    H125032   4.324   3.296   5.649 -0.6794 -1.4020  0.5705
 8356TIP3    H225033   4.229   3.337   5.538  0.7642 -0.3230 -0.3102
 8357TIP3   OH225034   5.713   0.963   2.026 -0.2701 -0.3443 -0.3572
 8357TIP3    H125035   5.690   0.872   2.049 -0.9898  0.3635  1.9856
 8357TIP3    H225036   5.660   1.016   2.085 -0.7898  1.6852 -2.5285
 8358TIP3   OH225037   1.692   2.873   2.631 -0.8367  0.0917 -0.4490
 8358TIP3    H125038   1.724   2.792   2.593  1.8897 -0.2341  2.1755
 8358TIP3    H225039   1.735   2.943   2.581 -0.6308 -0.1682 -0.6337
 8359TIP3   OH225040   4.652   1.401   1.259 -0.6565  0.3368  0.0979
 8359TIP3    H125041   4.577   1.381   1.316 -0.5318 -1.4001 -0.2855
 8359TIP3    H225042   4.613   1.433   1.178 -1.1075 -1.5013 -0.4750
 8360TIP3   OH225043   3.062   1.688   3.108 -0.8570 -0.0175  0.5115
 8360TIP3    H125044   2.998   1.754   3.079  0.4135  1.6269  1.2669
 8360TIP3    H225045   3.098   1.653   3.027 -1.4045  0.3668  0.0852
 8361TIP3   OH225046   6.350   2.647   2.918 -0.0047  0.3845  0.7025
 8361TIP3    H125047   6.428   2.664   2.970  0.4174  2.4260 -0.4797
 8361TIP3    H225048   6.298   2.728   2.925  0.6454  1.3198 -2.8971
 8362TIP3   OH225049   3.332   2.177   1.619 -0.2315  0.5548  0.0677
 8362TIP3    H125050   3.248   2.180   1.665  1.1379 -1.1378  2.9443
 8362TIP3    H225051   3.372   2.095   1.648  1.7337  0.4372 -2.5959
 8363TIP3   OH225052   5.096   3.619   3.287  0.4979  0.6254 -0.3310
 8363TIP3    H125053   5.010   3.591   3.252  1.1203  0.6860 -2.0194
 8363TIP3    H225054   5.118   3.552   3.352  0.4827 -1.1118 -2.0035
 8364TIP3   OH225055   1.829   3.113   0.921 -0.4262  0.3723 -0.0008
 8364TIP3    H125056   1.830   3.047   0.852 -1.1387  0.1126  0.2241
 8364TIP3    H225057   1.797   3.193   0.878  0.7177  0.6641 -0.3404
 8365TIP3   OH225058   6.977   5.500   3.961 -0.2345 -0.2422 -0.3253
 8365TIP3    H125059   7.040   5.571   3.951  0.8077 -1.0892 -0.0182
 8365TIP3    H225060   6.972   5.460   3.874 -0.6437  0.0540 -0.4410
 8366TIP3   OH225061   6.162   0.637   0.406 -0.5905 -0.4106  0.0051
 8366TIP3    H125062   6.116   0.554   0.413  1.1709 -1.6656 -2.0700
 8366TIP3    H225063   6.255   0.614   0.407 -0.0476  1.4990 -0.9298
 8367TIP3   OH225064   4.990   0.695   2.746  0.0043  0.1763 -0.1978
 8367TIP3    H125065   5.086   0.699   2.737  0.0200 -0.4201 -0.3279
 8367TIP3    H225066   4.970   0.601   2.747 -0.4725  0.2816  0.9985
 8368TIP3   OH225067   0.638   3.609   4.300  0.1882 -0.3587 -0.0169
 8368TIP3    H125068   0.684   3.599   4.384  1.2662  0.1585 -0.5321
 8368TIP3    H225069   0.564   3.667   4.321  0.0289 -0.8064  0.7165
 8369TIP3   OH225070   1.509   5.162   4.874  0.3328 -0.2224 -0.1593
 8369TIP3    H125071   1.592   5.202   4.850  0.6209 -0.5377  0.2836
 8369TIP3    H225072   1.469   5.225   4.934 -0.3625  0.5389 -1.3922
 8370TIP3   OH225073   3.818   1.810   2.797  0.1175 -0.7537 -0.3312
 8370TIP3    H125074   3.823   1.903   2.775  0.7812 -1.6612 -5.1911
 8370TIP3    H225075   3.733   1.782   2.765 -1.1303 -1.5813  3.2246
 8371TIP3   OH225076   2.211   1.024   1.244 -0.2262 -0.1005 -0.3306
 8371TIP3    H125077   2.125   0.988   1.223 -0.6151  0.6712 -0.0859
 8371TIP3    H225078   2.261   0.948   1.274 -1.2292 -0.3365  0.8181
 8372TIP3   OH225079   3.946   0.553   2.394 -0.2870  0.2460  0.3433
 8372TIP3    H125080   3.894   0.612   2.447 -1.7584  0.8947 -1.6950
 8372TIP3    H225081   3.951   0.472   2.445 -2.4334  0.5063  1.0576
 8373TIP3   OH225082   3.823   6.718   1.733 -0.7176  0.2988 -0.5436
 8373TIP3    H125083   3.782   6.759   1.656 -1.9147  1.8897  0.8519
 8373TIP3    H225084   3.796   6.626   1.728 -1.3821  0.5304 -1.6465
 8374TIP3   OH225085   1.823   4.964   3.793  0.0007  0.0528  0.0775
 8374TIP3    H125086   1.862   5.043   3.831  0.5927 -0.2139  0.0309
 8374TIP3    H225087   1.762   4.998   3.727  0.2639  0.4734  0.0415
 8375TIP3   OH225088   3.437   2.362   0.098  0.4799  0.3704  0.3278
 8375TIP3    H125089   3.524   2.347   0.061  1.0305  0.6813  1.4499
 8375TIP3    H225090   3.439   2.452   0.129  0.2724 -0.0601  1.6660
 8376TIP3   OH225091   1.198   1.498   3.662 -0.0998  0.0829 -0.3500
 8376TIP3    H125092   1.239   1.548   3.592 -1.2009 -0.0409 -1.1175
 8376TIP3    H225093   1.124   1.551   3.690 -0.5964 -0.5808 -0.3645
 8377TIP3   OH225094   2.876   3.644   4.433  0.3377 -0.4313 -0.4347
 8377TIP3    H125095   2.868   3.675   4.343 -0.4075 -0.5053 -0.4041
 8377TIP3    H225096   2.952   3.690   4.468 -0.8588  1.5606 -0.3139
 8378TIP3   OH225097   0.265   0.630   0.648  0.3304  0.6247  0.1084
 8378TIP3    H125098   0.238   0.696   0.584  0.5119 -1.0132 -1.7855
 8378TIP3    H225099   0.309   0.563   0.595  0.0243 -1.0754  1.8997
 8379TIP3   OH225100   5.840   3.061   3.293  0.1581  0.7005 -0.4719
 8379TIP3    H125101   5.794   3.032   3.372  0.2612 -0.7938 -0.9280
 8379TIP3    H225102   5.928   3.024   3.302  0.2745  0.8118 -1.1135
 8380TIP3   OH225103   5.806   0.704   0.006  0.3464 -0.2335 -0.4653
 8380TIP3    H125104   5.896   0.677   0.025  0.3000  0.3515  0.6305
 8380TIP3    H225105   5.761   0.624  -0.019  0.9102 -0.6948 -0.0017
 8381TIP3   OH225106   2.546   1.427   4.949 -0.1163  0.8753 -0.3566
 8381TIP3    H125107   2.615   1.477   4.905 -1.1494  0.6963 -2.3025
 8381TIP3    H225108   2.476   1.421   4.884 -1.0518 -0.8969  0.7383
 8382TIP3   OH225109   4.713   4.727   4.170  0.8353 -0.5018  0.0166
 8382TIP3    H125110   4.660   4.772   4.104 -1.8116 -0.3022  2.0880
 8382TIP3    H225111   4.755   4.798   4.219  0.1825 -0.4724  0.5456
 8383TIP3   OH225112   4.951   0.295   3.299  0.3474  0.3492 -0.0852
 8383TIP3    H125113   4.879   0.337   3.251 -1.1345 -1.1252  0.7307
 8383TIP3    H225114   4.968   0.355   3.372 -0.6783  0.3139  0.2059
 8384TIP3   OH225115   3.445   2.727   4.666 -0.0705  1.0519 -0.6021
 8384TIP3    H125116   3.509   2.786   4.705 -0.8507  2.5872 -1.5416
 8384TIP3    H225117   3.478   2.710   4.578 -0.7411  1.5419 -0.9581
 8385TIP3   OH225118   5.992   1.714   3.318 -0.2189  0.2435  0.1308
 8385TIP3    H125119   6.003   1.800   3.359 -1.4854  1.0702 -1.1689
 8385TIP3    H225120   6.076   1.695   3.278  0.3782  0.3987  1.2692
 8386TIP3   OH225121   5.723   2.570   4.738 -0.4392 -0.3445  0.2844
 8386TIP3    H125122   5.780   2.614   4.801  1.7638 -1.4578 -0.7978
 8386TIP3    H225123   5.685   2.641   4.686  0.8502  0.4286  0.3514
 8387TIP3   OH225124   5.197   3.209   3.444 -0.2448 -0.2226 -0.1582
 8387TIP3    H125125   5.291   3.190   3.452 -0.7555 -2.3528  1.6959
 8387TIP3    H225126   5.154   3.124   3.452 -2.4161  0.9003  1.0476
 8388TIP3   OH225127   1.328   5.286   3.724  0.1391 -0.1362 -0.2331
 8388TIP3    H125128   1.314   5.218   3.658  1.4258  0.2065 -0.8806
 8388TIP3    H225129   1.360   5.361   3.675 -2.1523  1.3175  0.3450
 8389TIP3   OH225130   2.963   2.120   2.676 -0.4941  0.2479  0.7248
 8389TIP3    H125131   2.978   2.099   2.584 -0.6341 -2.0478  1.1642
 8389TIP3    H225132   2.898   2.190   2.674  1.1274  1.8212 -0.9247
 8390TIP3   OH225133   3.519   5.448   5.107  0.4143  0.2914  0.4392
 8390TIP3    H125134   3.554   5.530   5.140 -0.8902  1.6456 -1.3596
 8390TIP3    H225135   3.428   5.447   5.136  0.7596 -1.2070  1.5860
 8391TIP3   OH225136   5.230   2.633   4.797  0.3250  0.3563  0.4270
 8391TIP3    H125137   5.292   2.574   4.755 -0.3633 -0.9592  1.2061
 8391TIP3    H225138   5.166   2.654   4.728  1.4674  1.5376 -0.3118
 8392TIP3   OH225139   4.304   4.752   1.571  0.4950  0.1297 -0.4529
 8392TIP3    H125140   4.243   4.680   1.554 -0.1352  0.6165 -0.2880
 8392TIP3    H225141   4.325   4.787   1.484  0.5822 -0.0742 -0.5136
 8393TIP3   OH225142   1.180   0.743  -0.004  0.6076  0.2159  0.1003
 8393TIP3    H125143   1.132   0.796   0.059  1.7980  0.2583  1.0032
 8393TIP3    H225144   1.272   0.756   0.018  1.0924  0.4977 -1.8667
 8394TIP3   OH225145   2.673   0.091   4.205 -0.0595  0.2231  0.2719
 8394TIP3    H125146   2.702   0.017   4.152 -1.8432  0.8380 -1.7075
 8394TIP3    H225147   2.579   0.076   4.217  0.1348  0.5281  2.6711
 8395TIP3   OH225148   1.334   3.448   4.869 -0.3662  0.1206 -0.0894
 8395TIP3    H125149   1.326   3.444   4.774 -0.6192 -0.2620 -0.0558
 8395TIP3    H225150   1.268   3.386   4.901  1.1978 -1.4437  0.2605
 8396TIP3   OH225151   6.990   1.857   0.855 -0.4919 -0.9336  0.4434
 8396TIP3    H125152   6.933   1.932   0.873  0.9235  0.0386  1.0008
 8396TIP3    H225153   7.073   1.878   0.898  0.1533 -2.5333  0.0599
 8397TIP3   OH225154   2.196   1.431   0.157 -0.4991 -0.2763  0.0738
 8397TIP3    H125155   2.191   1.337   0.174  1.1288 -0.3205  0.4478
 8397TIP3    H225156   2.289   1.450   0.150 -0.7106  1.5159  1.2348
 8398TIP3   OH225157   0.416   1.230   4.265 -0.5094 -0.2462 -0.0939
 8398TIP3    H125158   0.396   1.147   4.308  2.3894 -2.5025 -2.6667
 8398TIP3    H225159   0.435   1.290   4.338  1.5522 -3.0706  1.9350
 8399TIP3   OH225160   3.073   1.358   3.016 -0.0337 -0.4476  0.0272
 8399TIP3    H125161   3.091   1.373   2.924 -1.7979  1.4909 -0.0784
 8399TIP3    H225162   2.988   1.400   3.031 -0.9972 -2.8492  1.9830
 8400TIP3   OH225163   1.206   0.164   1.972  0.2397  0.2753  0.7643
 8400TIP3    H125164   1.242   0.112   1.900 -1.4913  0.8376 -0.5947
 8400TIP3    H225165   1.169   0.099   2.032 -0.5309 -0.1578 -0.1397
 8401TIP3   OH225166   4.174   3.829   1.754  0.3641  0.2040  0.4843
 8401TIP3    H125167   4.239   3.807   1.821  1.5843  0.9235 -0.4148
 8401TIP3    H225168   4.218   3.810   1.671 -0.5608  0.7642 -0.1461
 8402TIP3   OH225169   5.749   5.484   5.443  0.3453 -0.4875  0.3293
 8402TIP3    H125170   5.662   5.522   5.451  0.7434  0.6022 -0.3565
 8402TIP3    H225171   5.745   5.432   5.362  0.2465 -0.6648  0.4488
 8403TIP3   OH225172   0.253   2.682   5.601 -0.2755 -0.0970  0.1638
 8403TIP3    H125173   0.215   2.640   5.524 -1.0283  0.2600  0.3306
 8403TIP3    H225174   0.285   2.610   5.655  0.6009 -0.3315 -0.6517
 8404TIP3   OH225175   3.724   6.137   4.466 -0.2474 -0.0818 -0.6510
 8404TIP3    H125176   3.726   6.050   4.506 -2.6937 -0.0751 -0.3587
 8404TIP3    H225177   3.750   6.196   4.536  0.4686 -0.4848 -0.5682
 8405TIP3   OH225178   3.679   5.685   5.233 -0.3667  0.2685 -0.2144
 8405TIP3    H125179   3.678   5.780   5.240 -0.2495  0.2377  0.2244
 8405TIP3    H225180   3.760   5.658   5.275 -0.9510 -0.1019  0.7045
 8406TIP3   OH225181   3.484   4.672   1.124  0.2615  0.0568  0.0478
 8406TIP3    H125182   3.578   4.659   1.112  0.0715  0.9489 -3.1685
 8406TIP3    H225183   3.454   4.594   1.171  2.4444 -0.6594  0.3433
 8407TIP3   OH225184   4.815   4.812   1.108 -0.0441  0.1081  0.2009
 8407TIP3    H125185   4.782   4.728   1.075 -0.0595 -0.0657  0.6484
 8407TIP3    H225186   4.861   4.789   1.189  2.1850  0.1804 -0.9568
 8408TIP3   OH225187   3.174   2.558   1.391  0.2647  0.5093  0.4307
 8408TIP3    H125188   3.095   2.504   1.395  0.2479  0.5936  2.4355
 8408TIP3    H225189   3.245   2.496   1.377 -0.1280  0.4478 -1.5640
 8409TIP3   OH225190   6.598   5.669   4.174  0.1894  0.0121  0.1888
 8409TIP3    H125191   6.654   5.684   4.250 -0.5276 -0.3485  0.8051
 8409TIP3    H225192   6.606   5.575   4.156  1.2941  0.2970 -0.9521
 8410TIP3   OH225193   0.566   1.864   0.233 -0.0561  0.0535 -0.7412
 8410TIP3    H125194   0.499   1.796   0.242  2.3245 -2.3515 -0.2280
 8410TIP3    H225195   0.612   1.843   0.152  1.7335  0.0731  0.2232
 8411TIP3   OH225196   3.973   4.427   3.306 -0.3707 -0.3105  0.3305
 8411TIP3    H125197   3.987   4.520   3.327 -1.8443  0.1915 -0.7840
 8411TIP3    H225198   3.878   4.416   3.305 -0.2148 -1.9164  0.7356
 8412TIP3   OH225199   0.997   1.608   2.609 -0.1600  0.4048  0.6926
 8412TIP3    H125200   0.948   1.566   2.680 -0.2487  0.3900  0.6236
 8412TIP3    H225201   0.946   1.587   2.530  1.1685 -1.6158  0.2814
 8413TIP3   OH225202   6.614   4.935   2.831 -0.1056 -0.1369  0.0973
 8413TIP3    H125203   6.550   4.976   2.773  0.4660 -0.0285 -0.4613
 8413TIP3    H225204   6.635   5.003   2.895 -0.7562 -0.2668  0.4683
 8414TIP3   OH225205   2.190   2.538   2.214 -0.3673 -0.0402  0.1277
 8414TIP3    H125206   2.129   2.518   2.286  1.7993 -0.5455  1.9326
 8414TIP3    H225207   2.244   2.459   2.207  0.5473  0.6579 -0.9140
 8415TIP3   OH225208   5.006   2.770   0.932  0.2869  0.1417 -0.2109
 8415TIP3    H125209   4.995   2.863   0.912  1.4904  0.2701 -0.3648
 8415TIP3    H225210   4.944   2.726   0.874  1.1347  0.7353 -1.6261
 8416TIP3   OH225211   2.695   0.189   0.592  0.8891  0.3035  0.4099
 8416TIP3    H125212   2.730   0.109   0.552  0.9739  1.4070 -1.9039
 8416TIP3    H225213   2.771   0.244   0.606  0.5828  0.9689 -0.4558
 8417TIP3   OH225214   2.882   6.084   1.591  0.0607  0.4767 -0.2493
 8417TIP3    H125215   2.820   6.089   1.663  1.6840 -1.7862  1.4373
 8417TIP3    H225216   2.947   6.152   1.611  0.6069 -0.2711  0.5471
 8418TIP3   OH225217   2.966   2.603   2.069  0.0254 -0.1075 -0.5062
 8418TIP3    H125218   2.903   2.665   2.108 -0.6962 -0.1151 -1.6002
 8418TIP3    H225219   3.005   2.652   1.996  0.8652 -0.3111 -0.2007
 8419TIP3   OH225220   0.438   6.029   5.800 -0.0737 -0.0656 -0.5220
 8419TIP3    H125221   0.396   6.067   5.877 -0.6795 -0.4999 -0.6314
 8419TIP3    H225222   0.493   6.100   5.766  1.7392 -0.4317  1.4030
 8420TIP3   OH225223   1.475   1.406   4.327 -0.2746  0.0782  0.8532
 8420TIP3    H125224   1.556   1.356   4.341 -0.0288  0.1701 -0.1067
 8420TIP3    H225225   1.459   1.397   4.233 -0.8811  0.8243  0.8800
 8421TIP3   OH225226   6.176   3.642   2.736  0.0888 -0.0374 -0.4107
 8421TIP3    H125227   6.154   3.680   2.821  0.2617 -1.8047  0.4556
 8421TIP3    H225228   6.251   3.694   2.705  0.3051  0.3378  0.7033
 8422TIP3   OH225229   1.190   2.040   0.734  0.0627 -0.0225  0.0468
 8422TIP3    H125230   1.138   1.960   0.734 -2.0829  1.2785  1.5378
 8422TIP3    H225231   1.163   2.086   0.654 -0.7151  0.4129  0.5531
 8423TIP3   OH225232   0.432   6.107   1.538 -0.0151  0.5155 -0.3519
 8423TIP3    H125233   0.465   6.154   1.615 -1.0246 -1.2665  1.2425
 8423TIP3    H225234   0.498   6.122   1.471  1.3622  1.3935  1.1287
 8424TIP3   OH225235   3.080   0.528   3.060 -0.0155 -0.3078 -0.2614
 8424TIP3    H125236   3.020   0.603   3.061  0.3290 -0.0016  1.1646
 8424TIP3    H225237   3.078   0.496   3.150  1.2786 -0.8394 -0.3977
 8425TIP3   OH225238   4.796   3.318   3.793  0.3477 -0.0077  0.1679
 8425TIP3    H125239   4.832   3.255   3.731 -0.8049  1.1926 -1.8464
 8425TIP3    H225240   4.871   3.369   3.822  0.9451 -0.7542 -0.0361
 8426TIP3   OH225241   3.546   3.050   3.662  0.6027 -0.4166  0.5742
 8426TIP3    H125242   3.465   3.000   3.668  0.7292 -0.6555  0.3257
 8426TIP3    H225243   3.612   2.986   3.639  0.4964  0.0870 -1.3068
 8427TIP3   OH225244   5.649   0.786   1.770 -0.4136 -0.1834 -0.2315
 8427TIP3    H125245   5.560   0.789   1.807  0.3579 -0.6399  1.8124
 8427TIP3    H225246   5.668   0.877   1.747 -0.4010  0.4479  2.0061
 8428TIP3   OH225247   3.031   3.951   3.920 -0.1005 -0.1688 -0.2265
 8428TIP3    H125248   2.992   3.901   3.991 -1.2579 -0.7159 -1.2049
 8428TIP3    H225249   3.125   3.948   3.937 -0.2886 -1.1472  0.7132
 8429TIP3   OH225250   6.760   6.295   1.454  0.4466  0.2278  0.1365
 8429TIP3    H125251   6.751   6.212   1.409 -0.8848  0.2063  0.3848
 8429TIP3    H225252   6.827   6.343   1.406  0.1212 -0.3832 -0.9368
 8430TIP3   OH225253   6.911   5.425   1.208  0.3640  0.0834 -0.0179
 8430TIP3    H125254   6.858   5.431   1.288  1.5405 -0.1971  0.8169
 8430TIP3    H225255   6.934   5.332   1.203  1.3859  0.3212  0.0634
 8431TIP3   OH225256   6.227   4.426   2.042 -0.2868 -0.0335 -0.5792
 8431TIP3    H125257   6.247   4.461   1.955  0.2994 -1.5959 -1.1065
 8431TIP3    H225258   6.282   4.349   2.049 -2.3850 -1.5529  0.0476
 8432TIP3   OH225259   5.210   3.565   5.901 -0.6643 -0.7505 -0.0945
 8432TIP3    H125260   5.156   3.499   5.858 -0.5255 -0.6623 -0.4076
 8432TIP3    H225261   5.229   3.630   5.833  0.7327 -1.3332 -0.3062
 8433TIP3   OH225262   2.287   0.419   5.569  0.1639  0.1981  0.3916
 8433TIP3    H125263   2.332   0.364   5.504 -0.7753 -0.5072  0.3179
 8433TIP3    H225264   2.358   0.459   5.619  0.8969  0.1348 -0.5525
 8434TIP3   OH225265   5.578   1.872   0.918  0.0197  0.1862  0.2102
 8434TIP3    H125266   5.583   1.848   0.825  1.6177  1.1795 -0.0184
 8434TIP3    H225267   5.485   1.885   0.935 -0.2309  0.9623 -1.5367
 8435TIP3   OH225268   3.411   0.879   0.998  0.1697 -0.3350 -0.2291
 8435TIP3    H125269   3.406   0.815   1.069  0.3990 -0.1769 -0.0680
 8435TIP3    H225270   3.408   0.964   1.042 -1.1260 -0.2202 -0.5048
 8436TIP3   OH225271   5.765   0.422   0.046  0.8250  0.5779  0.1776
 8436TIP3    H125272   5.851   0.392   0.018  1.0690  1.7070 -0.3665
 8436TIP3    H225273   5.705   0.389  -0.020  0.7301 -0.7642  0.9068
 8437TIP3   OH225274   1.961   6.448   5.256 -0.2571 -0.0723  0.1420
 8437TIP3    H125275   1.935   6.425   5.345  0.1235  1.3532  0.6525
 8437TIP3    H225276   1.906   6.523   5.234  0.7903  0.6307 -0.1743
 8438TIP3   OH225277   0.888   6.158   4.736  0.5042  0.2065  0.1074
 8438TIP3    H125278   0.902   6.102   4.813  0.6369 -0.5830 -0.4866
 8438TIP3    H225279   0.807   6.206   4.756 -0.9287 -1.8761 -0.3269
 8439TIP3   OH225280   1.006   0.600   1.230 -0.5440  0.1178 -0.7482
 8439TIP3    H125281   0.958   0.648   1.297 -0.0743 -0.0245 -0.3081
 8439TIP3    H225282   1.033   0.519   1.272 -0.1996  0.0508 -1.0880
 8440TIP3   OH225283   6.210   2.402   3.857 -0.2309  0.9265 -0.0463
 8440TIP3    H125284   6.276   2.407   3.926  0.1113  0.4579 -0.3357
 8440TIP3    H225285   6.138   2.353   3.896 -0.4590  1.5361  0.3072
 8441TIP3   OH225286   3.002   4.924   0.672  0.4650  0.0309 -0.0463
 8441TIP3    H125287   3.028   5.011   0.702  1.9617 -0.9215  1.6466
 8441TIP3    H225288   2.916   4.937   0.631  0.3869  2.1901  0.6851
 8442TIP3   OH225289   2.790   3.401   2.617 -0.4705  0.2986  0.3584
 8442TIP3    H125290   2.738   3.444   2.684 -0.5457  0.7529  0.0094
 8442TIP3    H225291   2.863   3.362   2.665 -0.2322  1.0814  0.6408
 8443TIP3   OH225292   3.765   5.053   3.063 -0.0983 -0.1608  0.0812
 8443TIP3    H125293   3.842   5.092   3.020 -1.7746  2.2550 -0.9735
 8443TIP3    H225294   3.701   5.046   2.993 -1.7692  0.5898  1.4674
 8444TIP3   OH225295   4.434   3.467   3.232  0.0819 -0.1384  0.5144
 8444TIP3    H125296   4.384   3.419   3.298 -0.0906 -0.1079  0.4040
 8444TIP3    H225297   4.369   3.499   3.171  0.4316 -3.0890 -1.6403
 8445TIP3   OH225298   6.508   6.317   5.713 -0.2653 -0.9354 -0.5840
 8445TIP3    H125299   6.450   6.382   5.752 -0.3508 -1.3243 -0.0503
 8445TIP3    H225300   6.458   6.282   5.639 -0.2251 -0.4084 -0.8585
 8446TIP3   OH225301   4.209   3.641   5.857  0.0899 -0.2714 -0.0380
 8446TIP3    H125302   4.272   3.692   5.908  0.7215 -2.6637  1.7666
 8446TIP3    H225303   4.166   3.705   5.800  1.6010  2.0222  1.2577
 8447TIP3   OH225304   4.330   0.772   3.681 -0.0424 -0.0860  0.2919
 8447TIP3    H125305   4.299   0.743   3.595  0.3175  0.1054  0.0911
 8447TIP3    H225306   4.252   0.805   3.725 -0.3502 -0.8096  0.2988
 8448TIP3   OH225307   2.368   1.032   4.926 -0.1637  0.3274 -0.2175
 8448TIP3    H125308   2.415   1.078   4.995 -0.3240  0.4412 -0.1844
 8448TIP3    H225309   2.435   0.978   4.883 -0.3118 -0.7995  0.9025
 8449TIP3   OH225310   3.179   2.273   0.580  0.0559  0.4532  0.8688
 8449TIP3    H125311   3.273   2.265   0.594  0.2190 -1.3566 -0.8677
 8449TIP3    H225312   3.140   2.204   0.634 -0.2281  0.7035  0.9902
 8450TIP3   OH225313   3.218   3.126   5.636  0.1392  0.3854 -0.8701
 8450TIP3    H125314   3.281   3.170   5.579 -1.4593  3.0767 -0.7027
 8450TIP3    H225315   3.248   3.035   5.638  3.0815  1.2059 -2.0164
 8451TIP3   OH225316   1.654   4.804   1.935  0.7109  0.4559 -0.1398
 8451TIP3    H125317   1.588   4.736   1.920  0.7601 -0.0083  1.5253
 8451TIP3    H225318   1.619   4.855   2.009  0.0257  3.1320 -2.1421
 8452TIP3   OH225319   0.453   4.867   3.911  0.0358 -0.8676 -0.1120
 8452TIP3    H125320   0.408   4.808   3.851  1.0657  0.0343 -1.8504
 8452TIP3    H225321   0.518   4.811   3.955  0.5373 -1.2105 -1.2363
 8453TIP3   OH225322   2.848   6.692   4.733  0.8159 -0.4012  0.2190
 8453TIP3    H125323   2.889   6.659   4.653  0.2550  0.8141 -0.6062
 8453TIP3    H225324   2.757   6.708   4.708  0.6665  0.1239  1.0630
 8454TIP3   OH225325   3.863   1.273   4.050  0.1279 -0.3997  0.1174
 8454TIP3    H125326   3.830   1.232   4.129 -2.1202 -1.5373 -1.3027
 8454TIP3    H225327   3.835   1.364   4.057 -1.0285 -0.7389  0.1835
 8455TIP3   OH225328   3.248   4.709   5.631 -0.2098  0.4297 -0.0837
 8455TIP3    H125329   3.202   4.666   5.559  0.4244 -0.2318 -0.1007
 8455TIP3    H225330   3.214   4.799   5.630 -1.1377  0.0900 -0.3963
 8456TIP3   OH225331   0.601   3.061   0.700 -0.2737  0.1384 -0.1832
 8456TIP3    H125332   0.662   3.133   0.683 -0.5518  0.5748  0.6446
 8456TIP3    H225333   0.525   3.102   0.741 -0.2327 -0.6759  0.7538
 8457TIP3   OH225334   2.586   6.071   1.057  0.5366 -0.6765  0.0114
 8457TIP3    H125335   2.615   6.156   1.091  3.4964 -1.3722 -0.4884
 8457TIP3    H225336   2.602   6.077   0.962 -0.2261 -1.4379 -0.1745
 8458TIP3   OH225337   3.427   3.198   2.843 -0.3538 -1.1666  0.1346
 8458TIP3    H125338   3.351   3.161   2.888 -0.0339 -4.1705 -1.5778
 8458TIP3    H225339   3.391   3.247   2.769 -0.6723 -0.1161  0.9550
 8459TIP3   OH225340   4.660   4.002   3.656  0.3263  0.1056  0.5486
 8459TIP3    H125341   4.737   4.058   3.668 -0.0199  1.3633 -2.2974
 8459TIP3    H225342   4.687   3.937   3.592 -0.4274 -0.6483  0.9824
 8460TIP3   OH225343   4.372   0.466   3.920  0.0795 -0.2373 -0.0525
 8460TIP3    H125344   4.435   0.445   3.989  0.5976 -2.4906 -1.1133
 8460TIP3    H225345   4.387   0.559   3.902  0.8508  0.0626  1.9209
 8461TIP3   OH225346   3.525   2.443   4.828 -0.7362 -0.4559  0.3603
 8461TIP3    H125347   3.510   2.496   4.906 -0.3501  0.7042 -0.3406
 8461TIP3    H225348   3.437   2.423   4.795 -0.9094  1.5674 -0.5542
 8462TIP3   OH225349   7.112   1.776   4.015 -0.0286  0.0142  0.0637
 8462TIP3    H125350   7.081   1.773   4.106 -0.4388 -2.0764 -0.0991
 8462TIP3    H225351   7.056   1.713   3.969 -1.0052  2.2428 -2.0532
 8463TIP3   OH225352   7.161   4.460   3.085  0.4756  0.2265 -0.7362
 8463TIP3    H125353   7.169   4.555   3.090 -0.2797  0.2487  0.3483
 8463TIP3    H225354   7.097   4.445   3.016 -0.7059  0.5864  0.2618
 8464TIP3   OH225355   6.166   6.117   3.816 -0.7955  0.1052 -0.1529
 8464TIP3    H125356   6.090   6.134   3.759 -1.6065 -0.1869  0.8206
 8464TIP3    H225357   6.163   6.023   3.833 -0.5136  0.1783  0.3103
 8465TIP3   OH225358   3.887   4.683   4.511  0.0805 -0.2518  0.2172
 8465TIP3    H125359   3.863   4.613   4.451  1.9170 -1.0744  0.3855
 8465TIP3    H225360   3.895   4.760   4.455 -1.0439 -0.3530 -0.1128
 8466TIP3   OH225361   6.939   3.379   4.578 -0.1491 -0.2501  0.2384
 8466TIP3    H125362   7.033   3.398   4.580  0.2324 -1.7830 -1.1356
 8466TIP3    H225363   6.929   3.302   4.634 -0.9156  0.9796  1.8720
 8467TIP3   OH225364   0.909   5.686   4.960  0.1281  0.2207 -0.0516
 8467TIP3    H125365   0.905   5.656   5.051  0.1641 -0.1350 -0.1690
 8467TIP3    H225366   0.964   5.622   4.916 -1.7397 -0.9285 -0.8347
 8468TIP3   OH225367   3.340   3.245   5.403  0.2059 -0.0443 -0.2268
 8468TIP3    H125368   3.411   3.294   5.446  0.2587 -0.7729  0.5204
 8468TIP3    H225369   3.360   3.254   5.309  0.8045  0.4832 -0.0627
 8469TIP3   OH225370   3.736   3.440   1.442  0.1261  0.5117  0.1233
 8469TIP3    H125371   3.668   3.451   1.509 -0.0469 -2.2358  0.5362
 8469TIP3    H225372   3.693   3.465   1.360 -1.1009 -0.2191  0.5115
 8470TIP3   OH225373   4.443   5.357   3.803  0.3585  0.4548  0.3596
 8470TIP3    H125374   4.533   5.346   3.833  1.0522 -0.5653 -1.8820
 8470TIP3    H225375   4.433   5.451   3.791  0.5102  0.7522  2.2521
 8471TIP3   OH225376   2.376   3.994   3.940 -0.6840  0.3147  0.6431
 8471TIP3    H125377   2.389   3.945   3.859  1.3436  0.1341  1.0297
 8471TIP3    H225378   2.308   4.058   3.919  0.4531  0.9001 -1.5135
 8472TIP3   OH225379   7.142   1.170   1.880 -0.0089  0.2335  0.0545
 8472TIP3    H125380   7.166   1.140   1.793 -1.2896  1.3179 -0.7171
 8472TIP3    H225381   7.071   1.112   1.907  0.9893 -0.6868  0.8034
 8473TIP3   OH225382   3.193   2.498   0.406 -0.2061  0.0560 -0.7538
 8473TIP3    H125383   3.267   2.528   0.459 -1.1826  0.8226  0.2088
 8473TIP3    H225384   3.153   2.428   0.458  0.9385 -1.7334 -2.1375
 8474TIP3   OH225385   4.933   4.055   0.839  0.1916 -0.0472 -0.3746
 8474TIP3    H125386   4.980   4.122   0.789  1.2335 -1.0465 -0.7648
 8474TIP3    H225387   4.851   4.044   0.791  0.5685  0.0271 -1.0567
 8475TIP3   OH225388   3.377   0.162   0.191 -0.6410 -0.0831  0.0645
 8475TIP3    H125389   3.467   0.151   0.158 -0.3267 -1.7320  1.3699
 8475TIP3    H225390   3.370   0.256   0.207  0.2869  0.3136 -1.5655
 8476TIP3   OH225391   5.440   3.744   1.506  0.0234 -0.3635 -0.1061
 8476TIP3    H125392   5.473   3.819   1.457 -0.0149 -1.4040 -1.8168
 8476TIP3    H225393   5.361   3.775   1.549 -0.5823  0.3071 -1.6562
 8477TIP3   OH225394   0.907   0.627   5.281  0.2897  0.7542 -0.4040
 8477TIP3    H125395   1.001   0.615   5.293 -0.0337 -1.2286  0.5925
 8477TIP3    H225396   0.895   0.635   5.186  1.3532 -0.3865 -0.6615
 8478TIP3   OH225397   0.382   6.466   0.872 -0.1558  0.7269 -0.3641
 8478TIP3    H125398   0.461   6.439   0.918 -0.7930  0.6411  0.7224
 8478TIP3    H225399   0.339   6.527   0.933 -1.6807 -0.4033 -0.2550
 8479TIP3   OH225400   0.111   6.725   3.979  0.7088 -0.0358 -0.0314
 8479TIP3    H125401   0.069   6.738   4.064 -0.0784  0.3034 -0.4638
 8479TIP3    H225402   0.061   6.655   3.937  2.7766 -2.2132  0.8661
 8480TIP3   OH225403   2.955   6.601   4.484 -0.2712  0.4777 -0.1656
 8480TIP3    H125404   2.932   6.570   4.396  3.0896 -1.3044 -0.6100
 8480TIP3    H225405   3.016   6.673   4.469  0.7057 -0.1533  0.6596
 8481TIP3   OH225406   5.434   5.527   4.607  0.7015  0.1288 -0.1619
 8481TIP3    H125407   5.439   5.494   4.518  1.1276  0.3765 -0.2357
 8481TIP3    H225408   5.488   5.606   4.606 -0.5924  1.0442 -0.0828
 8482TIP3   OH225409   1.137   3.469   2.489  0.3130  0.2258 -0.5735
 8482TIP3    H125410   1.066   3.449   2.550  0.1244 -0.4443 -1.0021
 8482TIP3    H225411   1.132   3.400   2.423  2.7991 -1.2824  0.6248
 8483TIP3   OH225412   5.580   2.580   1.527 -0.1317 -0.2252 -0.3053
 8483TIP3    H125413   5.560   2.670   1.552 -0.7975 -0.2468 -0.7240
 8483TIP3    H225414   5.594   2.583   1.433 -0.2813 -0.5817 -0.3420
 8484TIP3   OH225415   0.958   1.669   5.366 -0.1153  0.0974 -0.4504
 8484TIP3    H125416   0.904   1.593   5.391 -0.9997  0.4512 -1.2097
 8484TIP3    H225417   0.975   1.714   5.448 -2.0959  0.6757 -0.2988
 8485TIP3   OH225418   5.023   3.130   2.423 -0.2240 -0.8471  0.7613
 8485TIP3    H125419   4.975   3.048   2.427  0.4373 -1.3774 -1.1081
 8485TIP3    H225420   4.958   3.198   2.441 -1.3216 -1.6341 -0.1629
 8486TIP3   OH225421   4.277   1.481   0.393 -0.0703  0.1579 -0.0111
 8486TIP3    H125422   4.371   1.473   0.377  0.1755 -0.8597  1.6884
 8486TIP3    H225423   4.266   1.571   0.423  0.1817  0.6186 -1.2734
 8487TIP3   OH225424   5.675   4.209   5.063  0.0122 -0.3775 -0.3818
 8487TIP3    H125425   5.580   4.214   5.080 -0.0684 -0.6916 -0.7249
 8487TIP3    H225426   5.684   4.136   5.002  0.7022 -1.7914  1.3214
 8488TIP3   OH225427   0.290   0.415   4.294  0.4904  0.0673 -0.3965
 8488TIP3    H125428   0.323   0.451   4.212 -0.6178 -1.1126 -1.4013
 8488TIP3    H225429   0.217   0.473   4.318  1.6372  1.1965  0.5010
 8489TIP3   OH225430   2.584   4.558   3.556 -0.1292 -0.2922  0.5554
 8489TIP3    H125431   2.600   4.536   3.647  0.0094 -1.5586  0.2428
 8489TIP3    H225432   2.512   4.501   3.530  1.3162 -1.5980 -0.7489
 8490TIP3   OH225433   3.707   4.854   4.945  0.0133 -0.1810 -0.0336
 8490TIP3    H125434   3.630   4.808   4.913  0.1018 -1.0865  0.9732
 8490TIP3    H225435   3.712   4.934   4.892 -1.7665  0.0349  0.0666
 8491TIP3   OH225436   6.622   2.384   1.321 -0.3564  0.1859 -0.0973
 8491TIP3    H125437   6.528   2.366   1.310 -0.5836  0.7280  0.8434
 8491TIP3    H225438   6.665   2.303   1.294 -1.2547 -1.3164  2.5706
 8492TIP3   OH225439   2.324   0.324   4.957 -0.2373  0.5389  0.2309
 8492TIP3    H125440   2.245   0.322   4.904  0.2185  0.3413 -0.4597
 8492TIP3    H225441   2.342   0.418   4.969  0.8226  0.6520 -1.7953
 8493TIP3   OH225442   1.896   1.855   1.276 -0.3030 -0.2594  0.0941
 8493TIP3    H125443   1.949   1.852   1.196 -0.2713 -0.1014  0.1090
 8493TIP3    H225444   1.906   1.768   1.314  1.5857  0.3482  1.1411
 8494TIP3   OH225445   6.630   6.068   5.861  0.0770 -0.3197 -0.1949
 8494TIP3    H125446   6.542   6.028   5.860 -0.1564  0.1569 -2.1419
 8494TIP3    H225447   6.619   6.152   5.817  1.5849 -0.4132 -0.8006
 8495TIP3   OH225448   1.312   0.397   5.693  0.1846 -0.0440  0.1651
 8495TIP3    H125449   1.252   0.355   5.631  1.2235 -1.1637 -0.1058
 8495TIP3    H225450   1.393   0.410   5.643  2.1417 -3.7611  2.0029
 8496TIP3   OH225451   3.060   4.069   5.262  0.4965 -0.0327  0.5892
 8496TIP3    H125452   3.039   4.091   5.171  0.1372 -1.4049  0.3221
 8496TIP3    H225453   3.140   4.119   5.281  0.5000  0.3702 -0.4373
 8497TIP3   OH225454   3.820   5.805   0.048 -0.3616 -0.1037  0.1470
 8497TIP3    H125455   3.803   5.891   0.010  0.3853 -0.7683 -1.8193
 8497TIP3    H225456   3.903   5.816   0.095 -0.1681  0.2064 -0.2617
 8498TIP3   OH225457   1.693   6.714   3.173  0.4163 -0.4530 -0.2639
 8498TIP3    H125458   1.707   6.807   3.191 -0.1452 -0.1635 -1.1934
 8498TIP3    H225459   1.602   6.699   3.199  0.7360 -0.9357  0.5909
 8499TIP3   OH225460   6.638   2.114   1.474  1.1837  0.0591  0.3571
 8499TIP3    H125461   6.660   2.046   1.538  1.6755  0.7489  0.9288
 8499TIP3    H225462   6.636   2.195   1.525 -0.1729  0.3851 -0.1566
 8500TIP3   OH225463   0.119   6.012   2.668 -0.3525 -0.1882  0.0250
 8500TIP3    H125464   0.202   6.030   2.712 -1.0313 -0.0384  1.2904
 8500TIP3    H225465   0.088   6.098   2.639 -0.1212 -0.2336 -0.3673
 8501TIP3   OH225466   5.467   4.414   0.447  0.4803 -0.3009  0.0064
 8501TIP3    H125467   5.474   4.391   0.355 -0.7213 -0.1524 -0.1314
 8501TIP3    H225468   5.551   4.386   0.485  0.9932 -0.3423 -1.1215
 8502TIP3   OH225469   1.949   1.983   3.339  0.0275  0.3046 -0.6418
 8502TIP3    H125470   2.031   1.953   3.301 -0.0319  0.0772 -0.5903
 8502TIP3    H225471   1.941   1.936   3.421 -0.6169 -0.4016 -1.0944
 8503TIP3   OH225472   0.739   2.680   4.007 -0.1276  0.2855  0.0106
 8503TIP3    H125473   0.785   2.609   4.053  0.7825 -0.0111 -1.3262
 8503TIP3    H225474   0.661   2.696   4.061  0.2471 -0.9349  0.9606
 8504TIP3   OH225475   4.879   4.643   3.247 -0.2835 -0.3266 -0.1553
 8504TIP3    H125476   4.972   4.651   3.225 -0.0655  0.3818  0.9192
 8504TIP3    H225477   4.839   4.604   3.169  0.6106  0.9884 -1.3221
 8505TIP3   OH225478   3.414   0.281   5.196 -0.0452 -0.5444  0.0979
 8505TIP3    H125479   3.482   0.273   5.129 -0.9891  0.5436 -1.0413
 8505TIP3    H225480   3.449   0.346   5.258  0.2782 -0.5841 -0.0436
 8506TIP3   OH225481   3.237   0.783   0.568 -0.2640  0.9618 -0.6830
 8506TIP3    H125482   3.227   0.836   0.647 -1.2179  1.0816 -0.8709
 8506TIP3    H225483   3.206   0.840   0.497  1.3520  1.1607 -1.2733
 8507TIP3   OH225484   4.033   4.510   1.022 -0.0014  0.1042  0.6106
 8507TIP3    H125485   4.036   4.592   0.973  3.1184  0.1510  0.6391
 8507TIP3    H225486   4.064   4.533   1.109  1.5714 -1.1274  0.4303
 8508TIP3   OH225487   4.175   5.082   1.508 -0.2915 -0.5021 -0.0859
 8508TIP3    H125488   4.228   5.021   1.560  1.7963  1.5370  0.3459
 8508TIP3    H225489   4.118   5.124   1.572 -2.0078 -2.1404 -0.4381
 8509TIP3   OH225490   4.281   0.088   1.618  0.1861  0.3348 -0.1246
 8509TIP3    H125491   4.351   0.149   1.643 -0.7109  1.4508 -0.2170
 8509TIP3    H225492   4.253   0.049   1.701  0.5596  0.2707 -0.0246
 8510TIP3   OH225493   0.034   5.345   4.620 -0.2399 -0.1169  0.5604
 8510TIP3    H125494  -0.053   5.329   4.657  0.1513  0.0524  1.5761
 8510TIP3    H225495   0.021   5.340   4.525 -1.6377  1.2453  0.6337
 8511TIP3   OH225496   6.655   3.092   2.808  0.2196  0.1340  0.3066
 8511TIP3    H125497   6.726   3.067   2.749 -0.3494 -0.2975 -0.2074
 8511TIP3    H225498   6.607   3.011   2.824 -2.1427  0.9277 -2.0289
 8512TIP3   OH225499   6.072   5.798   4.225  0.3791  0.3345 -0.2685
 8512TIP3    H125500   6.105   5.709   4.221 -1.6546 -0.5104  0.2178
 8512TIP3    H225501   6.068   5.818   4.319  0.7381  0.9064 -0.3700
 8513TIP3   OH225502   6.163   0.391   0.696  0.0658 -0.1659  0.1824
 8513TIP3    H125503   6.093   0.455   0.686 -0.1805 -0.4368  0.1296
 8513TIP3    H225504   6.179   0.388   0.790 -0.7547 -0.8901  0.3119
 8514TIP3   OH225505   0.990   1.409   5.270  0.1794  0.0213  0.1738
 8514TIP3    H125506   1.026   1.497   5.268 -0.4866  0.3599  1.7166
 8514TIP3    H225507   0.908   1.417   5.319  0.5879 -1.6009  1.2145
 8515TIP3   OH225508   2.243   4.422   1.788 -0.7064 -0.1811 -0.3763
 8515TIP3    H125509   2.266   4.503   1.741 -1.3620  0.5379  0.4966
 8515TIP3    H225510   2.159   4.396   1.751 -0.4293 -0.5613 -0.7559
 8516TIP3   OH225511   6.494   4.590   4.234 -0.1986 -0.2964 -0.2861
 8516TIP3    H125512   6.493   4.525   4.305  2.3456 -1.2428 -0.9913
 8516TIP3    H225513   6.509   4.673   4.279 -1.1663 -0.5022  0.4597
 8517TIP3   OH225514   3.751   4.927   1.806  0.0957 -0.3944 -0.5161
 8517TIP3    H125515   3.704   4.951   1.726  0.1436 -0.6188 -0.6136
 8517TIP3    H225516   3.815   4.862   1.777  1.2408  0.7187 -0.5884
 8518TIP3   OH225517   1.736   1.566   3.439  0.1729 -0.5929 -0.2410
 8518TIP3    H125518   1.645   1.537   3.445  0.1301 -0.2823  0.9879
 8518TIP3    H225519   1.736   1.633   3.371 -1.0757  1.3319  1.5496
 8519TIP3   OH225520   4.844   6.231   2.280  0.2570  0.5061  0.1021
 8519TIP3    H125521   4.841   6.226   2.375 -3.3740  0.2654  0.1266
 8519TIP3    H225522   4.831   6.324   2.260  0.4103  0.4748 -0.1518
 8520TIP3   OH225523   6.109   4.926   3.047  0.6806  0.0197 -0.3193
 8520TIP3    H125524   6.075   4.936   2.959 -1.4958  1.0790  0.5781
 8520TIP3    H225525   6.039   4.884   3.096  1.3881  0.5248  1.1891
 8521TIP3   OH225526   2.652   5.676   2.167 -0.0226 -0.3631 -0.1461
 8521TIP3    H125527   2.597   5.720   2.102  0.3637  0.9314  0.3749
 8521TIP3    H225528   2.608   5.593   2.184 -0.9191 -0.0665 -0.9519
 8522TIP3   OH225529   5.220   1.349   5.278 -0.1098 -0.5484 -0.3778
 8522TIP3    H125530   5.288   1.344   5.210 -0.6536  0.2540 -1.0103
 8522TIP3    H225531   5.207   1.443   5.291  0.6457 -0.6784  1.5445
 8523TIP3   OH225532   6.762   3.153   1.980  0.6618 -0.2624 -0.4607
 8523TIP3    H125533   6.774   3.237   1.935 -0.1978  0.2737  0.2566
 8523TIP3    H225534   6.802   3.166   2.066  0.9454 -0.7571 -0.5150
 8524TIP3   OH225535   1.665   1.494   3.892 -0.1823 -0.2119  0.4714
 8524TIP3    H125536   1.631   1.579   3.921 -0.4312 -0.5408  1.1445
 8524TIP3    H225537   1.594   1.457   3.840 -0.2146 -0.1720  0.4866
 8525TIP3   OH225538   2.756   4.596   2.116 -0.0492 -0.1203 -0.2853
 8525TIP3    H125539   2.734   4.641   2.197 -0.9156 -0.3487 -0.3821
 8525TIP3    H225540   2.822   4.652   2.074  0.2258  0.1192  0.4517
 8526TIP3   OH225541   2.732   4.778   3.454 -0.3145 -0.5061 -0.4488
 8526TIP3    H125542   2.687   4.719   3.515 -1.4934  1.0445  0.2603
 8526TIP3    H225543   2.673   4.785   3.379 -0.4231  0.1326 -0.3111
 8527TIP3   OH225544   6.229   6.739   0.576  1.0191  0.1144  0.1776
 8527TIP3    H125545   6.182   6.721   0.495 -1.8985 -0.8098  1.9172
 8527TIP3    H225546   6.318   6.708   0.560  0.2851 -0.9194 -2.3165
 8528TIP3   OH225547   1.233   3.730   1.854  0.2590  0.5299  0.3040
 8528TIP3    H125548   1.323   3.761   1.848  0.4827 -0.2380 -0.8578
 8528TIP3    H225549   1.181   3.801   1.818  0.5187  0.5490 -0.0452
 8529TIP3   OH225550   4.170   6.574   3.080 -0.1215  0.2573 -0.2781
 8529TIP3    H125551   4.109   6.589   3.153 -0.5982  0.3416 -0.6835
 8529TIP3    H225552   4.152   6.646   3.019  0.4108  0.2992 -0.3879
 8530TIP3   OH225553   5.190   1.791   4.591 -0.0650  0.4286  0.2762
 8530TIP3    H125554   5.103   1.812   4.624 -0.7440  0.0524 -1.1866
 8530TIP3    H225555   5.236   1.875   4.587 -0.9071  0.8742 -0.4185
 8531TIP3   OH225556   5.842   3.320   0.260  0.3733 -0.4732 -0.3182
 8531TIP3    H125557   5.868   3.391   0.319  0.6953  0.1473 -1.1832
 8531TIP3    H225558   5.796   3.364   0.189  0.6360 -1.1248 -0.8985
 8532TIP3   OH225559   6.162   3.605   3.552 -0.2471 -0.7543 -0.7403
 8532TIP3    H125560   6.095   3.653   3.504  0.7764  0.7061 -0.7811
 8532TIP3    H225561   6.118   3.574   3.631 -1.0348 -0.0382 -0.8837
 8533TIP3   OH225562   5.518   2.967   4.303 -0.3106 -0.4001  0.2033
 8533TIP3    H125563   5.464   2.900   4.259 -0.8432  0.7067 -0.8889
 8533TIP3    H225564   5.587   2.917   4.347 -2.8451 -1.9788  2.6829
 8534TIP3   OH225565   0.399   1.189   0.408 -0.0101 -0.3616  0.1936
 8534TIP3    H125566   0.381   1.270   0.456 -3.4501 -1.1261  0.4376
 8534TIP3    H225567   0.353   1.200   0.325  1.0446 -1.3686 -0.5577
 8535TIP3   OH225568   0.908   3.248   4.059  0.2516  0.0542  0.0622
 8535TIP3    H125569   0.888   3.197   3.980 -0.8310  0.0548  0.3143
 8535TIP3    H225570   0.941   3.332   4.026  0.2613 -0.1172 -0.3778
 8536TIP3   OH225571   4.921   1.332   0.943  0.4726  0.0108 -0.4004
 8536TIP3    H125572   4.955   1.399   0.884  0.9172 -0.0670 -0.2443
 8536TIP3    H225573   4.992   1.268   0.948 -0.8114 -1.7102 -2.4261
 8537TIP3   OH225574   2.615   6.453   1.773  0.2284  0.5364 -0.0392
 8537TIP3    H125575   2.678   6.444   1.702  0.4963 -2.0313  0.4027
 8537TIP3    H225576   2.575   6.538   1.760  2.2408  1.3110 -1.6094
 8538TIP3   OH225577   4.395   4.694   5.859  0.3835  0.3536  0.2347
 8538TIP3    H125578   4.332   4.728   5.795  0.4265  1.0378  0.5536
 8538TIP3    H225579   4.480   4.707   5.818  0.4800  1.6561  0.8046
 8539TIP3   OH225580   6.349   3.725   2.035 -0.2584  0.3931 -0.5281
 8539TIP3    H125581   6.409   3.772   1.977  0.4101  0.1027 -0.0929
 8539TIP3    H225582   6.362   3.633   2.012 -2.2465  0.4204 -2.0379
 8540TIP3   OH225583   6.813   6.136   4.203 -0.7062  0.7038 -0.3918
 8540TIP3    H125584   6.838   6.078   4.131  1.1605 -0.2084  0.9334
 8540TIP3    H225585   6.887   6.134   4.263 -1.2898  3.1606  0.5344
 8541TIP3   OH225586   6.378   4.907   4.218  0.0768  0.2166  0.1798
 8541TIP3    H125587   6.393   4.881   4.127  0.7208 -0.9659  0.6038
 8541TIP3    H225588   6.454   4.873   4.265 -0.8825 -0.3162  1.3780
 8542TIP3   OH225589   5.487   6.153   4.954  0.6396  0.0916 -0.3847
 8542TIP3    H125590   5.472   6.247   4.943  2.2776  0.6055  1.2895
 8542TIP3    H225591   5.402   6.118   4.982  0.6974  1.6463  2.0174
 8543TIP3   OH225592   3.352   2.916   0.461 -0.3668  0.2173 -0.3612
 8543TIP3    H125593   3.292   2.967   0.516 -0.2284  0.2113 -0.2046
 8543TIP3    H225594   3.366   2.835   0.510 -0.4270  0.1144 -0.5145
 8544TIP3   OH225595   1.272   1.026   5.363 -0.2109 -0.0136 -0.2559
 8544TIP3    H125596   1.227   1.103   5.398 -0.1977  0.4426 -1.2000
 8544TIP3    H225597   1.360   1.057   5.343 -0.3066 -0.1789 -0.9589
 8545TIP3   OH225598   4.946   1.929   0.241  0.2823 -0.2582 -0.3985
 8545TIP3    H125599   4.858   1.928   0.279  0.8949  0.2513  1.1274
 8545TIP3    H225600   4.933   1.911   0.148 -1.4292 -0.1623 -0.2028
 8546TIP3   OH225601   1.881   1.969   2.829 -0.0808  0.6278 -0.4352
 8546TIP3    H125602   1.858   1.977   2.922 -0.1611  0.9133 -0.4767
 8546TIP3    H225603   1.918   1.881   2.821 -0.0185  0.6215 -0.1210
 8547TIP3   OH225604   6.493   5.112   1.135  0.0061 -0.0567  0.1722
 8547TIP3    H125605   6.504   5.021   1.109 -0.2381  0.1062 -0.5537
 8547TIP3    H225606   6.516   5.162   1.056 -2.2289  0.4069 -0.2552
 8548TIP3   OH225607   4.398   1.918   2.181  0.0529  0.3043 -0.4626
 8548TIP3    H125608   4.441   2.001   2.160 -0.1096  0.6140  0.3787
 8548TIP3    H225609   4.404   1.912   2.277 -1.7884  0.3727 -0.3103
 8549TIP3   OH225610   0.419   0.502   5.472  0.2713  0.3305  0.0109
 8549TIP3    H125611   0.344   0.442   5.473  0.2889  0.1417 -2.8744
 8549TIP3    H225612   0.480   0.463   5.410  2.0194  1.4008  0.9855
 8550TIP3   OH225613   3.367   1.571   4.839 -0.1882  0.6879 -0.5931
 8550TIP3    H125614   3.279   1.539   4.818 -0.5715  1.0890  0.3475
 8550TIP3    H225615   3.425   1.499   4.814 -0.9741 -0.5404  0.9378
 8551TIP3   OH225616   3.256   1.126   3.554 -0.6752 -0.4362  0.7275
 8551TIP3    H125617   3.320   1.195   3.571 -0.2137 -0.0528 -2.0968
 8551TIP3    H225618   3.197   1.129   3.629  0.6587  1.4785  1.7881
 8552TIP3   OH225619   3.538   5.574   1.153  0.4294 -0.5993 -0.1309
 8552TIP3    H125620   3.571   5.494   1.193  1.6921  0.3209  0.7353
 8552TIP3    H225621   3.502   5.546   1.069 -1.5806 -2.4721  1.2401
 8553TIP3   OH225622   7.184   3.364   1.696  0.2615 -0.2947 -0.0263
 8553TIP3    H125623   7.141   3.439   1.656  1.2886 -0.2454 -1.0972
 8553TIP3    H225624   7.210   3.395   1.783 -0.4086  0.1828  0.0114
 8554TIP3   OH225625   0.293   3.935   3.679  0.3017 -0.0144 -0.5701
 8554TIP3    H125626   0.250   3.850   3.674  0.6331 -0.3685  1.6550
 8554TIP3    H225627   0.380   3.920   3.643  1.1015 -1.2288  1.6694
 8555TIP3   OH225628   1.003   2.121   4.869  0.9742 -0.3046 -0.6640
 8555TIP3    H125629   0.926   2.080   4.907  1.5867 -0.9645 -0.1012
 8555TIP3    H225630   1.045   2.166   4.942  2.3961 -1.9462 -0.3813
 8556TIP3   OH225631   3.446   5.527   2.250  0.4051  0.7497  0.0271
 8556TIP3    H125632   3.459   5.518   2.344  1.7161  0.7854 -0.1393
 8556TIP3    H225633   3.495   5.455   2.212 -3.4350 -1.9279 -0.5213
 8557TIP3   OH225634   7.020   0.100   3.133  0.2518  0.0621  0.2461
 8557TIP3    H125635   7.038   0.086   3.226  0.9803  1.6699  0.3851
 8557TIP3    H225636   6.925   0.104   3.128  0.2207  0.7624  1.0705
 8558TIP3   OH225637   2.421   2.008   1.065  0.0816 -0.2174 -0.2019
 8558TIP3    H125638   2.371   2.086   1.042  2.8201  1.8175  0.3062
 8558TIP3    H225639   2.435   1.963   0.981 -1.4612 -0.1707 -0.5096
 8559TIP3   OH225640   5.457   0.812   4.381 -0.0303  0.1659  0.0820
 8559TIP3    H125641   5.417   0.725   4.386 -0.4286  0.3579  0.3189
 8559TIP3    H225642   5.392   0.865   4.335 -0.1973  0.5671  0.7720
 8560TIP3   OH225643   5.269   5.395   2.647  0.1397 -0.1663 -0.1800
 8560TIP3    H125644   5.322   5.474   2.658 -0.0139 -0.0800 -0.0657
 8560TIP3    H225645   5.332   5.327   2.623  0.0847  0.3467 -1.9449
 8561TIP3   OH225646   4.234   0.679   1.321 -0.6037  0.1930 -0.5448
 8561TIP3    H125647   4.323   0.662   1.289 -0.6946 -1.1262 -0.1791
 8561TIP3    H225648   4.242   0.760   1.371  0.4842 -0.0868 -0.2212
 8562TIP3   OH225649   4.566   5.640   5.465 -0.1615  0.3446 -0.2702
 8562TIP3    H125650   4.473   5.661   5.472 -0.2795  0.1873 -1.2936
 8562TIP3    H225651   4.569   5.557   5.418  0.5758  1.6530 -2.6854
 8563TIP3   OH225652   6.694   5.516   0.833 -0.3578 -0.1948 -0.1786
 8563TIP3    H125653   6.768   5.501   0.775 -1.3133 -0.9382 -1.2379
 8563TIP3    H225654   6.640   5.579   0.788 -1.6519 -1.5770 -0.6505
 8564TIP3   OH225655   5.938   2.354   1.231  0.5601 -0.1821  0.4660
 8564TIP3    H125656   5.963   2.275   1.279 -0.3899  0.6799  2.5297
 8564TIP3    H225657   5.884   2.403   1.293 -0.6835  1.0747 -1.5096
 8565TIP3   OH225658   0.710   2.277   5.647 -0.3313 -0.1959  0.1231
 8565TIP3    H125659   0.804   2.291   5.659 -0.5255  0.2361  1.3442
 8565TIP3    H225660   0.679   2.358   5.607  0.1551 -1.2437 -2.5908
 8566TIP3   OH225661   0.944   3.791   3.142  0.2231 -0.4794 -0.2189
 8566TIP3    H125662   1.010   3.838   3.193  1.2562 -0.6236 -1.3700
 8566TIP3    H225663   0.939   3.704   3.182 -1.2485  0.3407  1.5367
 8567TIP3   OH225664   7.035   2.352   0.143  0.0621  0.6147 -0.1451
 8567TIP3    H125665   6.979   2.286   0.104  0.1715 -0.2800  1.1563
 8567TIP3    H225666   7.023   2.430   0.089 -2.3649  0.4348  0.0498
 8568TIP3   OH225667   1.493   3.922   4.686  0.0394  0.1127  1.0360
 8568TIP3    H125668   1.521   3.874   4.608 -1.5413 -2.1986  1.7730
 8568TIP3    H225669   1.478   4.011   4.655  0.4734 -0.4891 -1.0699
 8569TIP3   OH225670   2.827   3.923   4.547  0.6787 -0.2741  0.7874
 8569TIP3    H125671   2.789   3.849   4.595 -0.2292 -0.9905 -0.9641
 8569TIP3    H225672   2.776   3.929   4.467  0.4299  2.5790  1.0578
 8570TIP3   OH225673   1.224   1.855   1.789 -0.3051 -0.4569 -0.4165
 8570TIP3    H125674   1.251   1.897   1.871 -0.2065 -0.8746 -0.2313
 8570TIP3    H225675   1.168   1.920   1.746 -0.1881 -0.1532 -0.1168
 8571TIP3   OH225676   1.198   6.238   2.051 -0.0114  0.4111 -0.0304
 8571TIP3    H125677   1.256   6.307   2.018 -1.8501  1.3528 -1.5170
 8571TIP3    H225678   1.116   6.250   2.001 -1.5978 -0.6363  2.1715
 8572TIP3   OH225679   5.027   1.973   1.665 -0.2947  0.3961 -0.1093
 8572TIP3    H125680   4.983   1.905   1.615 -1.8734  0.9884  0.4128
 8572TIP3    H225681   5.119   1.947   1.665 -0.9482 -2.1669  0.7520
 8573TIP3   OH225682   2.700   4.171   0.395  0.5462 -0.2801 -0.4879
 8573TIP3    H125683   2.781   4.134   0.359 -0.3634 -0.9698 -1.8961
 8573TIP3    H225684   2.667   4.228   0.325 -2.2190 -3.0488 -1.6414
 8574TIP3   OH225685   4.221   3.434   3.547 -0.3661 -0.5054  0.6242
 8574TIP3    H125686   4.146   3.411   3.601  0.6313 -1.2734  1.7583
 8574TIP3    H225687   4.272   3.494   3.602 -0.9122  1.2703 -0.7447
 8575TIP3   OH225688   6.113   2.993   2.066 -0.2590 -0.0879  0.4398
 8575TIP3    H125689   6.125   3.080   2.104 -1.1005  0.8870 -1.3691
 8575TIP3    H225690   6.166   2.935   2.121 -0.2026  1.4409  2.0895
 8576TIP3   OH225691   0.916   5.890   2.199  0.3171 -0.0392  0.3294
 8576TIP3    H125692   0.937   5.978   2.231 -0.4146 -0.0988  0.9956
 8576TIP3    H225693   0.920   5.899   2.104  2.0631  0.2530  0.3888
 8577TIP3   OH225694   1.410   4.963   1.795 -0.0907 -0.0980  0.4297
 8577TIP3    H125695   1.353   5.005   1.731 -0.3029 -0.9263  0.0675
 8577TIP3    H225696   1.478   4.921   1.743 -0.9079 -1.7620  0.6415
 8578TIP3   OH225697   4.985   5.944   2.457  0.1829 -0.1154  0.4334
 8578TIP3    H125698   4.895   5.938   2.424 -0.0247  0.2831  0.9115
 8578TIP3    H225699   4.985   5.891   2.537  0.7498 -1.2933 -0.3115
 8579TIP3   OH225700   2.562   4.007   5.754  0.0066  0.5291  0.1174
 8579TIP3    H125701   2.611   4.021   5.836 -0.3551  2.4669  0.0433
 8579TIP3    H225702   2.473   3.985   5.783  0.4093 -1.0719  0.2316
 8580TIP3   OH225703   5.497   4.993   4.797  0.5707 -0.4258 -0.2956
 8580TIP3    H125704   5.485   5.050   4.872 -1.3664  0.3646 -1.1219
 8580TIP3    H225705   5.576   5.026   4.754 -1.1207  2.5759 -1.4329
 8581TIP3   OH225706   1.756   2.955   4.368  0.3100 -0.3232  0.8312
 8581TIP3    H125707   1.847   2.977   4.389  0.4761  0.4224 -0.5681
 8581TIP3    H225708   1.740   2.873   4.414  1.2869  0.1654  2.1071
 8582TIP3   OH225709   4.048   3.453   2.222 -0.8531  0.2050 -0.0587
 8582TIP3    H125710   4.140   3.454   2.194 -0.8174 -0.6621  0.0175
 8582TIP3    H225711   4.051   3.479   2.314 -0.3439 -2.7137  0.8434
 8583TIP3   OH225712   6.133   4.399   2.819  0.7098  0.2660  0.4730
 8583TIP3    H125713   6.227   4.381   2.820  0.5456 -0.8543 -0.8448
 8583TIP3    H225714   6.096   4.329   2.765 -0.7391  1.3401  0.0111
 8584TIP3   OH225715   6.104   4.618   3.361 -0.0591  0.5821 -0.0855
 8584TIP3    H125716   6.169   4.569   3.411 -0.9846 -0.4479  0.1397
 8584TIP3    H225717   6.156   4.677   3.306  1.0505  0.0490  0.3607
 8585TIP3   OH225718   2.386   0.873   4.504  0.1043 -0.8775  0.1939
 8585TIP3    H125719   2.482   0.871   4.513  0.1818 -0.2759 -0.4066
 8585TIP3    H225720   2.355   0.917   4.583  0.5339  1.3832 -0.8052
 8586TIP3   OH225721   1.746   1.237   0.718 -0.0854  0.1606 -0.4602
 8586TIP3    H125722   1.668   1.229   0.772  0.8810 -0.6911  0.8861
 8586TIP3    H225723   1.796   1.307   0.758  0.8476 -0.7723  0.0655
 8587TIP3   OH225724   3.894   0.183   4.903 -0.0034  0.0281  0.4988
 8587TIP3    H125725   3.838   0.137   4.965  1.6067 -0.6484  1.5233
 8587TIP3    H225726   3.936   0.251   4.954  0.4495  0.2349 -0.1271
 8588TIP3   OH225727   5.445   6.170   0.789 -0.4599  0.1490  0.2729
 8588TIP3    H125728   5.459   6.222   0.869  2.0308  1.3051 -0.7955
 8588TIP3    H225729   5.499   6.214   0.723 -0.5534 -2.1634 -1.4475
 8589TIP3   OH225730   3.162   2.682   5.494  0.3694  0.1510  0.0143
 8589TIP3    H125731   3.229   2.728   5.443 -0.1965  2.3544  1.1536
 8589TIP3    H225732   3.092   2.666   5.431  1.7172 -1.8287 -1.0970
 8590TIP3   OH225733   1.978   1.025   2.060 -0.2218 -0.3039  0.0865
 8590TIP3    H125734   2.013   0.961   2.121  0.3892 -1.0614 -1.0231
 8590TIP3    H225735   2.052   1.082   2.039 -0.2701 -0.4195 -0.4050
 8591TIP3   OH225736   4.648   1.932   0.316  0.1533 -0.1451  0.2879
 8591TIP3    H125737   4.639   1.883   0.235 -0.6013 -1.4613  1.1364
 8591TIP3    H225738   4.629   2.022   0.292 -0.4895 -0.5824 -0.9106
 8592TIP3   OH225739   1.166   2.358   5.049  0.1174 -0.5210  0.2977
 8592TIP3    H125740   1.122   2.441   5.031  0.6532 -0.1957  0.4569
 8592TIP3    H225741   1.168   2.352   5.144  1.1132 -0.1410  0.3161
 8593TIP3   OH225742   0.091   2.826   4.480  0.0930 -0.5733  0.0072
 8593TIP3    H125743   0.108   2.901   4.537  0.1110  1.3307 -2.3426
 8593TIP3    H225744   0.167   2.770   4.492  0.8876  0.5782  0.6251
 8594TIP3   OH225745   2.522   2.688   2.416  0.3335  0.4938 -0.0450
 8594TIP3    H125746   2.462   2.670   2.489 -0.0513  2.7977  0.2746
 8594TIP3    H225747   2.607   2.702   2.458  0.5693 -0.2772 -0.2567
 8595TIP3   OH225748   5.253   0.690   2.740 -0.0842  0.0489  0.0521
 8595TIP3    H125749   5.338   0.646   2.736 -0.0552  0.0618  0.4878
 8595TIP3    H225750   5.247   0.738   2.657  0.7019  0.7245  0.3767
 8596TIP3   OH225751   3.641   2.251   4.431 -0.2537  0.5194  0.3651
 8596TIP3    H125752   3.549   2.260   4.453 -0.5372 -1.0315 -0.0851
 8596TIP3    H225753   3.648   2.285   4.342 -0.2962  1.0243  0.5498
 8597TIP3   OH225754   2.983   5.162   0.792  0.3364 -0.3635 -0.0814
 8597TIP3    H125755   2.890   5.176   0.812  0.3685  0.3677 -0.4151
 8597TIP3    H225756   3.030   5.208   0.861  0.4622 -1.1728  0.3841
 8598TIP3   OH225757   1.950   4.248   5.086  0.2242  0.7709 -0.6714
 8598TIP3    H125758   1.991   4.241   5.172  1.9202 -0.3781 -1.5224
 8598TIP3    H225759   1.986   4.176   5.036 -2.6402 -0.1478 -1.6390
 8599TIP3   OH225760   3.297   6.264   1.584 -0.2663  0.3026  0.5861
 8599TIP3    H125761   3.202   6.260   1.589 -0.6510 -0.1710 -3.3594
 8599TIP3    H225762   3.325   6.175   1.563  0.9441  0.5899  0.8703
 8600TIP3   OH225763   1.841   0.321   3.275 -0.1764 -0.1977  0.2280
 8600TIP3    H125764   1.817   0.333   3.183  1.4587  0.8849 -0.0896
 8600TIP3    H225765   1.867   0.229   3.281 -1.9256 -0.7427  0.0350
 8601TIP3   OH225766   5.079   5.642   5.903  0.4168 -0.3868 -0.3719
 8601TIP3    H125767   5.044   5.640   5.814 -0.4438  0.8305 -0.0863
 8601TIP3    H225768   5.146   5.710   5.902  1.3210 -1.2653 -0.3971
 8602TIP3   OH225769   4.759   2.798   4.256 -0.0430  0.2989 -0.2571
 8602TIP3    H125770   4.729   2.804   4.347 -1.8743  0.7663 -0.8594
 8602TIP3    H225771   4.689   2.838   4.205  1.1690  0.4709 -1.8556
 8603TIP3   OH225772   6.803   5.669   1.505 -0.2138 -0.0763 -0.2705
 8603TIP3    H125773   6.737   5.730   1.473 -0.4447 -0.8296 -1.2826
 8603TIP3    H225774   6.876   5.724   1.533 -0.6400  0.6897 -0.6420
 8604TIP3   OH225775   5.484   3.821   5.825 -0.2009 -0.2707 -0.2043
 8604TIP3    H125776   5.540   3.744   5.838  0.2638 -0.0732 -0.9392
 8604TIP3    H225777   5.424   3.820   5.899 -0.4956 -1.5873 -0.4378
 8605TIP3   OH225778   4.639   0.515   0.694  0.3297 -0.4739  0.0988
 8605TIP3    H125779   4.628   0.421   0.678  1.3918 -0.4527 -0.8714
 8605TIP3    H225780   4.731   0.524   0.719  0.6560  0.4856 -1.3396
 8606TIP3   OH225781   5.374   2.581   1.163 -0.0925  0.5203  0.3493
 8606TIP3    H125782   5.375   2.652   1.098 -0.8451  0.4317  0.2372
 8606TIP3    H225783   5.364   2.501   1.111 -2.1019  0.5412  0.6242
 8607TIP3   OH225784   4.608   3.948   3.923 -0.2282 -0.2139 -0.5736
 8607TIP3    H125785   4.522   3.912   3.902 -0.0192 -1.2478  0.2034
 8607TIP3    H225786   4.643   3.978   3.840  0.2643 -3.4216 -1.6835
 8608TIP3   OH225787   1.861   1.051   0.524  0.2811 -0.3187  0.6003
 8608TIP3    H125788   1.799   1.084   0.589  0.9907  2.8921 -0.2148
 8608TIP3    H225789   1.947   1.057   0.567  0.5174 -0.3856  0.1413
 8609TIP3   OH225790   1.711   0.899   0.173 -0.3987  0.1480 -0.2772
 8609TIP3    H125791   1.654   0.915   0.098  1.4237 -0.0870 -1.7621
 8609TIP3    H225792   1.775   0.970   0.170  0.2782 -0.4122  0.4713
 8610TIP3   OH225793   5.605   0.015   3.230 -0.0025  0.1600  0.2293
 8610TIP3    H125794   5.615  -0.043   3.155 -0.9132 -0.1502  0.3353
 8610TIP3    H225795   5.545   0.083   3.200 -0.6623 -0.1684  0.7808
 8611TIP3   OH225796   4.486   3.282   1.736 -0.4901 -0.3708 -0.6198
 8611TIP3    H125797   4.500   3.295   1.829 -0.6317 -0.1323 -0.6294
 8611TIP3    H225798   4.475   3.371   1.701 -0.3015 -0.4510 -0.8839
 8612TIP3   OH225799   3.266   2.867   5.672 -0.1181 -0.1947 -0.4802
 8612TIP3    H125800   3.357   2.842   5.660 -0.0685  0.0897 -0.7060
 8612TIP3    H225801   3.220   2.827   5.599 -0.3278 -1.1175  0.1440
 8613TIP3   OH225802   4.452   5.592   3.650  0.4033  0.4116 -0.3668
 8613TIP3    H125803   4.446   5.559   3.560 -0.0789 -2.6089  0.6335
 8613TIP3    H225804   4.404   5.675   3.649  0.5093  0.5091 -2.8883
 8614TIP3   OH225805   3.848   3.775   4.020 -0.0754  0.0673 -0.3402
 8614TIP3    H125806   3.785   3.708   4.043  0.1963  0.1229  0.6071
 8614TIP3    H225807   3.806   3.825   3.950  0.0444 -1.5685 -1.6339
 8615TIP3   OH225808   0.710   5.791   4.538  0.3843 -0.1378 -0.4639
 8615TIP3    H125809   0.625   5.808   4.497  0.6984  0.8769 -0.7266
 8615TIP3    H225810   0.772   5.789   4.465  0.9038  1.3512 -0.1005
 8616TIP3   OH225811   1.962   6.828   4.777 -0.1404 -0.7385 -0.1395
 8616TIP3    H125812   1.980   6.734   4.775 -0.6557 -0.8718  0.9597
 8616TIP3    H225813   1.868   6.835   4.766 -0.2210 -0.4078  0.6862
 8617TIP3   OH225814   4.438   4.811   2.787  0.0166  0.1429  0.1818
 8617TIP3    H125815   4.480   4.821   2.872  0.2235  0.2090  0.0724
 8617TIP3    H225816   4.399   4.723   2.790 -0.3823  0.3299  0.5212
 8618TIP3   OH225817   1.266   1.499   2.625  0.1095  0.3485 -0.2859
 8618TIP3    H125818   1.230   1.425   2.576 -0.4593  0.0157  0.6114
 8618TIP3    H225819   1.220   1.576   2.589 -0.7204  0.0462  0.0992
 8619TIP3   OH225820   1.129   3.421   3.039 -0.0991  0.4891 -0.4648
 8619TIP3    H125821   1.078   3.465   3.108 -0.8652  0.3633 -0.9405
 8619TIP3    H225822   1.063   3.388   2.978  0.5051 -0.6677 -0.5093
 8620TIP3   OH225823   1.952   1.120   3.614  0.6562 -0.5670 -0.0087
 8620TIP3    H125824   1.918   1.032   3.628  2.8686 -1.1926  2.1054
 8620TIP3    H225825   1.874   1.174   3.599 -0.8439 -2.6326 -0.0184
 8621TIP3   OH225826   4.271   6.770   0.030  0.7157 -0.6369 -0.1616
 8621TIP3    H125827   4.324   6.720  -0.032  0.1422 -2.3902  0.6877
 8621TIP3    H225828   4.266   6.714   0.108 -0.4279  0.5185  0.6384
 8622TIP3   OH225829   0.762   3.708   5.770  0.2684 -0.2302  0.2541
 8622TIP3    H125830   0.672   3.679   5.784  0.2614 -0.2183  0.2340
 8622TIP3    H225831   0.753   3.793   5.726  0.3064 -0.7069 -0.6869
 8623TIP3   OH225832   3.755   2.609   4.263 -0.3175  0.4738 -0.5106
 8623TIP3    H125833   3.757   2.705   4.255  0.1700  0.5503  0.3599
 8623TIP3    H225834   3.774   2.593   4.356 -4.0752 -0.3198  0.2900
 8624TIP3   OH225835   4.596   3.290   3.113  0.0665 -0.2873 -0.2998
 8624TIP3    H125836   4.549   3.362   3.155 -1.0657 -1.4368  0.4848
 8624TIP3    H225837   4.652   3.333   3.048  0.7364  1.4261  1.3203
 8625TIP3   OH225838   1.356   4.565   5.267 -0.5238 -0.0181 -0.0970
 8625TIP3    H125839   1.283   4.508   5.291 -0.6244 -0.4653 -1.3691
 8625TIP3    H225840   1.381   4.536   5.179  1.5246 -0.2114  0.5039
 8626TIP3   OH225841   7.117   1.613   2.319 -1.1784 -0.2121 -0.4205
 8626TIP3    H125842   7.060   1.689   2.311 -1.5951 -0.6319 -1.6985
 8626TIP3    H225843   7.074   1.558   2.385 -0.7614  0.7266  0.6668
 8627TIP3   OH225844   0.697   6.747   2.988 -0.5844 -0.0377 -0.3334
 8627TIP3    H125845   0.666   6.661   3.016 -0.2997  0.0687  0.3145
 8627TIP3    H225846   0.656   6.808   3.048 -0.5134  0.2547 -0.5804
 8628TIP3   OH225847   2.508   4.252   3.783  0.1976 -0.3311 -0.3730
 8628TIP3    H125848   2.464   4.213   3.858 -1.3895 -1.3121 -1.7177
 8628TIP3    H225849   2.565   4.183   3.749  0.9721  0.1347 -0.0435
 8629TIP3   OH225850   6.960   4.087   2.638 -0.0937 -0.0016  0.2615
 8629TIP3    H125851   6.949   4.111   2.730  1.1584 -1.9483  0.9660
 8629TIP3    H225852   7.054   4.072   2.627 -0.0167  1.4253 -1.6995
 8630TIP3   OH225853   0.432   6.183   5.015  0.4384  0.3405 -0.0708
 8630TIP3    H125854   0.344   6.161   5.045  0.5450  0.5556  0.4052
 8630TIP3    H225855   0.452   6.267   5.058  0.0134  1.4353 -1.9035
 8631TIP3   OH225856   2.123   4.784   1.668 -0.4080 -0.8483 -0.4536
 8631TIP3    H125857   2.096   4.741   1.749 -0.2683  0.2149  0.1754
 8631TIP3    H225858   2.215   4.761   1.658  0.3564  1.1571  1.1703
 8632TIP3   OH225859   2.341   3.626   0.957  0.8201 -0.4095 -1.1366
 8632TIP3    H125860   2.313   3.576   1.034  1.0569  0.7108 -0.3111
 8632TIP3    H225861   2.378   3.707   0.992 -1.4918  1.3569 -2.4708
 8633TIP3   OH225862   5.882   2.422   2.041  0.2530 -0.3627  0.3020
 8633TIP3    H125863   5.868   2.470   1.959  2.0452  0.6537  0.5126
 8633TIP3    H225864   5.961   2.462   2.077  0.9360 -2.4826  1.2829
 8634TIP3   OH225865   0.367   4.662   1.402  0.3391  0.3315  0.0783
 8634TIP3    H125866   0.419   4.596   1.449 -0.2044  1.1080  1.8416
 8634TIP3    H225867   0.298   4.686   1.463  0.2408  2.2019 -0.7177
 8635TIP3   OH225868   6.439   0.378   2.212 -0.7657  0.1444  0.3812
 8635TIP3    H125869   6.367   0.329   2.174 -0.5361 -1.6901  2.0971
 8635TIP3    H225870   6.421   0.378   2.306  0.5601  1.2062  0.6771
 8636TIP3   OH225871   6.851   4.380   3.779 -0.3237  0.2466  0.0578
 8636TIP3    H125872   6.934   4.417   3.749  0.3698  0.4206  2.0712
 8636TIP3    H225873   6.865   4.361   3.872 -2.3414 -0.3052  0.2961
 8637TIP3   OH225874   2.317   0.226   4.377  0.3320  0.3867  0.0898
 8637TIP3    H125875   2.370   0.151   4.353 -0.5883  0.0904 -1.1047
 8637TIP3    H225876   2.259   0.240   4.302 -1.9912  0.0413  1.6950
 8638TIP3   OH225877   4.163   0.898   0.067 -0.0186 -0.2173  0.0818
 8638TIP3    H125878   4.202   0.948  -0.005 -1.6701  0.5876 -0.3114
 8638TIP3    H225879   4.183   0.950   0.146 -1.1367  0.7598 -0.2440
 8639TIP3   OH225880   4.101   6.055   4.230 -0.2178 -0.3725  0.1867
 8639TIP3    H125881   4.117   6.129   4.288 -2.1365  0.4436 -0.2567
 8639TIP3    H225882   4.051   5.993   4.283  0.1821 -0.7475  0.1326
 8640TIP3   OH225883   2.389   4.971   5.202  0.0284  0.2583  0.2590
 8640TIP3    H125884   2.425   5.024   5.273  1.2986  1.1535 -1.0219
 8640TIP3    H225885   2.358   5.035   5.138 -0.0793 -0.5419 -0.4959
 8641TIP3   OH225886   4.902   1.686   0.558 -0.1838  0.0382 -0.0671
 8641TIP3    H125887   4.972   1.749   0.541 -0.2740  0.3714  0.7492
 8641TIP3    H225888   4.831   1.739   0.594  0.4388 -0.7477  2.5286
 8642TIP3   OH225889   7.138   6.136   5.846 -0.0819 -0.2209  0.2013
 8642TIP3    H125890   7.192   6.195   5.793  1.7916 -1.7015  0.3606
 8642TIP3    H225891   7.066   6.191   5.876 -0.2652  1.1276 -2.3895
 8643TIP3   OH225892   5.970   0.437   2.500  0.6500  0.5823 -0.2440
 8643TIP3    H125893   6.024   0.407   2.574 -0.4929 -1.5613 -0.1844
 8643TIP3    H225894   6.012   0.399   2.423  0.6582  1.0723 -0.4854
 8644TIP3   OH225895   1.970   4.469   0.797  0.0255 -0.0691 -0.9603
 8644TIP3    H125896   1.880   4.493   0.772  0.0305  0.8444 -0.1364
 8644TIP3    H225897   1.974   4.485   0.891  0.8727 -0.7255 -0.8746
 8645TIP3   OH225898   0.539   6.414   3.934 -0.0681 -0.0966  0.0688
 8645TIP3    H125899   0.491   6.492   3.905 -0.7234  0.0223  1.3862
 8645TIP3    H225900   0.471   6.349   3.950  0.3660 -0.4999  0.2892
 8646TIP3   OH225901   5.649   0.270   4.742 -0.3075  0.6156 -1.2242
 8646TIP3    H125902   5.647   0.175   4.738  2.7929  0.2210  1.5823
 8646TIP3    H225903   5.578   0.293   4.802 -1.3753  0.1369 -2.2905
 8647TIP3   OH225904   5.691   5.445   4.736 -0.4074  0.5871  0.3024
 8647TIP3    H125905   5.700   5.353   4.759  0.9024  0.4395 -0.6409
 8647TIP3    H225906   5.611   5.450   4.684 -1.5838  0.3669  2.0235
 8648TIP3   OH225907   3.954   4.414   3.661  0.4166 -0.4047  0.3034
 8648TIP3    H125908   3.880   4.463   3.625  1.0039  0.2234 -0.0913
 8648TIP3    H225909   3.953   4.435   3.754 -1.3141 -2.3025  0.7703
 8649TIP3   OH225910   4.364   5.021   3.598  0.0526 -0.0506 -0.3757
 8649TIP3    H125911   4.271   4.998   3.598  0.4770 -2.2291  1.8599
 8649TIP3    H225912   4.371   5.090   3.665 -0.1000  1.1944 -1.5902
 8650TIP3   OH225913   4.210   6.359   3.787 -0.1861 -0.2174 -0.1960
 8650TIP3    H125914   4.244   6.315   3.710 -1.4100 -1.3017 -0.1649
 8650TIP3    H225915   4.199   6.450   3.761  0.4960 -0.3412 -0.9263
 8651TIP3   OH225916   1.086   0.845   5.248  0.2761 -0.2377 -0.2666
 8651TIP3    H125917   1.009   0.832   5.304  1.3774 -1.9435  0.9391
 8651TIP3    H225918   1.142   0.904   5.298  0.2229  0.1651 -0.6765
 8652TIP3   OH225919   6.961   3.656   2.481  0.1256  0.1001  0.2832
 8652TIP3    H125920   6.995   3.702   2.558 -0.0494  0.2839  0.2516
 8652TIP3    H225921   6.893   3.598   2.516  0.9513 -0.7897  0.4412
 8653TIP3   OH225922   1.579   6.352   3.508 -0.1098  0.4098  0.9124
 8653TIP3    H125923   1.506   6.359   3.446 -1.1346 -2.9421  1.5511
 8653TIP3    H225924   1.648   6.308   3.458 -0.1493 -0.3582  1.5227
 8654TIP3   OH225925   0.657   1.241   1.884  0.1722 -0.1384  1.1630
 8654TIP3    H125926   0.572   1.198   1.871  0.7812 -0.8673 -0.8005
 8654TIP3    H225927   0.668   1.295   1.805  1.2743  0.4172  1.6801
 8655TIP3   OH225928   1.271   2.799   2.532  0.7732 -0.0746 -0.0729
 8655TIP3    H125929   1.283   2.848   2.451  1.6205  2.1475  1.2813
 8655TIP3    H225930   1.278   2.866   2.601 -0.6143 -1.7380  1.8068
 8656TIP3   OH225931   1.694   6.529   5.468 -0.1033  0.2354 -0.0115
 8656TIP3    H125932   1.600   6.535   5.481 -0.5850 -3.0782 -1.1585
 8656TIP3    H225933   1.720   6.617   5.441 -3.1683  0.8698 -1.3249
 8657TIP3   OH225934   7.196   2.027   2.479 -0.7928  0.5491  0.3062
 8657TIP3    H125935   7.173   2.111   2.438  0.4608  1.8582  2.1013
 8657TIP3    H225936   7.250   2.052   2.554  0.0296 -1.9246  0.6151
 8658TIP3   OH225937   3.704   0.806   4.806  0.0862 -0.1852  0.6860
 8658TIP3    H125938   3.798   0.818   4.813 -0.0371  0.6404  0.9630
 8658TIP3    H225939   3.669   0.834   4.890 -0.6103  1.7614 -0.1930
 8659TIP3   OH225940   6.937   3.414   4.270  0.2011  0.5320  0.0426
 8659TIP3    H125941   6.871   3.347   4.253  0.8716 -0.6647  1.8214
 8659TIP3    H225942   6.957   3.405   4.364  2.4845  1.1924 -0.3111
 8660TIP3   OH225943   3.422   3.499   5.225 -0.0069  0.4449  0.0529
 8660TIP3    H125944   3.409   3.511   5.320 -0.4880 -1.6180  0.2801
 8660TIP3    H225945   3.457   3.583   5.196  0.5069  1.0197  2.1283
 8661TIP3   OH225946   5.980   3.050   1.075  0.2343 -0.6305  0.4908
 8661TIP3    H125947   6.070   3.084   1.075  1.3469 -3.2153  2.3176
 8661TIP3    H225948   5.932   3.109   1.018  3.3047  0.3211 -1.3464
 8662TIP3   OH225949   7.129   4.525   2.183 -0.4127  0.2634  0.2445
 8662TIP3    H125950   7.137   4.526   2.087  0.0381  1.9492  0.2635
 8662TIP3    H225951   7.036   4.538   2.200 -0.4665  0.1512  0.0431
 8663TIP3   OH225952   3.364   5.087   0.142 -0.3251  0.2392  0.0228
 8663TIP3    H125953   3.443   5.032   0.142  0.0936  0.8135 -1.1877
 8663TIP3    H225954   3.396   5.176   0.158 -0.7227  0.4809 -0.5132
 8664TIP3   OH225955   1.225   1.243   0.630  0.1009 -0.1012 -0.0106
 8664TIP3    H125956   1.201   1.263   0.721 -0.5178 -0.0465 -0.1881
 8664TIP3    H225957   1.220   1.327   0.585 -0.7164 -0.3329 -0.3523
 8665TIP3   OH225958   0.506   3.812   2.915 -0.2066  0.3522  0.4553
 8665TIP3    H125959   0.577   3.841   2.972  0.0456 -0.2503  0.4497
 8665TIP3    H225960   0.468   3.893   2.881 -0.8470  0.7564  2.0628
 8666TIP3   OH225961   2.901   5.570   2.142 -0.5251 -0.2175  0.3375
 8666TIP3    H125962   2.830   5.633   2.128 -0.4540  0.0453  1.1111
 8666TIP3    H225963   2.951   5.607   2.215 -0.5484 -1.2288  0.8786
 8667TIP3   OH225964   0.669   1.601   2.112 -0.1137 -0.2018  0.2415
 8667TIP3    H125965   0.664   1.679   2.057  1.1518  0.1096  0.5471
 8667TIP3    H225966   0.668   1.634   2.201  1.1779 -0.4693  0.3681
 8668TIP3   OH225967   5.199   5.285   0.756  0.2484 -0.5027 -0.3157
 8668TIP3    H125968   5.228   5.252   0.671  0.4914 -0.7661 -0.1325
 8668TIP3    H225969   5.125   5.229   0.779  0.4345 -0.6936 -0.1717
 8669TIP3   OH225970   1.858   1.127   0.135  0.5539 -0.1406 -0.1439
 8669TIP3    H125971   1.911   1.189   0.084  0.7354  0.2215  0.4607
 8669TIP3    H225972   1.800   1.183   0.186  0.6677 -0.4682  0.3550
 8670TIP3   OH225973   3.355   5.620   0.392 -0.0351  0.1780 -0.3970
 8670TIP3    H125974   3.302   5.567   0.333 -1.2583  0.3946  0.4527
 8670TIP3    H225975   3.295   5.688   0.423  0.6405  0.2414  0.8490
 8671TIP3   OH225976   5.726   0.999   1.515 -0.5168  1.0145 -0.3731
 8671TIP3    H125977   5.769   0.972   1.596  0.2646 -1.2301 -1.4555
 8671TIP3    H225978   5.789   1.058   1.474  0.6566 -0.5107 -0.8889
 8672TIP3   OH225979   2.715   6.036   5.092 -0.0777 -0.8954  0.1813
 8672TIP3    H125980   2.637   6.017   5.142 -0.2342 -0.2470  0.1991
 8672TIP3    H225981   2.780   5.973   5.123 -0.2222 -0.6222  1.0661
 8673TIP3   OH225982   1.824   2.469   4.955  0.7445  0.6574  0.3264
 8673TIP3    H125983   1.780   2.541   4.999  0.7437  0.7974  0.0950
 8673TIP3    H225984   1.783   2.464   4.869  1.9767  1.5591 -0.3479
 8674TIP3   OH225985   6.677   5.141   5.136  0.2874  0.0423  0.3592
 8674TIP3    H125986   6.751   5.182   5.090  1.2679 -0.9641  0.9654
 8674TIP3    H225987   6.709   5.053   5.158 -2.0684 -1.4879 -1.7759
 8675TIP3   OH225988   4.460   2.398   0.361 -0.6070 -0.0217 -0.7981
 8675TIP3    H125989   4.375   2.420   0.322 -1.0579 -2.7548 -1.5819
 8675TIP3    H225990   4.518   2.469   0.333 -2.9986  3.1320  1.5806
 8676TIP3   OH225991   2.197   2.056   3.204  0.7995 -0.0624  0.1447
 8676TIP3    H125992   2.193   2.143   3.242 -0.9426  0.9408 -2.1271
 8676TIP3    H225993   2.181   2.069   3.110  0.6082 -2.8023 -0.3011
 8677TIP3   OH225994   5.684   5.785   1.157 -0.4089 -0.1517  0.2511
 8677TIP3    H125995   5.692   5.870   1.115 -1.4673  0.2203  0.7848
 8677TIP3    H225996   5.616   5.796   1.223  0.4423 -1.0233  1.3100
 8678TIP3   OH225997   4.225   0.773   5.006 -0.1452  0.5679 -0.1768
 8678TIP3    H125998   4.260   0.748   5.091  0.0848 -0.6498 -0.6151
 8678TIP3    H225999   4.171   0.699   4.979  0.7500  0.3998 -1.6321
 8679TIP3   OH226000   4.999   3.815   4.426 -0.3468 -0.5028 -0.6852
 8679TIP3    H126001   5.046   3.897   4.406 -0.4661 -0.6747 -1.7293
 8679TIP3    H226002   4.969   3.826   4.516  0.9686 -0.0298 -0.2801
 8680TIP3   OH226003   2.284   4.628   0.920 -0.2256 -0.5651  0.1291
 8680TIP3    H126004   2.328   4.713   0.929 -0.2038 -0.5628  0.0063
 8680TIP3    H226005   2.338   4.579   0.858  0.2934 -1.0312  0.9363
 8681TIP3   OH226006   5.319   1.037   1.851  0.1360 -0.3332 -0.6068
 8681TIP3    H126007   5.247   1.100   1.845  0.2387 -0.1060  0.3383
 8681TIP3    H226008   5.397   1.087   1.825  0.2802  0.0685  0.5323
 8682TIP3   OH226009   0.679   2.098   0.931 -0.1927  0.9924  0.1786
 8682TIP3    H126010   0.736   2.093   0.854 -1.9385 -0.7088 -1.0991
 8682TIP3    H226011   0.737   2.125   1.002  1.2364  4.0805 -1.9468
 8683TIP3   OH226012   3.434   3.902   1.132  0.7286  0.2475 -0.5800
 8683TIP3    H126013   3.438   3.823   1.186  1.6153  1.3596  1.0749
 8683TIP3    H226014   3.497   3.887   1.062  1.1024 -0.3955 -0.1167
 8684TIP3   OH226015   4.460   4.297   1.531 -0.5210 -0.2034 -0.8897
 8684TIP3    H126016   4.530   4.241   1.565 -0.7428  0.1633  0.2320
 8684TIP3    H226017   4.483   4.385   1.562 -2.7079 -0.3989  1.7027
 8685TIP3   OH226018   1.963   0.759   1.957  0.2602  0.3765 -0.5194
 8685TIP3    H126019   1.921   0.755   1.871  0.5618  0.7109 -0.6817
 8685TIP3    H226020   1.939   0.846   1.991 -2.5265 -0.8571  1.0952
 8686TIP3   OH226021   4.084   5.433   3.814 -0.6498 -0.3168  0.8775
 8686TIP3    H126022   4.035   5.428   3.732 -1.1032 -0.1465  1.1309
 8686TIP3    H226023   4.124   5.520   3.814  1.8841 -1.4040 -0.5570
 8687TIP3   OH226024   4.829   4.547   0.930 -0.1880  0.5873 -0.2370
 8687TIP3    H126025   4.800   4.459   0.954  0.4141 -0.8525 -4.0107
 8687TIP3    H226026   4.921   4.550   0.957 -0.7285  0.8961  1.7049
 8688TIP3   OH226027   2.542   2.708   0.843  0.2150 -0.5946  0.4400
 8688TIP3    H126028   2.451   2.706   0.875  0.6891 -0.3813  1.8924
 8688TIP3    H226029   2.535   2.740   0.753 -1.1112 -0.1208  0.6849
 8689TIP3   OH226030   2.430   1.461   0.494  0.1257  0.2442  0.3683
 8689TIP3    H126031   2.443   1.503   0.409 -0.5206 -1.1149 -0.4412
 8689TIP3    H226032   2.348   1.498   0.527  0.1167  0.4121  0.1599
 8690TIP3   OH226033   0.661   2.540   4.610  0.1255  0.2159  0.3624
 8690TIP3    H126034   0.594   2.581   4.665 -0.5897  0.0791 -0.3904
 8690TIP3    H226035   0.723   2.502   4.672 -0.7198 -0.0268  1.0756
 8691TIP3   OH226036   4.709   6.403   5.446  0.1568 -0.2285 -0.8323
 8691TIP3    H126037   4.686   6.364   5.362 -1.8955 -0.7566 -0.0774
 8691TIP3    H226038   4.646   6.474   5.457 -0.2711 -0.7985  0.6789
 8692TIP3   OH226039   0.283   4.845   3.384 -0.1761 -0.4216 -0.3919
 8692TIP3    H126040   0.308   4.894   3.463 -0.8452  0.3148 -0.6221
 8692TIP3    H226041   0.218   4.901   3.341 -2.6562 -2.4405  0.4608
 8693TIP3   OH226042   6.669   3.452   0.474 -0.5209 -0.0311 -0.1710
 8693TIP3    H126043   6.646   3.398   0.398  0.5755  0.8223 -1.1368
 8693TIP3    H226044   6.673   3.541   0.441  0.0192  0.3585  0.8803
 8694TIP3   OH226045   1.867   1.517   5.146  0.2233  0.3693  0.0405
 8694TIP3    H126046   1.820   1.565   5.079 -3.4591 -3.3063 -0.3966
 8694TIP3    H226047   1.818   1.534   5.227  1.4515  0.6176  0.7667
 8695TIP3   OH226048   5.946   1.849   5.172 -0.5848  0.3996 -0.3362
 8695TIP3    H126049   6.028   1.805   5.196 -1.1380 -0.5131 -0.0914
 8695TIP3    H226050   5.928   1.908   5.245 -1.4222 -1.1972  0.7960
 8696TIP3   OH226051   6.967   4.803   0.208 -0.0880 -0.0293 -0.5780
 8696TIP3    H126052   7.042   4.834   0.259  0.6117  0.4653 -1.8818
 8696TIP3    H226053   7.006   4.753   0.136 -1.0026  0.2368 -1.2751
 8697TIP3   OH226054   4.077   2.049   0.413  0.2231 -0.0730 -0.2047
 8697TIP3    H126055   4.074   2.097   0.496  0.1469 -2.2471  1.1563
 8697TIP3    H226056   4.009   1.983   0.422  1.4388 -1.5357 -1.2039
 8698TIP3   OH226057   4.756   0.651   0.068  0.0053 -0.8851  0.4013
 8698TIP3    H126058   4.769   0.583   0.003 -1.7405 -0.6116 -0.2873
 8698TIP3    H226059   4.669   0.634   0.104 -0.8469  1.4383 -0.3965
 8699TIP3   OH226060   3.278   1.142   4.707 -0.1725  0.1227  0.2810
 8699TIP3    H126061   3.266   1.134   4.802 -1.8839  0.2074  0.1111
 8699TIP3    H226062   3.346   1.079   4.686 -0.2074 -0.3428  1.4976
 8700TIP3   OH226063   1.637   6.217   0.610 -0.0205  0.4891  0.6033
 8700TIP3    H126064   1.664   6.280   0.677  0.8589  2.7637 -1.7015
 8700TIP3    H226065   1.553   6.250   0.578  1.0599  1.4178 -1.5357
 8701TIP3   OH226066   0.522   4.088   5.109  0.3328 -0.2934 -0.0654
 8701TIP3    H126067   0.559   4.139   5.037  0.2637  2.2057  1.5770
 8701TIP3    H226068   0.598   4.053   5.155  0.7255  2.4426  1.6011
 8702TIP3   OH226069   6.177   1.932   3.795 -0.1155  0.0282  0.2695
 8702TIP3    H126070   6.198   2.025   3.786  0.5332  0.0378  1.5847
 8702TIP3    H226071   6.258   1.887   3.768 -0.6168 -0.1959 -0.9231
 8703TIP3   OH226072   4.177   4.879   2.747 -0.2298 -0.1997 -0.1144
 8703TIP3    H126073   4.270   4.888   2.768 -0.2538  0.8403 -0.3579
 8703TIP3    H226074   4.176   4.847   2.657 -0.1082 -0.6582  0.0484
 8704TIP3   OH226075   3.392   4.298   4.316  0.4427  0.3981  0.5045
 8704TIP3    H126076   3.432   4.277   4.400  1.0924 -0.2434  0.0520
 8704TIP3    H226077   3.320   4.357   4.337 -1.0325 -1.7181  1.8035
 8705TIP3   OH226078   0.500   0.602   5.160  0.4814 -0.3205  0.2468
 8705TIP3    H126079   0.523   0.680   5.210 -1.2581  1.6082 -1.7553
 8705TIP3    H226080   0.535   0.619   5.072  0.8571 -2.2513 -0.0256
 8706TIP3   OH226081   1.449   6.268   3.004 -0.1012 -0.3610  0.5045
 8706TIP3    H126082   1.357   6.242   3.009 -0.0403 -0.8583 -0.6765
 8706TIP3    H226083   1.451   6.354   3.046 -1.2676  0.0104 -0.1334
 8707TIP3   OH226084   5.221   1.723   1.285 -0.0157  0.1265  0.2944
 8707TIP3    H126085   5.226   1.734   1.190 -2.3580  1.6903  0.2603
 8707TIP3    H226086   5.211   1.629   1.298 -0.4900 -0.0300 -1.0743
 8708TIP3   OH226087   3.139   3.626   5.220 -0.1365 -0.1829  0.3691
 8708TIP3    H126088   3.069   3.649   5.280  0.4928  0.3889  0.8970
 8708TIP3    H226089   3.176   3.545   5.257  2.1472  1.6715  2.4882
 8709TIP3   OH226090   6.023   0.024   1.970  0.4558 -0.1925 -0.0936
 8709TIP3    H126091   6.049   0.101   1.921 -0.8348  0.7156  0.5779
 8709TIP3    H226092   6.062  -0.049   1.923  0.2518  0.7308 -1.7743
 8710TIP3   OH226093   4.668   6.726   5.735 -0.7356 -0.4721 -0.3761
 8710TIP3    H126094   4.602   6.783   5.776  0.1907  0.6340 -0.3871
 8710TIP3    H226095   4.725   6.786   5.686  0.0433 -1.4549 -0.7080
 8711TIP3   OH226096   6.466   4.697   1.257  0.4863 -0.5316 -0.0279
 8711TIP3    H126097   6.379   4.714   1.221  0.6715 -0.1422 -0.3053
 8711TIP3    H226098   6.524   4.755   1.207  1.0089 -1.3135 -0.3468
 8712TIP3   OH226099   6.316   4.255   4.262 -0.0513 -0.4071  0.5921
 8712TIP3    H126100   6.263   4.178   4.241  1.8494 -1.2836 -1.4150
 8712TIP3    H226101   6.266   4.329   4.226 -0.2130 -1.1486 -0.7903
 8713TIP3   OH226102   2.940   4.321   2.307  0.2242  0.1899 -0.1051
 8713TIP3    H126103   2.922   4.307   2.400 -0.0786  0.9956 -0.0300
 8713TIP3    H226104   2.858   4.298   2.263  0.6340 -1.0119 -0.2646
 8714TIP3   OH226105   4.790   3.097   4.999 -0.0365  0.3975  0.0249
 8714TIP3    H126106   4.811   3.114   4.907  1.8508  1.8771  0.6707
 8714TIP3    H226107   4.758   3.181   5.032 -0.1392  0.0376  0.8614
 8715TIP3   OH226108   0.881   3.885   4.907 -0.1909  0.1219  0.1720
 8715TIP3    H126109   0.878   3.810   4.965  1.4016 -0.5301 -0.5406
 8715TIP3    H226110   0.874   3.848   4.819 -0.3267  0.8977 -0.1525
 8716TIP3   OH226111   2.450   1.553   0.224  0.4620 -0.0402  0.2578
 8716TIP3    H126112   2.484   1.642   0.222 -1.2719  0.6617  0.0091
 8716TIP3    H226113   2.521   1.499   0.191  0.8966  1.4920 -1.4365
 8717TIP3   OH226114   6.320   2.720   1.934 -0.0640 -0.2647  0.0461
 8717TIP3    H126115   6.355   2.699   2.021  2.8683  0.5371 -0.8415
 8717TIP3    H226116   6.376   2.673   1.873  1.5717  3.3921 -1.5833
 8718TIP3   OH226117   4.289   0.410   3.586  0.2375 -0.0061  0.3246
 8718TIP3    H126118   4.279   0.315   3.585  1.3105 -0.1481 -1.4706
 8718TIP3    H226119   4.367   0.426   3.639  0.5505 -0.1838 -0.0861
 8719TIP3   OH226120   4.292   6.697   5.682  0.8407 -0.3404  0.6092
 8719TIP3    H126121   4.309   6.760   5.752  0.0453  0.2533  0.2738
 8719TIP3    H226122   4.309   6.745   5.601 -4.6216  1.2283  0.0202
 8720TIP3   OH226123   5.418   2.318   2.247  0.8208  0.0370  0.1161
 8720TIP3    H126124   5.409   2.256   2.174 -0.5416  1.0467 -0.6125
 8720TIP3    H226125   5.482   2.277   2.305  2.0825 -0.7243 -1.7151
 8721TIP3   OH226126   5.018   1.537   0.792  0.5382  0.2391 -0.0740
 8721TIP3    H126127   4.971   1.568   0.714  0.5892  0.8934  0.1469
 8721TIP3    H226128   5.110   1.537   0.765  0.5348  0.2554 -0.0860
 8722TIP3   OH226129   0.442   2.896   2.272  0.0000  0.9386 -0.7293
 8722TIP3    H126130   0.409   2.952   2.342 -1.9322 -1.2186  0.2178
 8722TIP3    H226131   0.367   2.841   2.247  1.5489 -0.7054 -2.0919
 8723TIP3   OH226132   3.519   1.966   0.196 -0.1188  0.1601  0.1148
 8723TIP3    H126133   3.448   1.991   0.255 -1.1202  0.2266 -1.0656
 8723TIP3    H226134   3.557   2.050   0.167 -2.0474  0.3722 -2.1376
 8724TIP3   OH226135   5.585   4.688   0.947 -0.1433 -0.2910 -0.6204
 8724TIP3    H126136   5.540   4.645   0.874  0.2366 -1.0120 -0.4420
 8724TIP3    H226137   5.641   4.619   0.984  0.2169  0.2698 -0.1093
 8725TIP3   OH226138   0.179   5.509   3.696 -0.1417  0.0527  0.0944
 8725TIP3    H126139   0.262   5.467   3.721  0.3167  1.0027  0.1975
 8725TIP3    H226140   0.205   5.582   3.641 -0.8173  1.2432  1.3135
 8726TIP3   OH226141   0.343   1.786   1.151  0.4500  0.3734  0.3123
 8726TIP3    H126142   0.248   1.796   1.153  0.0694 -2.1896 -0.6219
 8726TIP3    H226143   0.370   1.800   1.242 -1.0356 -0.2188  0.8940
 8727TIP3   OH226144   4.265   3.751   1.305  0.3853  0.3214  0.4468
 8727TIP3    H126145   4.189   3.694   1.294  1.7584 -2.4476  3.5170
 8727TIP3    H226146   4.312   3.745   1.222 -1.6757  0.4929 -0.8028
 8728TIP3   OH226147   3.694   3.126   5.453 -0.0729 -0.6510  0.4958
 8728TIP3    H126148   3.749   3.088   5.522  2.0417  0.4948 -0.4465
 8728TIP3    H226149   3.675   3.215   5.483 -0.3626 -0.6273  0.2464
 8729TIP3   OH226150   1.915   2.511   5.233 -0.3308 -0.1309  0.5412
 8729TIP3    H126151   1.922   2.418   5.210 -0.4740 -0.0897  0.3257
 8729TIP3    H226152   1.836   2.540   5.188 -0.4812  0.0110  0.8943
 8730TIP3   OH226153   2.400   0.446   0.641  0.2541  0.0380  0.1247
 8730TIP3    H126154   2.396   0.373   0.703  0.0198  0.5853  0.7736
 8730TIP3    H226155   2.490   0.477   0.645  0.7511 -1.0964 -1.2278
 8731TIP3   OH226156   1.713   5.146   0.331  0.1921  0.3898 -0.2133
 8731TIP3    H126157   1.755   5.229   0.355  0.7729  0.0042  0.1555
 8731TIP3    H226158   1.627   5.170   0.299 -0.3145  1.0164  1.4956
 8732TIP3   OH226159  -0.024   2.308   1.775 -0.3716 -0.1859  0.2154
 8732TIP3    H126160   0.012   2.330   1.689  1.0390 -0.1054  0.8038
 8732TIP3    H226161   0.052   2.299   1.832 -1.3603  1.6619  1.9363
 8733TIP3   OH226162   4.544   6.214   4.358  0.0805 -0.4672  0.4606
 8733TIP3    H126163   4.607   6.181   4.421  0.1678 -2.5511 -0.6215
 8733TIP3    H226164   4.458   6.199   4.398  0.1731  1.1976  1.3874
 8734TIP3   OH226165   1.235   0.366   4.837  0.1818 -0.2407  1.2162
 8734TIP3    H126166   1.193   0.452   4.832 -0.2478 -0.5106 -0.6118
 8734TIP3    H226167   1.329   0.386   4.839  0.1250  0.2798 -0.2107
 8735TIP3   OH226168   7.224   3.743   3.904 -0.4344 -0.1935  0.3658
 8735TIP3    H126169   7.177   3.693   3.836  1.5179 -1.5070 -0.0848
 8735TIP3    H226170   7.201   3.834   3.886 -4.3179 -0.8001  1.3636
 8736TIP3   OH226171   0.329   3.556   4.614 -0.0148  0.6011 -0.0846
 8736TIP3    H126172   0.404   3.497   4.622  0.6772  1.2855 -1.3282
 8736TIP3    H226173   0.264   3.520   4.675  0.1723 -1.7478 -1.1800
 8737TIP3   OH226174   5.502   3.204   4.143  0.0390 -0.0770  0.2462
 8737TIP3    H126175   5.412   3.220   4.169  0.0954  0.4682  0.1327
 8737TIP3    H226176   5.529   3.127   4.193 -0.5088 -0.2854  0.2214
 8738TIP3   OH226177   1.897   1.145   2.965 -0.1037  0.6053  0.1008
 8738TIP3    H126178   1.851   1.087   2.905  0.7830 -1.2450  1.1372
 8738TIP3    H226179   1.968   1.183   2.912 -0.8066  0.9440 -0.6290
 8739TIP3   OH226180   3.320   2.877   3.210 -0.7561  0.7129  0.0095
 8739TIP3    H126181   3.266   2.821   3.154 -2.0743  0.3443  1.5628
 8739TIP3    H226182   3.291   2.966   3.190 -0.6830  0.6450 -0.4144
 8740TIP3   OH226183   6.749   6.118   5.544 -0.2805  0.2072 -0.1297
 8740TIP3    H126184   6.695   6.045   5.576 -0.5781  1.2454  1.9210
 8740TIP3    H226185   6.839   6.089   5.557 -0.3979  0.2385  0.8331
 8741TIP3   OH226186   3.637   0.614   0.415  0.4500 -0.0806  0.7611
 8741TIP3    H126187   3.659   0.663   0.336  0.4854 -0.0136  0.8128
 8741TIP3    H226188   3.542   0.603   0.411  0.7369 -3.5625 -1.3846
 8742TIP3   OH226189   3.346   0.871   2.446 -0.4190  0.0295  0.5700
 8742TIP3    H126190   3.338   0.849   2.539 -2.0842 -0.7178  0.2933
 8742TIP3    H226191   3.331   0.966   2.443 -0.8476 -0.0152  1.0244
 8743TIP3   OH226192   6.058   2.339   0.544  0.2484 -0.5112  0.7140
 8743TIP3    H126193   6.053   2.246   0.566  0.0688 -0.6513  0.1012
 8743TIP3    H226194   6.148   2.363   0.562  0.6460 -1.1253 -0.3647
 8744TIP3   OH226195   5.209   2.003   2.444  0.6728 -0.3238 -0.2331
 8744TIP3    H126196   5.292   1.955   2.437 -0.1653 -1.7181 -0.9957
 8744TIP3    H226197   5.186   1.995   2.537  1.4812  0.2645  0.0337
 8745TIP3   OH226198   2.691   3.529   2.850  0.2335 -0.6523 -0.3967
 8745TIP3    H126199   2.742   3.605   2.877  0.3575 -1.0294  0.4532
 8745TIP3    H226200   2.683   3.476   2.929 -0.0358 -1.4199 -0.9278
 8746TIP3   OH226201   1.514   2.656   5.844  0.1258 -0.2521 -0.3155
 8746TIP3    H126202   1.567   2.728   5.809 -0.0888  1.1504  2.0223
 8746TIP3    H226203   1.564   2.577   5.824  1.3631  0.7181 -1.2073
 8747TIP3   OH226204   2.914   1.252   5.809  0.0757 -0.3497  0.2783
 8747TIP3    H126205   2.910   1.328   5.867 -1.0942  0.9984 -1.4488
 8747TIP3    H226206   3.002   1.217   5.820  0.4458  0.9177  1.5414
 8748TIP3   OH226207   6.299   6.042   3.270  0.6745 -0.3767 -0.1432
 8748TIP3    H126208   6.367   6.087   3.220  1.1451 -2.3535 -1.3742
 8748TIP3    H226209   6.346   5.975   3.320 -0.0377  0.2723  1.4830
 8749TIP3   OH226210   3.256   4.768   1.983 -0.2667 -0.1546 -0.3071
 8749TIP3    H126211   3.291   4.713   2.053 -0.8226  0.0596  0.1477
 8749TIP3    H226212   3.182   4.814   2.024 -0.7106 -0.1659 -1.0844
 8750TIP3   OH226213   4.649   4.529   5.112  0.8009  0.2983 -0.1343
 8750TIP3    H126214   4.566   4.487   5.137  0.3678  1.6837  0.9232
 8750TIP3    H226215   4.624   4.596   5.048  1.1957  0.2235 -0.3656
 8751TIP3   OH226216   6.923   1.740   1.589  0.7884 -0.4382 -0.0661
 8751TIP3    H126217   6.921   1.695   1.505  2.3651 -1.0058  0.1711
 8751TIP3    H226218   6.937   1.671   1.653  0.1536  0.0547  0.6253
 8752TIP3   OH226219   5.087   6.210   1.806  0.0258 -0.2161  0.2662
 8752TIP3    H126220   5.046   6.272   1.866 -0.8299 -1.0863  0.6085
 8752TIP3    H226221   5.032   6.214   1.727  1.7971  1.7851 -0.9958
 8753TIP3   OH226222   2.217   3.608   1.671  0.3880 -0.6619  0.2195
 8753TIP3    H126223   2.289   3.665   1.696  0.7718 -1.5846  1.3099
 8753TIP3    H226224   2.256   3.546   1.609 -0.0967  0.3947 -1.1978
 8754TIP3   OH226225   1.246   4.173   0.326 -0.2370  0.3723 -0.0885
 8754TIP3    H126226   1.163   4.168   0.278 -1.4261 -0.5273  1.9594
 8754TIP3    H226227   1.238   4.108   0.395  3.0808 -1.3018 -1.0857
 8755TIP3   OH226228   2.036   2.901   3.248 -0.5233  0.3503 -0.7372
 8755TIP3    H126229   2.008   2.900   3.156 -0.2673 -1.0315 -0.8132
 8755TIP3    H226230   2.128   2.928   3.244 -0.8628  1.5432 -0.7694
 8756TIP3   OH226231   4.221   1.499   3.923 -0.3729  0.3408  0.4547
 8756TIP3    H126232   4.296   1.541   3.966 -0.4576 -0.0727  1.0291
 8756TIP3    H226233   4.197   1.428   3.983  0.5170 -1.3061 -1.0557
 8757TIP3   OH226234   6.043   1.181   4.735  0.3433  0.0318  0.3298
 8757TIP3    H126235   6.098   1.232   4.794 -0.7558  0.8003  0.7221
 8757TIP3    H226236   6.026   1.239   4.661  0.2625 -0.2878  0.0948
 8758TIP3   OH226237   2.157   1.084   1.745  0.1362 -0.4045  0.1336
 8758TIP3    H126238   2.186   0.999   1.711 -0.2315 -0.8993  1.0256
 8758TIP3    H226239   2.176   1.080   1.839  0.3148  0.5889  0.1461
 8759TIP3   OH226240   6.122   2.226   5.560  0.1374  0.2697 -0.5222
 8759TIP3    H126241   6.216   2.224   5.539 -0.1464 -1.8922 -1.9734
 8759TIP3    H226242   6.117   2.190   5.649  0.6392 -0.6086 -0.8314
 8760TIP3   OH226243   3.342   1.761   3.469 -0.0258  0.3209 -0.6781
 8760TIP3    H126244   3.320   1.675   3.504 -2.7532  1.4244  0.6600
 8760TIP3    H226245   3.336   1.752   3.374 -0.8057 -0.8468 -0.5298
 8761TIP3   OH226246   6.645   0.343   1.681  0.2253 -0.1431  0.8326
 8761TIP3    H126247   6.619   0.356   1.772 -2.3583  0.9695  0.0398
 8761TIP3    H226248   6.634   0.249   1.666  2.1795 -0.6127  2.0180
 8762TIP3   OH226249   6.577   2.360   5.615 -0.7962 -0.2187  0.2561
 8762TIP3    H126250   6.617   2.304   5.681 -0.1674 -0.5646 -0.3934
 8762TIP3    H226251   6.529   2.300   5.558  1.2769 -0.3943 -1.4498
 8763TIP3   OH226252   3.264   2.314   2.422  0.1624 -0.8760  0.5996
 8763TIP3    H126253   3.359   2.325   2.424  0.3357 -1.8952 -0.7768
 8763TIP3    H226254   3.235   2.365   2.347 -0.1367 -2.1141 -0.1399
 8764TIP3   OH226255   0.194   4.493   3.808 -0.3851  0.1549 -0.1558
 8764TIP3    H126256   0.115   4.445   3.835 -0.4770  0.0171 -0.6562
 8764TIP3    H226257   0.243   4.430   3.756 -0.7600  0.7533 -1.2665
 8765TIP3   OH226258   1.876   1.035   4.924  0.1269 -0.4611  0.4090
 8765TIP3    H126259   1.889   0.974   4.851 -0.6653 -0.9013  0.6207
 8765TIP3    H226260   1.962   1.040   4.967  0.2540 -1.2828  0.2688
 8766TIP3   OH226261   2.853   0.967   3.466 -0.4436 -0.4420 -0.1768
 8766TIP3    H126262   2.775   0.977   3.413  0.5601 -0.6720 -1.7671
 8766TIP3    H226263   2.907   1.043   3.444  0.0108 -0.5584  0.5037
 8767TIP3   OH226264   4.429   1.671   2.740 -0.0871 -0.3929 -0.7541
 8767TIP3    H126265   4.424   1.739   2.673  2.5373  0.3525 -0.3398
 8767TIP3    H226266   4.388   1.709   2.817 -1.3937 -0.5124 -1.3756
 8768TIP3   OH226267   4.372   3.561   0.353 -0.5691  0.2592 -0.1493
 8768TIP3    H126268   4.283   3.530   0.338 -0.3621 -0.2731 -0.2713
 8768TIP3    H226269   4.375   3.646   0.309 -0.7198 -0.1590 -0.9927
 8769TIP3   OH226270   0.577   4.231   5.611  0.4113  0.3524 -0.1894
 8769TIP3    H126271   0.671   4.250   5.607  0.0455  2.5570  0.5308
 8769TIP3    H226272   0.542   4.264   5.529  0.3243 -1.1030 -0.7664
 8770TIP3   OH226273   3.637   5.444   3.422  0.2011 -0.4030 -0.6368
 8770TIP3    H126274   3.685   5.495   3.487 -0.9790  0.0751 -0.1082
 8770TIP3    H226275   3.556   5.494   3.406 -0.2644 -1.3154 -1.2801
 8771TIP3   OH226276   1.820   6.069   1.537  0.5040 -0.3001  0.2775
 8771TIP3    H126277   1.865   5.990   1.569  0.5994  0.1314  1.2380
 8771TIP3    H226278   1.801   6.119   1.616 -0.7241  0.0344 -0.2012
 8772TIP3   OH226279   4.790   1.156   4.251 -0.1233 -0.2515 -0.0469
 8772TIP3    H126280   4.865   1.214   4.266 -1.3649  1.3008  0.4361
 8772TIP3    H226281   4.714   1.214   4.255 -1.2725 -1.4983 -2.1345
 8773TIP3   OH226282   4.668   1.450   2.266  0.4614  0.1046 -0.6601
 8773TIP3    H126283   4.589   1.437   2.213  2.1824 -1.3597 -3.0941
 8773TIP3    H226284   4.637   1.452   2.356 -2.3831  0.0292 -1.5481
 8774TIP3   OH226285   4.891   0.975   1.866 -0.5888 -0.0733  0.2505
 8774TIP3    H126286   4.923   1.063   1.886 -0.8571  0.3506 -1.0991
 8774TIP3    H226287   4.814   0.965   1.922 -2.0996  1.5843 -1.3853
 8775TIP3   OH226288   4.376   6.072   0.607  0.3355 -0.1599  0.0935
 8775TIP3    H126289   4.301   6.035   0.560 -1.5696  1.9843  1.1819
 8775TIP3    H226290   4.406   6.002   0.664 -2.7733 -0.3616  1.7181
 8776TIP3   OH226291   1.530   5.508   5.386 -0.2480 -0.0616 -0.1562
 8776TIP3    H126292   1.574   5.590   5.409  1.4252 -1.4167  1.8352
 8776TIP3    H226293   1.454   5.504   5.444 -1.4167  0.8760 -1.5406
 8777TIP3   OH226294   4.156   6.565   1.382  0.4285 -0.5047  0.3056
 8777TIP3    H126295   4.090   6.582   1.315  1.5192  1.0409 -0.4651
 8777TIP3    H226296   4.160   6.647   1.432  0.2910 -1.3142  1.6835
 8778TIP3   OH226297   2.245   6.195   0.165  0.3399 -0.4663  0.0305
 8778TIP3    H126298   2.154   6.210   0.192  0.8764  0.1584  1.6542
 8778TIP3    H226299   2.286   6.155   0.242  1.4321 -0.7702 -0.6940
 8779TIP3   OH226300   1.914   2.344   1.800  0.1555  0.7977 -0.4551
 8779TIP3    H126301   1.985   2.280   1.805 -0.0613  0.4770 -1.2245
 8779TIP3    H226302   1.940   2.404   1.731 -0.8407 -0.0300 -1.6172
 8780TIP3   OH226303   5.469   0.633   5.000  0.2083  0.3073 -0.1664
 8780TIP3    H126304   5.510   0.648   4.915  0.2916 -0.4156 -0.2566
 8780TIP3    H226305   5.540   0.643   5.063  0.2986  0.1078 -0.2378
 8781TIP3   OH226306   3.564   2.916   1.390  0.8062  0.1007 -0.0805
 8781TIP3    H126307   3.654   2.926   1.422  0.6548  0.7876  0.1465
 8781TIP3    H226308   3.560   2.971   1.311  0.1097  1.4883  0.8789
 8782TIP3   OH226309   2.390   2.950   1.966 -0.3786 -0.1815  0.4179
 8782TIP3    H126310   2.397   2.876   2.027  1.7743 -0.7769 -0.4661
 8782TIP3    H226311   2.457   3.012   1.996  0.4900 -0.3416 -1.0946
 8783TIP3   OH226312   6.793   6.312   2.941  0.3494 -0.2835  0.2458
 8783TIP3    H126313   6.797   6.265   2.858 -1.7432 -2.4557  1.2414
 8783TIP3    H226314   6.865   6.375   2.937 -0.2614  0.3482 -3.5240
 8784TIP3   OH226315   6.526   4.614   2.047  0.3184  0.1753 -0.0442
 8784TIP3    H126316   6.546   4.649   1.960 -2.2348 -0.1061 -0.8184
 8784TIP3    H226317   6.490   4.689   2.095  0.4352  0.0053  0.3117
 8785TIP3   OH226318   6.881   5.063   4.506  0.2200  0.3330  0.1826
 8785TIP3    H126319   6.932   4.984   4.522 -0.6280 -0.2358  0.1672
 8785TIP3    H226320   6.929   5.132   4.552 -0.5350 -0.7153  2.7137
 8786TIP3   OH226321   5.561   3.423   1.095 -0.1661 -0.4013  0.1520
 8786TIP3    H126322   5.651   3.452   1.080 -0.2447  0.1869  0.7986
 8786TIP3    H226323   5.548   3.354   1.030  0.7139 -0.4178 -0.0269
 8787TIP3   OH226324   0.056   6.253   5.639 -0.1811  0.1017  0.2505
 8787TIP3    H126325   0.128   6.216   5.587  0.7040  0.2422  1.3223
 8787TIP3    H226326  -0.011   6.275   5.575  0.9107  0.3662 -0.8460
 8788TIP3   OH226327   2.436   1.677   1.923  0.4774 -0.0368 -0.0029
 8788TIP3    H126328   2.529   1.668   1.900  0.1740 -0.2536 -1.1992
 8788TIP3    H226329   2.396   1.715   1.845 -0.9049 -2.4759 -0.5839
 8789TIP3   OH226330   3.651   4.361   0.915  0.6828 -0.5223  0.1214
 8789TIP3    H126331   3.653   4.308   0.994 -0.1326  3.0166  2.7523
 8789TIP3    H226332   3.566   4.344   0.876 -1.5422  1.8308  3.4011
 8790TIP3   OH226333   2.298   1.585   1.168  0.1329  0.6412 -0.4616
 8790TIP3    H126334   2.382   1.618   1.134  0.1185 -0.6735 -1.8682
 8790TIP3    H226335   2.242   1.577   1.091 -0.6734 -0.2446  0.1920
 8791TIP3   OH226336   4.286   6.117   0.207 -0.5214 -0.0732 -0.2478
 8791TIP3    H126337   4.349   6.045   0.210 -0.0101  0.3865  1.6022
 8791TIP3    H226338   4.324   6.185   0.264 -1.1870  1.5046 -1.5971
 8792TIP3   OH226339   4.845   1.889   5.361  0.0119 -0.1609  0.4085
 8792TIP3    H126340   4.827   1.974   5.401 -1.1323  0.0822 -0.5608
 8792TIP3    H226341   4.840   1.905   5.267  2.3005 -0.7984  0.1308
 8793TIP3   OH226342   0.510   3.323   4.577  0.4957 -0.0825 -0.1695
 8793TIP3    H126343   0.483   3.274   4.655  0.6373  0.9111  0.5313
 8793TIP3    H226344   0.575   3.267   4.535  0.5452 -0.5662  0.5206
 8794TIP3   OH226345   4.038   3.797   2.501 -0.0951 -0.2841 -0.2231
 8794TIP3    H126346   4.043   3.712   2.458  0.2656 -1.1153  1.3708
 8794TIP3    H226347   3.981   3.850   2.444 -1.1432 -1.8964 -0.7403
 8795TIP3   OH226348   4.753   5.362   2.686  0.5986 -0.0536 -0.4698
 8795TIP3    H126349   4.723   5.273   2.668  0.7007 -0.4206  1.0373
 8795TIP3    H226350   4.703   5.417   2.627  0.2152 -1.0748 -1.1164
 8796TIP3   OH226351   2.334   5.210   1.194 -0.2938  0.2332 -0.7017
 8796TIP3    H126352   2.361   5.162   1.116 -2.5142  0.8202 -1.9013
 8796TIP3    H226353   2.259   5.160   1.228  2.7159 -2.1951  3.3485
 8797TIP3   OH226354   1.299   0.283   2.553  0.1824 -0.0073 -0.0657
 8797TIP3    H126355   1.268   0.249   2.469  0.5799 -2.9901  0.8755
 8797TIP3    H226356   1.246   0.237   2.618  1.4192  0.5174  1.3674
 8798TIP3   OH226357   2.336   2.084   5.021 -0.3837  0.1894 -0.4100
 8798TIP3    H126358   2.244   2.078   5.045 -0.7140 -2.0233 -1.8489
 8798TIP3    H226359   2.361   2.174   5.042 -1.0719 -0.6319  5.8416
 8799TIP3   OH226360   4.729   1.486   0.666  0.0843  0.3061  0.3587
 8799TIP3    H126361   4.793   1.542   0.622  0.3249  0.2223  0.6047
 8799TIP3    H226362   4.651   1.542   0.676 -0.1016  0.2192 -0.4982
 8800TIP3   OH226363   5.452   1.548   5.289  0.4386  0.4786 -0.0122
 8800TIP3    H126364   5.486   1.621   5.237  1.0867 -0.6524 -1.2210
 8800TIP3    H226365   5.359   1.569   5.300  0.4215  1.0857 -1.0819
 8801TIP3   OH226366   4.522   0.956   5.322  0.1890  0.2218  0.1676
 8801TIP3    H126367   4.604   0.907   5.322  0.7170  1.0642 -0.5878
 8801TIP3    H226368   4.479   0.932   5.240 -0.7877 -0.9342  0.9926
 8802TIP3   OH226369   3.065   4.679   2.513 -0.4504  0.0707 -0.0413
 8802TIP3    H126370   3.121   4.739   2.563 -1.8895 -0.1614  2.0108
 8802TIP3    H226371   3.000   4.648   2.577 -1.7626 -1.1299 -1.8365
 8803TIP3   OH226372   2.705   1.980   0.076 -0.4827  0.3241  0.4594
 8803TIP3    H126373   2.706   2.072   0.048 -0.3028  0.9104  2.2848
 8803TIP3    H226374   2.790   1.945   0.048  0.7284  1.5785  2.3397
 8804TIP3   OH226375   6.401   4.160   3.355  0.5330  0.1559 -0.1113
 8804TIP3    H126376   6.390   4.091   3.290 -1.2861  0.7023 -0.4537
 8804TIP3    H226377   6.328   4.148   3.416 -0.1186  2.0219 -0.4513
 8805TIP3   OH226378   3.108   5.499   3.813  0.0230 -0.1473  0.0285
 8805TIP3    H126379   3.096   5.458   3.728 -0.3876 -0.3513  0.1843
 8805TIP3    H226380   3.099   5.593   3.796  1.6394 -0.0486 -0.4453
 8806TIP3   OH226381   3.034   2.378   4.529  0.0501 -0.5826 -0.5074
 8806TIP3    H126382   3.047   2.457   4.476  0.5218 -1.0764 -1.1556
 8806TIP3    H226383   2.969   2.403   4.594  0.7684  0.5790 -0.1943
 8807TIP3   OH226384   4.144   5.853   4.690  0.1134  0.3235 -0.5072
 8807TIP3    H126385   4.058   5.810   4.690  0.4290 -0.3356 -0.1489
 8807TIP3    H226386   4.203   5.787   4.727  1.1157  0.1002 -2.3782
 8808TIP3   OH226387   1.762   3.363   5.148 -0.9059  0.3058  0.3283
 8808TIP3    H126388   1.684   3.391   5.100 -0.4293  0.7872 -0.1753
 8808TIP3    H226389   1.750   3.399   5.236 -1.2920  0.2991  0.2820
 8809TIP3   OH226390   6.736   1.899   5.530 -0.3336 -0.0100  0.1508
 8809TIP3    H126391   6.795   1.873   5.460 -0.1710  1.9317 -0.4936
 8809TIP3    H226392   6.771   1.982   5.562 -2.2093  0.7689  0.3414
 8810TIP3   OH226393   1.519   0.089   1.969 -0.7867 -0.0021 -0.2615
 8810TIP3    H126394   1.557   0.090   1.881  0.2389 -1.8996  0.0951
 8810TIP3    H226395   1.445   0.028   1.962  0.0122 -1.1002  0.4044
 8811TIP3   OH226396   1.830   2.839   5.846 -0.5248 -0.3780  0.2212
 8811TIP3    H126397   1.902   2.792   5.804  0.5671  1.3574  0.0318
 8811TIP3    H226398   1.821   2.799   5.932  0.8354 -0.4846  0.3279
 8812TIP3   OH226399   2.226   6.632   5.272  0.4885  0.0848 -0.2727
 8812TIP3    H126400   2.214   6.607   5.364 -1.4535  0.2748 -0.4373
 8812TIP3    H226401   2.186   6.561   5.222  0.0956  0.7526 -0.9199
 8813TIP3   OH226402   6.869   5.905   4.594  0.1343 -0.0899  0.3914
 8813TIP3    H126403   6.776   5.895   4.615  0.2264 -2.1400  0.0521
 8813TIP3    H226404   6.904   5.816   4.599  2.1947  0.7053  0.9676
 8814TIP3   OH226405   2.160   3.331   3.670 -0.0611  0.1282  0.5344
 8814TIP3    H126406   2.247   3.342   3.710  0.4817 -1.7938  0.0086
 8814TIP3    H226407   2.114   3.273   3.731 -0.0598 -0.8962 -0.4079
 8815TIP3   OH226408   5.203   6.084   5.497 -0.0528  0.7374 -0.2784
 8815TIP3    H126409   5.281   6.094   5.551  0.2046  1.3778 -0.7586
 8815TIP3    H226410   5.133   6.064   5.559  0.5076  0.0772  0.1442
 8816TIP3   OH226411   5.055   6.066   0.420 -0.0054 -0.8568  0.2035
 8816TIP3    H126412   5.078   5.977   0.394  1.1734 -0.3442 -0.5713
 8816TIP3    H226413   5.091   6.122   0.351  0.5098  0.3237  1.3760
 8817TIP3   OH226414   0.142   5.322   3.983  0.5884 -0.2276 -0.2177
 8817TIP3    H126415   0.150   5.417   3.988 -1.7033 -0.0081  1.0219
 8817TIP3    H226416   0.219   5.288   4.028  1.8485  0.9831 -1.3827
 8818TIP3   OH226417   3.891   5.110   2.316  0.3082 -0.2934 -0.0483
 8818TIP3    H126418   3.885   5.052   2.240 -2.5507  0.3249 -0.3881
 8818TIP3    H226419   3.837   5.069   2.382 -1.0945  1.5008 -0.0057
 8819TIP3   OH226420   6.489   6.426   1.494 -0.8630 -0.2159 -0.2041
 8819TIP3    H126421   6.574   6.390   1.470 -0.8214 -0.2886  0.0493
 8819TIP3    H226422   6.487   6.512   1.452 -0.7571 -0.3058 -0.3936
 8820TIP3   OH226423   4.974   3.069   5.546 -0.4884 -0.1634 -0.4907
 8820TIP3    H126424   4.880   3.090   5.546 -0.7768 -1.0653  2.3008
 8820TIP3    H226425   4.999   3.072   5.638  2.3521  0.3582 -1.1915
 8821TIP3   OH226426   0.405   5.607   0.414 -0.1673  0.4702  0.3626
 8821TIP3    H126427   0.388   5.565   0.330  1.2614 -1.4418  0.9444
 8821TIP3    H226428   0.335   5.672   0.423 -1.2586 -0.3361 -1.5799
 8822TIP3   OH226429   3.537   4.421   2.332 -0.4819 -0.1120  0.2217
 8822TIP3    H126430   3.568   4.435   2.242  0.1057  2.6397  0.7738
 8822TIP3    H226431   3.612   4.382   2.377  0.3541  1.3979  0.2145
 8823TIP3   OH226432   2.772   5.266   1.584  0.4971 -0.2410  0.7985
 8823TIP3    H126433   2.753   5.360   1.583 -1.1383 -0.4592 -2.8335
 8823TIP3    H226434   2.702   5.227   1.533  2.1457 -3.2459  0.6210
 8824TIP3   OH226435   2.913   5.921   4.553  0.0546  0.1174  0.0594
 8824TIP3    H126436   2.900   5.855   4.485 -0.3063  0.8350 -0.5849
 8824TIP3    H226437   2.931   5.871   4.633 -1.5270 -0.7866 -0.1221
 8825TIP3   OH226438   5.936   4.446   5.681 -0.2452 -0.3878  0.5217
 8825TIP3    H126439   5.856   4.478   5.638 -0.9794 -2.7023  0.0470
 8825TIP3    H226440   5.983   4.399   5.612  0.5536 -0.7600  1.3046
 8826TIP3   OH226441   0.435   0.492   4.083 -0.3205 -0.3851  0.4820
 8826TIP3    H126442   0.491   0.569   4.079 -0.3092 -0.4473 -1.8275
 8826TIP3    H226443   0.495   0.419   4.064 -0.8618 -0.6313 -0.2993
 8827TIP3   OH226444   4.376   5.317   3.167  0.0475  0.6257 -0.2658
 8827TIP3    H126445   4.470   5.299   3.170  0.2479  1.6218  3.0690
 8827TIP3    H226446   4.335   5.241   3.206 -0.6325  0.1118 -1.8786
 8828TIP3   OH226447   2.835   2.657   4.248  0.0582 -0.1132 -0.7623
 8828TIP3    H126448   2.763   2.599   4.273 -0.3465  0.7976  0.2815
 8828TIP3    H226449   2.792   2.736   4.215  0.5088  0.8195  0.7414
 8829TIP3   OH226450   7.157   3.612   4.609  0.0918 -0.2859 -0.9305
 8829TIP3    H126451   7.131   3.690   4.659 -1.7900  0.0924 -2.4175
 8829TIP3    H226452   7.191   3.646   4.526  3.6422 -0.8836  0.0875
 8830TIP3   OH226453   6.887   1.818   2.229 -0.1947  0.4184 -0.0616
 8830TIP3    H126454   6.925   1.906   2.219 -1.5928  0.9947 -0.6122
 8830TIP3    H226455   6.903   1.776   2.145  0.0524  0.3248  0.0332
 8831TIP3   OH226456   4.240   5.285   3.565 -0.0261  0.0312 -0.2085
 8831TIP3    H126457   4.272   5.322   3.647  1.3858 -0.8287 -0.3455
 8831TIP3    H226458   4.314   5.290   3.505 -0.4852 -0.9913 -0.8929
 8832TIP3   OH226459   3.145   5.981   2.117 -0.2078 -0.5429 -0.0312
 8832TIP3    H126460   3.192   6.041   2.173 -0.1546  0.3291 -0.9766
 8832TIP3    H226461   3.133   6.029   2.035  0.8241 -2.2104 -1.2150
 8833TIP3   OH226462   5.687   0.784   1.320  0.1968 -0.3978 -0.1368
 8833TIP3    H126463   5.631   0.805   1.245  0.0367  0.4861  0.2229
 8833TIP3    H226464   5.680   0.860   1.378  1.1107 -0.6367  0.3087
 8834TIP3   OH226465   5.062   5.343   1.059 -0.4351  0.2036  0.4120
 8834TIP3    H126466   4.972   5.311   1.051 -0.5116  0.6216 -0.4912
 8834TIP3    H226467   5.103   5.283   1.122 -1.3520  0.0378  0.8676
 8835TIP3   OH226468   4.607   1.021   0.050 -0.0541  0.5628 -0.3397
 8835TIP3    H126469   4.631   0.997   0.139  0.5980  0.2675 -0.5937
 8835TIP3    H226470   4.690   1.032   0.004 -0.3788 -1.3655 -1.4654
 8836TIP3   OH226471   5.544   4.762   4.932 -0.4213 -0.0479  0.1089
 8836TIP3    H126472   5.516   4.821   4.862  0.0725  0.8533  0.6583
 8836TIP3    H226473   5.589   4.818   4.994 -0.1443 -0.9742  0.7617
 8837TIP3   OH226474   0.045   1.282   3.678  0.1691 -0.4998 -0.1246
 8837TIP3    H126475  -0.029   1.302   3.735 -0.1062 -2.2355  0.1875
 8837TIP3    H226476   0.007   1.233   3.606  0.9890 -1.3187 -0.0152
 8838TIP3   OH226477   0.076   0.798   5.831 -0.1192 -0.2401  0.0253
 8838TIP3    H126478   0.058   0.705   5.848  0.1267 -0.2622  0.1693
 8838TIP3    H226479   0.023   0.818   5.754  0.5546 -0.7543 -0.5825
 8839TIP3   OH226480   0.102   0.124   2.469  0.3129  0.1428  0.2237
 8839TIP3    H126481   0.040   0.121   2.542  0.2926 -0.8923  0.1803
 8839TIP3    H226482   0.061   0.182   2.405  0.2149  0.8635  0.9150
 8840TIP3   OH226483   1.399   4.826   5.032  0.4206  0.1640 -0.2714
 8840TIP3    H126484   1.363   4.862   5.114  0.6198 -0.2685  0.0046
 8840TIP3    H226485   1.343   4.864   4.964  2.1700  3.1283 -0.2458
 8841TIP3   OH226486   4.547   3.411   5.428  0.3342  0.5322  0.2216
 8841TIP3    H126487   4.486   3.479   5.458 -0.7982  0.6614 -2.1624
 8841TIP3    H226488   4.504   3.329   5.450  0.0541  0.6101 -0.0406
 8842TIP3   OH226489   5.766   6.240   2.547 -0.0088 -0.1052  0.9592
 8842TIP3    H126490   5.833   6.174   2.567  1.4919  1.2865  0.7473
 8842TIP3    H226491   5.690   6.189   2.519  0.7992 -1.7655  1.6474
 8843TIP3   OH226492   4.998   3.728   1.614  0.2423  0.5496  0.0951
 8843TIP3    H126493   5.046   3.708   1.534 -0.6141  0.5118 -0.4190
 8843TIP3    H226494   4.926   3.664   1.615  0.5162  0.2397  1.1420
 8844TIP3   OH226495   6.761   5.144   3.582  0.1865 -0.2082  0.1208
 8844TIP3    H126496   6.685   5.189   3.545  0.5730 -0.3958 -0.9115
 8844TIP3    H226497   6.752   5.053   3.554  1.9821  0.1936 -2.0354
 8845TIP3   OH226498   0.004   3.276   5.141 -0.1647 -0.0818  0.6224
 8845TIP3    H126499   0.090   3.318   5.134 -0.4718  0.4774  0.0821
 8845TIP3    H226500   0.011   3.218   5.217  1.0490 -0.9126 -0.0955
 8846TIP3   OH226501   1.687   3.513   4.597  0.3242  0.2163  0.0352
 8846TIP3    H126502   1.600   3.525   4.559  0.5943  1.1986 -0.3142
 8846TIP3    H226503   1.725   3.440   4.547  0.2477  0.7461 -0.8188
 8847TIP3   OH226504   2.915   5.882   2.175 -0.3434 -0.2652 -0.1172
 8847TIP3    H126505   2.859   5.958   2.190 -0.0876  0.2924 -1.7723
 8847TIP3    H226506   3.002   5.918   2.160 -0.0306 -0.9535  0.0030
 8848TIP3   OH226507   1.021   0.380   2.940 -0.2020  0.4655 -0.6882
 8848TIP3    H126508   1.041   0.298   2.895  1.4922  0.0833  0.6699
 8848TIP3    H226509   0.936   0.365   2.981  0.4276 -0.9136  0.1782
 8849TIP3   OH226510   3.407   1.914   1.416 -0.0957  0.0535 -0.3005
 8849TIP3    H126511   3.446   1.989   1.461  2.1852  0.3820 -2.5680
 8849TIP3    H226512   3.367   1.952   1.337 -1.9475 -0.7540  0.2030
 8850TIP3   OH226513   5.258   3.707   4.309  0.4794  0.3761  0.0154
 8850TIP3    H126514   5.185   3.767   4.327 -0.7350 -1.2338  0.6533
 8850TIP3    H226515   5.305   3.702   4.392  1.3039  1.3384 -0.3697
 8851TIP3   OH226516   5.394   4.976   3.874 -0.4968 -0.2564  0.8702
 8851TIP3    H126517   5.378   4.904   3.936 -1.3760 -1.8341 -1.0649
 8851TIP3    H226518   5.464   5.027   3.915  0.4774 -2.4454  2.1786
 8852TIP3   OH226519   6.058   0.387   5.646  0.4982  0.0027  0.3534
 8852TIP3    H126520   6.049   0.482   5.652  0.0252 -0.1525  3.0910
 8852TIP3    H226521   6.140   0.367   5.690 -0.4929 -0.9980  1.8306
 8853TIP3   OH226522   0.189   1.780   4.026 -0.2350 -0.4455  0.0449
 8853TIP3    H126523   0.095   1.790   4.009 -0.7830 -0.3387  2.6231
 8853TIP3    H226524   0.214   1.702   3.977 -1.2062  0.5099 -2.1223
 8854TIP3   OH226525   6.466   1.016   4.916 -0.0515  0.0725 -0.3401
 8854TIP3    H126526   6.404   0.971   4.859 -0.1657  0.1522 -0.2776
 8854TIP3    H226527   6.550   1.012   4.869 -0.3202  0.8892 -0.9097
 8855TIP3   OH226528   6.845   2.343   0.862  0.3369 -0.1590  0.0177
 8855TIP3    H126529   6.768   2.298   0.896 -0.7231  1.5172 -0.0358
 8855TIP3    H226530   6.901   2.355   0.939 -0.2630  0.1298  0.4213
 8856TIP3   OH226531   4.639   0.519   3.437  0.0448 -0.2188  0.0526
 8856TIP3    H126532   4.604   0.492   3.522  0.1471  0.3595  0.2856
 8856TIP3    H226533   4.565   0.560   3.393 -0.1891 -1.1250 -0.4198
 8857TIP3   OH226534   6.658   5.265   1.906  0.2024 -0.0057  0.4289
 8857TIP3    H126535   6.702   5.339   1.864 -2.4380  1.1997 -0.4301
 8857TIP3    H226536   6.701   5.188   1.870  0.4578  1.0754 -1.7056
 8858TIP3   OH226537   0.995   6.769   0.784  0.4643  0.0882  0.1587
 8858TIP3    H126538   1.042   6.779   0.867  0.2714 -2.0170  0.5822
 8858TIP3    H226539   1.061   6.734   0.724  0.2139  0.0989 -0.1228
 8859TIP3   OH226540   3.672   0.802   3.201 -0.0971  0.1028  0.1659
 8859TIP3    H126541   3.706   0.792   3.291 -0.6774  2.8460  0.7754
 8859TIP3    H226542   3.732   0.863   3.160  0.5094 -1.5918 -1.5971
 8860TIP3   OH226543   4.756   3.828   3.476 -0.1258  0.2092 -0.2279
 8860TIP3    H126544   4.711   3.746   3.456  0.2791 -0.0368 -0.1614
 8860TIP3    H226545   4.835   3.801   3.522 -0.2408  0.6753  0.2478
 8861TIP3   OH226546   0.797   2.762   1.859 -0.7870 -0.5118  0.2468
 8861TIP3    H126547   0.882   2.730   1.889 -0.3571 -2.2838 -2.4864
 8861TIP3    H226548   0.802   2.857   1.869  2.0687 -0.4335 -0.9969
 8862TIP3   OH226549   1.048   3.837   4.182  0.2472 -0.1855 -0.1634
 8862TIP3    H126550   1.140   3.861   4.193  0.3809 -1.5349  2.6032
 8862TIP3    H226551   1.013   3.837   4.271 -2.1793 -0.7266 -1.0367
 8863TIP3   OH226552   1.040   0.734   4.060  0.2530 -0.1502 -0.1208
 8863TIP3    H126553   1.003   0.671   4.122  1.9631 -0.5409  0.5709
 8863TIP3    H226554   1.124   0.759   4.098  0.2699  1.4741 -1.1017
 8864TIP3   OH226555   1.502   1.398   5.072  0.6246  0.0511  0.2490
 8864TIP3    H126556   1.469   1.445   5.148 -0.8677  0.3882 -0.5536
 8864TIP3    H226557   1.593   1.425   5.064  0.2742  1.5108  0.8128
 8865TIP3   OH226558   1.989   2.562   4.150 -0.3429 -0.3790  0.6571
 8865TIP3    H126559   1.967   2.516   4.231 -1.8496 -0.7520  0.0584
 8865TIP3    H226560   1.905   2.582   4.110  0.2956  1.9202  0.3360
 8866TIP3   OH226561   5.707   6.418   0.370  0.5268 -0.2871 -0.0292
 8866TIP3    H126562   5.776   6.352   0.361  0.0045 -0.7181 -1.0595
 8866TIP3    H226563   5.751   6.502   0.354  1.3980 -0.2394  2.2330
 8867TIP3   OH226564   0.831  -0.003   1.482  0.0164  1.0470 -0.0036
 8867TIP3    H126565   0.779   0.038   1.413  0.3448  1.6492  0.1028
 8867TIP3    H226566   0.776   0.004   1.561 -0.6084 -0.1564 -0.2980
 8868TIP3   OH226567   6.112   0.375   4.726 -0.1069  0.6447  0.4286
 8868TIP3    H126568   6.036   0.331   4.764  0.6824 -1.8570 -0.6812
 8868TIP3    H226569   6.180   0.365   4.792  0.0887  0.0904  0.1520
 8869TIP3   OH226570   2.378   0.619   0.990 -0.0207 -0.2530 -0.1953
 8869TIP3    H126571   2.439   0.692   0.995  1.3495 -1.0817 -2.8350
 8869TIP3    H226572   2.433   0.541   0.986 -1.4295 -1.5594  2.6378
 8870TIP3   OH226573   3.646   6.768   3.076 -0.3003  0.4932  0.5714
 8870TIP3    H126574   3.613   6.680   3.062 -1.2614  0.5373  2.3166
 8870TIP3    H226575   3.627   6.787   3.167  2.8885  1.2646  1.2020
 8871TIP3   OH226576   1.168   4.779   2.266 -0.1704  0.3602  0.2813
 8871TIP3    H126577   1.136   4.827   2.190  1.0816  0.5221 -0.1572
 8871TIP3    H226578   1.167   4.843   2.337 -0.0908  0.5787  0.0876
 8872TIP3   OH226579   5.736   2.930   3.587 -0.1656  0.6046 -0.2317
 8872TIP3    H126580   5.773   2.937   3.675 -2.1592  1.3207  0.6212
 8872TIP3    H226581   5.707   2.839   3.581 -2.2448  1.1120  0.8965
 8873TIP3   OH226582   0.663   0.667   1.307 -0.1851 -0.0744  0.2539
 8873TIP3    H126583   0.608   0.741   1.282  1.6151  1.1854 -0.1976
 8873TIP3    H226584   0.743   0.707   1.342  1.8785 -1.6981 -2.2061
 8874TIP3   OH226585   4.598   2.623   2.920 -0.0144 -0.2918 -0.3247
 8874TIP3    H126586   4.522   2.658   2.967 -0.8192 -3.0368  0.6183
 8874TIP3    H226587   4.666   2.690   2.931 -1.3291  0.8433  1.5364
 8875TIP3   OH226588   5.967   2.658   0.583  0.4162 -0.1420  0.3395
 8875TIP3    H126589   5.954   2.576   0.535  1.2286 -0.2056  0.2140
 8875TIP3    H226590   5.955   2.726   0.518  0.6391 -0.1962  0.2409
 8876TIP3   OH226591   1.798   2.090   1.123 -0.2422 -0.7302  0.0500
 8876TIP3    H126592   1.711   2.127   1.138 -0.3874 -1.1654  0.3085
 8876TIP3    H226593   1.828   2.064   1.210  0.4111 -0.0113  0.0454
 8877TIP3   OH226594   4.565   0.881   5.846  0.1149 -0.5546 -0.2694
 8877TIP3    H126595   4.646   0.882   5.896  0.4480 -3.0371 -0.5808
 8877TIP3    H226596   4.587   0.924   5.763  0.3510  1.0574  0.6015
 8878TIP3   OH226597   2.641   3.896   2.578  0.2978  0.3857 -0.1976
 8878TIP3    H126598   2.671   3.977   2.619 -0.6905  0.5715  0.1700
 8878TIP3    H226599   2.582   3.925   2.508 -0.7449 -0.0240  0.4871
 8879TIP3   OH226600   4.729   4.282   2.005  0.1469  0.1409 -0.0236
 8879TIP3    H126601   4.640   4.308   2.030  0.1437  0.9419 -0.8249
 8879TIP3    H226602   4.782   4.360   2.022  0.3843  0.2459 -1.1748
 8880TIP3   OH226603   5.070   2.716   0.573 -0.2417 -0.2486  0.4300
 8880TIP3    H126604   5.046   2.628   0.600 -0.6824  0.3575  2.1036
 8880TIP3    H226605   5.166   2.713   0.565 -0.3418 -1.1603 -0.6750
 8881TIP3   OH226606   2.991   0.263   0.927  0.2577  0.0248  0.2275
 8881TIP3    H126607   3.084   0.240   0.932  0.4190  0.1852 -1.4251
 8881TIP3    H226608   2.971   0.300   1.013  1.5634 -0.5484  0.8089
 8882TIP3   OH226609   5.328   1.911   4.297  0.1422 -0.1216 -0.6638
 8882TIP3    H126610   5.389   1.853   4.343 -0.1933  0.8418  1.0976
 8882TIP3    H226611   5.243   1.868   4.307 -0.6544  1.9321  3.2923
 8883TIP3   OH226612   1.970   6.574   5.587 -0.2532 -0.4657  0.1269
 8883TIP3    H126613   1.915   6.628   5.529 -0.6578 -2.0547 -1.0295
 8883TIP3    H226614   2.057   6.579   5.548 -0.3759 -0.9684 -0.2118
 8884TIP3   OH226615   5.839   0.992   0.873 -0.3579 -0.2840 -0.2937
 8884TIP3    H126616   5.746   0.968   0.870 -0.4309 -0.2755  1.2156
 8884TIP3    H226617   5.875   0.956   0.792 -1.4579 -1.2541 -0.3886
 8885TIP3   OH226618   2.982   0.292   2.904  0.3190  0.5179  0.8163
 8885TIP3    H126619   3.030   0.372   2.924  1.3157 -0.0495  0.7309
 8885TIP3    H226620   2.923   0.316   2.833  0.1033  1.3550  1.2751
 8886TIP3   OH226621   0.367   3.153   2.152 -0.1382 -0.0378 -0.2441
 8886TIP3    H126622   0.350   3.116   2.239 -0.3745  0.0404 -0.2556
 8886TIP3    H226623   0.285   3.196   2.128  0.4562  1.4242  0.2275
 8887TIP3   OH226624   0.920   2.957   3.380 -0.5641 -0.0454  0.4200
 8887TIP3    H126625   0.954   2.946   3.468 -0.9452 -1.1709  0.4422
 8887TIP3    H226626   0.825   2.948   3.389 -0.8306  2.0913  0.2167
 8888TIP3   OH226627   1.230   5.069   5.547 -0.2603 -0.0738  0.2833
 8888TIP3    H126628   1.203   4.991   5.499 -1.5149  0.0445  0.7555
 8888TIP3    H226629   1.299   5.038   5.606  2.9055  0.1646 -2.9268
 8889TIP3   OH226630   2.584   6.691   1.473  1.0581 -0.4435 -0.3799
 8889TIP3    H126631   2.577   6.697   1.568  0.5325  0.2042 -0.4527
 8889TIP3    H226632   2.675   6.668   1.457  1.3349  0.1760  0.2528
 8890TIP3   OH226633   2.198   4.158   1.514  0.6096  0.2587 -0.5393
 8890TIP3    H126634   2.279   4.209   1.500  0.1101  1.7851  1.5515
 8890TIP3    H226635   2.222   4.094   1.581 -0.1043  1.4473  0.9270
 8891TIP3   OH226636   0.562   1.391   0.024  0.2862 -0.1123 -0.2431
 8891TIP3    H126637   0.551   1.398   0.119  0.1232  1.1272 -0.3297
 8891TIP3    H226638   0.636   1.332   0.013  0.0167 -0.6381  0.6401
 8892TIP3   OH226639   5.657   6.751   2.778  0.3373  0.1204  0.4545
 8892TIP3    H126640   5.592   6.690   2.814  1.1315 -0.7015  0.5076
 8892TIP3    H226641   5.738   6.701   2.774  0.6328  0.6690 -1.0393
 8893TIP3   OH226642   5.464   4.779   1.182 -0.0404 -0.1409 -0.6619
 8893TIP3    H126643   5.421   4.697   1.205 -0.9136  0.1953 -1.0672
 8893TIP3    H226644   5.528   4.754   1.115  1.6983 -0.9273  1.1719
 8894TIP3   OH226645   6.563   0.563   5.727  0.3628 -0.1288 -0.2128
 8894TIP3    H126646   6.548   0.470   5.709 -1.5056  0.2643 -0.8799
 8894TIP3    H226647   6.607   0.595   5.648 -1.1828  0.0391 -1.0341
 8895TIP3   OH226648   1.402   5.347   5.042 -0.3192  0.2599  0.1386
 8895TIP3    H126649   1.317   5.325   5.003 -0.8459  3.3118 -0.7152
 8895TIP3    H226650   1.392   5.325   5.134 -0.6723 -2.8275 -0.5328
 8896TIP3   OH226651   1.167   2.254   4.651 -0.4880  0.6431 -0.1825
 8896TIP3    H126652   1.231   2.246   4.721 -1.0686  0.8299  0.3755
 8896TIP3    H226653   1.120   2.171   4.651 -0.5574  0.6820 -0.2856
 8897TIP3   OH226654   1.877   0.986   5.491  0.3974  0.7348 -0.1094
 8897TIP3    H126655   1.804   1.045   5.511 -0.8437  0.0789 -2.3569
 8897TIP3    H226656   1.890   0.995   5.397  0.3202 -2.3529 -0.5091
 8898TIP3   OH226657   6.892   2.532   4.984 -0.0746  0.6250  0.1069
 8898TIP3    H126658   6.814   2.541   4.929 -0.8250  2.0766  1.3477
 8898TIP3    H226659   6.962   2.571   4.932  0.1045 -1.5577 -1.4338
 8899TIP3   OH226660   6.352   4.009   2.320  0.3170  0.0096  0.3016
 8899TIP3    H126661   6.423   3.987   2.259  0.2203  0.7761 -0.1082
 8899TIP3    H226662   6.289   4.057   2.267  0.0779  0.4203  0.9430
 8900TIP3   OH226663   2.916   3.869   0.858 -0.4093 -0.0550 -0.3648
 8900TIP3    H126664   2.838   3.814   0.858 -0.4239 -0.0337 -0.4042
 8900TIP3    H226665   2.971   3.832   0.789  0.0439 -0.6923  0.3236
 8901TIP3   OH226666   2.086   1.059   4.141  0.9682 -0.3092  0.1675
 8901TIP3    H126667   2.119   1.042   4.229  3.2078  2.1632 -0.0929
 8901TIP3    H226668   2.161   1.043   4.084  0.2292  0.4251 -1.0506
 8902TIP3   OH226669   4.914   5.846   3.332  0.0528 -0.0827 -0.8947
 8902TIP3    H126670   4.889   5.831   3.423  0.9163  0.8907 -0.4718
 8902TIP3    H226671   4.832   5.870   3.288  0.0063  2.1310  0.2428
 8903TIP3   OH226672   6.193   4.679   2.197  0.3068 -0.0250 -0.1438
 8903TIP3    H126673   6.249   4.610   2.161  1.4595  0.6211  0.3730
 8903TIP3    H226674   6.251   4.754   2.208 -0.4285  0.3575  1.3591
 8904TIP3   OH226675   6.627   3.060   3.859  0.6317 -0.0640  0.2083
 8904TIP3    H126676   6.619   2.965   3.866  3.2064 -0.4307 -0.9096
 8904TIP3    H226677   6.619   3.078   3.765 -1.3236  1.0456  0.5324
 8905TIP3   OH226678   6.776   2.321   3.645 -0.2370 -0.1815  0.2876
 8905TIP3    H126679   6.862   2.348   3.677  0.6628 -2.2821 -0.1740
 8905TIP3    H226680   6.719   2.395   3.665  1.6207  1.2095  0.7772
 8906TIP3   OH226681   5.467   1.100   4.877 -0.4440 -0.1008  0.0004
 8906TIP3    H126682   5.516   1.021   4.852  0.4336  0.7485 -1.0730
 8906TIP3    H226683   5.531   1.171   4.871 -1.7212  1.0169 -1.1812
 8907TIP3   OH226684   1.940   6.516   3.699 -0.2222 -0.0483 -0.0030
 8907TIP3    H126685   1.860   6.568   3.693 -0.6190 -0.6665 -0.2167
 8907TIP3    H226686   1.915   6.442   3.755 -0.7062 -1.8491 -2.4340
 8908TIP3   OH226687   1.436   1.905   5.743 -0.1917  0.2775 -0.4387
 8908TIP3    H126688   1.466   1.820   5.774 -1.8693  0.4063  1.8480
 8908TIP3    H226689   1.367   1.885   5.679 -0.7199 -0.1088  0.2436
 8909TIP3   OH226690   4.481   6.495   1.765  0.2253  0.4461  0.0728
 8909TIP3    H126691   4.464   6.432   1.835  2.7675 -0.5880 -0.1339
 8909TIP3    H226692   4.403   6.551   1.763 -0.2187  0.1176  3.2890
 8910TIP3   OH226693   3.463   3.399   4.048  0.1917  0.3884  0.4716
 8910TIP3    H126694   3.491   3.319   4.003 -1.3528 -0.4163  0.8805
 8910TIP3    H226695   3.392   3.434   3.994 -1.2976 -0.2765  1.8984
 8911TIP3   OH226696   2.270   0.629   2.163  0.1063  0.0472  0.3039
 8911TIP3    H126697   2.337   0.627   2.095  0.9867 -1.2409  1.1765
 8911TIP3    H226698   2.290   0.555   2.220 -2.0528 -0.3644  0.6146
 8912TIP3   OH226699   2.412   5.948   2.998 -0.4726 -0.0200 -0.6670
 8912TIP3    H126700   2.318   5.934   2.997 -0.5281  0.1170  0.8086
 8912TIP3    H226701   2.426   6.014   3.067  0.7473 -0.4257 -0.4995
 8913TIP3   OH226702   1.870   6.599   1.059  0.1579 -0.4261 -0.3007
 8913TIP3    H126703   1.952   6.598   1.108 -0.6232 -0.2383  1.0976
 8913TIP3    H226704   1.879   6.672   0.998 -0.3434  2.1603  2.4561
 8914TIP3   OH226705   5.927   6.045   1.520  0.3626  0.0167 -0.0992
 8914TIP3    H126706   5.854   5.985   1.504  0.1269  0.5190 -1.0304
 8914TIP3    H226707   5.884   6.130   1.534  0.6840 -0.0296  1.3004
 8915TIP3   OH226708   3.945   3.673   1.382  0.0629 -0.0247  0.5055
 8915TIP3    H126709   3.905   3.710   1.303 -0.9048 -0.7579  0.6471
 8915TIP3    H226710   3.982   3.749   1.427 -1.2412  0.6933  0.4224
 8916TIP3   OH226711   6.786   0.562   1.587  0.2797 -0.4934  0.1888
 8916TIP3    H126712   6.720   0.493   1.596  0.2961 -0.5654 -0.2288
 8916TIP3    H226713   6.851   0.526   1.528  0.5690 -0.3250  0.4053
 8917TIP3   OH226714   6.633   3.115   0.257 -0.0984 -0.0515  0.0786
 8917TIP3    H126715   6.601   3.200   0.229  0.1642  0.0754  0.1641
 8917TIP3    H226716   6.725   3.113   0.229 -0.6125 -1.0870 -1.7047
 8918TIP3   OH226717   3.227   4.122   4.087  0.4344  0.3246 -0.1304
 8918TIP3    H126718   3.194   4.185   4.022 -0.7218 -0.1242 -0.0010
 8918TIP3    H226719   3.322   4.125   4.077  0.2872  0.4513 -1.6667
 8919TIP3   OH226720   2.591   4.611   5.497 -0.3953 -0.3671  0.4514
 8919TIP3    H126721   2.597   4.525   5.540  0.6121 -0.9366 -0.7413
 8919TIP3    H226722   2.550   4.592   5.412  1.5767 -0.0409 -0.6379
 8920TIP3   OH226723   2.651   4.177   2.646 -0.2682  0.2501 -0.0519
 8920TIP3    H126724   2.722   4.237   2.669  2.0602 -1.7516 -1.5152
 8920TIP3    H226725   2.633   4.197   2.554  1.7558 -2.2493 -1.1092
 8921TIP3   OH226726   2.811   3.400   3.408  0.6383  0.1482 -0.5524
 8921TIP3    H126727   2.783   3.464   3.473 -0.0176  1.5633 -2.1319
 8921TIP3    H226728   2.733   3.348   3.389  0.1702  1.2267 -1.7826
 8922TIP3   OH226729   5.683   3.394   5.483 -0.1811  0.1903 -0.5669
 8922TIP3    H126730   5.608   3.452   5.497  0.2995  0.8630 -0.7129
 8922TIP3    H226731   5.691   3.388   5.387  0.5671  0.9553 -0.5646
 8923TIP3   OH226732   2.814   0.750   5.623 -0.3521  0.0428 -1.1280
 8923TIP3    H126733   2.755   0.789   5.688  0.5027  1.4413 -1.1592
 8923TIP3    H226734   2.805   0.806   5.546  1.8226  0.9906 -0.7571
 8924TIP3   OH226735   3.060   6.576   2.228  0.3180  0.0374  0.0948
 8924TIP3    H126736   3.107   6.558   2.310  0.0083 -1.9231 -0.1125
 8924TIP3    H226737   2.970   6.546   2.245  0.1531 -0.0146 -0.8272
 8925TIP3   OH226738   5.181   5.903   3.354  0.2878  0.2510  0.3351
 8925TIP3    H126739   5.201   5.878   3.445  1.2870  1.6667  0.5358
 8925TIP3    H226740   5.087   5.889   3.346  0.1978  0.0148  1.5837
 8926TIP3   OH226741   4.870   4.548   4.624  0.6104  0.7829  0.2511
 8926TIP3    H126742   4.925   4.626   4.635  0.0834  1.1814  0.0975
 8926TIP3    H226743   4.920   4.491   4.566  0.5853  1.4200 -0.4122
 8927TIP3   OH226744   0.261   3.979   5.784 -0.4416 -0.2194 -0.2993
 8927TIP3    H126745   0.322   3.969   5.857 -1.2767 -0.9094  0.3230
 8927TIP3    H226746   0.269   4.071   5.759  0.2978 -0.1201  0.2583
 8928TIP3   OH226747   3.211   5.849   0.907 -0.2357  0.7073  0.2993
 8928TIP3    H126748   3.269   5.832   0.981  0.4415  0.1930 -0.3381
 8928TIP3    H226749   3.133   5.887   0.947 -0.3433 -0.5766  1.4044
 8929TIP3   OH226750   2.257   0.802   0.268 -0.2466  0.1568 -0.4122
 8929TIP3    H126751   2.255   0.714   0.230 -1.2399  1.0436 -2.6013
 8929TIP3    H226752   2.166   0.820   0.291 -0.0392  0.5900  0.0769
 8930TIP3   OH226753   1.602   3.132   3.366 -0.3400 -0.4380 -1.0086
 8930TIP3    H126754   1.602   3.046   3.324 -0.2347 -0.9127 -0.0846
 8930TIP3    H226755   1.588   3.113   3.459 -0.8107  0.5865 -0.8560
 8931TIP3   OH226756   1.579   4.652   0.620 -0.3336 -0.2224 -0.8518
 8931TIP3    H126757   1.580   4.557   0.608  0.1000 -0.1911 -1.0795
 8931TIP3    H226758   1.656   4.669   0.675  0.1698  0.1038 -1.6440
 8932TIP3   OH226759   2.104   0.063   0.165 -0.0488 -0.3557  0.2100
 8932TIP3    H126760   2.154   0.106   0.235 -0.0914  0.2295 -0.1204
 8932TIP3    H226761   2.102   0.126   0.094 -0.3458 -0.7990 -0.1811
 8933TIP3   OH226762   2.758   1.046   2.879  0.4403  0.1817 -0.7643
 8933TIP3    H126763   2.705   0.968   2.897  0.4450  0.7625  2.2731
 8933TIP3    H226764   2.835   1.013   2.834  0.0253 -1.4468 -0.3378
 8934TIP3   OH226765   2.001   1.960   2.037 -0.2358 -0.3402  0.2408
 8934TIP3    H126766   1.999   2.044   1.993  0.8906  0.5752  1.8403
 8934TIP3    H226767   1.944   1.971   2.113  1.6947 -0.2193  1.7307
 8935TIP3   OH226768   3.353   1.471   2.152  0.0165  0.5417 -0.1877
 8935TIP3    H126769   3.263   1.489   2.126 -0.5430 -1.3296  0.2931
 8935TIP3    H226770   3.400   1.457   2.070 -0.1469  1.3727 -0.4322
 8936TIP3   OH226771   4.229   6.486   2.672 -0.2433  0.1277 -0.2923
 8936TIP3    H126772   4.250   6.570   2.633 -1.8120  0.7800  0.1775
 8936TIP3    H226773   4.176   6.441   2.606  1.8439 -1.1775 -1.1667
 8937TIP3   OH226774   1.937   1.748   1.855  0.3527  0.2120  0.1005
 8937TIP3    H126775   1.999   1.718   1.789  0.4908 -3.1314  1.5864
 8937TIP3    H226776   1.991   1.790   1.922  0.7988 -0.8739  0.4287
 8938TIP3   OH226777   6.863   4.643   1.113 -0.3927  0.1225 -0.3464
 8938TIP3    H126778   6.951   4.622   1.144 -0.7908 -0.5286  0.3698
 8938TIP3    H226779   6.856   4.598   1.029 -0.0358  0.1937 -0.4161
 8939TIP3   OH226780   6.151   4.066   5.874  0.2571  0.0766  0.3683
 8939TIP3    H126781   6.179   4.156   5.854 -1.5639  0.7332  0.6333
 8939TIP3    H226782   6.093   4.042   5.802 -0.7143 -0.1906  1.2172
 8940TIP3   OH226783   1.458   2.155   4.541  0.2207  0.1088 -0.2782
 8940TIP3    H126784   1.433   2.242   4.509  0.2690  0.0796 -0.3993
 8940TIP3    H226785   1.394   2.096   4.500  0.5906  0.0146 -0.7317
 8941TIP3   OH226786   6.548   6.089   2.494  0.1306  0.1076 -0.4340
 8941TIP3    H126787   6.636   6.083   2.457 -0.3904 -0.9517 -1.5609
 8941TIP3    H226788   6.503   6.154   2.439 -0.1710 -0.3006 -0.6725
 8942TIP3   OH226789   3.475   6.192   5.053  0.5900 -0.2937  0.2420
 8942TIP3    H126790   3.469   6.185   5.148  0.0953  0.8165  0.3093
 8942TIP3    H226791   3.419   6.122   5.020  0.1805 -0.2199  0.7744
 8943TIP3   OH226792   0.999   4.165   0.167 -0.0152 -0.2688 -0.2114
 8943TIP3    H126793   0.945   4.094   0.200  0.3319 -1.4444 -2.0864
 8943TIP3    H226794   0.938   4.236   0.149 -0.3504  0.0222  1.7728
 8944TIP3   OH226795   5.781   2.761   2.662  0.1847  0.4385 -0.3385
 8944TIP3    H126796   5.785   2.702   2.586 -1.0447 -0.4474  0.2441
 8944TIP3    H226797   5.810   2.707   2.736 -3.3533 -0.3746  0.6618
 8945TIP3   OH226798   1.839   0.358   2.276 -0.5063  0.3974  0.6302
 8945TIP3    H126799   1.773   0.401   2.330 -1.9499 -0.5577 -0.2969
 8945TIP3    H226800   1.881   0.429   2.227 -3.3124  0.8253 -1.4152
 8946TIP3   OH226801   2.912   0.003   1.807 -0.1026 -0.0070 -0.1457
 8946TIP3    H126802   2.927   0.055   1.728 -1.1789  0.3917 -0.1044
 8946TIP3    H226803   2.839  -0.055   1.785 -0.9978  0.7167  0.8266
 8947TIP3   OH226804   6.345   6.494   3.002 -0.5612 -0.0716 -0.1457
 8947TIP3    H126805   6.413   6.558   2.983 -1.3038  0.5419 -0.8410
 8947TIP3    H226806   6.333   6.498   3.097  0.2358 -0.0699 -0.0380
 8948TIP3   OH226807   1.680   4.517   1.275 -0.1475  0.6686  0.3187
 8948TIP3    H126808   1.731   4.452   1.323 -0.3952 -0.1415 -0.4672
 8948TIP3    H226809   1.700   4.499   1.183 -0.0566  1.8591  0.0869
 8949TIP3   OH226810   3.455   2.599   2.355  0.5103 -0.1438 -0.4668
 8949TIP3    H126811   3.505   2.533   2.306  2.1124  1.2149 -0.7453
 8949TIP3    H226812   3.373   2.608   2.305  0.4477 -1.5800 -0.6663
 8950TIP3   OH226813   4.188   6.430   2.308 -0.8306 -0.2914 -0.3859
 8950TIP3    H126814   4.218   6.504   2.361 -1.2614  0.0933 -0.6717
 8950TIP3    H226815   4.155   6.470   2.228 -0.6755 -0.8310 -0.7242
 8951TIP3   OH226816   4.268   4.181   2.647 -1.1125  0.2248  0.0438
 8951TIP3    H126817   4.335   4.233   2.602 -0.7776 -0.4953 -0.3047
 8951TIP3    H226818   4.235   4.239   2.716 -1.9022  1.5077 -1.3397
 8952TIP3   OH226819   3.513   5.847   5.042 -0.2478 -0.2779  0.2093
 8952TIP3    H126820   3.445   5.892   4.992 -0.5565 -2.2649 -1.2957
 8952TIP3    H226821   3.465   5.786   5.098  0.2383 -1.4714 -0.6302
 8953TIP3   OH226822   2.209   1.155   5.814 -0.2077 -0.8396  0.5576
 8953TIP3    H126823   2.176   1.162   5.904 -0.0819 -0.1511  0.5551
 8953TIP3    H226824   2.235   1.244   5.791  1.4995 -1.3090  0.5030
 8954TIP3   OH226825   6.735   4.882   3.467 -0.3996 -0.0481 -0.1597
 8954TIP3    H126826   6.812   4.828   3.483  0.9996  1.4977 -1.2662
 8954TIP3    H226827   6.685   4.833   3.401  0.9249  0.0418 -1.2745
 8955TIP3   OH226828   0.332   3.787   5.586 -0.2857 -0.4721  0.0195
 8955TIP3    H126829   0.259   3.800   5.525 -0.7097 -2.2505  0.0873
 8955TIP3    H226830   0.325   3.860   5.648 -1.7520 -0.3711 -0.2226
 8956TIP3   OH226831   6.819   1.564   0.514  0.3454  0.4974 -0.2441
 8956TIP3    H126832   6.893   1.527   0.466  0.9188  2.5887 -1.1227
 8956TIP3    H226833   6.859   1.622   0.579 -0.4828  1.1637 -0.2987
 8957TIP3   OH226834   1.758   2.235   3.026 -0.1829 -0.1235  0.1126
 8957TIP3    H126835   1.726   2.325   3.019  1.7182  0.5247 -0.9679
 8957TIP3    H226836   1.839   2.234   2.976 -0.2584 -2.5191 -0.1017
 8958TIP3   OH226837   4.996   4.715   0.633  0.6590  0.2772 -0.1076
 8958TIP3    H126838   4.950   4.779   0.578 -0.4800 -0.1574  0.3021
 8958TIP3    H226839   4.930   4.648   0.652  1.9260 -1.2756 -0.8847
 8959TIP3   OH226840   4.440   0.749   3.926 -0.3849 -0.5837 -0.0996
 8959TIP3    H126841   4.412   0.830   3.969  0.8126  0.2443 -0.8265
 8959TIP3    H226842   4.401   0.753   3.839  1.2551  0.2039 -0.8420
 8960TIP3   OH226843   1.083   4.062   5.013 -0.5066 -0.1891  0.7141
 8960TIP3    H126844   1.056   4.057   5.105 -1.1948  1.2516  0.6189
 8960TIP3    H226845   1.009   4.026   4.965 -0.7845  0.4572  0.6504
 8961TIP3   OH226846   0.761   0.406   4.080  0.7150  0.1038  0.7348
 8961TIP3    H126847   0.688   0.363   4.036 -0.1041  0.7754  1.3951
 8961TIP3    H226848   0.838   0.360   4.049  0.2591  1.0127 -1.9478
 8962TIP3   OH226849   6.193   6.567   0.310 -0.0224  0.2675 -0.1916
 8962TIP3    H126850   6.277   6.603   0.282 -0.2083 -0.2014 -1.4294
 8962TIP3    H226851   6.195   6.475   0.281 -0.3817 -0.1633  1.0735
 8963TIP3   OH226852   4.367   5.864   3.312 -0.0844 -0.4657 -0.4394
 8963TIP3    H126853   4.291   5.907   3.274  0.1185 -1.0664 -1.5662
 8963TIP3    H226854   4.344   5.771   3.312  0.5209 -0.6197 -0.4821
 8964TIP3   OH226855   4.941   6.268   3.194  0.0711 -0.3410  0.5908
 8964TIP3    H126856   4.904   6.355   3.210 -1.2688 -0.8216  0.1647
 8964TIP3    H226857   4.865   6.211   3.182  0.9451 -1.4360  0.1162
 8965TIP3   OH226858   6.971   6.755   4.421 -0.5925 -0.5073 -0.0916
 8965TIP3    H126859   6.921   6.762   4.502  0.0082  1.6873  0.1655
 8965TIP3    H226860   7.062   6.757   4.448 -0.3744 -1.2072 -0.7430
 8966TIP3   OH226861   1.591   3.930   2.041  0.2709  0.2337 -0.9706
 8966TIP3    H126862   1.608   4.022   2.059  2.1802 -0.0556 -1.0916
 8966TIP3    H226863   1.497   3.920   2.052 -0.0063  2.2425 -1.1856
 8967TIP3   OH226864   3.012   1.467   0.417 -0.0964  0.4140 -0.2113
 8967TIP3    H126865   2.924   1.431   0.431 -0.3147  0.7028 -0.7955
 8967TIP3    H226866   2.999   1.541   0.357  0.6690 -0.2039 -1.1733
 8968TIP3   OH226867   7.165   6.363   2.704 -0.4389  0.7150 -0.2336
 8968TIP3    H126868   7.079   6.404   2.718 -1.5189 -1.1288 -1.2045
 8968TIP3    H226869   7.163   6.284   2.758  0.6342  0.6221 -0.3116
 8969TIP3   OH226870   1.551   0.118   1.321  0.2406  0.0637 -0.1452
 8969TIP3    H126871   1.615   0.153   1.259 -2.4417  1.9479 -2.0927
 8969TIP3    H226872   1.532   0.190   1.380 -1.3538  0.2173 -0.7721
 8970TIP3   OH226873   6.085   0.788   0.851  0.2490 -0.4815  0.0497
 8970TIP3    H126874   6.112   0.864   0.903  1.0377  1.4412 -2.9492
 8970TIP3    H226875   6.127   0.800   0.766 -1.5553 -3.0445 -1.3425
 8971TIP3   OH226876   2.636   5.921   2.324  0.0224 -0.4015  0.4008
 8971TIP3    H126877   2.687   5.848   2.289  2.4725  0.2342  2.3961
 8971TIP3    H226878   2.550   5.883   2.342  1.1505 -2.7906  1.1715
 8972TIP3   OH226879   6.325   2.857   3.844 -0.4464 -0.1253  0.4159
 8972TIP3    H126880   6.389   2.834   3.911 -1.2983 -3.0530  0.3644
 8972TIP3    H226881   6.241   2.824   3.878 -1.9744  3.2266  0.3207
 8973TIP3   OH226882   5.229   3.845   1.672  0.4268 -0.0400 -0.4184
 8973TIP3    H126883   5.144   3.809   1.646 -0.5978  1.8623  0.1160
 8973TIP3    H226884   5.207   3.924   1.721  2.3962 -1.4917  3.0975
 8974TIP3   OH226885   0.741   0.120   0.949 -0.6014 -0.4277 -0.6257
 8974TIP3    H126886   0.701   0.046   0.994 -2.1994  0.6938 -0.1150
 8974TIP3    H226887   0.770   0.178   1.019 -0.2083 -0.1432 -1.0205
 8975TIP3   OH226888   6.312   6.642   1.353  0.3414 -0.2676  0.4010
 8975TIP3    H126889   6.225   6.616   1.384  0.6727 -1.3337  0.4809
 8975TIP3    H226890   6.318   6.736   1.373 -0.2641 -0.4737  1.6321
 8976TIP3   OH226891   3.717   1.065   2.575 -0.0068  0.0250  0.4280
 8976TIP3    H126892   3.694   0.997   2.511 -1.4403 -0.2194  1.1638
 8976TIP3    H226893   3.692   1.027   2.659 -0.6428  1.3769  0.8720
 8977TIP3   OH226894   4.466   4.720   5.472 -0.4709 -0.1737  0.3893
 8977TIP3    H126895   4.407   4.662   5.520 -0.5371  1.5504  2.5162
 8977TIP3    H226896   4.517   4.764   5.539  3.2326 -1.4118 -1.3319
 8978TIP3   OH226897   0.639   5.762   0.796 -0.1258 -0.6234  0.2381
 8978TIP3    H126898   0.554   5.799   0.770  0.1918  0.8624  1.2170
 8978TIP3    H226899   0.631   5.669   0.776 -2.0537 -0.5537  0.4662
 8979TIP3   OH226900   5.536   3.640   0.903  1.1303  0.1724 -0.1636
 8979TIP3    H126901   5.484   3.578   0.954  1.6669 -0.7730 -0.7475
 8979TIP3    H226902   5.577   3.696   0.969 -0.0635  0.5003  0.3346
 8980TIP3   OH226903   4.017   4.749   0.874 -0.6178  0.1040  0.1336
 8980TIP3    H126904   4.052   4.699   0.800 -0.6454 -0.7517  0.6922
 8980TIP3    H226905   3.957   4.812   0.834  0.0439  0.2541 -0.6535
 8981TIP3   OH226906   2.092   4.344   2.089  0.2085  0.2678 -0.3609
 8981TIP3    H126907   2.071   4.374   2.178 -0.5999 -0.0150 -0.4476
 8981TIP3    H226908   2.037   4.397   2.032  1.1318  0.8405 -0.7550
 8982TIP3   OH226909   2.903   1.562   4.555 -0.3024  0.1271 -0.0300
 8982TIP3    H126910   2.980   1.609   4.585  0.9311 -1.2186 -0.9555
 8982TIP3    H226911   2.895   1.585   4.462 -1.2766  0.5808  0.1513
 8983TIP3   OH226912   4.152   3.359   0.450  0.1160  0.0227 -0.4038
 8983TIP3    H126913   4.160   3.303   0.372  1.1938 -0.6511  0.1704
 8983TIP3    H226914   4.063   3.396   0.444 -0.6792 -1.8390 -0.7338
 8984TIP3   OH226915   1.630   0.969   2.112  0.4307 -0.1747 -0.3015
 8984TIP3    H126916   1.660   0.935   2.028  1.0336  0.3868 -0.3274
 8984TIP3    H226917   1.554   1.023   2.091  0.4048 -0.2717 -0.4524
 8985TIP3   OH226918   6.208   2.109   1.163 -0.0627  0.8708 -0.4398
 8985TIP3    H126919   6.198   2.176   1.095 -1.6709  1.9168  0.7566
 8985TIP3    H226920   6.133   2.051   1.150  0.0013  0.6864  0.0232
 8986TIP3   OH226921   6.144   5.958   5.182  0.2266  0.0361  0.1621
 8986TIP3    H126922   6.209   6.018   5.145  0.1726  1.1918  1.8405
 8986TIP3    H226923   6.197   5.890   5.224  0.3498  0.6052  0.9390
 8987TIP3   OH226924   0.756   6.669   4.094 -0.1050 -0.1885 -0.6948
 8987TIP3    H126925   0.846   6.646   4.119 -0.3399 -0.7275 -0.3003
 8987TIP3    H226926   0.702   6.602   4.138 -0.6684 -0.0851 -1.2195
 8988TIP3   OH226927   3.825   0.270   4.123 -0.0854  0.3791  0.6330
 8988TIP3    H126928   3.745   0.315   4.096  0.6183  0.8292 -0.7863
 8988TIP3    H226929   3.795   0.194   4.173 -1.4630 -0.2797 -1.1137
 8989TIP3   OH226930   1.187   0.325   4.596  0.1798  0.7052 -0.0540
 8989TIP3    H126931   1.282   0.336   4.600  0.4341 -1.0410 -0.6566
 8989TIP3    H226932   1.158   0.330   4.687  1.0760 -0.4771  0.3152
 8990TIP3   OH226933   4.036   4.558   4.113 -0.3737 -0.2128 -0.6347
 8990TIP3    H126934   4.005   4.639   4.072  0.1194  0.5912  0.5209
 8990TIP3    H226935   4.131   4.568   4.116 -0.4130 -0.1009  0.9495
 8991TIP3   OH226936   2.274   5.550   5.087  0.1977  0.0116 -0.5852
 8991TIP3    H126937   2.341   5.618   5.096  0.8918 -0.6956 -0.3200
 8991TIP3    H226938   2.285   5.517   4.998  0.5598 -0.4619 -0.3711
 8992TIP3   OH226939   5.486   6.333   2.453 -0.5946 -0.0356 -0.1829
 8992TIP3    H126940   5.465   6.408   2.509 -0.2306 -0.5588  0.6534
 8992TIP3    H226941   5.505   6.373   2.368 -0.0402  0.8622  0.3403
 8993TIP3   OH226942   2.668   1.655   3.221  0.0039  0.0381  0.2347
 8993TIP3    H126943   2.677   1.739   3.175  1.0563 -0.1407  0.0852
 8993TIP3    H226944   2.666   1.679   3.314  1.7171  0.1661  0.2766
 8994TIP3   OH226945   4.637   6.633   2.035  0.1964  0.4162  0.5332
 8994TIP3    H126946   4.663   6.577   1.961 -1.0850 -0.1778  0.5185
 8994TIP3    H226947   4.696   6.709   2.028  1.3136 -0.4580 -0.0224
 8995TIP3   OH226948   0.188   2.658   1.983 -0.3184  0.2583 -0.1363
 8995TIP3    H126949   0.270   2.608   1.981 -0.5590 -0.1282 -0.9864
 8995TIP3    H226950   0.136   2.616   2.052 -0.4906 -0.6478 -0.7908
 8996TIP3   OH226951   5.739   3.277   5.739  1.0872 -0.2170 -0.3055
 8996TIP3    H126952   5.736   3.317   5.652 -0.9553  0.1077 -0.1355
 8996TIP3    H226953   5.706   3.346   5.798  0.8668 -0.9705  0.4793
 8997TIP3   OH226954   5.517   1.796   4.472 -0.6376  0.6094  0.2437
 8997TIP3    H126955   5.508   1.861   4.542 -0.1688  0.2865  0.6094
 8997TIP3    H226956   5.581   1.733   4.506  0.2217  0.8972 -0.7881
 8998TIP3   OH226957   5.429   4.256   3.185 -0.3016 -0.1228  0.0173
 8998TIP3    H126958   5.518   4.233   3.211 -0.5213 -0.9233  0.1005
 8998TIP3    H226959   5.379   4.256   3.267 -0.3534  0.4635 -0.0104
 8999TIP3   OH226960   2.632   3.586   5.840 -0.4778  0.5886  0.3433
 8999TIP3    H126961   2.699   3.566   5.775  0.3140  0.8405  1.0567
 8999TIP3    H226962   2.557   3.532   5.815 -0.5977  1.5309 -1.4192
 9000TIP3   OH226963   0.396   4.118   3.877  0.3405 -0.3645  0.2860
 9000TIP3    H126964   0.342   4.098   3.954 -0.0541  1.3392  0.4879
 9000TIP3    H226965   0.365   4.057   3.810 -1.9326  0.5645  0.3827
 9001TIP3   OH226966   3.035   3.330   5.638 -0.0355  0.2777  0.1078
 9001TIP3    H126967   3.095   3.400   5.665 -0.5695  0.3564  1.1617
 9001TIP3    H226968   3.089   3.251   5.637  1.0484  0.9404 -2.9799
 9002TIP3   OH226969   2.760   2.588   1.760 -0.2764 -0.7538 -0.0323
 9002TIP3    H126970   2.746   2.676   1.794  2.2022 -1.1296  2.3066
 9002TIP3    H226971   2.809   2.601   1.679 -1.0317  0.0075 -0.3859
 9003TIP3   OH226972   3.881   1.104   4.670  0.4668  0.2505 -0.5995
 9003TIP3    H126973   3.869   1.129   4.762  0.0668 -1.0498 -0.2790
 9003TIP3    H226974   3.825   1.165   4.622 -1.6311 -0.8736  0.2849
 9004TIP3   OH226975   1.092   0.372   1.344  0.2306  0.1622  0.4078
 9004TIP3    H126976   1.029   0.393   1.413 -0.7957 -0.8214 -0.1944
 9004TIP3    H226977   1.082   0.278   1.329  0.0749  0.4218 -1.3944
 9005TIP3   OH226978   4.447   2.601   0.133  0.5262  0.0840 -0.0211
 9005TIP3    H126979   4.364   2.585   0.089  1.1923 -0.2393 -1.1920
 9005TIP3    H226980   4.458   2.696   0.131 -0.2610  0.2166  1.0112
 9006TIP3   OH226981   1.089   2.057   5.765  0.0436  0.2244  0.9917
 9006TIP3    H126982   1.119   1.966   5.776 -0.4489 -0.3993 -1.9647
 9006TIP3    H226983   1.141   2.107   5.828  0.2802 -2.0900  2.7803
 9007TIP3   OH226984   5.280   4.236   1.155 -0.3781 -0.3715  0.4110
 9007TIP3    H126985   5.297   4.328   1.174 -1.1518  0.6001 -2.8568
 9007TIP3    H226986   5.195   4.236   1.111 -1.2678 -2.9424  1.8995
 9008TIP3   OH226987   1.827   1.257   1.979  0.0660 -0.1820  0.2716
 9008TIP3    H126988   1.886   1.292   1.912 -0.3706  0.5619  0.2658
 9008TIP3    H226989   1.869   1.176   2.007 -1.0034 -1.9242 -2.7419
 9009TIP3   OH226990   6.202   5.508   5.432 -0.3875 -0.7909 -0.0380
 9009TIP3    H126991   6.292   5.539   5.424  0.2117 -2.4966 -0.2941
 9009TIP3    H226992   6.210   5.413   5.441 -2.2704 -1.3587 -2.9428
 9010TIP3   OH226993   0.240   1.804   3.522 -0.3615  0.2741 -0.0400
 9010TIP3    H126994   0.174   1.745   3.486  0.7097 -1.3938  0.6320
 9010TIP3    H226995   0.206   1.892   3.504 -2.2599 -0.5314 -0.5781
 9011TIP3   OH226996   6.887   2.448   1.803 -0.0555 -0.0234  0.0864
 9011TIP3    H126997   6.970   2.408   1.779 -0.2414 -1.3394  1.4606
 9011TIP3    H226998   6.873   2.516   1.738  2.9091  1.3986  0.7722
 9012TIP3   OH226999   4.668   2.193   0.263  0.2386  0.3432  0.0881
 9012TIP3    H127000   4.593   2.200   0.322 -0.3499 -0.8587 -0.4812
 9012TIP3    H227001   4.715   2.276   0.273 -1.5602  1.4261 -0.0989
 9013TIP3   OH227002   1.195   3.786   1.538 -0.1867  0.1942  0.3402
 9013TIP3    H127003   1.282   3.747   1.551 -0.2808  0.1099  0.7339
 9013TIP3    H227004   1.203   3.875   1.572 -0.3274  0.0973  0.6370
 9014TIP3   OH227005   1.194   6.177   2.997  0.1319  0.0695  0.1676
 9014TIP3    H127006   1.124   6.241   3.013 -0.0784 -0.1408  0.0950
 9014TIP3    H227007   1.161   6.096   3.035  2.0409  0.8489  3.9846
 9015TIP3   OH227008   4.800   4.889   2.299  0.5539 -0.5543  0.1543
 9015TIP3    H127009   4.852   4.884   2.379  1.3756 -0.9098 -0.3900
 9015TIP3    H227010   4.732   4.953   2.318  3.2270  2.6545 -0.2648
 9016TIP3   OH227011   4.905   0.847   4.329  0.5171  0.0332  0.2701
 9016TIP3    H127012   4.856   0.819   4.407  1.0799 -0.0035  0.6159
 9016TIP3    H227013   4.841   0.843   4.258 -0.3856  1.3827  0.9548
 9017TIP3   OH227014   0.435   2.094   2.176 -0.7870 -0.4955  0.1602
 9017TIP3    H127015   0.424   2.154   2.102 -1.2851  0.1638  0.7554
 9017TIP3    H227016   0.356   2.040   2.175  0.0907 -1.8283 -0.9563
 9018TIP3   OH227017   4.695   5.788  -0.003 -0.5694  0.5602 -0.2553
 9018TIP3    H127018   4.616   5.801  -0.057 -2.1700  0.1884  1.8478
 9018TIP3    H227019   4.685   5.852   0.068  0.8841  0.2859  0.2164
 9019TIP3   OH227020   1.967   2.859   5.480 -0.9372  0.6718 -0.2778
 9019TIP3    H127021   1.998   2.839   5.568  0.5616  1.4892 -0.5905
 9019TIP3    H227022   1.915   2.938   5.490 -1.5130  0.2608  0.0002
 9020TIP3   OH227023   6.130   5.684   5.687 -0.4070  0.1670 -0.5936
 9020TIP3    H127024   6.206   5.634   5.657 -0.4371 -0.8634  0.9267
 9020TIP3    H227025   6.055   5.633   5.659 -0.4615 -0.0851 -0.0134
 9021TIP3   OH227026   1.556   0.433   5.125 -0.2094  0.2092 -0.0176
 9021TIP3    H127027   1.536   0.498   5.192  0.3214  0.4018 -0.0367
 9021TIP3    H227028   1.519   0.468   5.045 -1.5543 -0.4032  0.3130
 9022TIP3   OH227029   2.438   1.673   4.673  0.4975 -0.0632 -0.2965
 9022TIP3    H127030   2.487   1.655   4.753  0.6274  2.2105  0.2102
 9022TIP3    H227031   2.465   1.762   4.649 -0.4554 -0.2497 -2.1969
 9023TIP3   OH227032   2.020   3.228   2.944  0.2988 -0.2880 -0.6614
 9023TIP3    H127033   1.957   3.293   2.912 -1.4651 -1.8402 -0.4329
 9023TIP3    H227034   2.052   3.265   3.027 -3.3500 -1.2081  1.3540
 9024TIP3   OH227035   4.374   2.263   1.139 -0.3270  0.0236  0.6534
 9024TIP3    H127036   4.430   2.224   1.206 -1.1188 -1.1115  0.6834
 9024TIP3    H227037   4.335   2.188   1.094  1.1105  0.7055 -1.9208
 9025TIP3   OH227038   6.610   1.439   1.121 -0.1404 -0.1091  0.0722
 9025TIP3    H127039   6.557   1.490   1.183  0.4380 -0.9089  1.2699
 9025TIP3    H227040   6.683   1.406   1.173  0.6087 -0.4567 -1.1529
 9026TIP3   OH227041   3.854   4.742   3.292 -0.2177 -0.4937  0.1411
 9026TIP3    H127042   3.806   4.673   3.246  0.9620 -1.9110  0.9583
 9026TIP3    H227043   3.866   4.810   3.226 -0.8226 -1.3444 -0.8853
 9027TIP3   OH227044   0.759   5.279   2.741  0.1360 -0.5680 -0.0630
 9027TIP3    H127045   0.768   5.360   2.792  4.3119  0.7316 -2.4219
 9027TIP3    H227046   0.672   5.286   2.702 -0.5519  1.6203  1.5925
 9028TIP3   OH227047   3.206   5.726   2.211 -0.0244 -0.4320  0.2334
 9028TIP3    H127048   3.193   5.814   2.178 -0.0208  0.5643  2.6814
 9028TIP3    H227049   3.254   5.680   2.141  0.0788  1.5154 -1.0310
 9029TIP3   OH227050   3.546   2.550   4.074 -0.2758  0.3883  0.0282
 9029TIP3    H127051   3.499   2.623   4.036  0.1937  0.8589  0.3358
 9029TIP3    H227052   3.608   2.590   4.135 -2.1315 -0.3965  2.6030
 9030TIP3   OH227053   3.261   5.124   4.581  0.1696  0.2335  0.1827
 9030TIP3    H127054   3.301   5.181   4.515 -0.4422  0.7738  0.2748
 9030TIP3    H227055   3.326   5.121   4.651 -0.1306  1.4949  0.5376
 9031TIP3   OH227056   6.440   3.963   3.169  0.1554  0.1335 -0.0868
 9031TIP3    H127057   6.508   3.938   3.231  1.5210  0.3147 -1.4532
 9031TIP3    H227058   6.484   4.022   3.108 -0.9737 -0.5263 -1.5878
 9032TIP3   OH227059   2.764   2.278   2.598  0.2721 -0.0826 -0.3153
 9032TIP3    H127060   2.688   2.257   2.651 -0.6032  0.9231 -1.1274
 9032TIP3    H227061   2.741   2.249   2.509  0.2753  1.3838 -0.8277
 9033TIP3   OH227062   5.226   3.329   0.021 -0.2819  0.3240 -0.3914
 9033TIP3    H127063   5.292   3.315   0.089 -0.2588  2.2389  0.0388
 9033TIP3    H227064   5.248   3.414  -0.017 -1.5025  0.2191 -1.3941
 9034TIP3   OH227065   3.623   1.477   1.556 -0.1666  0.3308  0.5613
 9034TIP3    H127066   3.609   1.556   1.504 -2.3688  0.1635  0.7963
 9034TIP3    H227067   3.605   1.503   1.646  1.9337  0.2022  1.0655
 9035TIP3   OH227068   0.813   1.934   4.719  0.0073 -0.4496  0.0122
 9035TIP3    H127069   0.730   1.955   4.675  0.6441  2.2713 -0.0405
 9035TIP3    H227070   0.787   1.881   4.795 -1.6276 -0.7586 -0.7169
 9036TIP3   OH227071   2.687   2.124   2.318 -0.0953 -0.2550  0.2626
 9036TIP3    H127072   2.659   2.095   2.231  0.6630  0.6177 -0.3006
 9036TIP3    H227073   2.631   2.200   2.336 -0.0525 -0.2563  0.3985
 9037TIP3   OH227074   4.752   4.138   4.605 -0.0278  0.8373 -0.7612
 9037TIP3    H127075   4.732   4.145   4.698 -0.5400  0.6699 -0.8547
 9037TIP3    H227076   4.803   4.216   4.586 -1.4550  1.8158 -0.7221
 9038TIP3   OH227077   2.263   1.305   4.280 -0.3080  0.0923  0.7390
 9038TIP3    H127078   2.274   1.359   4.358 -0.0905 -0.6447  1.2276
 9038TIP3    H227079   2.192   1.348   4.231 -0.9696  0.1442  1.7063
 9039TIP3   OH227080   6.476   2.856   1.714  0.3557 -0.1067  0.4928
 9039TIP3    H127081   6.535   2.926   1.743  0.9511  1.0994 -3.1263
 9039TIP3    H227082   6.502   2.780   1.767  3.6313  0.9698  0.6908
 9040TIP3   OH227083   0.506   3.275   3.190 -1.1833 -0.0598  0.2453
 9040TIP3    H127084   0.505   3.321   3.274 -0.7104  0.2190  0.0968
 9040TIP3    H227085   0.460   3.334   3.130  1.0436  1.1068 -0.4027
 9041TIP3   OH227086   4.002   1.010   2.280  0.2716 -0.3335 -0.2214
 9041TIP3    H127087   3.964   1.058   2.353 -1.0008  0.7667 -1.5407
 9041TIP3    H227088   3.930   0.999   2.218  1.3202 -1.1711 -1.3435
 9042TIP3   OH227089   2.347   3.359   0.729  0.3309  0.2353 -0.5153
 9042TIP3    H127090   2.336   3.433   0.788 -0.1303  1.0643 -1.6085
 9042TIP3    H227091   2.307   3.387   0.647  1.4662 -0.6667 -1.4139
 9043TIP3   OH227092   6.983   0.309   4.550  0.0714 -0.5933 -0.3055
 9043TIP3    H127093   6.969   0.375   4.482 -0.8313  1.4355  1.7312
 9043TIP3    H227094   6.925   0.237   4.526  0.9052 -0.6213 -2.4536
 9044TIP3   OH227095   0.536   2.722   3.208  0.0545 -0.2241 -0.3486
 9044TIP3    H127096   0.449   2.734   3.171  0.5466 -1.4762 -2.0688
 9044TIP3    H227097   0.530   2.643   3.261 -0.0919  0.2831  0.4067
 9045TIP3   OH227098   3.614   0.339   2.269  0.3267  0.1412  0.2688
 9045TIP3    H127099   3.557   0.266   2.244  0.9238  0.3030 -1.7732
 9045TIP3    H227100   3.694   0.297   2.301  0.6937 -0.1413 -0.9643
 9046TIP3   OH227101   7.125   1.505   4.702  0.1807  0.3510 -0.8110
 9046TIP3    H127102   7.121   1.411   4.715 -0.8721  0.3019 -1.3695
 9046TIP3    H227103   7.214   1.529   4.728 -0.3242 -0.3690  2.0227
 9047TIP3   OH227104   3.311   2.574   4.277 -0.2491 -0.2895  0.5090
 9047TIP3    H127105   3.377   2.641   4.296 -0.0012 -0.3736 -0.0325
 9047TIP3    H227106   3.238   2.596   4.334 -0.3195  0.6774  0.0711
 9048TIP3   OH227107   5.837   2.547   4.339 -0.3974  0.1955 -0.2476
 9048TIP3    H127108   5.924   2.518   4.367 -0.1451 -0.2404 -1.4288
 9048TIP3    H227109   5.776   2.493   4.391  0.0366  0.1358  0.2071
 9049TIP3   OH227110   2.281   3.465   0.476  0.7333  0.7064 -0.0678
 9049TIP3    H127111   2.246   3.404   0.411 -1.6444  2.4159 -0.5304
 9049TIP3    H227112   2.275   3.551   0.433  2.0627  1.5263  1.2904
 9050TIP3   OH227113   2.633   0.123   1.771 -0.1266  0.0865  0.2692
 9050TIP3    H127114   2.543   0.145   1.746 -0.3176 -0.1752  0.7079
 9050TIP3    H227115   2.655   0.048   1.715  0.3563  1.0695 -0.8860
 9051TIP3   OH227116   0.687   1.817   4.924 -0.2914  0.2110 -0.4092
 9051TIP3    H127117   0.637   1.856   4.996  1.3254  3.7834 -1.0202
 9051TIP3    H227118   0.724   1.737   4.962  0.8513  2.1344  2.9837
 9052TIP3   OH227119   2.175   4.851   4.052  0.3257  0.0459  0.1973
 9052TIP3    H127120   2.100   4.804   4.015  1.2053  0.6748 -2.6860
 9052TIP3    H227121   2.204   4.797   4.126 -2.0819 -0.9173  0.5150
 9053TIP3   OH227122   2.463   0.824   0.021  0.7508 -0.0439 -0.3117
 9053TIP3    H127123   2.382   0.874   0.022  1.3580  0.9751  0.3826
 9053TIP3    H227124   2.436   0.733   0.031 -0.2812  0.3128  0.2754
 9054TIP3   OH227125   6.423   3.216   5.752  0.7114  0.5449 -0.9231
 9054TIP3    H127126   6.460   3.130   5.774 -0.2218  0.3526 -0.0202
 9054TIP3    H227127   6.330   3.198   5.736  0.3661  1.4885 -0.0406
 9055TIP3   OH227128   5.395   3.311   2.383 -0.0299 -0.2945  0.3145
 9055TIP3    H127129   5.484   3.276   2.378  0.4875  0.7890  1.4082
 9055TIP3    H227130   5.353   3.262   2.454 -0.0123 -0.1905  0.3971
 9056TIP3   OH227131   1.167   5.652   2.937 -0.5080  0.2241 -0.0865
 9056TIP3    H127132   1.154   5.669   3.031 -0.9846  1.1474 -0.3064
 9056TIP3    H227133   1.137   5.732   2.894  1.6654  0.6759 -0.9207
 9057TIP3   OH227134   4.402   5.475   5.006  0.6427 -0.0926 -0.5164
 9057TIP3    H127135   4.496   5.459   5.013  0.5119 -0.2752  1.1836
 9057TIP3    H227136   4.382   5.536   5.077 -0.2242  1.4628 -2.0364
 9058TIP3   OH227137   1.531   0.334   0.964  0.2769  0.0792 -0.0695
 9058TIP3    H127138   1.555   0.413   1.011  0.4968  0.0289 -0.0968
 9058TIP3    H227139   1.467   0.291   1.021 -0.0881  0.4376 -0.2058
 9059TIP3   OH227140   0.735   3.476   2.630  0.5472  0.1979  0.4101
 9059TIP3    H127141   0.738   3.485   2.535 -0.3541  0.2357  0.3769
 9059TIP3    H227142   0.707   3.562   2.661  1.2569  0.3165  0.7457
 9060TIP3   OH227143   1.916   6.496   0.162 -0.1096 -0.4346  0.7004
 9060TIP3    H127144   1.851   6.468   0.226 -0.0422 -0.8269  0.6027
 9060TIP3    H227145   1.915   6.427   0.095 -2.0082  1.1988 -1.0809
 9061TIP3   OH227146   0.952   4.909   4.520 -0.3215  0.4748 -0.1716
 9061TIP3    H127147   0.950   4.893   4.426 -2.2598  1.1897 -0.3167
 9061TIP3    H227148   0.884   4.976   4.534  0.4830  0.9819  1.6294
 9062TIP3   OH227149   0.554   2.869   0.039  0.1949 -0.1353  0.3908
 9062TIP3    H127150   0.479   2.868  -0.021  0.0341 -0.0085  0.5905
 9062TIP3    H227151   0.592   2.956   0.029 -0.9902  0.5839  1.9096
 9063TIP3   OH227152   0.218   6.548   5.500 -0.4939  0.1679  0.1272
 9063TIP3    H127153   0.235   6.641   5.489 -1.4165  0.2579 -0.7115
 9063TIP3    H227154   0.168   6.523   5.423  2.0448 -1.6510 -1.0669
 9064TIP3   OH227155   2.994   6.638   1.948  0.1114  0.1998 -0.2477
 9064TIP3    H127156   2.955   6.594   2.023  0.8077 -1.7025 -0.9391
 9064TIP3    H227157   2.921   6.685   1.907 -1.0178 -1.5315 -0.3099
 9065TIP3   OH227158   4.439   6.678   0.682  0.9694 -0.1131  0.1655
 9065TIP3    H127159   4.383   6.600   0.687 -0.1509  0.6484 -0.1121
 9065TIP3    H227160   4.459   6.700   0.773  1.9537 -1.1679  0.2231
 9066TIP3   OH227161   3.703   1.612   4.027  0.1841  0.1285  0.0217
 9066TIP3    H127162   3.682   1.634   4.118 -1.0718  1.0695 -0.4643
 9066TIP3    H227163   3.792   1.645   4.014  0.8146 -1.0173  1.2094
 9067TIP3   OH227164   0.259   2.008   2.655 -0.9138  0.0856 -0.1072
 9067TIP3    H127165   0.327   1.942   2.647 -0.3767  0.4016  1.3562
 9067TIP3    H227166   0.204   1.977   2.727 -1.8532  0.2318 -0.7463
 9068TIP3   OH227167   0.642   4.154   1.370  0.3573  0.0500  0.7602
 9068TIP3    H127168   0.702   4.191   1.435  0.6582  0.9694 -0.0245
 9068TIP3    H227169   0.606   4.230   1.324 -0.3931 -0.5539  0.3194
 9069TIP3   OH227170   4.663   4.950   5.327 -0.4292 -0.2237  0.2815
 9069TIP3    H127171   4.576   4.971   5.294 -0.4669 -2.1604 -0.9933
 9069TIP3    H227172   4.647   4.882   5.393 -0.0032  0.6699  1.3302
 9070TIP3   OH227173   6.599   2.200   0.647  0.2595  0.2962 -0.5946
 9070TIP3    H127174   6.660   2.174   0.716 -0.0363  0.3530 -0.3052
 9070TIP3    H227175   6.553   2.119   0.624 -1.3693  0.6825  1.0095
 9071TIP3   OH227176   3.924   3.241   4.101 -0.0035 -0.9178  0.6046
 9071TIP3    H127177   3.937   3.147   4.105 -2.0461 -1.3722 -1.3818
 9071TIP3    H227178   3.831   3.252   4.080  0.1223  1.5538  0.9955
 9072TIP3   OH227179   2.395   6.510   5.698  0.1486  0.1028 -0.8856
 9072TIP3    H127180   2.484   6.545   5.697 -0.0622  0.6632 -0.5917
 9072TIP3    H227181   2.392   6.454   5.776 -0.4403  1.9630  0.4907
 9073TIP3   OH227182   5.262   0.341   3.023 -0.0631 -0.1165  0.6719
 9073TIP3    H127183   5.260   0.422   3.074  1.8795  0.6868 -0.4052
 9073TIP3    H227184   5.297   0.367   2.938 -2.1711 -1.6090 -0.7530
 9074TIP3   OH227185   0.403   0.450   2.186  0.4851 -0.0637  0.5265
 9074TIP3    H127186   0.457   0.468   2.109  1.5968  0.1014  1.3218
 9074TIP3    H227187   0.461   0.403   2.246 -0.7166 -1.2496  0.8055
 9075TIP3   OH227188   0.309   3.036   0.550  0.2204 -0.1925  0.5825
 9075TIP3    H127189   0.325   3.096   0.622 -0.0073 -0.9533  1.2812
 9075TIP3    H227190   0.390   2.985   0.542  1.1203  1.4036 -1.2185
 9076TIP3   OH227191   0.506   0.901   4.872  0.2713 -0.2124 -0.0030
 9076TIP3    H127192   0.485   0.808   4.863  2.1629 -0.8895  1.7522
 9076TIP3    H227193   0.518   0.932   4.782  0.8041 -1.9836 -0.5834
 9077TIP3   OH227194   0.464   5.281   2.378  0.4165  0.5941  0.2017
 9077TIP3    H127195   0.371   5.296   2.361  0.2789  0.4986  0.8318
 9077TIP3    H227196   0.480   5.191   2.348  0.4975  0.8845 -0.6444
 9078TIP3   OH227197   1.107   5.303   5.494 -0.4309  0.1126 -0.7592
 9078TIP3    H127198   1.151   5.223   5.522 -1.2825  0.3589  1.4963
 9078TIP3    H227199   1.014   5.284   5.505 -0.6484  1.3495 -0.3286
 9079TIP3   OH227200   0.721   4.285   0.170  0.2969  0.1585 -0.5189
 9079TIP3    H127201   0.669   4.230   0.110  0.5835 -0.0883 -0.5432
 9079TIP3    H227202   0.685   4.373   0.158  0.9374  0.2837 -1.7248
 9080TIP3   OH227203   2.965   2.908   4.412 -0.4195  0.1680 -0.6793
 9080TIP3    H127204   2.875   2.920   4.382 -0.4970 -0.0265 -0.5295
 9080TIP3    H227205   3.019   2.940   4.341 -0.5956 -0.5305 -1.1397
 9081TIP3   OH227206   0.351   0.957   4.625  0.5288 -1.1023  0.3297
 9081TIP3    H127207   0.308   0.909   4.696 -0.6010 -0.0617  0.3824
 9081TIP3    H227208   0.279   1.000   4.578  1.5139  1.1686  0.7542
 9082TIP3   OH227209   1.312   2.632   1.796  0.3776 -0.1028  0.3431
 9082TIP3    H127210   1.354   2.564   1.848 -1.1245 -2.9481 -1.8703
 9082TIP3    H227211   1.311   2.597   1.707 -1.1899  2.5190 -0.7896
 9083TIP3   OH227212   6.253   1.263   5.547  0.4220 -0.0621  0.3784
 9083TIP3    H127213   6.191   1.335   5.561 -1.3352 -1.3328 -0.4928
 9083TIP3    H227214   6.290   1.246   5.634  0.9220  1.8825  0.5980
 9084TIP3   OH227215   1.716   3.895   5.721  0.0393  0.0380  0.3857
 9084TIP3    H127216   1.691   3.974   5.673 -0.1697 -1.1841 -1.5730
 9084TIP3    H227217   1.636   3.867   5.765 -0.0610  0.5139  0.5100
 9085TIP3   OH227218   6.188   4.240   5.153  0.0025 -0.1550 -1.0378
 9085TIP3    H127219   6.246   4.212   5.223 -0.3368  1.1465 -0.2002
 9085TIP3    H227220   6.122   4.293   5.196 -1.6254 -1.2933 -2.0184
 9086TIP3   OH227221   2.496   1.967   3.825 -0.2455 -0.5255 -0.1733
 9086TIP3    H127222   2.514   1.940   3.915  0.3207 -0.6670 -0.3294
 9086TIP3    H227223   2.449   2.050   3.834  0.7749  0.0218  0.2265
 9087TIP3   OH227224   3.089   3.825   4.523  0.0766  0.0669  0.2282
 9087TIP3    H127225   3.011   3.881   4.532  1.4225  1.9652  0.5969
 9087TIP3    H227226   3.109   3.799   4.613 -1.0016 -1.7419 -0.0124
 9088TIP3   OH227227   2.400   4.674   4.623 -0.1395  0.0604  0.0518
 9088TIP3    H127228   2.326   4.632   4.580 -0.0680  1.3649 -1.4527
 9088TIP3    H227229   2.457   4.602   4.650 -1.9933 -0.9685  1.3983
 9089TIP3   OH227230   4.322   6.438   1.166  0.3216  0.4622  0.1941
 9089TIP3    H127231   4.288   6.502   1.229  0.6323  0.6342  0.1920
 9089TIP3    H227232   4.257   6.368   1.166 -0.2382  0.9640 -0.1113
 9090TIP3   OH227233   3.504   2.798   3.430  0.1373 -0.6001  0.1470
 9090TIP3    H127234   3.473   2.708   3.422 -1.1454 -0.0868 -0.8783
 9090TIP3    H227235   3.459   2.846   3.360 -1.0612  1.3282  2.1117
 9091TIP3   OH227236   2.798   4.878   5.711  0.2447 -0.1767 -0.2010
 9091TIP3    H127237   2.856   4.914   5.644 -0.3011 -1.7347 -1.5847
 9091TIP3    H227238   2.857   4.854   5.783  0.9626  0.6797 -0.4797
 9092TIP3   OH227239   5.282   1.559   0.758 -0.3544 -0.1569  0.2911
 9092TIP3    H127240   5.349   1.523   0.816 -0.2876 -0.9758 -0.2722
 9092TIP3    H227241   5.305   1.651   0.749  0.2106 -0.2457  0.7772
 9093TIP3   OH227242   0.872   3.864   2.398  0.3733  0.0590  0.0303
 9093TIP3    H127243   0.900   3.859   2.490  1.0656  0.7201 -0.1345
 9093TIP3    H227244   0.953   3.861   2.348  0.1375  1.6321 -0.4802
 9094TIP3   OH227245   5.888   6.401   5.059  0.3156 -0.0587 -0.6029
 9094TIP3    H127246   5.849   6.331   5.007 -0.2527 -0.6021  0.5152
 9094TIP3    H227247   5.951   6.443   5.000  0.4154 -1.2855 -1.4035
 9095TIP3   OH227248   3.205   4.075   3.288  0.2679 -0.5580 -0.0009
 9095TIP3    H127249   3.193   3.989   3.247  1.2322 -0.4377 -0.5512
 9095TIP3    H227250   3.290   4.068   3.332  1.0265  0.5554 -1.2161
 9096TIP3   OH227251   5.844   6.440   4.676 -0.0863  0.4908  0.4402
 9096TIP3    H127252   5.813   6.384   4.747 -0.3602 -0.3278 -0.3127
 9096TIP3    H227253   5.934   6.463   4.702 -0.1213  0.0653  0.9709
 9097TIP3   OH227254   5.527   6.248   3.442 -0.4250 -0.6484  0.6288
 9097TIP3    H127255   5.437   6.217   3.454 -0.6989 -0.3504 -0.5555
 9097TIP3    H227256   5.574   6.172   3.409 -0.4490 -0.5595  0.3910
 9098TIP3   OH227257   1.150   0.150   5.054  0.4027  0.8426 -0.2016
 9098TIP3    H127258   1.221   0.098   5.092  1.0745  1.5186 -0.5104
 9098TIP3    H227259   1.184   0.178   4.969 -0.6829  0.2174 -0.8635
 9099TIP3   OH227260   5.750   3.060   0.286  0.6994 -0.6314  0.5359
 9099TIP3    H127261   5.785   3.142   0.252  0.2684 -0.1405  1.2375
 9099TIP3    H227262   5.787   3.053   0.374 -0.2809 -0.5182  0.9748
 9100TIP3   OH227263   3.187   1.141   5.808  0.0883  0.0880  0.3143
 9100TIP3    H127264   3.241   1.113   5.881 -0.4244 -0.5787  0.4512
 9100TIP3    H227265   3.236   1.212   5.767  1.2742 -0.7733  0.1795
 9101TIP3   OH227266   5.066   2.599   2.713 -0.2038 -0.2262 -0.0041
 9101TIP3    H127267   5.063   2.504   2.721 -1.7565 -0.3021 -1.0708
 9101TIP3    H227268   5.140   2.615   2.654 -1.8236 -1.0590 -2.4316
 9102TIP3   OH227269   1.700   5.353   4.313 -0.3367 -0.0431  0.1325
 9102TIP3    H127270   1.729   5.408   4.386 -0.3834 -0.1594  0.2378
 9102TIP3    H227271   1.627   5.303   4.348 -1.1012  0.7321 -0.3310
 9103TIP3   OH227272   6.130   1.460   2.537 -1.0400  0.2320 -0.0022
 9103TIP3    H127273   6.055   1.422   2.491 -1.8381 -1.6145  2.5814
 9103TIP3    H227274   6.163   1.390   2.592  1.1632  1.6930  0.6944
 9104TIP3   OH227275   0.282   2.375   0.884  0.1117 -0.1579 -0.5347
 9104TIP3    H127276   0.254   2.298   0.934 -2.1055  0.2502 -1.0469
 9104TIP3    H227277   0.289   2.445   0.949  0.2503 -0.3384 -0.3531
 9105TIP3   OH227278   0.491   5.485   1.420  0.2933  0.0625  0.2015
 9105TIP3    H127279   0.471   5.411   1.477 -0.4487 -1.0702 -1.4590
 9105TIP3    H227280   0.424   5.550   1.440  0.0766 -0.2913  0.6350
 9106TIP3   OH227281   6.600   2.779   3.898 -0.1141 -0.6356 -0.5367
 9106TIP3    H127282   6.678   2.760   3.845  1.1752  1.7867  0.3120
 9106TIP3    H227283   6.611   2.725   3.976  2.1366  1.3907  0.7071
 9107TIP3   OH227284   1.905   3.894   1.256  0.0654  0.3635  0.1169
 9107TIP3    H127285   1.924   3.858   1.342  0.4721 -0.8972 -0.4679
 9107TIP3    H227286   1.810   3.894   1.249  0.0633 -0.6781  0.1088
 9108TIP3   OH227287   2.783   3.304   2.353  0.0554 -0.3314  0.4293
 9108TIP3    H127288   2.784   3.316   2.448 -1.0693 -0.3260  0.4466
 9108TIP3    H227289   2.797   3.210   2.340  1.6252 -0.1409  0.5341
 9109TIP3   OH227290   3.992   2.456   2.749  0.7126  0.5059 -0.1637
 9109TIP3    H127291   3.903   2.421   2.754  1.1904 -0.6239  1.0010
 9109TIP3    H227292   3.998   2.494   2.661 -0.8722  0.5002 -0.2975
 9110TIP3   OH227293   2.555   0.222   5.833  0.2759 -0.0292  0.3278
 9110TIP3    H127294   2.536   0.135   5.869  1.9417  0.0391  1.4527
 9110TIP3    H227295   2.609   0.205   5.756 -0.7894 -0.0307 -0.4484
 9111TIP3   OH227296   2.093   2.393   5.701  0.1943  0.7167 -0.3470
 9111TIP3    H127297   2.009   2.425   5.735  0.6589  0.7003  0.8585
 9111TIP3    H227298   2.125   2.465   5.646 -1.2689  0.1571 -2.0226
 9112TIP3   OH227299   1.728   2.020   1.498  0.6459  0.4582  1.1328
 9112TIP3    H127300   1.644   2.054   1.467  0.6358 -0.6211 -0.1078
 9112TIP3    H227301   1.785   2.097   1.500  0.4240  0.7301 -0.9064
 9113TIP3   OH227302   1.929   0.044   4.281  0.1407 -0.2150  0.4527
 9113TIP3    H127303   1.909   0.118   4.339  2.2865  1.8552 -1.2116
 9113TIP3    H227304   2.014   0.012   4.311  0.4518 -0.2501 -0.4312
 9114TIP3   OH227305   3.324   1.585   3.707 -0.5460 -0.6825  0.1578
 9114TIP3    H127306   3.254   1.542   3.755 -0.1285 -0.5579  0.9038
 9114TIP3    H227307   3.334   1.670   3.750  1.0931 -1.3009  1.0929
 9115TIP3   OH227308   7.115   5.867   2.952 -0.3140 -0.2850  0.0050
 9115TIP3    H127309   7.125   5.832   2.864 -1.3726  0.2926 -0.3548
 9115TIP3    H227310   7.021   5.864   2.970 -0.5074  2.3463 -0.0693
 9116TIP3   OH227311   5.475   0.039   2.171  0.3379 -0.4563 -0.2997
 9116TIP3    H127312   5.457   0.019   2.079  0.0401 -1.3778 -0.0495
 9116TIP3    H227313   5.476  -0.046   2.215 -0.5048  0.0315  0.7277
 9117TIP3   OH227314   2.164   2.133   0.240 -0.3496 -0.0376 -0.5692
 9117TIP3    H127315   2.217   2.087   0.174  0.1830 -1.1661  0.6066
 9117TIP3    H227316   2.098   2.068   0.266 -0.0435  0.1108  0.5977
 9118TIP3   OH227317   4.681   1.236   0.728  0.3324 -0.1054 -0.2512
 9118TIP3    H127318   4.762   1.195   0.759  0.3257  0.9193  1.2224
 9118TIP3    H227319   4.710   1.322   0.695  0.1356 -0.6229 -1.8342
 9119TIP3   OH227320   4.359   3.838   2.246  0.7025  0.4563 -0.4786
 9119TIP3    H127321   4.355   3.885   2.329 -1.7110 -1.2886  0.5092
 9119TIP3    H227322   4.319   3.897   2.183  0.5494  0.9407  0.0646
 9120TIP3   OH227323   1.437   3.846   5.710  0.5089 -0.0298 -0.0049
 9120TIP3    H127324   1.403   3.910   5.773 -0.7273  0.5489 -1.2282
 9120TIP3    H227325   1.369   3.779   5.706 -0.2980  0.8429 -2.0442
 9121TIP3   OH227326   2.608   3.532   0.911  0.4786  0.0894  0.3451
 9121TIP3    H127327   2.638   3.569   0.828 -0.1650 -0.4770 -0.1495
 9121TIP3    H227328   2.520   3.567   0.923  0.6339  0.3023  0.8766
 9122TIP3   OH227329   2.541   6.390   4.812 -0.5742 -0.0663 -0.7474
 9122TIP3    H127330   2.597   6.336   4.867  0.3950  0.7541 -0.8947
 9122TIP3    H227331   2.486   6.438   4.874 -0.6276 -0.3527 -0.5703
 9123TIP3   OH227332   5.332   2.357   4.029 -0.1736  0.0220 -0.7869
 9123TIP3    H127333   5.280   2.437   4.033 -1.0399 -0.3992 -2.5824
 9123TIP3    H227334   5.290   2.304   3.962  0.8030 -1.6598 -0.1482
 9124TIP3   OH227335   4.324   1.784   4.899  0.6019 -0.4225  0.3718
 9124TIP3    H127336   4.254   1.757   4.840  1.1737 -0.0502 -0.4945
 9124TIP3    H227337   4.332   1.878   4.886  1.5070 -0.5175  0.1795
 9125TIP3   OH227338   1.566   1.288  -0.007  0.1763  0.6761 -0.0463
 9125TIP3    H127339   1.534   1.351   0.057 -0.0778 -0.1455  0.6485
 9125TIP3    H227340   1.660   1.281   0.010  0.0137  0.0244  0.6406
 9126TIP3   OH227341   2.677   3.008   3.708  0.2959 -0.1473 -0.4263
 9126TIP3    H127342   2.653   3.090   3.750  0.4407 -0.2356 -0.1684
 9126TIP3    H227343   2.623   2.942   3.751  0.0644 -0.1662 -0.7436
 9127TIP3   OH227344   3.220   3.866   3.533  0.3233  0.7542 -0.0054
 9127TIP3    H127345   3.193   3.855   3.441  1.3369  0.3601 -0.2723
 9127TIP3    H227346   3.138   3.882   3.580 -0.3479 -0.2022 -0.8011
 9128TIP3   OH227347   4.185   4.296   5.389 -0.1228 -0.1239 -0.2383
 9128TIP3    H127348   4.272   4.258   5.406  0.3010  0.2236 -1.4552
 9128TIP3    H227349   4.144   4.303   5.475  1.3440  0.3853  0.4541
 9129TIP3   OH227350   6.749   6.188   2.677 -0.2537 -0.2670 -0.7863
 9129TIP3    H127351   6.815   6.186   2.608  0.6605  0.5238  0.0226
 9129TIP3    H227352   6.673   6.229   2.636  0.4898  0.7721 -1.1689
 9130TIP3   OH227353   6.095   3.718   0.455  0.2070 -0.3770 -0.5677
 9130TIP3    H127354   6.145   3.788   0.413  0.0416 -0.7590 -1.4063
 9130TIP3    H227355   6.097   3.741   0.548 -0.8526  1.4028 -0.9331
 9131TIP3   OH227356   7.217   0.111   5.629  0.3291 -0.1903  0.5757
 9131TIP3    H127357   7.183   0.127   5.541  1.5380  0.3256  0.1852
 9131TIP3    H227358   7.201   0.193   5.677 -0.4392 -0.5123  0.8877
 9132TIP3   OH227359   2.064   2.567   3.374  0.3441  0.1512  0.1760
 9132TIP3    H127360   2.126   2.553   3.302 -0.1324 -0.6897 -0.0800
 9132TIP3    H227361   1.986   2.603   3.332  0.8447  1.8109  0.5753
 9133TIP3   OH227362   6.493   6.389   1.912 -0.3760  0.8150 -0.6946
 9133TIP3    H127363   6.547   6.451   1.960  0.0276  2.0378 -2.6146
 9133TIP3    H227364   6.450   6.441   1.844 -0.9860 -0.7853 -1.6077
 9134TIP3   OH227365   6.851   4.011   1.018 -0.5992  0.8480 -0.0798
 9134TIP3    H127366   6.817   4.003   0.929  1.7918 -0.2760 -0.9815
 9134TIP3    H227367   6.859   3.921   1.049  0.8599  1.0740  0.3034
 9135TIP3   OH227368   1.434   2.437   5.609  0.1931 -0.6223  0.5629
 9135TIP3    H127369   1.503   2.444   5.675  0.2128 -1.2037  0.6026
 9135TIP3    H227370   1.456   2.359   5.560  0.3605 -0.0110 -0.3549
 9136TIP3   OH227371   5.053   1.004   1.189  0.3060  0.3498 -0.0396
 9136TIP3    H127372   5.114   1.049   1.130  0.0115 -1.3192 -1.7312
 9136TIP3    H227373   4.967   1.039   1.166  0.0989 -0.8392 -1.2275
 9137TIP3   OH227374   2.069   2.150   5.097 -0.3398 -0.3564  0.0262
 9137TIP3    H127375   1.980   2.144   5.061 -0.3047  1.2638 -0.4378
 9137TIP3    H227376   2.056   2.169   5.190 -0.4656 -1.0827  0.1590
 9138TIP3   OH227377   2.796   4.443   5.114 -0.2229 -0.0593  0.0019
 9138TIP3    H127378   2.722   4.393   5.079 -0.2787 -0.6872  0.9949
 9138TIP3    H227379   2.784   4.442   5.209 -0.4391  2.1840  0.0639
 9139TIP3   OH227380   4.475   5.179   0.632  0.2864  0.5860 -0.2495
 9139TIP3    H127381   4.529   5.149   0.705  1.7864  2.4190 -0.5554
 9139TIP3    H227382   4.436   5.098   0.598  1.1113 -0.5453  1.3194
 9140TIP3   OH227383   4.405   1.375   3.596 -0.0423 -0.5939  0.1861
 9140TIP3    H127384   4.463   1.307   3.560 -1.8246 -1.8696 -0.3974
 9140TIP3    H227385   4.347   1.397   3.524  0.5277  1.6506  0.3566
 9141TIP3   OH227386   5.215   0.164   4.829 -0.5760  0.2162  0.2907
 9141TIP3    H127387   5.168   0.154   4.912  0.2741 -1.7271  0.5923
 9141TIP3    H227388   5.253   0.078   4.813  0.9419  1.1002 -1.1249
 9142TIP3   OH227389   2.768   4.367   5.369  0.4380  0.5668  0.2852
 9142TIP3    H127390   2.705   4.303   5.401 -0.5172  1.4346  0.1978
 9142TIP3    H227391   2.783   4.426   5.443  0.2978  1.0005 -0.0235
 9143TIP3   OH227392   6.200   6.295   3.468 -0.2028  0.2493 -0.7596
 9143TIP3    H127393   6.291   6.286   3.438 -0.5247 -0.1833 -1.6457
 9143TIP3    H227394   6.172   6.380   3.434 -0.2536  0.2035 -0.8327
 9144TIP3   OH227395   2.753   4.960   0.581 -0.2669  0.1111  0.0736
 9144TIP3    H127396   2.712   5.043   0.604  0.2450  0.5606 -0.6206
 9144TIP3    H227397   2.695   4.921   0.515  0.3483  0.6938 -0.8241
 9145TIP3   OH227398   5.556   5.316   3.415 -0.0566 -0.3739 -0.3754
 9145TIP3    H127399   5.478   5.271   3.383 -1.0056 -0.4960  1.9345
 9145TIP3    H227400   5.598   5.350   3.335 -3.3784  1.2300 -1.6736
 9146TIP3   OH227401   5.859   2.919   4.067  0.4314  0.3202  0.0703
 9146TIP3    H127402   5.769   2.935   4.040  0.6926  1.6092 -0.1054
 9146TIP3    H227403   5.865   2.955   4.155  1.2811  2.1796 -0.6831
 9147TIP3   OH227404   3.704   4.624   1.798  0.7110 -0.2242  0.2673
 9147TIP3    H127405   3.638   4.693   1.810  0.6097 -0.5524  1.7977
 9147TIP3    H227406   3.736   4.605   1.886  1.1320 -1.7590 -0.1774
 9148TIP3   OH227407   0.291   4.004   0.665  0.5027  0.1706 -0.1658
 9148TIP3    H127408   0.328   3.997   0.577 -0.6379 -0.0229 -0.6542
 9148TIP3    H227409   0.297   3.915   0.701 -0.6783 -0.1912 -0.7738
 9149TIP3   OH227410   0.735   1.175   4.566 -0.1698  0.5942 -0.1204
 9149TIP3    H127411   0.654   1.226   4.556 -0.8135 -0.6232 -1.3672
 9149TIP3    H227412   0.707   1.084   4.568  1.0561  0.1980  1.1234
 9150TIP3   OH227413   4.147   5.967   2.823  0.3534  0.1245  0.2111
 9150TIP3    H127414   4.086   6.039   2.804  0.4719  0.0417 -0.5199
 9150TIP3    H227415   4.100   5.912   2.886  0.5191  1.1789  1.2710
 9151TIP3   OH227416   3.315   1.653   3.216  0.2883  0.2446 -0.6224
 9151TIP3    H127417   3.330   1.583   3.152  0.6594  0.8730 -1.2378
 9151TIP3    H227418   3.221   1.670   3.210  0.4038  0.6396 -1.3656
 9152TIP3   OH227419   0.397   1.813   4.816 -0.0118 -0.1800  0.2271
 9152TIP3    H127420   0.486   1.847   4.823  0.8283 -1.9828 -1.0068
 9152TIP3    H227421   0.345   1.872   4.870  1.8584  1.1259  0.7099
 9153TIP3   OH227422   5.442   6.770   3.609 -0.6002 -0.5407 -0.1031
 9153TIP3    H127423   5.517   6.804   3.561 -0.7457 -0.4822 -0.2879
 9153TIP3    H227424   5.426   6.683   3.572 -0.3749 -0.7220  0.2109
 9154TIP3   OH227425   1.930   4.931   4.366  0.4333 -0.1648  0.1844
 9154TIP3    H127426   1.979   5.011   4.348 -2.5250  1.4551 -1.5841
 9154TIP3    H227427   1.883   4.914   4.284 -0.0180 -3.0168  0.9410
 9155TIP3   OH227428   2.273   6.742   4.237  0.4020  0.0277 -0.0030
 9155TIP3    H127429   2.202   6.714   4.180  0.7431 -0.9365  0.0154
 9155TIP3    H227430   2.229   6.780   4.313 -0.0937 -0.4407 -0.0495
 9156TIP3   OH227431   2.155   1.329   0.761  0.5362 -0.2349 -0.3530
 9156TIP3    H127432   2.126   1.287   0.679  0.6248 -0.5922 -0.2046
 9156TIP3    H227433   2.179   1.256   0.818  1.3407  0.0422 -0.3255
 9157TIP3   OH227434   7.031   5.152   5.222 -0.2475 -1.0514  0.0188
 9157TIP3    H127435   7.118   5.170   5.187  0.0502 -0.7553  0.9062
 9157TIP3    H227436   7.032   5.058   5.241  0.6328 -0.6597  2.0576
 9158TIP3   OH227437   0.723   4.553   5.284 -0.3716  0.2536 -0.1056
 9158TIP3    H127438   0.733   4.512   5.370 -1.2007 -1.2367 -0.6812
 9158TIP3    H227439   0.736   4.481   5.222  2.2449  1.6701 -1.3498
 9159TIP3   OH227440   1.524   1.127   5.346 -0.4202 -0.5845 -0.0948
 9159TIP3    H127441   1.512   1.222   5.343 -0.9355 -0.6078  0.6666
 9159TIP3    H227442   1.580   1.112   5.422 -0.1964 -0.8778 -0.3141
 9160TIP3   OH227443   2.381   5.295   0.822 -0.1040 -0.7557 -0.5550
 9160TIP3    H127444   2.406   5.387   0.828 -2.2569 -0.1953  2.1007
 9160TIP3    H227445   2.303   5.294   0.767 -0.4463 -0.8900 -0.0741
 9161TIP3   OH227446   4.622   3.970   4.226 -0.4744  0.3092 -0.1558
 9161TIP3    H127447   4.555   3.929   4.280 -2.0157  0.3329 -1.9891
 9161TIP3    H227448   4.616   3.927   4.142  2.4126 -0.2635 -0.1728
 9162TIP3   OH227449   5.152   0.414   4.979  0.3176  0.6192  0.5471
 9162TIP3    H127450   5.124   0.329   5.013  3.2709 -1.0423 -0.8126
 9162TIP3    H227451   5.087   0.435   4.911 -0.9969 -0.0228  1.5589
 9163TIP3   OH227452   1.413   3.030   5.819  0.2747 -0.0328  0.1235
 9163TIP3    H127453   1.431   3.122   5.837 -1.4442  0.5458 -0.8050
 9163TIP3    H227454   1.318   3.027   5.805  0.6864 -1.2171 -3.5262
 9164TIP3   OH227455   6.220   3.179   4.022 -0.2387  0.2092 -0.0629
 9164TIP3    H127456   6.219   3.198   3.928 -1.9488  0.2364 -0.0617
 9164TIP3    H227457   6.149   3.233   4.058  0.6438  0.4953  1.3182
 9165TIP3   OH227458   6.707   1.948   2.807  0.3938 -0.3743 -0.6123
 9165TIP3    H127459   6.633   1.974   2.752 -0.4954  0.4863  0.9168
 9165TIP3    H227460   6.775   2.012   2.786 -0.0231  0.1025 -0.5401
 9166TIP3   OH227461   1.917   5.943   3.422  0.0107 -0.3771  0.0537
 9166TIP3    H127462   1.952   5.862   3.385 -2.3458 -1.2184 -0.5410
 9166TIP3    H227463   1.969   5.957   3.501  4.3303  0.7887 -2.6639
 9167TIP3   OH227464   1.413   3.908   1.783  0.0837  0.3580  0.4988
 9167TIP3    H127465   1.469   3.901   1.706  0.4891  0.2030  0.7980
 9167TIP3    H227466   1.475   3.913   1.856 -0.2949 -0.0619  0.8568
 9168TIP3   OH227467   5.218   3.991   1.421  0.3661 -0.1047 -0.3289
 9168TIP3    H127468   5.244   3.936   1.495  2.1584 -0.0061 -0.8453
 9168TIP3    H227469   5.293   3.989   1.362 -0.6894  0.5226 -1.7480
 9169TIP3   OH227470   2.330   3.845   5.566  0.2442  0.1953 -0.0967
 9169TIP3    H127471   2.332   3.829   5.660 -0.8952 -1.9402 -0.3705
 9169TIP3    H227472   2.397   3.787   5.531  0.4813  0.7864 -0.6331
 9170TIP3   OH227473   5.067   4.507   0.458 -0.2430  0.0289 -0.0152
 9170TIP3    H127474   5.052   4.589   0.505  0.7739  0.7544 -0.9111
 9170TIP3    H227475   5.115   4.452   0.519 -0.7932  0.1488  0.5358
 9171TIP3   OH227476   2.371   5.522   0.569  0.0487 -0.2733 -0.9810
 9171TIP3    H127477   2.393   5.556   0.482 -0.3730  0.7656 -0.6935
 9171TIP3    H227478   2.277   5.501   0.563 -0.1237  0.3677 -0.6030
 9172TIP3   OH227479   3.080   4.633   0.595 -0.1086  0.0853 -0.1510
 9172TIP3    H127480   3.109   4.710   0.643 -0.6072  0.5373 -0.5577
 9172TIP3    H227481   3.003   4.662   0.547  0.0407 -0.5072 -0.7727
 9173TIP3   OH227482   7.073   1.947   0.448  0.9656  0.1040 -0.1650
 9173TIP3    H127483   7.103   2.027   0.491  1.6683 -0.1824 -0.1014
 9173TIP3    H227484   7.015   1.977   0.378  1.5054  0.6917 -0.3682
 9174TIP3   OH227485   5.257   5.667   4.138 -0.0137  0.0961  0.3721
 9174TIP3    H127486   5.174   5.712   4.154 -0.4593 -0.3312 -0.6515
 9174TIP3    H227487   5.318   5.738   4.118 -0.5640  0.3252 -0.6058
 9175TIP3   OH227488   3.360   1.795   5.494 -0.0987  0.3027 -0.3836
 9175TIP3    H127489   3.424   1.726   5.474 -0.8060  0.0039 -1.7356
 9175TIP3    H227490   3.413   1.875   5.501  0.6714 -0.2706  0.7369
 9176TIP3   OH227491   3.723   5.960   5.329 -0.1311 -0.6349 -0.4182
 9176TIP3    H127492   3.687   6.047   5.311 -2.7758 -1.3638  0.7754
 9176TIP3    H227493   3.722   5.954   5.424 -0.8713 -2.2859 -0.5110
 9177TIP3   OH227494   0.106   3.696   2.107  0.3142 -0.1242 -0.0135
 9177TIP3    H127495   0.058   3.695   2.190 -0.2731  0.7504 -0.3300
 9177TIP3    H227496   0.085   3.780   2.067 -0.3247 -0.9676 -1.5787
 9178TIP3   OH227497   1.072   5.264   0.931  0.2612  0.2806 -0.1183
 9178TIP3    H127498   0.980   5.239   0.927  0.3594 -0.0367 -0.4335
 9178TIP3    H227499   1.108   5.238   0.847  0.7958 -0.2128  0.2536
 9179TIP3   OH227500   6.506   6.228   4.887 -0.2790 -0.0116 -0.4940
 9179TIP3    H127501   6.485   6.312   4.929 -2.1697 -1.2237  1.1910
 9179TIP3    H227502   6.601   6.222   4.892  0.2047  3.1147 -3.0048
 9180TIP3   OH227503   2.394   6.255   3.629 -0.7323 -0.2257  0.1698
 9180TIP3    H127504   2.339   6.243   3.552 -0.2645 -1.6059  0.0320
 9180TIP3    H227505   2.333   6.253   3.703 -0.9359 -1.2697 -0.0129
 9181TIP3   OH227506   2.039   5.724   3.297  0.7955  0.0700 -0.8015
 9181TIP3    H127507   2.061   5.680   3.215  0.7350 -1.0604 -0.2332
 9181TIP3    H227508   1.995   5.657   3.350  0.3320  0.9308 -0.0563
 9182TIP3   OH227509   2.011   5.062   0.625  0.7250 -0.0788  0.1941
 9182TIP3    H127510   2.084   5.124   0.630 -0.7878  1.8091 -0.0734
 9182TIP3    H227511   1.956   5.094   0.554 -0.7672 -0.9902  0.8640
 9183TIP3   OH227512   2.543   0.220   3.385 -0.5769  0.1794  0.2920
 9183TIP3    H127513   2.543   0.136   3.432 -2.5697  1.2646  2.4405
 9183TIP3    H227514   2.563   0.285   3.452 -0.6798  1.5767 -0.9933
 9184TIP3   OH227515   1.048   2.073   1.709  0.0164  0.4867 -0.0221
 9184TIP3    H127516   0.977   2.125   1.747  0.0363  0.2455  0.3510
 9184TIP3    H227517   1.116   2.137   1.687  0.8898  0.4447  2.2774
 9185TIP3   OH227518   3.706   6.076   0.447  0.4842 -0.3862 -0.2173
 9185TIP3    H127519   3.749   5.991   0.431  1.5514  0.2515 -0.8607
 9185TIP3    H227520   3.743   6.134   0.380  1.4806  1.1696  1.6190
 9186TIP3   OH227521   1.559   6.367   5.809  0.1615 -0.6664  0.6220
 9186TIP3    H127522   1.649   6.346   5.784  0.5128 -0.2497  1.4796
 9186TIP3    H227523   1.563   6.459   5.838 -0.5351 -0.6486  0.6761
 9187TIP3   OH227524   2.015   0.408   4.331  0.4460  0.2422 -0.1753
 9187TIP3    H127525   2.013   0.503   4.347  1.5478  0.3289 -0.4836
 9187TIP3    H227526   1.997   0.369   4.416  1.3269  0.7391  0.2577
 9188TIP3   OH227527   5.575   0.919   0.853 -0.3181 -0.3833 -0.1733
 9188TIP3    H127528   5.513   0.850   0.829 -1.1831  0.1071  0.6103
 9188TIP3    H227529   5.530   1.000   0.830 -0.7200  0.0617  1.9802
 9189TIP3   OH227530   3.477   5.874   0.302  0.0494  0.1210  0.3078
 9189TIP3    H127531   3.428   5.791   0.296  1.5743 -0.7396 -1.8647
 9189TIP3    H227532   3.544   5.858   0.368  0.4930 -0.5133 -0.2768
 9190TIP3   OH227533   6.997   3.337   1.358 -0.0836 -0.0112  0.1843
 9190TIP3    H127534   7.042   3.421   1.348 -2.5702  1.9504  3.4862
 9190TIP3    H227535   6.927   3.339   1.293 -1.3057  1.4487  1.4804
 9191TIP3   OH227536   2.371   2.785   3.549  0.3651  0.4947  0.3265
 9191TIP3    H127537   2.353   2.705   3.499 -1.0432 -0.5458  2.3353
 9191TIP3    H227538   2.462   2.775   3.576 -0.0797 -1.0046  1.4263
 9192TIP3   OH227539   0.469   1.433   2.635 -0.3289  0.1083 -0.4856
 9192TIP3    H127540   0.542   1.375   2.653  0.0797  0.7600  0.0176
 9192TIP3    H227541   0.440   1.463   2.722  1.3129  2.8627 -0.7587
 9193TIP3   OH227542   0.796   3.813   5.302  0.5817  0.0982  0.7090
 9193TIP3    H127543   0.828   3.769   5.380  0.0356 -0.3984  0.6598
 9193TIP3    H227544   0.703   3.790   5.297  0.9248 -1.1363 -0.9140
 9194TIP3   OH227545   6.515   1.148   0.083  0.2010  0.0592 -0.5639
 9194TIP3    H127546   6.608   1.164   0.102  0.0619 -0.2292  0.4568
 9194TIP3    H227547   6.513   1.123  -0.009  0.9658  1.4051 -0.9776
 9195TIP3   OH227548   4.609   4.583   1.173 -0.5924 -0.2515  0.1731
 9195TIP3    H127549   4.551   4.604   1.100 -0.9409 -0.8369  0.2789
 9195TIP3    H227550   4.599   4.489   1.186  0.2146 -0.3267  0.3415
 9196TIP3   OH227551   0.774   1.538   0.426  0.8038  0.4628 -0.1400
 9196TIP3    H127552   0.735   1.624   0.439  1.0050  0.6224 -0.5793
 9196TIP3    H227553   0.866   1.556   0.406  1.1092  0.0899  0.8937
 9197TIP3   OH227554   5.895   3.563   4.705  0.0960  0.0025 -0.4621
 9197TIP3    H127555   5.807   3.543   4.735  0.1350  1.0616  0.4205
 9197TIP3    H227556   5.917   3.646   4.748  1.8702 -0.7040  0.0789
 9198TIP3   OH227557   4.231   3.335   1.199  0.0583  0.1773 -0.3811
 9198TIP3    H127558   4.294   3.402   1.226 -1.0972  1.1197  0.0507
 9198TIP3    H227559   4.242   3.329   1.104  1.6070 -0.5401 -0.1894
 9199TIP3   OH227560   0.668   3.377   5.710 -0.4415 -0.8181  0.4618
 9199TIP3    H127561   0.617   3.357   5.789  0.4674 -0.3444  1.1934
 9199TIP3    H227562   0.758   3.384   5.742 -0.3796  2.1626 -0.1159
 9200TIP3   OH227563   5.086   1.266   3.480  0.2648 -0.1428 -0.0285
 9200TIP3    H127564   5.144   1.195   3.506  2.2249  1.3440 -0.1103
 9200TIP3    H227565   4.999   1.227   3.478  1.3319 -2.6595 -0.6177
 9201TIP3   OH227566   6.083   0.215   3.573 -0.0063 -0.3268  0.3188
 9201TIP3    H127567   6.030   0.242   3.648 -1.4224 -0.8117 -0.4648
 9201TIP3    H227568   6.069   0.283   3.507 -1.0660 -1.3047 -0.5136
 9202TIP3   OH227569   6.591   1.603   2.148 -0.1764 -0.1205 -0.0894
 9202TIP3    H127570   6.674   1.590   2.194 -0.1388  1.2163  0.2566
 9202TIP3    H227571   6.527   1.551   2.198  0.1027  0.3232  0.7407
 9203TIP3   OH227572   4.628   4.762   5.711 -0.3626 -0.5557  0.5353
 9203TIP3    H127573   4.655   4.848   5.742 -0.9642  0.1577 -0.8050
 9203TIP3    H227574   4.709   4.712   5.705  0.3187  0.6147 -0.6785
 9204TIP3   OH227575   3.232   2.890   4.628  0.4258 -0.3306  0.5534
 9204TIP3    H127576   3.250   2.916   4.538 -1.3712 -2.2179 -0.4318
 9204TIP3    H227577   3.301   2.828   4.650  0.2074 -0.7714  0.0205
 9205TIP3   OH227578   5.631   0.109   1.275 -0.2273  0.1648 -0.8358
 9205TIP3    H127579   5.631   0.124   1.180 -0.7838  1.7677 -0.6024
 9205TIP3    H227580   5.702   0.165   1.308 -1.4566  1.3309 -0.0857
 9206TIP3   OH227581   2.540   4.932   4.635 -0.2864  0.2821  0.0735
 9206TIP3    H127582   2.494   4.849   4.636 -0.2200  0.2472  1.1518
 9206TIP3    H227583   2.616   4.918   4.578 -0.7386 -0.1262 -0.4332
 9207TIP3   OH227584   1.652   2.695   5.045  0.1295  0.5443  0.4342
 9207TIP3    H127585   1.701   2.748   5.108 -0.2676  0.7681  0.5633
 9207TIP3    H227586   1.582   2.655   5.098 -0.1390  0.6436  0.1545
 9208TIP3   OH227587   5.561   6.214   5.314  0.0374  0.5171  0.0711
 9208TIP3    H127588   5.489   6.153   5.330 -0.3557  0.8936 -0.2333
 9208TIP3    H227589   5.580   6.205   5.221 -1.0651  1.9578 -0.3357
 9209TIP3   OH227590   6.587   6.313   3.123  0.8144  0.1352 -0.4673
 9209TIP3    H127591   6.600   6.321   3.029 -0.5752  3.6618 -0.5205
 9209TIP3    H227592   6.675   6.301   3.159  1.6461  1.1117 -2.0842
 9210TIP3   OH227593   5.105   4.876   2.836  0.3304 -0.6902 -0.0501
 9210TIP3    H127594   5.044   4.804   2.822 -0.4142 -0.1281  0.2538
 9210TIP3    H227595   5.071   4.923   2.912  1.5178 -0.7631  0.5573
 9211TIP3   OH227596   6.319   3.523   3.037  0.6056  0.2970  0.1601
 9211TIP3    H127597   6.393   3.576   3.067 -1.3258  2.9166  0.6503
 9211TIP3    H227598   6.258   3.523   3.110 -0.0313 -1.6378 -0.3107
 9212TIP3   OH227599   5.025   6.223   1.345  0.6094  0.2679  0.0041
 9212TIP3    H127600   5.119   6.224   1.365  0.3916  0.3425  1.0609
 9212TIP3    H227601   5.014   6.144   1.291  1.3082  0.3713 -0.3109
 9213TIP3   OH227602   2.673   1.976   4.180  0.1116  0.2655 -0.4502
 9213TIP3    H127603   2.746   1.930   4.139  1.0562 -0.2704  1.6743
 9213TIP3    H227604   2.691   2.068   4.166  2.8288  0.3245  2.3697
 9214TIP3   OH227605   6.614   6.457   1.181  0.3595  0.1068  0.0885
 9214TIP3    H127606   6.604   6.545   1.144 -0.6272 -0.0037  0.0574
 9214TIP3    H227607   6.702   6.456   1.218  0.3428  1.1548  0.1941
 9215TIP3   OH227608   4.719   1.592   5.239  0.5235 -0.0220 -0.2098
 9215TIP3    H127609   4.756   1.550   5.317  0.2492 -0.3472 -0.2527
 9215TIP3    H227610   4.792   1.642   5.203  0.7163 -0.0519  0.1288
 9216TIP3   OH227611   4.030   5.705   3.282  0.1361  0.2096 -0.0766
 9216TIP3    H127612   4.057   5.722   3.372 -0.1835  1.9390 -0.2631
 9216TIP3    H227613   4.073   5.623   3.259 -1.5901 -1.5395  2.3937
 9217TIP3   OH227614   4.861   5.062   4.710 -0.1059  0.4075 -0.4949
 9217TIP3    H127615   4.860   5.047   4.616  0.9085 -0.1098 -0.4452
 9217TIP3    H227616   4.845   4.976   4.749 -0.8276  0.6740 -0.1943
 9218TIP3   OH227617   6.219   1.374   4.843 -0.0090  0.2251 -0.2498
 9218TIP3    H127618   6.308   1.350   4.870  0.2448  1.1960 -0.1657
 9218TIP3    H227619   6.232   1.426   4.764 -0.6360 -1.1109 -1.2491
 9219TIP3   OH227620   6.749   3.353   0.940 -0.6953 -0.5481 -0.0665
 9219TIP3    H127621   6.788   3.324   1.022  0.8673  0.0654 -0.5460
 9219TIP3    H227622   6.812   3.327   0.873 -1.4159 -0.0675 -0.9574
 9220TIP3   OH227623   6.562   1.521   0.591 -0.5709  0.3666  0.1701
 9220TIP3    H127624   6.582   1.543   0.682 -0.1905 -4.5007  1.5520
 9220TIP3    H227625   6.647   1.522   0.547 -0.5643  1.4001  0.1918
 9221TIP3   OH227626   0.031   3.342   5.814  0.1028  0.4252  0.0477
 9221TIP3    H127627   0.052   3.427   5.776  0.1704  0.6147  0.5053
 9221TIP3    H227628   0.030   3.357   5.909 -1.1215  0.2076  0.0862
 9222TIP3   OH227629   1.567   5.805   1.182 -0.0285 -0.1164  0.4096
 9222TIP3    H127630   1.626   5.880   1.188 -0.3676  0.0808  1.4897
 9222TIP3    H227631   1.547   5.783   1.273 -1.3675 -0.3798  0.0702
 9223TIP3   OH227632   0.792   2.092   2.954  0.0650  0.3677 -0.1190
 9223TIP3    H127633   0.873   2.042   2.946  0.1523  0.2654  1.1516
 9223TIP3    H227634   0.777   2.099   3.049 -1.2100  0.7116 -0.3226
 9224TIP3   OH227635   4.572   1.469   0.976 -0.6671 -0.3983 -0.9427
 9224TIP3    H127636   4.514   1.417   0.920  1.1765 -0.2585 -3.1243
 9224TIP3    H227637   4.659   1.458   0.936  0.3363  1.5841  0.5834
 9225TIP3   OH227638   5.071   5.217   4.617  0.1953  0.0549 -0.2448
 9225TIP3    H127639   5.007   5.287   4.604 -1.7260 -1.5289  0.1522
 9225TIP3    H227640   5.031   5.160   4.682  1.6497 -1.4753 -0.6194
 9226TIP3   OH227641   1.821   4.935   5.170  0.2605  0.3885  0.1192
 9226TIP3    H127642   1.760   4.924   5.097  1.1558 -1.5967 -0.3997
 9226TIP3    H227643   1.891   4.990   5.135 -0.1264  0.8127  0.0089
 9227TIP3   OH227644   0.575   6.463   4.662  0.8115 -0.5612 -0.4192
 9227TIP3    H127645   0.590   6.448   4.569 -0.0171 -4.7068 -0.0869
 9227TIP3    H227646   0.485   6.435   4.677  1.1826 -0.7986  1.7494
 9228TIP3   OH227647   0.536   0.506   3.275  0.8253  0.9499  0.0704
 9228TIP3    H127648   0.456   0.558   3.281 -3.0290 -3.9609 -1.5294
 9228TIP3    H227649   0.540   0.457   3.357  3.5901  2.5255  1.0161
 9229TIP3   OH227650   3.614   4.918   0.525  0.3085  0.2236 -0.4122
 9229TIP3    H127651   3.627   5.003   0.482  0.0680  0.6988  0.4221
 9229TIP3    H227652   3.701   4.891   0.552  0.3088  0.5257 -0.1019
 9230TIP3   OH227653   5.346   0.907   1.563 -0.3905  0.6051  0.5720
 9230TIP3    H127654   5.358   0.985   1.617 -1.1621 -0.3702  2.2257
 9230TIP3    H227655   5.254   0.909   1.538 -0.0342  1.0559 -0.7561
 9231TIP3   OH227656   5.579   5.077   2.177  0.7658  0.0386 -0.0461
 9231TIP3    H127657   5.510   5.030   2.131  1.1208  0.2524 -0.8039
 9231TIP3    H227658   5.657   5.065   2.123  1.1820  0.3312  0.4748
 9232TIP3   OH227659   1.183   4.615   2.769 -0.7700 -0.5912  0.5037
 9232TIP3    H127660   1.234   4.541   2.736  1.4540  0.9584  0.2697
 9232TIP3    H227661   1.239   4.656   2.834 -2.5842  0.0414  1.7592
 9233TIP3   OH227662   7.107   3.813   3.073  0.1926 -0.2383  0.3960
 9233TIP3    H127663   7.158   3.886   3.039 -2.2240  0.7762 -1.3594
 9233TIP3    H227664   7.069   3.847   3.154 -1.1694  0.6756 -0.5656
 9234TIP3   OH227665   0.908   4.309   5.291  0.1872 -0.0637  0.3558
 9234TIP3    H127666   0.911   4.219   5.257  3.5758  0.1109 -0.2094
 9234TIP3    H227667   0.964   4.359   5.232 -2.2108  2.6972  0.1867
 9235TIP3   OH227668   5.588   2.537   4.166 -0.4109  0.0656 -0.4021
 9235TIP3    H127669   5.581   2.442   4.154 -1.5917 -0.0476  0.9233
 9235TIP3    H227670   5.675   2.550   4.204 -0.0295 -0.4144 -1.0853
 9236TIP3   OH227671   6.631   6.601   0.201  0.6159  0.3555 -0.3340
 9236TIP3    H127672   6.598   6.678   0.155 -0.4784 -0.2546 -0.6050
 9236TIP3    H227673   6.595   6.526   0.152  1.9095 -0.3428 -0.2676
 9237TIP3   OH227674   6.439   3.546   4.026 -0.0390 -0.0095  0.4538
 9237TIP3    H127675   6.374   3.521   3.961  0.0622  1.4516 -0.2588
 9237TIP3    H227676   6.410   3.504   4.107 -2.8741  1.9422  0.5761
 9238TIP3   OH227677   0.802   5.025   2.449 -0.0218 -0.4366  0.1152
 9238TIP3    H127678   0.799   4.962   2.378  2.0833 -0.2935 -0.1677
 9238TIP3    H227679   0.812   4.973   2.528  2.7827 -0.5306 -0.2087
 9239TIP3   OH227680   6.338   2.439   4.869  0.1159 -0.1693  0.8188
 9239TIP3    H127681   6.365   2.521   4.827  0.1400 -0.1025  0.9657
 9239TIP3    H227682   6.419   2.400   4.899  0.3466 -1.2642 -1.0848
 9240TIP3   OH227683   2.482   5.139   0.172  0.5830 -0.3380 -0.2398
 9240TIP3    H127684   2.426   5.191   0.115 -0.7518 -0.9005  0.5051
 9240TIP3    H227685   2.489   5.054   0.129  1.5955 -0.0048 -0.7566
 9241TIP3   OH227686   2.084   2.873   0.946  0.6651  0.2535 -0.1325
 9241TIP3    H127687   2.133   2.887   1.027  1.8394  0.6118 -0.8717
 9241TIP3    H227688   2.064   2.961   0.914 -0.0963  0.1116 -0.0685
 9242TIP3   OH227689   2.345   2.176   3.509  0.2670  0.0162  0.2434
 9242TIP3    H127690   2.288   2.243   3.546  0.4760  0.0561  0.4922
 9242TIP3    H227691   2.313   2.094   3.546  0.3232  0.0304  0.3232
 9243TIP3   OH227692   7.227   2.069   1.477  0.1390 -0.0189  0.2166
 9243TIP3    H127693   7.222   1.978   1.448  1.5026 -0.6722  1.8347
 9243TIP3    H227694   7.156   2.077   1.542  0.3659 -0.1126  0.4804
 9244TIP3   OH227695   4.582   3.324   1.093  0.4661 -0.6148  0.1632
 9244TIP3    H127696   4.573   3.233   1.121  0.7181 -0.1221  2.0292
 9244TIP3    H227697   4.512   3.370   1.140 -1.0873 -0.1215 -2.4293
 9245TIP3   OH227698   5.817   5.204   3.497  0.3156  0.2757 -0.0458
 9245TIP3    H127699   5.736   5.254   3.488  1.4392  2.5120  1.3277
 9245TIP3    H227700   5.878   5.248   3.437  1.4336  0.8300  1.4491
 9246TIP3   OH227701   2.199   5.054   5.443 -0.2762 -0.1507  0.1410
 9246TIP3    H127702   2.153   4.992   5.386 -3.2067  0.3029  1.8038
 9246TIP3    H227703   2.197   5.136   5.393  0.2458 -0.5152 -0.4979
 9247TIP3   OH227704   4.880   2.276   3.726  0.4331  0.1766 -0.0138
 9247TIP3    H127705   4.813   2.289   3.793  0.1036  2.2963 -0.6648
 9247TIP3    H227706   4.838   2.220   3.661 -0.5767  1.0850 -0.1797
 9248TIP3   OH227707   5.941   5.413   0.651 -0.1608  0.4340  0.4137
 9248TIP3    H127708   5.932   5.435   0.744  0.9243 -0.4564  0.7558
 9248TIP3    H227709   5.889   5.333   0.641 -0.3566  0.5833  0.2223
 9249TIP3   OH227710   4.975   4.154   1.352  0.3415 -0.4305  0.2421
 9249TIP3    H127711   5.008   4.234   1.393  1.1974  0.4860 -2.0583
 9249TIP3    H227712   5.036   4.086   1.379  2.1414  0.5641 -1.1185
 9250TIP3   OH227713   0.844   3.059   3.104  0.0416 -0.2171  0.0173
 9250TIP3    H127714   0.827   3.068   3.198 -1.3859  0.4575 -0.2910
 9250TIP3    H227715   0.835   3.147   3.069 -0.2961 -0.5996 -0.8852
 9251TIP3   OH227716   0.775   4.683   5.588 -0.2486  0.0265 -0.2121
 9251TIP3    H127717   0.847   4.719   5.536 -0.4775  1.0621  0.1704
 9251TIP3    H227718   0.749   4.754   5.646 -1.0682 -0.5926  0.2024
 9252TIP3   OH227719   0.678   2.107   3.670 -0.2907  0.4536 -0.0318
 9252TIP3    H127720   0.675   2.203   3.673  2.1960  0.5845  0.7324
 9252TIP3    H227721   0.765   2.085   3.703 -0.4668 -2.0500 -1.0385
 9253TIP3   OH227722   6.883   5.091   0.431 -0.5559  0.2422  0.2935
 9253TIP3    H127723   6.962   5.146   0.435 -0.5466  0.2624 -0.1615
 9253TIP3    H227724   6.912   5.005   0.461  0.3132 -0.5165 -2.4535
 9254TIP3   OH227725   5.204   1.664   5.279  0.3374  0.1831 -0.4798
 9254TIP3    H127726   5.188   1.715   5.200  0.2781  1.7799  0.5218
 9254TIP3    H227727   5.159   1.712   5.348  0.9182 -0.8352  0.6443
 9255TIP3   OH227728   0.044   5.874   3.196 -0.4179 -0.1414 -0.2771
 9255TIP3    H127729   0.089   5.790   3.197 -2.2720 -1.2087  1.7858
 9255TIP3    H227730  -0.001   5.875   3.111  0.9011 -0.4516 -1.0125
 9256TIP3   OH227731   4.947   3.737   3.697  0.2911 -0.5441  0.2497
 9256TIP3    H127732   4.915   3.648   3.686 -0.3416 -0.5023  1.5021
 9256TIP3    H227733   4.914   3.764   3.783 -0.2245  1.1818 -0.4370
 9257TIP3   OH227734   6.737   1.428   4.180 -0.2680 -0.2510  0.2377
 9257TIP3    H127735   6.767   1.384   4.260  0.1074 -0.8469 -0.2294
 9257TIP3    H227736   6.701   1.358   4.126 -2.6307  0.4425  0.8031
 9258TIP3   OH227737   0.745   3.884   1.794  0.0297  0.1916  0.1787
 9258TIP3    H127738   0.676   3.927   1.846 -0.3688  2.1481 -1.8624
 9258TIP3    H227739   0.698   3.820   1.741  0.0471  0.2001  0.1534
 9259TIP3   OH227740   4.515   6.657   4.605 -0.7547 -0.1212  0.0872
 9259TIP3    H127741   4.516   6.739   4.654  0.0416 -0.0367 -0.0649
 9259TIP3    H227742   4.568   6.597   4.658 -0.9140 -0.3899 -0.0573
 9260TIP3   OH227743   6.480   6.005   0.155 -0.3669  0.4771 -0.4761
 9260TIP3    H127744   6.428   5.927   0.173 -0.9315  0.9535  0.0204
 9260TIP3    H227745   6.497   6.043   0.241 -2.5047  2.3989 -0.7920
 9261TIP3   OH227746   3.503   0.282   1.459  0.0291 -0.1986  0.4665
 9261TIP3    H127747   3.492   0.299   1.553  0.9377 -1.4032  0.8224
 9261TIP3    H227748   3.427   0.229   1.435 -1.6465  2.3111 -0.1473
 9262TIP3   OH227749   7.027   4.936   3.980  0.2063 -0.2190  0.3965
 9262TIP3    H127750   7.012   4.882   4.057  2.2732 -1.7839 -0.2117
 9262TIP3    H227751   7.116   4.969   3.989 -0.3109  1.4945 -0.2421
 9263TIP3   OH227752   4.420   0.198   4.976  0.7177 -0.1012 -0.3099
 9263TIP3    H127753   4.458   0.140   5.042 -0.6930  0.7921  1.3415
 9263TIP3    H227754   4.404   0.140   4.901 -1.2171 -2.0661  1.4778
 9264TIP3   OH227755   4.534   6.149   4.949 -0.4820 -0.8058 -0.1506
 9264TIP3    H127756   4.544   6.121   5.040  4.0969  0.0940 -0.1327
 9264TIP3    H227757   4.502   6.071   4.903 -2.5760 -1.3814  2.0623
 9265TIP3   OH227758   3.734   5.855   5.586  0.1573  0.1690 -0.0939
 9265TIP3    H127759   3.755   5.947   5.603  3.1938 -0.5482  0.6611
 9265TIP3    H227760   3.819   5.812   5.579 -1.1425 -2.8125  0.7647
 9266TIP3   OH227761   6.996   3.561   4.047  0.3195  0.2388  0.4485
 9266TIP3    H127762   7.014   3.655   4.048 -1.7222  0.6670  0.9563
 9266TIP3    H227763   6.988   3.537   4.139 -1.0026 -0.0055  0.2985
 9267TIP3   OH227764   0.127   3.153   5.491 -0.1826  0.0786  0.3398
 9267TIP3    H127765   0.046   3.183   5.533 -0.5706  0.6629 -0.7754
 9267TIP3    H227766   0.115   3.059   5.480 -0.4221  0.0549  0.7843
 9268TIP3   OH227767   7.083   6.305   3.092 -0.0732  0.1984  1.2370
 9268TIP3    H127768   7.117   6.394   3.083  0.6317 -0.0638  1.1884
 9268TIP3    H227769   6.994   6.316   3.124 -0.7019  0.9863 -0.6538
 9269TIP3   OH227770   6.997   0.540   5.617 -0.0677  0.4471  0.1683
 9269TIP3    H127771   6.970   0.609   5.556 -1.6330 -0.1077  0.1945
 9269TIP3    H227772   6.991   0.581   5.703 -1.1367  0.2799  0.1960
 9270TIP3   OH227773   6.987   5.432   2.429 -0.3618  0.2929 -0.5402
 9270TIP3    H127774   6.897   5.467   2.426 -0.5149 -0.1768 -2.2415
 9270TIP3    H227775   7.022   5.465   2.512 -2.3350 -0.1051  0.5264
 9271TIP3   OH227776   2.874   5.585   3.665 -0.2676 -0.4065  0.3883
 9271TIP3    H127777   2.818   5.652   3.625  0.6450  0.4236  0.4473
 9271TIP3    H227778   2.827   5.559   3.744 -0.7588 -0.0016  0.2326
 9272TIP3   OH227779   7.027   5.441   3.211  0.1370 -0.5035 -0.0200
 9272TIP3    H127780   6.966   5.515   3.211  2.9302  2.0251  0.5447
 9272TIP3    H227781   7.018   5.402   3.298 -1.5953 -1.0726 -0.4318
 9273TIP3   OH227782   0.177   6.648   0.354 -0.7215  0.0459 -0.5824
 9273TIP3    H127783   0.192   6.556   0.333 -1.4812 -0.0501 -0.7078
 9273TIP3    H227784   0.265   6.684   0.368 -0.4682 -0.9294  0.4748
 9274TIP3   OH227785   3.435   5.325   1.552  0.7775 -0.6122  0.2501
 9274TIP3    H127786   3.389   5.343   1.634  0.1541 -1.5135  0.1063
 9274TIP3    H227787   3.479   5.408   1.531 -0.2624  0.0737  0.7138
 9275TIP3   OH227788   5.650   0.560   5.667 -0.0892  0.0548 -0.6681
 9275TIP3    H127789   5.691   0.645   5.654 -0.3366  0.5999  1.6846
 9275TIP3    H227790   5.571   0.563   5.613 -0.0435  1.2896 -0.6915
 9276TIP3   OH227791   0.296   5.694   3.265  0.0798  0.0988 -0.8699
 9276TIP3    H127792   0.229   5.648   3.215 -0.0655  1.4002 -1.9196
 9276TIP3    H227793   0.377   5.681   3.217 -0.3268  2.6689 -2.4456
 9277TIP3   OH227794   4.533   5.715   2.715  0.2522  0.5177  0.6557
 9277TIP3    H127795   4.477   5.785   2.748 -1.1291 -0.4115  0.3648
 9277TIP3    H227796   4.520   5.643   2.777  1.3484  0.3674  0.7314
 9278TIP3   OH227797   0.837   5.736   3.092 -0.3478 -0.0150  0.1728
 9278TIP3    H127798   0.741   5.739   3.094 -0.3377  0.5907 -0.1917
 9278TIP3    H227799   0.863   5.748   3.183 -0.6070  0.1210  0.2287
 9279TIP3   OH227800   4.800   2.404   0.455 -0.8484  0.1635 -0.4235
 9279TIP3    H127801   4.851   2.443   0.384 -2.5323 -0.6177 -2.1624
 9279TIP3    H227802   4.859   2.341   0.496 -0.5078 -1.1843 -2.7703
 9280TIP3   OH227803   0.975   1.448   1.586  0.0485 -0.8139 -0.7527
 9280TIP3    H127804   1.038   1.491   1.644 -0.3030 -0.9810 -0.2450
 9280TIP3    H227805   0.990   1.354   1.599  0.2345 -0.8537 -1.2272
 9281TIP3   OH227806   6.258   0.792   1.877 -0.2154 -0.4852 -0.6760
 9281TIP3    H127807   6.333   0.833   1.833  0.9047 -1.2538  0.4601
 9281TIP3    H227808   6.287   0.703   1.896 -0.7213 -0.2486  1.4313
 9282TIP3   OH227809   3.843   4.637   1.565 -0.0245  0.7281 -0.5205
 9282TIP3    H127810   3.809   4.639   1.654  1.3359  0.9322  0.0134
 9282TIP3    H227811   3.779   4.586   1.516 -0.1579 -0.4565  0.8435
 9283TIP3   OH227812   2.330   0.227   1.165  0.4826  0.3389 -0.2838
 9283TIP3    H127813   2.401   0.269   1.214  1.2773 -0.7606 -0.4675
 9283TIP3    H227814   2.259   0.218   1.229  0.4966  1.4442 -0.0980
 9284TIP3   OH227815   1.754   4.163   4.796  0.1382 -0.9312  0.3678
 9284TIP3    H127816   1.847   4.140   4.794  0.9391  1.9640 -0.1560
 9284TIP3    H227817   1.734   4.172   4.890  0.7723 -0.2956  0.4530
 9285TIP3   OH227818   5.401   1.850   4.923 -0.0724  0.3312 -0.1256
 9285TIP3    H127819   5.389   1.877   4.832 -1.1182  0.0667 -0.0759
 9285TIP3    H227820   5.419   1.757   4.919  0.0888  0.3590 -0.0710
 9286TIP3   OH227821   1.087   3.017   3.619 -0.1276  0.0139 -0.2526
 9286TIP3    H127822   1.121   2.997   3.706 -0.7190  0.5337  0.1034
 9286TIP3    H227823   1.114   3.107   3.603  3.5674 -1.2210 -2.3390
 9287TIP3   OH227824   5.591   1.171   5.284 -0.4354  0.0713  0.3071
 9287TIP3    H127825   5.606   1.141   5.195  0.3585  1.4484 -0.0616
 9287TIP3    H227826   5.496   1.179   5.292 -0.4880  0.5161 -0.6228
 9288TIP3   OH227827   6.967   2.812   3.467  0.5670 -0.7003  0.0890
 9288TIP3    H127828   7.037   2.863   3.427  0.4676 -0.9663 -0.4271
 9288TIP3    H227829   7.009   2.766   3.540  0.1193  2.2303  2.3585
 9289TIP3   OH227830   2.486   1.148   2.087 -0.1989  0.2987 -0.0608
 9289TIP3    H127831   2.551   1.218   2.088 -1.1063  1.1665 -0.4721
 9289TIP3    H227832   2.510   1.093   2.161  0.5087  1.0517  0.2907
 9290TIP3   OH227833   3.910   0.683   4.971  1.0930 -0.0073 -0.1235
 9290TIP3    H127834   3.979   0.630   5.011  2.7007  0.9928 -1.4393
 9290TIP3    H227835   3.847   0.697   5.042  2.2627 -0.8961  1.1595
 9291TIP3   OH227836   6.431   2.979   5.309  0.0929  0.8298  0.4656
 9291TIP3    H127837   6.504   2.965   5.249  0.3298  1.5057  0.5937
 9291TIP3    H227838   6.422   2.896   5.356 -0.8593 -0.1442 -1.3060
 9292TIP3   OH227839   5.582   2.605   0.238  0.3845 -0.2128 -0.1255
 9292TIP3    H127840   5.660   2.553   0.257  0.0931 -0.6846 -0.2016
 9292TIP3    H227841   5.586   2.620   0.143  0.6526  0.2052 -0.0487
 9293TIP3   OH227842   6.813   6.755   2.302 -0.0411 -0.3926 -0.0976
 9293TIP3    H127843   6.721   6.734   2.285  0.4518 -3.1469  0.1317
 9293TIP3    H227844   6.858   6.735   2.220  0.4927 -0.1078  0.1208
 9294TIP3   OH227845   4.077   0.599   3.833  0.1858 -0.3764  0.2989
 9294TIP3    H127846   4.100   0.521   3.883 -1.1913 -0.0450  1.5091
 9294TIP3    H227847   4.125   0.670   3.875 -0.7013 -0.1521  0.9539
 9295TIP3   OH227848   4.134   5.514   2.457 -0.2255 -0.1014  0.0613
 9295TIP3    H127849   4.107   5.526   2.549 -0.3033  0.2748 -0.0084
 9295TIP3    H227850   4.189   5.589   2.438  1.6083 -1.2767  0.4460
 9296TIP3   OH227851   2.884   3.952   1.945 -0.0842 -0.5394  0.3200
 9296TIP3    H127852   2.967   3.938   1.901 -1.1996 -1.1022 -1.7712
 9296TIP3    H227853   2.897   3.921   2.034  1.2984 -2.7053 -0.5771
 9297TIP3   OH227854   5.135   4.932   5.118  0.2076 -0.2516 -0.6677
 9297TIP3    H127855   5.119   5.014   5.071  0.6689 -0.2764 -0.8772
 9297TIP3    H227856   5.168   4.872   5.051  0.7808 -0.3161 -0.3371
 9298TIP3   OH227857   0.348   0.694   3.252  0.0502  0.1631  0.4949
 9298TIP3    H127858   0.265   0.668   3.293  0.5740 -0.5749  1.1075
 9298TIP3    H227859   0.343   0.790   3.246 -1.2747  0.0620 -0.4059
 9299TIP3   OH227860   3.409   1.617   5.762 -0.1679  0.1567 -0.4103
 9299TIP3    H127861   3.389   1.645   5.851  2.2491 -0.3798  0.3858
 9299TIP3    H227862   3.445   1.695   5.719 -2.0209  0.6188 -1.2143
 9300TIP3   OH227863   1.116   2.997   0.153 -0.2111 -0.1174  0.0513
 9300TIP3    H127864   1.096   3.075   0.203  0.0706  0.8226 -1.2517
 9300TIP3    H227865   1.206   2.975   0.176  1.0406  2.1348 -2.2728
 9301TIP3   OH227866   4.972   4.335   0.254  0.7919  0.6003  0.4095
 9301TIP3    H127867   5.054   4.286   0.244  1.1001  0.6440  2.4680
 9301TIP3    H227868   4.996   4.415   0.300 -0.4099  0.5452  1.1892
 9302TIP3   OH227869   3.354   6.519   3.485  0.3706  0.2267  0.2481
 9302TIP3    H127870   3.369   6.574   3.562  3.0636 -0.7013  0.5099
 9302TIP3    H227871   3.369   6.430   3.516  2.4043 -0.1003 -1.4518
 9303TIP3   OH227872   4.999   5.248   3.139  0.2011  0.1507  0.0142
 9303TIP3    H127873   5.058   5.301   3.085 -1.8481  1.8728 -0.6709
 9303TIP3    H227874   5.018   5.276   3.228  0.7647  0.3327 -0.1546
 9304TIP3   OH227875   5.581   4.042   3.649  0.7805  0.0779 -0.5032
 9304TIP3    H127876   5.566   4.110   3.714 -2.5586 -1.2070  0.2889
 9304TIP3    H227877   5.649   3.986   3.687  0.5232  0.6235  0.8156
 9305TIP3   OH227878   4.353   3.878   4.920 -0.1227  0.5983 -0.6810
 9305TIP3    H127879   4.308   3.958   4.946 -0.2021  0.0285  1.0486
 9305TIP3    H227880   4.322   3.861   4.831  0.6027  2.9441 -1.4485
 9306TIP3   OH227881   6.657   2.413   1.956  0.3933 -0.0222 -0.7067
 9306TIP3    H127882   6.616   2.326   1.956  0.9040 -0.2819  0.4183
 9306TIP3    H227883   6.742   2.400   1.914 -0.1986  0.2890 -2.0366
 9307TIP3   OH227884   6.071   0.841   2.357  0.0537  0.1759  0.0771
 9307TIP3    H127885   6.058   0.923   2.406 -0.9841  0.3918 -0.5193
 9307TIP3    H227886   6.146   0.859   2.300  0.0660  0.5874  0.2195
 9308TIP3   OH227887   2.472   2.233   1.529  0.3556  0.4633 -0.3693
 9308TIP3    H127888   2.398   2.194   1.483  0.6324  0.6113 -0.9522
 9308TIP3    H227889   2.535   2.161   1.538  0.3727  0.4765 -0.3828
 9309TIP3   OH227890   6.809   6.115   2.391  0.4807  0.0403  0.6255
 9309TIP3    H127891   6.881   6.120   2.454  0.6867  1.3331  0.3319
 9309TIP3    H227892   6.843   6.160   2.313 -0.7588  1.0108  0.6208
 9310TIP3   OH227893   4.454   1.168   4.640  0.0037  0.1863 -0.4157
 9310TIP3    H127894   4.538   1.206   4.665 -0.4549 -0.2352  1.9792
 9310TIP3    H227895   4.474   1.115   4.562  1.7741  0.6874 -0.3526
 9311TIP3   OH227896   6.113   3.481   4.878 -0.0635  0.8842  0.3038
 9311TIP3    H127897   6.027   3.516   4.856  0.1994  1.1623 -0.2955
 9311TIP3    H227898   6.175   3.543   4.839  0.4055  0.2044 -0.0401
 9312TIP3   OH227899   6.163   0.864   3.420 -0.9603  0.1756  0.5529
 9312TIP3    H127900   6.084   0.822   3.454 -1.2842 -0.0505 -0.4512
 9312TIP3    H227901   6.137   0.900   3.335 -0.0104  0.1679  0.2451
 9313TIP3   OH227902   5.499   2.256   5.273  0.4231  0.3409 -0.0772
 9313TIP3    H127903   5.432   2.301   5.221  0.4296  0.2175 -0.1931
 9313TIP3    H227904   5.454   2.182   5.312  0.9312 -0.9297 -1.7770
 9314TIP3   OH227905   5.567   3.861   0.735  1.1408  0.0759 -0.1510
 9314TIP3    H127906   5.517   3.800   0.790 -0.5634  0.7009 -0.9452
 9314TIP3    H227907   5.622   3.805   0.681 -0.1067 -0.7776 -0.5935
 9315TIP3   OH227908   3.398   1.119   4.271 -0.3737 -0.2732 -0.1357
 9315TIP3    H127909   3.487   1.095   4.246  0.3879  0.6715  1.5212
 9315TIP3    H227910   3.343   1.084   4.201  1.3110 -0.6833 -1.3001
 9316TIP3   OH227911   5.969   0.076   2.685 -0.0417 -0.3503 -0.2667
 9316TIP3    H127912   5.885   0.066   2.640 -0.5576  0.1188  0.5764
 9316TIP3    H227913   6.026   0.116   2.619 -0.8630  0.5698 -0.4395
 9317TIP3   OH227914   3.723   3.739   2.563  0.2240 -0.0377 -0.2594
 9317TIP3    H127915   3.777   3.773   2.635  0.4259 -0.8036 -0.0335
 9317TIP3    H227916   3.654   3.804   2.552  0.3380  0.2149  0.4548
 9318TIP3   OH227917   3.320   1.697   1.602  0.0385 -0.3218 -0.3341
 9318TIP3    H127918   3.355   1.760   1.538 -1.2864  0.6276 -0.1540
 9318TIP3    H227919   3.380   1.703   1.676 -0.2905  1.0675 -0.1517
 9319TIP3   OH227920   5.425   0.873   5.266 -0.8282 -0.0203 -0.1115
 9319TIP3    H127921   5.336   0.894   5.294 -0.8567 -1.3584  0.9462
 9319TIP3    H227922   5.470   0.850   5.347  0.3200  0.0611 -0.7073
 9320TIP3   OH227923   2.270   2.657   3.185  0.0336 -0.0690 -0.1600
 9320TIP3    H127924   2.195   2.610   3.147  1.7649 -1.3492 -2.1752
 9320TIP3    H227925   2.322   2.684   3.110  1.7254  0.6128  1.1976
 9321TIP3   OH227926   0.098   5.286   0.282  0.0378 -0.1179 -0.0381
 9321TIP3    H127927   0.110   5.214   0.220  2.4486  0.8585 -0.8050
 9321TIP3    H227928   0.127   5.364   0.235  0.4263  0.9002  1.7966
 9322TIP3   OH227929   2.198   5.752   3.700  0.2912  0.2364  0.3077
 9322TIP3    H127930   2.259   5.721   3.634 -0.2668 -0.3319  0.0471
 9322TIP3    H227931   2.215   5.698   3.777  0.9345  0.8919  0.6363
 9323TIP3   OH227932   3.773   5.335   3.119 -0.2928 -0.2030  0.0982
 9323TIP3    H127933   3.754   5.359   3.210  1.3415 -0.5003  0.5520
 9323TIP3    H227934   3.742   5.245   3.112  0.7817 -0.6536  0.7962
 9324TIP3   OH227935   1.462   0.348   2.056  0.4636 -0.0287 -0.6468
 9324TIP3    H127936   1.517   0.412   2.010  1.8179 -0.8767 -0.2646
 9324TIP3    H227937   1.505   0.264   2.041 -0.2449 -0.6048  0.4154
 9325TIP3   OH227938   1.135   6.610   1.579  0.2383 -0.6826  0.1159
 9325TIP3    H127939   1.198   6.675   1.546  0.6428  0.4472  2.7974
 9325TIP3    H227940   1.169   6.526   1.548  1.1459  0.1741 -1.3371
 9326TIP3   OH227941   2.363   6.037   1.224  0.2849 -0.5243 -0.2885
 9326TIP3    H127942   2.433   6.071   1.169  0.4487 -0.2909  0.0585
 9326TIP3    H227943   2.373   6.084   1.307  0.1010 -0.9399 -0.0292
 9327TIP3   OH227944   5.445   4.367   4.624 -0.0619  0.0624 -0.4085
 9327TIP3    H127945   5.481   4.407   4.703 -0.6093  0.4470 -0.3549
 9327TIP3    H227946   5.352   4.356   4.642 -0.0262 -0.6827 -0.6558
 9328TIP3   OH227947   4.196   3.845   3.867 -0.8309 -0.1994 -0.3954
 9328TIP3    H127948   4.226   3.920   3.919 -1.7793 -0.5017  0.6619
 9328TIP3    H227949   4.139   3.883   3.800  0.9420  0.2613 -1.7016
 9329TIP3   OH227950   1.257   3.755   3.309  0.3842 -0.4316 -0.4839
 9329TIP3    H127951   1.320   3.751   3.381 -1.0112 -0.3253  0.7984
 9329TIP3    H227952   1.194   3.685   3.329 -0.0043 -0.4259 -1.6403
 9330TIP3   OH227953   2.074   5.854   2.391 -0.0704 -0.0013  0.0602
 9330TIP3    H127954   2.058   5.835   2.483 -2.4509 -2.2633 -0.7069
 9330TIP3    H227955   2.005   5.808   2.344  0.2420  2.1606 -2.8246
 9331TIP3   OH227956   4.135   6.593   3.668  0.0396 -0.1231  0.6810
 9331TIP3    H127957   4.072   6.655   3.707 -0.8914 -0.0536 -0.8517
 9331TIP3    H227958   4.143   6.621   3.577  1.6564 -0.6750  0.6316
 9332TIP3   OH227959   0.157   3.158   1.915  0.2794  1.0647  0.0331
 9332TIP3    H127960   0.122   3.223   1.975 -1.1237 -1.1243  1.7509
 9332TIP3    H227961   0.079   3.114   1.880  1.1802 -0.0287 -0.6737
 9333TIP3   OH227962   0.520   6.309   3.605  0.3423 -0.2827  0.4816
 9333TIP3    H127963   0.519   6.374   3.675  0.7637 -1.7686  1.9174
 9333TIP3    H227964   0.428   6.297   3.582  0.3310  1.9387 -0.9513
 9334TIP3   OH227965   2.761   5.214   2.221  0.1982  0.2775  0.0176
 9334TIP3    H127966   2.725   5.136   2.179  0.7286  0.5685 -1.0283
 9334TIP3    H227967   2.695   5.240   2.285  0.0189 -1.0146  0.3753
 9335TIP3   OH227968   1.531   3.321   3.958 -0.0890 -0.3692  0.4211
 9335TIP3    H127969   1.585   3.313   3.880 -2.1696  0.3021 -1.1718
 9335TIP3    H227970   1.556   3.247   4.013  1.9598 -0.4184 -0.5015
 9336TIP3   OH227971   1.198   5.675   1.599 -0.3009 -0.1642 -0.2664
 9336TIP3    H127972   1.224   5.638   1.515  1.8918 -0.8283  0.6411
 9336TIP3    H227973   1.104   5.654   1.606 -0.5494 -0.0423 -2.5290
 9337TIP3   OH227974   6.806   1.046   0.630  0.4311 -0.3674 -0.2918
 9337TIP3    H127975   6.779   0.970   0.683 -0.0807 -1.3814 -1.9238
 9337TIP3    H227976   6.822   1.115   0.694 -1.6094 -1.0864  1.1011
 9338TIP3   OH227977   2.510   2.339   4.142 -0.2850  0.0057  0.3588
 9338TIP3    H127978   2.426   2.369   4.107  0.0476 -0.8756 -1.2585
 9338TIP3    H227979   2.540   2.272   4.081  1.9069  0.7272  0.5371
 9339TIP3   OH227980   6.033   1.256   5.926 -0.0407  0.2090 -0.0576
 9339TIP3    H127981   6.076   1.229   5.844  0.5911  1.3297 -0.1214
 9339TIP3    H227982   5.949   1.292   5.898 -0.2141 -0.2451 -0.1225
 9340TIP3   OH227983   3.427   5.201   2.360 -0.6416 -0.1797 -0.1473
 9340TIP3    H127984   3.390   5.144   2.292 -1.7661  0.1914  0.1358
 9340TIP3    H227985   3.484   5.261   2.312 -1.7633  0.3668 -0.8458
 9341TIP3   OH227986   4.717   6.230   1.067  0.2691  0.3829 -0.2920
 9341TIP3    H127987   4.648   6.274   1.017  1.2143 -0.0512 -2.0558
 9341TIP3    H227988   4.762   6.175   1.003  1.6735 -0.0587  1.0155
 9342TIP3   OH227989   3.765   2.481   1.244 -0.7072  0.4968 -0.1444
 9342TIP3    H127990   3.840   2.521   1.287 -0.2956 -0.3948 -0.0011
 9342TIP3    H227991   3.689   2.530   1.276 -0.4485 -0.2667  1.7883
 9343TIP3   OH227992   0.526   4.525   2.522  0.3237  0.3357 -0.0374
 9343TIP3    H127993   0.553   4.433   2.524  1.7095  0.7118  0.1198
 9343TIP3    H227994   0.466   4.534   2.596 -0.4444 -0.5997 -0.5182
 9344TIP3   OH227995   4.334   5.440   1.766  0.1881 -0.1803 -0.3281
 9344TIP3    H127996   4.364   5.513   1.821 -1.1989 -0.3194  0.6820
 9344TIP3    H227997   4.260   5.476   1.718  0.9278 -0.2839 -1.5722
 9345TIP3   OH227998   3.746   3.345   2.701  0.9193  0.5584 -0.9533
 9345TIP3    H127999   3.833   3.308   2.683  1.0122 -0.5348  1.3805
 9345TIP3    H228000   3.689   3.269   2.710  0.2987  1.1260  0.0896
 9346TIP3   OH228001   5.789   3.852   3.149 -0.3400  0.2346 -0.3785
 9346TIP3    H128002   5.722   3.811   3.203 -1.8947  0.7494 -1.8454
 9346TIP3    H228003   5.872   3.820   3.185 -1.4124 -2.5829 -0.2231
 9347TIP3   OH228004   2.006   4.265   5.362 -0.2881  0.5350  1.1956
 9347TIP3    H128005   1.929   4.316   5.387 -0.4437  0.4230  0.9472
 9347TIP3    H228006   1.989   4.177   5.398 -1.6691 -0.3493 -1.3369
 9348TIP3   OH228007   1.873   0.024   3.850  0.2392  0.0820  0.1408
 9348TIP3    H128008   1.863  -0.030   3.928  0.4304 -0.2401 -0.0547
 9348TIP3    H228009   1.805   0.091   3.858  0.5883  0.3630  0.8335
 9349TIP3   OH228010   2.302   5.627   5.574 -0.0037  0.0924 -0.1315
 9349TIP3    H128011   2.326   5.582   5.493  1.4898  0.2670  0.1876
 9349TIP3    H228012   2.210   5.606   5.587 -0.1091 -0.4116 -1.5666
 9350TIP3   OH228013   0.594   3.411   1.583 -0.2268  0.3583 -0.1431
 9350TIP3    H128014   0.623   3.333   1.535  1.2227 -0.0395  1.2763
 9350TIP3    H228015   0.507   3.430   1.549 -0.9573 -2.3685  0.0091
 9351TIP3   OH228016   1.599   6.568   1.856  0.2240 -0.1588  0.1122
 9351TIP3    H128017   1.519   6.621   1.857  0.4873  0.2745  1.4961
 9351TIP3    H228018   1.571   6.481   1.882  0.2008  0.0165  0.6914
 9352TIP3   OH228019   4.101   2.384   4.481  0.2438  0.3852 -0.1811
 9352TIP3    H128020   4.114   2.381   4.387 -0.0880 -0.1279 -0.2170
 9352TIP3    H228021   4.050   2.305   4.501 -0.0198  0.6888  0.3734
 9353TIP3   OH228022   2.327   2.322   2.081 -0.0001  0.1767  0.7868
 9353TIP3    H128023   2.402   2.320   2.023 -0.0351 -0.3420  0.7615
 9353TIP3    H228024   2.323   2.235   2.120 -0.0121  0.4968  1.5231
 9354TIP3   OH228025   0.237   2.176   5.629 -0.1842 -0.1637  0.1470
 9354TIP3    H128026   0.191   2.206   5.707  0.2692  0.8868  0.0231
 9354TIP3    H228027   0.304   2.116   5.662  1.4104  1.8926  0.8276
 9355TIP3   OH228028   3.475   3.274   0.984  0.2591 -0.3056  0.1166
 9355TIP3    H128029   3.404   3.217   0.954  1.3385 -1.2921 -0.6510
 9355TIP3    H228030   3.431   3.341   1.036 -0.9783 -2.3239  1.8230
 9356TIP3   OH228031   1.696   5.329   4.785 -0.1866  0.3745  0.3185
 9356TIP3    H128032   1.709   5.420   4.809  1.5084  0.2765 -0.1568
 9356TIP3    H228033   1.695   5.329   4.689  1.8044 -0.3307  0.2644
 9357TIP3   OH228034   2.692   2.116   5.618  0.0039 -0.7294  0.5202
 9357TIP3    H128035   2.716   2.040   5.670  2.0469  0.0745  0.8448
 9357TIP3    H228036   2.619   2.086   5.563 -0.7752 -2.2070  2.2818
 9358TIP3   OH228037   3.670   1.060   4.251  0.3076  0.4027 -0.0091
 9358TIP3    H128038   3.723   1.132   4.284  1.2222 -1.2461  2.3876
 9358TIP3    H228039   3.726   1.017   4.186  0.0020  1.4187 -0.9783
 9359TIP3   OH228040   1.436   4.840   0.483 -0.3386 -0.3595 -0.3333
 9359TIP3    H128041   1.499   4.911   0.494 -0.7229 -0.0407 -0.1573
 9359TIP3    H228042   1.474   4.766   0.531 -0.8898  0.3230  1.2318
 9360TIP3   OH228043   2.112   1.510   2.917  0.4523 -0.0070  0.0566
 9360TIP3    H128044   2.171   1.554   2.979 -0.8941 -0.0058  1.4014
 9360TIP3    H228045   2.048   1.576   2.894  1.3216  0.1915 -1.9295
 9361TIP3   OH228046   6.060   2.787   5.009 -0.3328  0.1132 -0.5369
 9361TIP3    H128047   6.081   2.786   5.103  0.7108 -0.7911 -0.7587
 9361TIP3    H228048   6.017   2.871   4.996 -0.4184  0.2979  0.7414
 9362TIP3   OH228049   2.910   0.790   0.002 -0.0597 -0.1360 -0.2992
 9362TIP3    H128050   2.871   0.784   0.089 -0.5905 -1.2849 -0.5939
 9362TIP3    H228051   3.003   0.806   0.018 -0.1089 -0.5930  0.4814
 9363TIP3   OH228052   1.942   5.757   5.569  0.4312  0.0330  0.0619
 9363TIP3    H128053   1.937   5.825   5.636 -0.1338 -0.2680  0.3292
 9363TIP3    H228054   1.976   5.680   5.615  0.4508 -0.0547 -0.0964
 9364TIP3   OH228055   6.121   2.206   5.831 -0.5981 -0.2633  0.8301
 9364TIP3    H128056   6.062   2.239   5.899  0.2601 -0.2620  1.5885
 9364TIP3    H228057   6.148   2.120   5.862  1.0013  0.3675  1.2637
 9365TIP3   OH228058   6.849   0.941   3.382 -0.4859 -0.2630  0.4838
 9365TIP3    H128059   6.865   1.035   3.370 -2.5369  0.3837  2.1098
 9365TIP3    H228060   6.907   0.915   3.453 -0.9798  0.1656  1.0559
 9366TIP3   OH228061   5.487   1.605   4.903 -0.0113 -0.1532 -0.9946
 9366TIP3    H128062   5.436   1.527   4.885 -0.3411  0.0941 -1.1437
 9366TIP3    H228063   5.521   1.632   4.818 -0.6863  0.4069 -1.0917
 9367TIP3   OH228064   1.838   4.787   5.424 -0.6915 -0.0931 -0.4619
 9367TIP3    H128065   1.855   4.833   5.506 -0.4695 -0.1463 -0.4777
 9367TIP3    H228066   1.847   4.854   5.356 -2.2211  0.2744 -0.3541
 9368TIP3   OH228067   3.620   3.991   2.811 -0.1521  0.3889  0.1573
 9368TIP3    H128068   3.705   3.958   2.782 -0.8932 -0.6667 -0.9033
 9368TIP3    H228069   3.578   4.024   2.732 -1.9523 -1.9418  0.0199
 9369TIP3   OH228070   7.083   1.694   0.053  0.4613  0.2886 -0.5349
 9369TIP3    H128071   7.149   1.679   0.121 -1.2296  1.6978  1.5390
 9369TIP3    H228072   7.032   1.613   0.052  0.1125  0.4791  0.3748
 9370TIP3   OH228073   4.849   6.651   4.464  0.2485 -0.0186 -0.4177
 9370TIP3    H128074   4.942   6.638   4.480  0.5592  1.4830 -0.8164
 9370TIP3    H228075   4.810   6.565   4.475  2.0881 -1.3243 -2.9406
 9371TIP3   OH228076   2.810   0.343   4.332  0.3853  0.1967  0.2143
 9371TIP3    H128077   2.743   0.285   4.296  0.7384 -0.0700 -0.0233
 9371TIP3    H228078   2.766   0.427   4.343  0.2357  0.2494 -0.7272
 9372TIP3   OH228079   6.873   1.349   2.171 -0.5751  0.2000 -0.9029
 9372TIP3    H128080   6.855   1.426   2.224  0.0058  0.4752 -1.0964
 9372TIP3    H228081   6.789   1.303   2.166 -0.4539 -0.3038  0.9916
 9373TIP3   OH228082   1.415   5.385   4.180 -0.2815  0.2829  0.4768
 9373TIP3    H128083   1.496   5.334   4.174 -0.7086 -0.4094  0.6016
 9373TIP3    H228084   1.412   5.415   4.271  1.7191  3.4628 -0.3081
 9374TIP3   OH228085   5.196   1.433   3.150  0.3302 -0.0184 -0.5509
 9374TIP3    H128086   5.169   1.342   3.136  0.2130  0.0597 -0.8295
 9374TIP3    H228087   5.291   1.428   3.160  0.1913 -0.3410  0.7958
 9375TIP3   OH228088   0.448   3.813   2.483  0.2224 -0.2659  0.2479
 9375TIP3    H128089   0.388   3.885   2.499  0.6577  0.2646 -0.4349
 9375TIP3    H228090   0.485   3.832   2.396  1.0486 -0.8029  0.4755
 9376TIP3   OH228091   4.052   5.983   5.002  0.2065  0.0498 -0.2583
 9376TIP3    H128092   4.100   6.053   5.045  0.9414  0.4883 -1.7215
 9376TIP3    H228093   4.120   5.928   4.963 -0.3988 -0.9707  0.0960
 9377TIP3   OH228094   0.891   1.206   3.548 -0.6545  0.3597 -0.1123
 9377TIP3    H128095   0.854   1.167   3.628  1.6977 -0.5779  0.6115
 9377TIP3    H228096   0.849   1.292   3.541 -0.7547  0.5606  2.2704
 9378TIP3   OH228097   5.083   4.319   2.176  0.2279  0.4308  0.8751
 9378TIP3    H128098   5.124   4.236   2.153  0.5633  0.6041  0.8469
 9378TIP3    H228099   5.004   4.294   2.224  0.5416  0.0993  1.2234
 9379TIP3   OH228100   6.000   5.258   2.362  0.6447  0.0768 -0.0112
 9379TIP3    H128101   6.013   5.343   2.321  2.3549 -0.6862 -1.1341
 9379TIP3    H228102   5.983   5.198   2.290 -1.2842 -0.4687  0.8118
 9380TIP3   OH228103   2.832   1.890   3.327  0.2041  0.0960  0.1234
 9380TIP3    H128104   2.877   1.974   3.316 -0.9567  0.7863  0.5521
 9380TIP3    H228105   2.770   1.886   3.254 -2.6756  1.5706  2.2659
 9381TIP3   OH228106   0.508   2.700   4.168 -0.2753 -1.1624  0.3563
 9381TIP3    H128107   0.481   2.609   4.184 -2.5924 -0.8295 -1.1652
 9381TIP3    H228108   0.524   2.736   4.255 -0.9337 -2.5641  1.0926
 9382TIP3   OH228109   2.234   2.992   2.574 -0.1098  0.4257 -0.3534
 9382TIP3    H128110   2.200   2.968   2.488  0.1673 -2.7523  0.2953
 9382TIP3    H228111   2.165   3.046   2.613 -1.0179  0.4380 -1.8774
 9383TIP3   OH228112   1.865   4.593   5.053 -0.4930 -0.5106  0.5892
 9383TIP3    H128113   1.919   4.671   5.061  0.2182 -0.7969 -0.9339
 9383TIP3    H228114   1.860   4.557   5.141  0.0798  0.6510  1.1074
 9384TIP3   OH228115   4.981   6.282   4.328 -0.2211  0.2738  0.0479
 9384TIP3    H128116   4.934   6.315   4.404 -1.0503 -0.6721 -0.0513
 9384TIP3    H228117   5.011   6.362   4.283 -0.3752  0.8498  0.9394
 9385TIP3   OH228118   1.756   4.334   5.471  0.2325  0.4055  0.7586
 9385TIP3    H128119   1.729   4.244   5.489 -1.6344  0.5384 -1.0307
 9385TIP3    H228120   1.677   4.377   5.440  1.9464  1.4944 -2.6043
 9386TIP3   OH228121   2.957   1.682   3.744  0.2750  0.5004 -0.3909
 9386TIP3    H128122   2.936   1.773   3.762  0.2812  0.9132 -2.2374
 9386TIP3    H228123   2.979   1.680   3.651  0.6047 -1.3297 -0.3238
 9387TIP3   OH228124   0.850   2.789   4.893 -0.0083 -0.8751 -0.0863
 9387TIP3    H128125   0.795   2.831   4.827  0.4809 -1.1411 -0.6837
 9387TIP3    H228126   0.830   2.835   4.974  0.8559  0.8473 -0.7917
 9388TIP3   OH228127   6.607   5.200   2.907 -0.3705  0.3551  0.3340
 9388TIP3    H128128   6.514   5.205   2.884 -0.7480  0.1056  1.6893
 9388TIP3    H228129   6.610   5.228   2.999  0.6030 -1.5345  0.9225
 9389TIP3   OH228130   0.790   4.417   5.728 -0.0116 -0.2747  0.8719
 9389TIP3    H128131   0.799   4.501   5.683  0.7814 -0.8774 -0.1446
 9389TIP3    H228132   0.853   4.421   5.800  4.4012 -1.9948 -2.4095
 9390TIP3   OH228133   2.111   6.678   1.771 -0.3482 -0.4756 -0.4914
 9390TIP3    H128134   2.034   6.685   1.828  0.3609 -0.1979  0.4679
 9390TIP3    H228135   2.173   6.625   1.821  0.7574  0.7864 -0.4431
 9391TIP3   OH228136   6.130   3.734   0.742  0.0858  0.3323 -0.1302
 9391TIP3    H128137   6.190   3.666   0.773  0.8188  1.1917  0.3737
 9391TIP3    H228138   6.086   3.765   0.821 -0.2611  0.4276 -0.3615
 9392TIP3   OH228139   4.838   3.847   4.922 -0.2142  0.0521  0.0193
 9392TIP3    H128140   4.763   3.905   4.932 -0.5856 -0.4114 -0.0510
 9392TIP3    H228141   4.843   3.830   4.828 -1.3722 -1.6610  0.2257
 9393TIP3   OH228142   6.134   5.898   0.301  0.0098 -0.1930 -0.0577
 9393TIP3    H128143   6.075   5.958   0.257  0.8794  0.3126 -0.5691
 9393TIP3    H228144   6.159   5.834   0.234  1.3642  0.6019 -0.3524
 9394TIP3   OH228145   1.884   2.775   3.890 -0.3548 -0.0298  0.2034
 9394TIP3    H128146   1.836   2.857   3.900 -1.7573 -0.8641  0.6399
 9394TIP3    H228147   1.825   2.708   3.926  0.9779 -1.1606  0.3888
 9395TIP3   OH228148   0.066   6.724   1.358  0.1110 -0.1449  0.1816
 9395TIP3    H128149   0.160   6.740   1.362 -0.1459  1.3855  1.9829
 9395TIP3    H228150   0.043   6.738   1.267  1.3539  1.4905  0.0722
 9396TIP3   OH228151   7.239   3.443   4.290  0.3399  0.2487 -0.1371
 9396TIP3    H128152   7.159   3.471   4.246 -0.1414 -1.2610 -0.2791
 9396TIP3    H228153   7.244   3.349   4.272  0.1405 -0.4634  2.9949
 9397TIP3   OH228154   1.327   1.762   3.293  0.7134  0.3283  0.0591
 9397TIP3    H128155   1.422   1.758   3.283  0.6512 -1.1034 -0.1820
 9397TIP3    H228156   1.301   1.671   3.307 -0.6351  0.6942  0.0437
 9398TIP3   OH228157   5.096   5.060   5.774 -0.1852  0.5838 -0.3977
 9398TIP3    H128158   5.096   5.070   5.679  0.4084 -2.0088 -0.7488
 9398TIP3    H228159   5.162   5.121   5.805 -0.1989  1.2656 -1.6674
 9399TIP3   OH228160   6.702   3.546   3.348  0.2685  1.0097  0.3754
 9399TIP3    H128161   6.787   3.532   3.307  0.0744 -0.2185  0.3494
 9399TIP3    H228162   6.723   3.577   3.436  0.7175  1.5289  0.0918
 9400TIP3   OH228163   1.165   0.906   3.709  0.1991  0.3860 -0.4545
 9400TIP3    H128164   1.125   0.911   3.622 -1.0038 -3.3776 -0.2971
 9400TIP3    H228165   1.091   0.891   3.768  1.1983  0.8223  0.9433
 9401TIP3   OH228166   5.178   2.581   3.267  0.0619 -0.1699  0.0429
 9401TIP3    H128167   5.157   2.598   3.359  0.4880  0.3885  0.0436
 9401TIP3    H228168   5.273   2.591   3.262  0.0576 -0.3576 -0.4248
 9402TIP3   OH228169   0.581   2.222   4.301 -0.6691 -0.2086 -0.6935
 9402TIP3    H128170   0.565   2.230   4.207 -1.1820  3.0629 -0.4556
 9402TIP3    H228171   0.494   2.208   4.338 -0.3631 -2.3995 -0.7124
 9403TIP3   OH228172   6.980   5.956   5.553  0.7205 -0.5537 -0.6832
 9403TIP3    H128173   6.986   5.877   5.500  1.6659 -1.6891  1.0295
 9403TIP3    H228174   6.983   5.925   5.643  0.0146  1.3683  0.0575
 9404TIP3   OH228175   5.909   5.561   0.411  0.0787 -0.4220  0.2953
 9404TIP3    H128176   5.821   5.552   0.373 -0.6019 -1.1405  1.9533
 9404TIP3    H228177   5.915   5.489   0.474  1.1019  0.7783  1.6408
 9405TIP3   OH228178   2.334   0.438   2.332 -0.3767 -0.4936  0.8266
 9405TIP3    H128179   2.398   0.388   2.383 -0.0852  0.4133  1.3711
 9405TIP3    H228180   2.258   0.444   2.389 -0.5049 -0.5180  0.6595
 9406TIP3   OH228181   4.496   2.121   5.651 -0.0814 -0.6759  0.2189
 9406TIP3    H128182   4.575   2.156   5.610 -1.9919  1.2541 -2.1125
 9406TIP3    H228183   4.442   2.092   5.578 -2.7782  0.8892  1.4613
 9407TIP3   OH228184   5.062   5.582   4.320  0.0534 -0.4748 -0.3672
 9407TIP3    H128185   5.121   5.580   4.246  0.0384  1.3579 -0.4903
 9407TIP3    H228186   5.113   5.622   4.391 -0.4942 -0.4636  0.0330
 9408TIP3   OH228187   7.063   4.580   4.732 -0.2753 -0.0940 -0.1533
 9408TIP3    H128188   7.091   4.626   4.811 -1.0100 -1.1311  0.7403
 9408TIP3    H228189   6.967   4.583   4.735 -0.3497  1.4548 -1.9907
 9409TIP3   OH228190   3.220   0.910   0.804  0.5350 -0.1253  0.6708
 9409TIP3    H128191   3.280   0.880   0.873 -0.4112  0.4197  1.7639
 9409TIP3    H228192   3.135   0.872   0.828 -0.1055  1.2257  0.5934
 9410TIP3   OH228193   2.300   3.936   2.932  0.3682 -0.2921 -0.6206
 9410TIP3    H128194   2.237   3.869   2.905  0.1193  0.3896 -1.7986
 9410TIP3    H228195   2.383   3.907   2.894  0.1683  0.2821 -1.5259
 9411TIP3   OH228196   6.879   2.129   0.682 -0.0520  0.0762  0.5544
 9411TIP3    H128197   6.972   2.132   0.658 -0.1557 -1.3843 -0.1204
 9411TIP3    H228198   6.873   2.183   0.761  1.6886 -1.2186  1.6382
 9412TIP3   OH228199   2.414   1.617   3.427  0.0621 -0.0372  0.0747
 9412TIP3    H128200   2.410   1.701   3.381 -0.6322  0.4503  0.9859
 9412TIP3    H228201   2.507   1.601   3.439  0.3053 -0.4165 -1.8706
 9413TIP3   OH228202   0.401   6.138   0.459  0.2310  0.4443 -0.4279
 9413TIP3    H128203   0.423   6.045   0.464 -1.7067 -0.0130  0.2009
 9413TIP3    H228204   0.400   6.167   0.550  1.3115  1.2364 -0.6486
 9414TIP3   OH228205   2.705   1.365   2.113  0.6024 -0.7088 -0.3831
 9414TIP3    H128206   2.799   1.347   2.118  0.8221  0.1269 -1.1493
 9414TIP3    H228207   2.696   1.424   2.038 -0.1290  1.8378  1.5771
 9415TIP3   OH228208   6.319   1.384   0.889 -0.1240  0.2130  0.2110
 9415TIP3    H128209   6.368   1.463   0.910 -0.5530 -0.0987  2.8057
 9415TIP3    H228210   6.285   1.398   0.801  0.9975  2.2820  0.0667
 9416TIP3   OH228211   3.998   3.663   0.712  0.2414  0.2960  0.1566
 9416TIP3    H128212   4.011   3.669   0.617  0.2144  0.0481  0.1376
 9416TIP3    H228213   4.086   3.662   0.748  0.2851 -0.7929  0.0621
 9417TIP3   OH228214   0.534   0.242   4.029  0.0846  0.0805 -0.1029
 9417TIP3    H128215   0.528   0.165   3.973  1.1000  0.0941 -0.2573
 9417TIP3    H228216   0.501   0.213   4.114 -0.8510 -0.1233 -0.5238
 9418TIP3   OH228217   5.382   1.191   0.223 -0.4486 -0.3673  0.4228
 9418TIP3    H128218   5.402   1.103   0.192  1.7351  0.3340 -0.3411
 9418TIP3    H228219   5.354   1.238   0.144  2.1885  0.6014 -0.0562
 9419TIP3   OH228220   0.563   1.438   4.839  0.6925  0.3504 -0.3896
 9419TIP3    H128221   0.656   1.441   4.816  0.5006 -0.4263 -1.3381
 9419TIP3    H228222   0.560   1.396   4.925  1.1299 -1.0989 -1.0510
 9420TIP3   OH228223   6.299   6.521   4.085  0.1530 -0.5544  0.4623
 9420TIP3    H128224   6.377   6.525   4.029 -0.2873 -0.1313 -0.1419
 9420TIP3    H228225   6.267   6.431   4.075 -0.7559 -0.0824 -1.1580
 9421TIP3   OH228226   2.489   1.178   5.609  0.5120 -0.6272  0.2046
 9421TIP3    H128227   2.527   1.153   5.693  0.1939  2.2924  1.3306
 9421TIP3    H228228   2.411   1.124   5.601  1.2546 -1.8969  1.1069
 9422TIP3   OH228229   6.795   6.404   4.292  0.3031 -0.0729  0.3503
 9422TIP3    H128230   6.707   6.441   4.290  0.3710  0.2214 -2.9004
 9422TIP3    H228231   6.784   6.315   4.257  1.1560 -0.4061  0.9127
 9423TIP3   OH228232   1.669   6.065   5.852  0.4027 -0.1916  0.3640
 9423TIP3    H128233   1.600   6.022   5.801  1.0002 -2.3579  1.2501
 9423TIP3    H228234   1.634   6.069   5.941  0.1688  1.6881  0.2157
 9424TIP3   OH228235   2.591   4.600   1.890  0.5328  0.3304 -0.1906
 9424TIP3    H128236   2.639   4.650   1.824  1.7019 -0.6249 -0.1027
 9424TIP3    H228237   2.649   4.598   1.966  0.3675 -0.8430 -0.0759
 9425TIP3   OH228238   2.313   3.747   3.660 -0.1001 -0.1501 -0.2025
 9425TIP3    H128239   2.310   3.712   3.571 -1.3313  1.1558 -0.7050
 9425TIP3    H228240   2.246   3.699   3.708  0.4880 -0.7767  0.0065
 9426TIP3   OH228241   4.429   2.588   4.061 -0.7019 -0.1682  0.0550
 9426TIP3    H128242   4.428   2.492   4.062  0.6061 -0.2483 -1.6584
 9426TIP3    H228243   4.519   2.611   4.038 -1.3703  1.4311 -1.1763
 9427TIP3   OH228244   2.514   1.320   1.329 -0.1644 -0.0893 -0.1473
 9427TIP3    H128245   2.583   1.292   1.389 -2.4417 -0.6554  2.4190
 9427TIP3    H228246   2.499   1.412   1.351  0.2258  0.2481 -1.2223
 9428TIP3   OH228247   6.003   5.340   3.933 -0.1335 -0.8149 -0.6084
 9428TIP3    H128248   6.092   5.362   3.958 -0.7754  0.7661  0.4553
 9428TIP3    H228249   6.012   5.277   3.862  1.8515  0.5657 -1.6695
 9429TIP3   OH228250   7.175   5.582   0.772 -0.3067  0.2553  0.0317
 9429TIP3    H128251   7.140   5.671   0.768  0.0219  0.3668 -0.6155
 9429TIP3    H228252   7.158   5.553   0.861 -0.3936  0.9791  0.2595
 9430TIP3   OH228253   0.953   2.563   0.451  0.3376  0.0640 -0.0628
 9430TIP3    H128254   0.939   2.604   0.365  1.2088  0.9977  0.2257
 9430TIP3    H228255   1.041   2.528   0.447  0.1535 -0.4394  0.2435
 9431TIP3   OH228256   3.284   4.814   3.196  0.7759  0.0364 -0.6611
 9431TIP3    H128257   3.268   4.722   3.215  1.7723 -0.1847 -0.8611
 9431TIP3    H228258   3.254   4.861   3.275  0.7960 -0.5012 -0.3312
 9432TIP3   OH228259   6.523   3.694   0.589 -0.4263  0.0516  0.3296
 9432TIP3    H128260   6.617   3.711   0.595 -0.6405  3.0340 -2.3015
 9432TIP3    H228261   6.485   3.747   0.660 -0.2407  0.9482 -0.2204
 9433TIP3   OH228262   2.061   3.883   3.257  0.0095 -0.4015 -0.7531
 9433TIP3    H128263   2.124   3.925   3.199  0.2803  0.1118 -0.0991
 9433TIP3    H228264   1.976   3.897   3.213  0.2889 -0.7168 -1.4127
 9434TIP3   OH228265   6.385   4.944   3.023  0.5214  0.3938  0.3172
 9434TIP3    H128266   6.401   4.942   2.929 -1.4914  1.7127 -0.1193
 9434TIP3    H228267   6.296   4.979   3.031  0.6595  0.3294  2.7191
 9435TIP3   OH228268   3.899   0.316   3.009 -0.0771  0.1911  0.3389
 9435TIP3    H128269   3.974   0.370   3.033  0.1715 -1.3408  3.4809
 9435TIP3    H228270   3.823   0.374   3.020  0.3481  0.5904  1.1908
 9436TIP3   OH228271   3.584   0.648   4.244  0.6773  0.6152  0.1295
 9436TIP3    H128272   3.505   0.695   4.217  1.0753  1.1946 -0.0590
 9436TIP3    H228273   3.597   0.674   4.336  0.3909  0.1516  0.3039
 9437TIP3   OH228274   6.828   4.417   5.049 -0.8189  0.5442  0.1339
 9437TIP3    H128275   6.815   4.486   4.984 -2.1986  0.8191  0.6783
 9437TIP3    H228276   6.781   4.341   5.014  1.9801 -0.7241 -1.2491
 9438TIP3   OH228277   5.992   2.064   2.996  0.1983  0.0465  0.3177
 9438TIP3    H128278   5.923   2.119   2.960  0.9507  0.6609 -0.2367
 9438TIP3    H228279   5.953   1.977   3.005 -0.4404  0.2369 -0.5962
 9439TIP3   OH228280   1.499   0.758   0.887 -0.4537 -0.4210 -0.5469
 9439TIP3    H128281   1.409   0.749   0.919 -0.8698 -0.6674 -1.7055
 9439TIP3    H228282   1.502   0.700   0.810  0.2342  0.7220 -1.4143
 9440TIP3   OH228283   3.895   0.176   3.497 -0.5775 -0.1658 -0.0721
 9440TIP3    H128284   3.935   0.227   3.569  0.8614 -0.2073 -0.8134
 9440TIP3    H228285   3.832   0.237   3.458 -0.2043  0.4126  0.2049
 9441TIP3   OH228286   2.421   6.305   5.163  0.3582  0.2312  0.1468
 9441TIP3    H128287   2.378   6.262   5.090  2.0947 -0.7395 -0.3719
 9441TIP3    H228288   2.423   6.398   5.140 -0.3722  0.1190 -0.3597
 9442TIP3   OH228289   3.117   5.763   0.434 -0.6724 -0.3660 -0.2270
 9442TIP3    H128290   3.162   5.836   0.477 -1.6320 -1.1433  2.2400
 9442TIP3    H228291   3.060   5.805   0.369 -0.1512  0.9717  0.1499
 9443TIP3   OH228292   3.363   0.940   1.637 -0.2985 -0.1124  0.6111
 9443TIP3    H128293   3.330   0.969   1.722  0.2924 -0.0318  0.8215
 9443TIP3    H228294   3.457   0.926   1.652 -0.2622 -0.4575  0.0657
 9444TIP3   OH228295   6.777   5.472   1.785  0.3052  0.2590 -0.4563
 9444TIP3    H128296   6.828   5.514   1.854  0.2848  1.1695 -0.9729
 9444TIP3    H228297   6.816   5.503   1.704 -1.7942  1.9881 -0.8951
 9445TIP3   OH228298   3.621   0.822   2.451  0.2361 -0.4767 -0.3282
 9445TIP3    H128299   3.526   0.829   2.459  0.1636 -1.1970 -0.4920
 9445TIP3    H228300   3.636   0.802   2.359  0.6379  0.9353 -0.5945
 9446TIP3   OH228301   6.728   0.736   3.807  0.0113  0.1386  0.5078
 9446TIP3    H128302   6.747   0.679   3.733 -0.4655 -0.1918  0.6393
 9446TIP3    H228303   6.814   0.752   3.847  0.0187 -1.6227  1.2902
 9447TIP3   OH228304   3.179   4.977   5.565 -0.3000  0.7076  0.0830
 9447TIP3    H128305   3.242   4.961   5.494 -1.5993  0.5930 -1.0929
 9447TIP3    H228306   3.104   5.018   5.521 -0.9951  0.9766  1.4705
 9448TIP3   OH228307   3.378   4.991   5.059  0.3120  0.1514  0.4924
 9448TIP3    H128308   3.457   4.963   5.105  0.9781 -0.3671 -0.8799
 9448TIP3    H228309   3.350   4.913   5.011 -0.9960  0.3561  0.8825
 9449TIP3   OH228310   0.801   3.612   5.502  0.8526  0.6017 -0.3534
 9449TIP3    H128311   0.766   3.551   5.437  1.2557  1.0493 -1.0151
 9449TIP3    H228312   0.752   3.594   5.582  0.1228  0.2515 -0.8685
 9450TIP3   OH228313   2.816   3.950   5.305 -0.0412  1.0576 -0.3208
 9450TIP3    H128314   2.853   3.912   5.225 -0.8090  0.5377 -0.4431
 9450TIP3    H228315   2.891   3.992   5.349  0.8492 -0.5432 -0.2173
 9451TIP3   OH228316   2.988   1.104   2.545  0.0708 -0.0513 -0.5764
 9451TIP3    H128317   2.906   1.055   2.539  0.7662 -1.0818 -2.6309
 9451TIP3    H228318   3.016   1.094   2.636 -0.8396 -1.7853 -0.4573
 9452TIP3   OH228319   0.484   0.441   2.761  0.4505 -0.6251  0.1780
 9452TIP3    H128320   0.577   0.462   2.768 -0.0340  1.6833  0.3873
 9452TIP3    H228321   0.477   0.354   2.800  2.1951  0.1218  2.4033
 9453TIP3   OH228322   5.226   3.487   1.042  0.1000 -0.6450  0.0043
 9453TIP3    H128323   5.177   3.405   1.048 -0.1926 -0.6088 -1.5620
 9453TIP3    H228324   5.299   3.475   1.103 -0.4637 -1.6909  0.5046
 9454TIP3   OH228325   4.230   6.734   1.086 -0.1528  0.0551  0.2151
 9454TIP3    H128326   4.275   6.724   1.170  0.1845  0.0459  0.0348
 9454TIP3    H228327   4.257   6.820   1.054 -0.9254  0.4083  0.4958
 9455TIP3   OH228328   4.070   2.463   1.095 -0.6454  0.0463  0.1085
 9455TIP3    H128329   3.985   2.430   1.066 -1.0409  0.0025  1.3053
 9455TIP3    H228330   4.105   2.507   1.017 -0.4411 -2.4511 -1.3432
 9456TIP3   OH228331   5.464   2.016   4.653  0.0183  0.5795 -0.6838
 9456TIP3    H128332   5.516   2.020   4.733  2.3637  0.4251 -2.1071
 9456TIP3    H228333   5.384   2.066   4.673  0.7384  0.9290  1.5605
 9457TIP3   OH228334   1.920   3.339   3.472  0.0557 -0.3626  0.1184
 9457TIP3    H128335   1.993   3.314   3.529  2.1574  0.6157 -1.9444
 9457TIP3    H228336   1.916   3.270   3.406  0.9637  0.8848 -1.3109
 9458TIP3   OH228337   1.571   0.610   4.630 -0.0232  0.2686 -0.0756
 9458TIP3    H128338   1.564   0.519   4.659 -0.2014  0.6696  1.2108
 9458TIP3    H228339   1.483   0.646   4.639  0.1460  0.6979 -0.0832
 9459TIP3   OH228340   7.198   6.465   4.912  0.1361 -0.4053  0.8776
 9459TIP3    H128341   7.156   6.407   4.850  0.8843 -1.1203  1.0171
 9459TIP3    H228342   7.291   6.462   4.889  0.0573  1.8827 -0.0420
 9460TIP3   OH228343   3.038   1.157   3.364 -0.0845  0.0606 -0.7314
 9460TIP3    H128344   3.036   1.251   3.382 -0.2814 -0.0318 -0.2741
 9460TIP3    H228345   3.122   1.128   3.397  0.1241  0.1337 -1.1839
 9461TIP3   OH228346   7.112   3.287   3.068 -0.5859 -0.4676  0.6646
 9461TIP3    H128347   7.021   3.280   3.038 -0.3880  0.1198 -0.1291
 9461TIP3    H228348   7.153   3.206   3.039 -0.9118 -0.8496  1.2524
 9462TIP3   OH228349   2.311   3.269   3.414 -0.0573 -0.4578 -0.5954
 9462TIP3    H128350   2.246   3.321   3.461  0.0257 -0.0663 -0.9129
 9462TIP3    H228351   2.300   3.180   3.450  0.9559  0.0913  1.1791
 9463TIP3   OH228352   2.653   0.553   2.169  0.1493 -0.2343 -0.2218
 9463TIP3    H128353   2.749   0.550   2.163  0.1704 -3.6223  0.1943
 9463TIP3    H228354   2.633   0.517   2.255 -1.5420  0.0366 -0.4677
 9464TIP3   OH228355   3.749   5.310   5.819 -1.0030 -0.1065 -0.0349
 9464TIP3    H128356   3.664   5.353   5.815 -1.1338 -0.4841 -2.4143
 9464TIP3    H228357   3.765   5.278   5.730  1.3077 -0.6686  0.5080
 9465TIP3   OH228358   1.012   2.582   1.063  0.2783 -0.4034 -0.8441
 9465TIP3    H128359   0.979   2.664   1.026  1.0824  0.9987  1.3143
 9465TIP3    H228360   1.061   2.542   0.992 -0.7536  0.6120 -2.1809
 9466TIP3   OH228361   2.913   1.748   1.010  0.1755  0.3996  0.4417
 9466TIP3    H128362   2.907   1.657   0.979  3.7201  0.0381  0.3816
 9466TIP3    H228363   2.865   1.749   1.093  0.2675 -1.6090  0.5603
 9467TIP3   OH228364   3.239   1.437   5.334  0.2893 -0.4554 -0.3849
 9467TIP3    H128365   3.329   1.441   5.301  0.9367  0.3237  1.3710
 9467TIP3    H228366   3.220   1.525   5.365 -0.2907 -1.1143  1.2427
 9468TIP3   OH228367   3.330   1.190   2.439 -0.5927 -0.4283  0.0856
 9468TIP3    H128368   3.412   1.198   2.391 -0.2063  1.9094  1.0367
 9468TIP3    H228369   3.354   1.204   2.531 -1.9799 -0.2166  0.4371
 9469TIP3   OH228370   3.620   6.524   4.690 -0.1313  0.0690 -0.2563
 9469TIP3    H128371   3.605   6.590   4.621 -3.0493 -2.0897 -1.9673
 9469TIP3    H228372   3.590   6.567   4.770 -1.9407  0.9027 -1.3060
 9470TIP3   OH228373   4.091   3.192   2.970  0.2828 -0.2818  0.5832
 9470TIP3    H128374   4.184   3.170   2.965  0.1387 -1.0469  1.0937
 9470TIP3    H228375   4.087   3.286   2.951  0.9623 -0.5873 -1.2488
 9471TIP3   OH228376   3.519   5.527   5.410  0.5676  0.9018  0.2279
 9471TIP3    H128377   3.557   5.605   5.370 -0.6637  1.7206  0.6087
 9471TIP3    H228378   3.431   5.520   5.372  0.6726 -0.3378  0.1658
 9472TIP3   OH228379   6.544   1.518   1.796 -0.4947 -0.1094  0.5987
 9472TIP3    H128380   6.506   1.431   1.783 -2.3520  0.6527  0.4946
 9472TIP3    H228381   6.477   1.566   1.845  0.2857  1.3917  0.2611
 9473TIP3   OH228382   3.474   5.208   3.034  0.2586 -0.4094  0.4475
 9473TIP3    H128383   3.501   5.181   3.121  2.0066 -1.2744 -0.3104
 9473TIP3    H228384   3.504   5.138   2.976 -0.4681  0.3460 -0.9030
 9474TIP3   OH228385   1.654   5.412   3.045 -0.6115 -0.0141 -0.4927
 9474TIP3    H128386   1.700   5.480   2.995  0.5013 -1.5408 -1.6104
 9474TIP3    H228387   1.680   5.330   3.004 -0.0541 -1.3178  2.2736
 9475TIP3   OH228388   6.271   4.333   1.697  0.1574  0.3183 -0.2909
 9475TIP3    H128389   6.177   4.320   1.710  0.1503  1.9062  1.6326
 9475TIP3    H228390   6.292   4.411   1.748  2.0198  1.7233 -2.9648
 9476TIP3   OH228391   4.792   5.743   4.385 -0.1484 -0.3778  0.1265
 9476TIP3    H128392   4.868   5.691   4.360  0.1130 -0.6036  1.3480
 9476TIP3    H228393   4.758   5.777   4.302  1.7933  0.4766 -0.3629
 9477TIP3   OH228394   6.492   6.703   1.162  0.2881 -0.3123  0.1874
 9477TIP3    H128395   6.433   6.672   1.230  0.6096 -0.0041  0.6111
 9477TIP3    H228396   6.460   6.662   1.082  1.6828 -3.1173  0.9385
 9478TIP3   OH228397   0.845   3.282   4.557 -0.4322 -0.2889  0.4352
 9478TIP3    H128398   0.856   3.271   4.651 -0.0041  1.2705  0.5823
 9478TIP3    H228399   0.855   3.193   4.522 -0.7601 -0.9155  1.8526
 9479TIP3   OH228400   1.331   6.665   1.841 -0.0946  0.2046  0.1967
 9479TIP3    H128401   1.309   6.579   1.807 -0.0542 -0.0538  0.8133
 9479TIP3    H228402   1.264   6.724   1.803  0.6922  0.1585 -1.3362
 9480TIP3   OH228403   6.799   2.510   3.046  0.1724 -0.6574  0.1784
 9480TIP3    H128404   6.720   2.479   3.091 -0.4161  0.2133 -0.2325
 9480TIP3    H228405   6.838   2.573   3.107  0.1638 -0.5482  0.0697
 9481TIP3   OH228406   4.483   1.431   5.164  0.6520 -0.2246 -0.0886
 9481TIP3    H128407   4.565   1.459   5.204  0.8077  1.5505 -1.5114
 9481TIP3    H228408   4.418   1.495   5.194 -0.3053 -1.6841  1.1333
 9482TIP3   OH228409   6.915   3.486   3.193  0.6611  0.0991  0.1554
 9482TIP3    H128410   6.983   3.517   3.135 -1.7822 -0.2195 -3.1780
 9482TIP3    H228411   6.946   3.401   3.224  1.2557 -0.7070 -2.4383
 9483TIP3   OH228412   0.415   4.213   4.595 -0.6882  0.4254 -0.3856
 9483TIP3    H128413   0.488   4.201   4.534 -2.0014  0.5798 -2.0535
 9483TIP3    H228414   0.446   4.173   4.677  0.5640 -1.1550 -1.5511
 9484TIP3   OH228415   5.988   0.506   1.085 -0.3058  0.1452  0.2945
 9484TIP3    H128416   5.974   0.419   1.047 -1.3470  0.7558 -0.7845
 9484TIP3    H228417   6.049   0.490   1.158  0.1689 -1.3597 -0.3703
 9485TIP3   OH228418   5.953   2.261   1.821  0.0553 -0.0180  0.1732
 9485TIP3    H128419   5.914   2.316   1.889  1.0462 -0.5487  1.2189
 9485TIP3    H228420   5.976   2.322   1.751 -0.2613  0.6736  0.6583
 9486TIP3   OH228421   4.942   1.214   0.188  0.5698 -0.3053  0.4545
 9486TIP3    H128422   4.942   1.235   0.094 -1.5872  0.6992  0.6176
 9486TIP3    H228423   4.970   1.122   0.192 -0.6888 -0.8225 -1.3275
 9487TIP3   OH228424   5.627   5.172   5.686 -0.4997  0.5069  0.1729
 9487TIP3    H128425   5.664   5.259   5.699 -0.7417  0.5129  0.8617
 9487TIP3    H228426   5.580   5.179   5.602 -0.2369  0.9381  0.0574
 9488TIP3   OH228427   0.356   6.426   2.055 -0.5489  0.1078 -0.2333
 9488TIP3    H128428   0.400   6.345   2.080 -2.1749 -0.9186 -0.5574
 9488TIP3    H228429   0.333   6.468   2.139  1.3061  0.8561 -0.0566
 9489TIP3   OH228430   1.003   3.135   1.650 -0.5497  0.5212 -0.3227
 9489TIP3    H128431   1.088   3.174   1.669 -0.5011 -0.4379  1.6117
 9489TIP3    H228432   0.950   3.152   1.728 -0.9347 -2.0615  0.0598
 9490TIP3   OH228433   5.760   3.635   3.348  0.2736 -0.0849  0.3713
 9490TIP3    H128434   5.726   3.584   3.274 -2.8590 -0.6959  2.0230
 9490TIP3    H228435   5.685   3.689   3.375  1.0897 -0.2688  3.3583
 9491TIP3   OH228436   0.187   4.944   5.215 -0.1970 -0.1300 -0.1694
 9491TIP3    H128437   0.229   4.889   5.281 -0.1157  1.5018  1.2009
 9491TIP3    H228438   0.093   4.925   5.225 -0.4513  1.7417  2.1354
 9492TIP3   OH228439   5.518   0.072   5.433  0.4290  0.6139 -0.0005
 9492TIP3    H128440   5.454   0.105   5.496 -0.6118  1.7615 -1.6075
 9492TIP3    H228441   5.600   0.070   5.483 -0.9784 -2.3968  2.6019
 9493TIP3   OH228442   2.120   6.530   2.313  0.1149 -0.7913 -0.3363
 9493TIP3    H128443   2.130   6.606   2.371  0.1513 -0.8877 -0.2152
 9493TIP3    H228444   2.026   6.522   2.300 -0.0012 -1.5486  0.7622
 9494TIP3   OH228445   2.612   2.747   4.463 -0.1725  0.4227  0.4608
 9494TIP3    H128446   2.520   2.759   4.436 -0.4982  0.3891  1.5104
 9494TIP3    H228447   2.614   2.659   4.500  0.3496  0.3302  0.2213
 9495TIP3   OH228448   0.791   4.805   0.632 -0.3586 -0.9230  0.0176
 9495TIP3    H128449   0.814   4.865   0.703 -1.5388 -0.1391 -0.2463
 9495TIP3    H228450   0.862   4.740   0.633  1.0748  0.5692  0.1623
 9496TIP3   OH228451   5.105   6.312   5.343 -0.8669  0.0856  0.3409
 9496TIP3    H128452   5.152   6.259   5.408  1.3253  0.7558 -0.6082
 9496TIP3    H228453   5.070   6.386   5.393  1.0176  0.7363  0.7790
 9497TIP3   OH228454   0.673   6.684   0.917 -0.0828 -0.1407 -0.0714
 9497TIP3    H128455   0.584   6.716   0.901 -0.3637 -0.3805  0.9296
 9497TIP3    H228456   0.701   6.648   0.833 -0.5067  0.9290 -0.6961
 9498TIP3   OH228457   2.093   1.369   0.448 -0.0714 -0.6384 -0.4927
 9498TIP3    H128458   2.010   1.410   0.474  0.3645  2.2601 -3.0970
 9498TIP3    H228459   2.133   1.432   0.388  2.9685 -2.9693 -1.1455
 9499TIP3   OH228460   2.515   4.048   1.338 -0.6687  0.4962 -0.1351
 9499TIP3    H128461   2.489   4.019   1.425 -1.2227 -2.2002 -1.1304
 9499TIP3    H228462   2.513   4.144   1.344 -0.4741  0.4186  2.8464
 9500TIP3   OH228463   2.952   2.730   2.476 -0.2446  0.7421 -0.1927
 9500TIP3    H128464   3.029   2.720   2.420  0.5835  1.1241  0.8390
 9500TIP3    H228465   2.987   2.756   2.561 -1.2892 -1.8653  1.1404
 9501TIP3   OH228466   4.270   0.221   3.899  0.1724  0.8374 -0.1601
 9501TIP3    H128467   4.174   0.231   3.898  0.2013  1.1160 -0.9464
 9501TIP3    H228468   4.303   0.309   3.915  0.3194  1.0427 -1.4901
 9502TIP3   OH228469   1.833   4.360   4.107 -0.5371 -0.3355 -0.8264
 9502TIP3    H128470   1.760   4.365   4.169  0.5738  0.5759  0.4462
 9502TIP3    H228471   1.902   4.316   4.155 -0.6086 -2.3441 -2.4420
 9503TIP3   OH228472   3.985   1.867   4.497 -0.3058 -0.1658 -0.4664
 9503TIP3    H128473   3.987   1.859   4.402 -0.9589  0.3271 -0.5263
 9503TIP3    H228474   3.898   1.902   4.516  0.6401  1.9950  0.1355
 9504TIP3   OH228475   4.943   4.830   5.347  0.2944  0.0734  0.4980
 9504TIP3    H128476   4.885   4.906   5.355  0.9516  0.4421  2.2459
 9504TIP3    H228477   5.018   4.862   5.298  1.0202  0.8848  2.0558
 9505TIP3   OH228478   0.707   4.853   2.243 -0.2228 -0.2710 -0.2988
 9505TIP3    H128479   0.764   4.804   2.183 -0.1775  0.1163 -0.5815
 9505TIP3    H228480   0.645   4.789   2.276  1.1815 -1.0109  1.0485
 9506TIP3   OH228481   0.863   5.202   5.047 -0.0464  0.1845 -0.1527
 9506TIP3    H128482   0.802   5.150   4.995  1.2392 -0.0040 -1.5535
 9506TIP3    H228483   0.849   5.292   5.017 -0.0414  0.2105 -0.0754
 9507TIP3   OH228484   7.235   5.981   5.410 -0.1724  0.0321  0.6954
 9507TIP3    H128485   7.161   6.006   5.466  0.4723  1.2459  1.0240
 9507TIP3    H228486   7.240   6.049   5.344  0.1277 -0.5054  0.1535
 9508TIP3   OH228487   0.024   0.020   2.010  0.1734 -0.0693 -0.0166
 9508TIP3    H128488   0.006   0.044   1.919  0.8237  0.9567  0.1119
 9508TIP3    H228489   0.061   0.099   2.049  0.8984 -0.8202  0.8624
 9509TIP3   OH228490   5.170   3.475   4.145 -0.6582 -0.1681  0.0678
 9509TIP3    H128491   5.247   3.507   4.192 -0.3977  0.8976 -1.0592
 9509TIP3    H228492   5.194   3.386   4.119  0.0036 -0.0245  0.1613
 9510TIP3   OH228493   5.222   3.156   5.737  0.5344  0.4373 -0.0005
 9510TIP3    H128494   5.191   3.246   5.745 -1.2475 -0.2892  2.2432
 9510TIP3    H228495   5.204   3.117   5.823  1.2058 -2.0834 -0.9273
 9511TIP3   OH228496   2.552   1.670   1.134 -0.1519  0.2601  0.1567
 9511TIP3    H128497   2.638   1.679   1.175  0.3914 -1.0336 -0.6376
 9511TIP3    H228498   2.571   1.667   1.040 -0.5857 -3.9839  0.0340
 9512TIP3   OH228499   4.109   5.861   1.961  0.3770  0.2774  0.1625
 9512TIP3    H128500   4.061   5.934   1.921 -0.4540 -0.5839 -0.4579
 9512TIP3    H228501   4.089   5.867   2.054 -1.2702 -0.2626 -0.1227
 9513TIP3   OH228502   2.550   3.904   1.936 -0.1765  0.1391 -0.3522
 9513TIP3    H128503   2.491   3.956   1.990  0.0978  0.2845 -0.1887
 9513TIP3    H228504   2.638   3.925   1.969 -0.0850 -0.7566  0.0172
 9514TIP3   OH228505   7.139   6.532   3.918 -0.2749 -0.1491  0.6282
 9514TIP3    H128506   7.072   6.516   3.851 -0.3795  0.2875  0.6284
 9514TIP3    H228507   7.092   6.521   4.001  0.3215 -2.9196  0.7183
 9515TIP3   OH228508   3.975   1.002   4.447  0.4973  0.0027  0.4700
 9515TIP3    H128509   3.996   0.909   4.450  0.2880 -0.0348  0.8713
 9515TIP3    H228510   3.939   1.021   4.534 -0.6959  0.1517 -0.0323
 9516TIP3   OH228511   1.087   5.690   2.245  0.3136 -0.2600 -0.8142
 9516TIP3    H128512   1.021   5.694   2.315  1.8709 -2.0808  0.8745
 9516TIP3    H228513   1.078   5.773   2.200 -2.3018  0.0714  0.1027
 9517TIP3   OH228514   6.992   0.360   0.615 -0.5181  0.1198 -0.4677
 9517TIP3    H128515   6.956   0.446   0.591 -1.8770  0.0259  1.0729
 9517TIP3    H228516   7.078   0.359   0.574 -1.0988  1.5601 -1.8674
 9518TIP3   OH228517   3.688   6.484   1.650  0.0930 -0.4570 -0.2127
 9518TIP3    H128518   3.610   6.539   1.659  0.4530  0.6533 -2.9913
 9518TIP3    H228519   3.674   6.435   1.569  2.3904  0.0297 -0.9795
 9519TIP3   OH228520   6.276   2.539   3.610  0.0820  0.4192  0.5926
 9519TIP3    H128521   6.194   2.569   3.572 -0.9675  0.0018  2.4381
 9519TIP3    H228522   6.259   2.532   3.704  2.4324  1.0028  1.1425
 9520TIP3   OH228523   7.175   2.194   1.226 -0.0118  0.9023 -0.2140
 9520TIP3    H128524   7.262   2.211   1.262 -0.2402 -0.3080  0.9895
 9520TIP3    H228525   7.117   2.198   1.302 -0.7874  0.1412 -0.7513
 9521TIP3   OH228526   5.706   5.855   1.863  0.6211  0.2501 -0.5213
 9521TIP3    H128527   5.645   5.852   1.789 -0.1455 -0.5990  0.1282
 9521TIP3    H228528   5.762   5.930   1.844 -0.9280  1.3595 -0.8984
 9522TIP3   OH228529   5.339   1.828   0.738 -0.3381 -0.1782 -0.1768
 9522TIP3    H128530   5.304   1.908   0.699 -2.2350 -0.3205  1.1386
 9522TIP3    H228531   5.419   1.810   0.687  0.6416  2.9938  0.0288
 9523TIP3   OH228532   4.715   5.855   2.466 -0.5711  0.0478  0.0522
 9523TIP3    H128533   4.738   5.767   2.499 -0.5210  0.3026  0.7152
 9523TIP3    H228534   4.629   5.843   2.427 -0.8970 -0.1537  0.7984
 9524TIP3   OH228535   6.792   4.635   2.223  0.0859 -0.4872 -0.1739
 9524TIP3    H128536   6.707   4.614   2.184 -0.1942 -0.2755  0.3246
 9524TIP3    H228537   6.787   4.728   2.244 -0.0943 -0.7703  1.1522
 9525TIP3   OH228538   2.014   5.717   4.043 -1.0351 -0.2127 -0.1513
 9525TIP3    H128539   2.065   5.648   4.001 -0.4458 -1.2751  2.1830
 9525TIP3    H228540   2.079   5.778   4.077 -1.5133  0.7796 -0.9576
 9526TIP3   OH228541   0.277   5.033   5.724 -0.3288 -0.2005 -0.3049
 9526TIP3    H128542   0.219   5.066   5.655  0.0134 -0.0667 -0.5297
 9526TIP3    H228543   0.356   5.087   5.717 -0.5251  0.2254  0.5904
 9527TIP3   OH228544   5.454   2.414   3.175 -0.4624  0.4856  0.5379
 9527TIP3    H128545   5.403   2.353   3.229  0.5403 -2.7606 -1.8302
 9527TIP3    H228546   5.390   2.452   3.115 -0.8148  0.2043  0.7348
 9528TIP3   OH228547   5.883   1.065   5.619 -0.5265  0.1182 -0.5509
 9528TIP3    H128548   5.823   1.123   5.666  1.9646  1.5332  1.1295
 9528TIP3    H228549   5.916   1.118   5.547 -1.9811 -1.0256 -2.1603
 9529TIP3   OH228550   1.117   2.634   4.683  0.0116  0.2817 -0.7257
 9529TIP3    H128551   1.208   2.635   4.656  0.2578 -1.2607 -0.0590
 9529TIP3    H228552   1.119   2.616   4.777 -0.9595  0.4079 -0.6643
 9530TIP3   OH228553   3.384   2.347   4.439  0.1960 -0.0271 -0.0308
 9530TIP3    H128554   3.364   2.398   4.361  2.9416  0.7585 -0.3313
 9530TIP3    H228555   3.330   2.387   4.508 -0.7619  0.5798 -1.0937
 9531TIP3   OH228556   6.310   0.984   2.540  0.4130  0.4571 -0.6459
 9531TIP3    H128557   6.338   1.021   2.624  0.6576 -0.4559 -0.3163
 9531TIP3    H228558   6.322   1.055   2.478  0.0469  1.2140  0.1204
 9532TIP3   OH228559   2.171   2.580   5.238  0.4469  0.1745 -0.2110
 9532TIP3    H128560   2.086   2.541   5.217  0.0986 -0.0092  1.4209
 9532TIP3    H228561   2.166   2.668   5.202 -0.5639  0.2644  0.1056
 9533TIP3   OH228562   7.188   4.928   2.519  0.1009  0.3635  0.2128
 9533TIP3    H128563   7.180   4.912   2.613 -0.9115  0.8820  0.2337
 9533TIP3    H228564   7.150   4.850   2.478  0.9527 -0.0603  0.2243
 9534TIP3   OH228565   3.618   3.231   5.012 -0.3183  0.4557 -0.5016
 9534TIP3    H128566   3.570   3.223   4.929 -0.2233  2.6567 -0.8133
 9534TIP3    H228567   3.695   3.283   4.990  1.5891 -1.8249  0.2855
 9535TIP3   OH228568   7.179   2.485   3.153  0.0892 -0.0829 -0.4526
 9535TIP3    H128569   7.140   2.430   3.084 -0.1690  0.6074 -0.8692
 9535TIP3    H228570   7.127   2.466   3.231  1.5496 -2.2789  0.0733
 9536TIP3   OH228571   5.547   2.959   3.822  0.2149  0.1130  0.6294
 9536TIP3    H128572   5.500   2.895   3.875 -0.9468 -0.3099 -0.8451
 9536TIP3    H228573   5.593   2.907   3.756 -0.2015  0.7371 -0.1715
 9537TIP3   OH228574   4.653   3.093   2.117 -0.4664  0.0358  0.1554
 9537TIP3    H128575   4.636   3.062   2.028 -0.0690 -0.6872  0.3173
 9537TIP3    H228576   4.570   3.084   2.163 -0.4346 -0.5370  0.1144
 9538TIP3   OH228577   2.356   6.402   1.797 -0.2958  0.1183  0.1964
 9538TIP3    H128578   2.448   6.419   1.819 -0.2799  0.9678 -0.4740
 9538TIP3    H228579   2.359   6.331   1.734 -0.1931 -0.7419  1.1476
 9539TIP3   OH228580   0.076   5.703   4.181 -0.3233  0.2852 -0.1728
 9539TIP3    H128581  -0.018   5.720   4.173 -0.4317  1.4783  2.3870
 9539TIP3    H228582   0.082   5.610   4.200 -1.2372  0.5138  1.5086
 9540TIP3   OH228583   1.360   5.259   5.324  0.1907  0.5648  0.1694
 9540TIP3    H128584   1.438   5.203   5.329  0.2471  0.5363 -0.8348
 9540TIP3    H228585   1.300   5.220   5.388  2.0173  2.3264  3.2339
 9541TIP3   OH228586   5.862   3.606   0.327 -0.1569  0.4582  0.1655
 9541TIP3    H128587   5.882   3.644   0.241 -1.8384 -1.3126 -1.0924
 9541TIP3    H228588   5.946   3.605   0.373  0.8328  1.2511 -1.5297
 9542TIP3   OH228589   4.124   3.083   4.394  0.4727 -0.4235 -0.5045
 9542TIP3    H128590   4.114   3.178   4.405 -0.5584 -0.6878  1.1212
 9542TIP3    H228591   4.161   3.073   4.307 -0.2379  1.4384 -1.0669
 9543TIP3   OH228592   4.044   3.872   1.090  0.1429 -0.1975 -0.4118
 9543TIP3    H128593   4.006   3.827   1.166  1.4214 -1.5977 -0.5586
 9543TIP3    H228594   4.092   3.946   1.128 -0.3148 -0.1179  0.0205
 9544TIP3   OH228595   2.971   3.755   5.742  0.2438 -0.4872 -0.2994
 9544TIP3    H128596   2.953   3.763   5.836 -1.0958 -1.9525 -0.3822
 9544TIP3    H228597   2.929   3.831   5.703  0.3315 -0.1610  0.2291
 9545TIP3   OH228598   5.190   5.189   1.237  0.0475 -1.4465 -0.1007
 9545TIP3    H128599   5.105   5.179   1.279 -0.0500  1.3185  0.5379
 9545TIP3    H228600   5.244   5.119   1.276 -1.6083 -2.5952  0.2344
 9546TIP3   OH228601   6.652   2.925   4.190  0.0797  0.2319 -0.6900
 9546TIP3    H128602   6.602   3.005   4.178  0.2308  0.3497 -0.5463
 9546TIP3    H228603   6.588   2.860   4.217 -0.0832  0.2417 -1.0525
 9547TIP3   OH228604   6.628   6.057   0.436  0.6420  0.1036  0.1545
 9547TIP3    H128605   6.723   6.058   0.429  0.5585 -0.5224 -1.6335
 9547TIP3    H228606   6.610   6.006   0.515  1.7972 -1.9994 -0.8683
 9548TIP3   OH228607   3.245   5.520   1.268  0.2608 -0.2635 -0.3242
 9548TIP3    H128608   3.316   5.473   1.224 -1.9248 -1.4526 -2.7912
 9548TIP3    H228609   3.197   5.452   1.315 -0.9860 -0.0184 -1.1925
 9549TIP3   OH228610   0.243   5.450   2.523  0.5197  0.2473  0.3282
 9549TIP3    H128611   0.268   5.359   2.540  2.4287  0.4907 -0.9305
 9549TIP3    H228612   0.224   5.486   2.609 -0.7178 -1.4331  0.8182
 9550TIP3   OH228613   3.957   3.475   1.634  0.1404  0.1994  0.1620
 9550TIP3    H128614   3.910   3.498   1.714 -1.4431 -0.7435 -0.4520
 9550TIP3    H228615   4.029   3.419   1.664  0.6873  1.3432  1.0835
 9551TIP3   OH228616   6.990   5.911   0.057  0.1780 -0.2730  0.2546
 9551TIP3    H128617   6.897   5.888   0.051  0.7284 -2.8131  0.5272
 9551TIP3    H228618   7.024   5.855   0.127  2.1360 -0.1357 -0.5305
 9552TIP3   OH228619   4.243   5.603   2.698  0.2517 -0.3112 -0.0076
 9552TIP3    H128620   4.305   5.586   2.769  2.6789 -0.9192 -2.0999
 9552TIP3    H228621   4.238   5.699   2.692 -0.3881 -0.2513  1.2634
 9553TIP3   OH228622   5.201   0.559   0.615 -0.1321  0.3212  0.6590
 9553TIP3    H128623   5.113   0.558   0.654 -0.9648 -0.9226 -1.1460
 9553TIP3    H228624   5.248   0.490   0.662 -0.8215 -0.4910  0.2018
 9554TIP3   OH228625   4.909   1.097   4.535 -0.2930  0.2320  0.5370
 9554TIP3    H128626   4.907   1.081   4.441 -0.3966  1.3203  0.3419
 9554TIP3    H228627   4.877   1.016   4.574  0.4682 -0.5031 -0.3266
 9555TIP3   OH228628   6.064   3.951   1.480 -0.2303 -0.4235 -0.4593
 9555TIP3    H128629   6.013   3.957   1.560 -0.5647  0.8251 -0.7414
 9555TIP3    H228630   6.146   3.995   1.500  0.3528 -1.5407 -0.3185
 9556TIP3   OH228631   5.654   6.093   1.181 -0.1256  0.4637  0.2090
 9556TIP3    H128632   5.596   6.142   1.123  0.5502 -0.3912 -1.2560
 9556TIP3    H228633   5.610   6.094   1.266 -0.4087  3.0651  0.0947
 9557TIP3   OH228634   0.285   4.395   4.232  0.9115 -0.2223  0.0973
 9557TIP3    H128635   0.363   4.350   4.265  1.1553 -1.7149 -2.2021
 9557TIP3    H228636   0.213   4.360   4.284  1.5099 -0.7798  0.5712
 9558TIP3   OH228637   1.550   5.828   3.052 -0.8457  0.2550 -0.2026
 9558TIP3    H128638   1.534   5.783   2.968  0.9337  0.1257 -0.5222
 9558TIP3    H228639   1.528   5.763   3.118 -0.0880 -0.4760 -0.6358
 9559TIP3   OH228640   4.908   3.459   5.304  0.1866  0.0102  0.1195
 9559TIP3    H128641   4.822   3.446   5.264 -0.1150 -1.3597  1.1481
 9559TIP3    H228642   4.945   3.534   5.257 -0.4465 -1.0374 -2.2205
 9560TIP3   OH228643   2.989   6.233   2.307 -0.0976  0.0413 -0.2139
 9560TIP3    H128644   3.084   6.225   2.304 -0.1008 -0.6131  0.8767
 9560TIP3    H228645   2.969   6.246   2.400 -0.9839  1.6052 -0.5921
 9561TIP3   OH228646   2.468   0.167   2.973 -0.4232 -0.2602  0.5044
 9561TIP3    H128647   2.526   0.098   3.005  0.2755  1.0438  2.2207
 9561TIP3    H228648   2.506   0.248   3.007 -1.6541  0.9174 -0.7749
 9562TIP3   OH228649   5.693   2.394   4.522 -0.0134  0.1729  0.4464
 9562TIP3    H128650   5.711   2.451   4.597  1.3166  1.5617 -0.8635
 9562TIP3    H228651   5.694   2.306   4.559 -0.2577  0.8570  2.2044
 9563TIP3   OH228652   0.498   2.984   1.294  0.1907  0.1023 -0.2565
 9563TIP3    H128653   0.554   2.919   1.337  1.2496  0.2066 -1.4236
 9563TIP3    H228654   0.417   2.983   1.345  0.9174 -0.7018  0.9348
 9564TIP3   OH228655   3.879   1.767   5.508 -0.1180  0.2562 -0.1903
 9564TIP3    H128656   3.908   1.686   5.549 -2.0201  1.5327  4.2865
 9564TIP3    H228657   3.937   1.835   5.543  0.6590  1.0869 -2.8715
 9565TIP3   OH228658   6.722   6.707   5.684 -0.8947  0.0824  0.1426
 9565TIP3    H128659   6.641   6.758   5.676  0.3018  2.3347  1.2412
 9565TIP3    H228660   6.791   6.773   5.681  0.9554 -1.8099 -1.1197
 9566TIP3   OH228661   0.325   0.193   2.629  0.0644  1.1879  0.3372
 9566TIP3    H128662   0.278   0.270   2.663  0.7455  1.8500 -0.1766
 9566TIP3    H228663   0.261   0.147   2.575 -0.7464  0.6499  1.7059
 9567TIP3   OH228664   3.757   1.603   2.423 -0.1341  0.4804 -0.0828
 9567TIP3    H128665   3.758   1.511   2.396  0.3583  0.1237  1.1191
 9567TIP3    H228666   3.672   1.635   2.394 -0.2876 -0.3337 -0.5653
 9568TIP3   OH228667   6.442   0.969   1.212 -0.1116  0.6094  0.3308
 9568TIP3    H128668   6.462   1.053   1.171 -0.9973  0.6539 -0.0356
 9568TIP3    H228669   6.348   0.973   1.231 -0.1121 -0.1923  0.5508
 9569TIP3   OH228670   2.813   4.466   5.616  0.0687  0.4453 -0.0192
 9569TIP3    H128671   2.777   4.520   5.686  0.9364  1.1570 -0.0959
 9569TIP3    H228672   2.908   4.480   5.621  0.4349 -1.8942  0.6172
 9570TIP3   OH228673   5.170   3.313   2.270 -0.2693 -0.3753 -0.1245
 9570TIP3    H128674   5.125   3.270   2.343 -1.2055  1.6255  0.5305
 9570TIP3    H228675   5.259   3.328   2.302 -0.5263  0.0242  0.4175
 9571TIP3   OH228676   6.100   4.183   2.424 -0.1493 -0.5705  0.2438
 9571TIP3    H128677   6.141   4.176   2.511  0.5538 -0.1482 -0.0454
 9571TIP3    H228678   6.172   4.210   2.366 -0.8249  0.0859 -0.2951
 9572TIP3   OH228679   2.507   1.155   4.235  0.1776 -0.2185  0.0374
 9572TIP3    H128680   2.531   1.151   4.142 -0.9996 -1.2703 -0.2568
 9572TIP3    H228681   2.418   1.191   4.235 -0.9880 -2.8487  0.4652
 9573TIP3   OH228682   0.616   4.041   3.610 -0.1767 -0.7904 -0.5236
 9573TIP3    H128683   0.702   3.998   3.610 -0.5909 -1.6550 -1.1684
 9573TIP3    H228684   0.600   4.063   3.701  0.6139 -0.8545 -0.3611
 9574TIP3   OH228685   1.138   2.785   4.402 -0.6283  0.7418  0.2232
 9574TIP3    H128686   1.097   2.719   4.346  0.6526  0.9052 -0.9309
 9574TIP3    H228687   1.204   2.737   4.452 -1.7608  0.5948  1.6475
 9575TIP3   OH228688   4.415   0.264   4.624  0.2438  0.4010  0.1508
 9575TIP3    H128689   4.433   0.170   4.634  0.7767  0.7058  2.7581
 9575TIP3    H228690   4.356   0.285   4.696  1.9313  2.4757  1.0316
 9576TIP3   OH228691   5.083   2.324   2.783  0.0020  0.5727  0.3283
 9576TIP3    H128692   4.991   2.303   2.800  0.2144 -0.5649  0.1478
 9576TIP3    H228693   5.131   2.250   2.820  0.8281  0.9799  0.0839
 9577TIP3   OH228694   0.631   0.878   1.886 -0.1903  0.3562  0.0723
 9577TIP3    H128695   0.683   0.854   1.962 -0.2887  0.6497  0.2333
 9577TIP3    H228696   0.562   0.935   1.920 -1.7282 -1.4543  0.1546
 9578TIP3   OH228697   5.179   4.132   3.651  0.5163  0.3654  0.0172
 9578TIP3    H128698   5.212   4.043   3.663  3.9222  1.1720 -1.9094
 9578TIP3    H228699   5.237   4.187   3.705 -0.8136  1.5540  0.3070
 9579TIP3   OH228700   3.158   6.205   3.332 -0.5047 -0.2952 -0.3136
 9579TIP3    H128701   3.236   6.192   3.387 -0.0860 -1.9989 -1.2431
 9579TIP3    H228702   3.191   6.254   3.256 -0.5655 -0.0971 -0.2128
 9580TIP3   OH228703   3.790   5.837   3.903  0.1992 -0.3039 -0.7277
 9580TIP3    H128704   3.871   5.882   3.925  0.6257 -0.2795 -2.2442
 9580TIP3    H228705   3.737   5.842   3.983  1.6002 -0.1524  0.2135
 9581TIP3   OH228706   1.204   2.238   5.301  0.1732  0.2701  0.2162
 9581TIP3    H128707   1.253   2.211   5.379  0.0436  0.8487  0.5095
 9581TIP3    H228708   1.114   2.247   5.332  0.0660  0.2083 -0.0767
 9582TIP3   OH228709   4.528   0.702   4.970  0.2117  0.2909  0.7298
 9582TIP3    H128710   4.501   0.684   4.879 -0.5924  1.1385  0.7828
 9582TIP3    H228711   4.574   0.786   4.965  1.1541 -0.1982  0.9536
 9583TIP3   OH228712   0.891   5.002   3.144 -0.3057 -0.6072  0.0864
 9583TIP3    H128713   0.944   5.081   3.133 -2.1298  0.4984 -1.5132
 9583TIP3    H228714   0.861   5.006   3.235 -0.6892  0.7809 -0.0813
 9584TIP3   OH228715   6.748   2.160   1.214 -0.1565  0.3696  0.6135
 9584TIP3    H128716   6.839   2.133   1.206  0.1105  1.2556  0.5233
 9584TIP3    H228717   6.711   2.103   1.282  0.2146 -0.5885  0.0300
 9585TIP3   OH228718   2.595   3.131   3.104 -0.1122  0.3712 -0.0938
 9585TIP3    H128719   2.597   3.037   3.089  0.2614  0.1761  1.0679
 9585TIP3    H228720   2.566   3.168   3.021 -1.5543 -0.8486 -0.1715
 9586TIP3   OH228721   4.421   3.831   4.357 -0.0208  0.3722  0.3497
 9586TIP3    H128722   4.389   3.757   4.305 -0.0193  0.9440 -0.4801
 9586TIP3    H228723   4.358   3.839   4.429 -0.8036  0.4419 -0.3391
 9587TIP3   OH228724   1.858   0.998   4.386  0.2105 -0.1583 -0.3735
 9587TIP3    H128725   1.840   1.000   4.292 -0.4056  0.5500 -0.2494
 9587TIP3    H228726   1.953   0.985   4.392  0.0335 -1.9150 -1.0612
 9588TIP3   OH228727   4.303   0.647   4.248  0.3199  0.0378  0.2112
 9588TIP3    H128728   4.280   0.598   4.327 -2.1481 -0.7491 -0.8847
 9588TIP3    H228729   4.263   0.597   4.177  2.9523  0.3882 -1.6800
 9589TIP3   OH228730   4.559   0.660   4.694  0.0601  0.2141  0.4569
 9589TIP3    H128731   4.617   0.736   4.690  1.0816 -0.5654 -2.4442
 9589TIP3    H228732   4.607   0.591   4.648 -2.2485 -1.1544 -0.0716
 9590TIP3   OH228733   5.771   2.038   0.615 -0.5573 -0.2452 -0.2137
 9590TIP3    H128734   5.732   2.092   0.683  0.8127  0.2479  0.2226
 9590TIP3    H228735   5.789   1.954   0.657 -1.8657 -0.7577 -0.6427
 9591TIP3   OH228736   2.345   2.503   1.116 -0.5627 -1.0544  0.3411
 9591TIP3    H128737   2.313   2.555   1.190 -0.3806  2.0149 -1.5849
 9591TIP3    H228738   2.432   2.473   1.145 -0.3193  0.4159  1.2520
 9592TIP3   OH228739   1.672   6.531   0.860  0.2338 -0.6941  0.2369
 9592TIP3    H128740   1.669   6.600   0.794 -1.0669 -1.8294 -0.9648
 9592TIP3    H228741   1.737   6.561   0.924  0.3090  1.2179 -0.6779
 9593TIP3   OH228742   1.951   0.496   1.598 -0.0806  0.1077 -0.2643
 9593TIP3    H128743   1.988   0.434   1.661  2.7362  0.3580 -1.5030
 9593TIP3    H228744   1.894   0.443   1.543  0.4802 -0.9263  0.1189
 9594TIP3   OH228745   4.254   1.917   5.183  0.7073  0.1919 -0.0344
 9594TIP3    H128746   4.267   1.882   5.095  2.4259 -0.6850  0.5179
 9594TIP3    H228747   4.291   1.851   5.241 -2.9500 -0.6595  1.6408
 9595TIP3   OH228748   5.833   3.957   4.240 -0.1656 -0.2204 -0.0832
 9595TIP3    H128749   5.759   3.994   4.287  1.7326  1.2409  1.9322
 9595TIP3    H228750   5.839   4.008   4.159 -0.9620  0.0818  0.0447
 9596TIP3   OH228751   5.813   5.338   4.989  0.3951  0.3023  0.3077
 9596TIP3    H128752   5.728   5.297   4.980  0.2005  0.8978 -0.8793
 9596TIP3    H228753   5.796   5.431   4.974  1.3485  0.3270 -0.7987
 9597TIP3   OH228754   1.494   3.298   5.827  0.2453 -0.3776 -0.4819
 9597TIP3    H128755   1.435   3.316   5.754 -0.7772  0.1580  0.4538
 9597TIP3    H228756   1.534   3.383   5.847 -0.3891 -0.2646  0.3460
 9598TIP3   OH228757   0.519   3.581   3.561  0.4785 -0.0982  0.1797
 9598TIP3    H128758   0.607   3.570   3.596  1.1736  0.1459 -1.4118
 9598TIP3    H228759   0.517   3.672   3.530  0.5411 -0.8063 -2.0386
 9599TIP3   OH228760   5.273   6.172   3.497  0.2225  0.0099 -0.1858
 9599TIP3    H128761   5.252   6.090   3.451  0.7771 -0.3541  0.1935
 9599TIP3    H228762   5.188   6.212   3.515 -0.1834 -1.3657  1.2202
 9600TIP3   OH228763   4.870   3.354   0.805  0.7435 -0.4281 -0.5968
 9600TIP3    H128764   4.933   3.423   0.787  0.9766 -0.3343  0.5022
 9600TIP3    H228765   4.848   3.318   0.719 -0.4570  1.9298 -1.3727
 9601TIP3   OH228766   6.157   0.889   0.614 -0.4973  0.1068  0.3549
 9601TIP3    H128767   6.087   0.882   0.549  0.5008 -0.7421 -0.6654
 9601TIP3    H228768   6.209   0.964   0.585  0.2031 -0.5433 -0.0837
 9602TIP3   OH228769   2.055   4.153   4.193 -0.1616 -0.3892 -0.2283
 9602TIP3    H128770   2.119   4.094   4.233  0.2354  0.2983  0.1767
 9602TIP3    H228771   2.013   4.101   4.125  1.2279 -0.6956 -0.8795
 9603TIP3   OH228772   4.759   0.517   4.566 -0.3165  0.1233 -0.0389
 9603TIP3    H128773   4.795   0.605   4.567 -1.2088  0.4954  0.9191
 9603TIP3    H228774   4.740   0.500   4.473  0.9636  0.4515 -0.3792
 9604TIP3   OH228775   6.864   2.907   2.712 -0.1461 -0.4634  0.0224
 9604TIP3    H128776   6.846   2.889   2.804  0.4367  1.3097  0.5172
 9604TIP3    H228777   6.949   2.952   2.712  0.7263 -1.9512 -1.5591
 9605TIP3   OH228778   6.194   1.518   0.058  0.5446  0.4845  0.2976
 9605TIP3    H128779   6.221   1.590   0.116  3.3417 -0.0439 -0.2249
 9605TIP3    H228780   6.229   1.440   0.101  0.2675 -0.2099 -0.7321
 9606TIP3   OH228781   0.651   3.471   0.739  0.2482 -0.1842  0.0558
 9606TIP3    H128782   0.670   3.565   0.747  2.0248 -0.4857 -0.0315
 9606TIP3    H228783   0.588   3.453   0.808  0.8452  0.8415  0.9027
 9607TIP3   OH228784   5.656   6.449   5.550 -0.1532 -0.7307  0.1207
 9607TIP3    H128785   5.744   6.434   5.584  0.3515  0.1829 -0.7125
 9607TIP3    H228786   5.667   6.448   5.454 -0.9830 -0.2604  0.0142
 9608TIP3   OH228787   5.491   3.414   5.256 -0.6776  0.1875 -0.4613
 9608TIP3    H128788   5.477   3.364   5.336  0.5670  1.6609  0.7288
 9608TIP3    H228789   5.452   3.499   5.273  0.3551  0.8078 -1.1011
 9609TIP3   OH228790   5.779   1.180   1.100  0.0509  0.1497  0.7188
 9609TIP3    H128791   5.783   1.121   1.025 -1.0476  0.2148  0.5877
 9609TIP3    H228792   5.812   1.129   1.173 -1.1659 -0.7461  0.6698
 9610TIP3   OH228793   2.184   4.028   5.385 -0.2953  0.1937  0.5568
 9610TIP3    H128794   2.246   4.100   5.395  0.1067 -0.0918  0.1645
 9610TIP3    H228795   2.219   3.958   5.440  1.6369 -1.1933 -2.1817
 9611TIP3   OH228796   1.616   2.871   4.803  0.5038  0.0876 -0.4089
 9611TIP3    H128797   1.640   2.892   4.894 -0.0107  0.2349 -0.3024
 9611TIP3    H228798   1.660   2.788   4.786 -1.3176 -1.2033  0.8000
 9612TIP3   OH228799   3.112   2.166   1.765  0.2673 -0.1045  0.4382
 9612TIP3    H128800   3.065   2.110   1.828  1.7528 -0.8518  0.9206
 9612TIP3    H228801   3.137   2.243   1.816 -0.6430  0.4332  0.1040
 9613TIP3   OH228802   0.363   3.977   1.114 -0.0503  0.4952  0.0030
 9613TIP3    H128803   0.297   4.036   1.076  0.2018  0.3386 -0.6979
 9613TIP3    H228804   0.314   3.901   1.144 -0.3457  0.9406  0.6683
 9614TIP3   OH228805   2.051   6.565   4.761  0.8116 -0.3862 -0.5143
 9614TIP3    H128806   2.094   6.501   4.703 -0.2222 -0.9265 -0.7072
 9614TIP3    H228807   2.087   6.545   4.848 -0.4635 -2.1569 -0.3355
 9615TIP3   OH228808   2.216   5.260   0.594  0.9038 -0.6738  0.2884
 9615TIP3    H128809   2.156   5.323   0.555  0.0883 -1.3697  0.3881
 9615TIP3    H228810   2.291   5.258   0.535  0.1583 -0.9165 -0.6867
 9616TIP3   OH228811   7.158   4.824   2.104 -0.4217 -0.4939  0.3930
 9616TIP3    H128812   7.140   4.742   2.151  1.4066 -0.6318  0.9197
 9616TIP3    H228813   7.247   4.847   2.130 -0.4902  1.0588 -0.6636
 9617TIP3   OH228814   2.442   5.653   2.933 -0.2141  0.4688  0.0610
 9617TIP3    H128815   2.395   5.705   2.869  2.0819  1.1863 -1.1669
 9617TIP3    H228816   2.497   5.716   2.981  1.2055 -0.5460 -0.1588
 9618TIP3   OH228817   6.991   5.302   2.960  0.6591 -0.3137 -0.3367
 9618TIP3    H128818   6.961   5.356   3.033 -0.7807  2.3032 -2.6468
 9618TIP3    H228819   7.018   5.220   3.000 -3.0419 -0.2776  2.8368
 9619TIP3   OH228820   3.406   3.262   4.794  0.1733 -0.3803  0.2582
 9619TIP3    H128821   3.338   3.198   4.777  0.7619 -0.5188 -1.8553
 9619TIP3    H228822   3.359   3.345   4.807 -0.4309 -0.4873 -1.0999
 9620TIP3   OH228823   6.703   5.940  -0.001  0.0261  0.1908  0.0171
 9620TIP3    H128824   6.647   5.883  -0.054 -0.3678  1.2136 -0.7292
 9620TIP3    H228825   6.642   5.986   0.057  0.3824 -0.4136  0.8926
 9621TIP3   OH228826   5.344   5.746   2.690  0.4483 -0.2523 -0.2247
 9621TIP3    H128827   5.324   5.839   2.684 -0.3374 -0.4431 -0.6847
 9621TIP3    H228828   5.438   5.741   2.673  0.5915  0.5025  0.3171
 9622TIP3   OH228829   1.549   2.501   3.620  0.0826  0.6786 -0.4990
 9622TIP3    H128830   1.494   2.503   3.541 -1.8831 -0.9184  0.7125
 9622TIP3    H228831   1.518   2.575   3.672 -1.3515 -0.4721  0.3753
 9623TIP3   OH228832   4.058   0.042   5.716  0.4469  0.2371  0.2388
 9623TIP3    H128833   4.086   0.131   5.737  0.9293  0.2844 -0.5753
 9623TIP3    H228834   3.966   0.051   5.691 -0.1676  0.1741  2.2837
 9624TIP3   OH228835   1.043   1.852   1.418  0.1883 -0.4095  0.1155
 9624TIP3    H128836   1.030   1.767   1.377 -0.7662 -0.6351  0.8656
 9624TIP3    H228837   1.114   1.892   1.367 -3.2600  0.8771 -4.2638
 9625TIP3   OH228838   6.123   0.967   1.262  0.3043 -0.2811  0.4603
 9625TIP3    H128839   6.105   1.003   1.175  1.8180 -0.6469 -0.0211
 9625TIP3    H228840   6.084   0.879   1.260  2.0516 -1.0729 -0.5763
 9626TIP3   OH228841   6.299   4.823   4.566  0.0170  0.3142 -0.0693
 9626TIP3    H128842   6.335   4.856   4.484  1.3044 -1.5098 -0.2750
 9626TIP3    H228843   6.329   4.886   4.632  2.5604 -0.4008 -0.4292
 9627TIP3   OH228844   0.359   5.225   4.154 -0.1112 -0.2946  0.0431
 9627TIP3    H128845   0.389   5.314   4.134  0.5133 -0.6425 -0.6100
 9627TIP3    H228846   0.364   5.219   4.249  1.4887 -0.1788  0.0001
 9628TIP3   OH228847   0.449   4.209   2.659 -0.0510  0.1077  0.0502
 9628TIP3    H128848   0.430   4.115   2.651  0.3094  0.0685 -0.3503
 9628TIP3    H228849   0.503   4.230   2.583 -0.6003  0.7658 -0.1693
 9629TIP3   OH228850   1.285   0.469   4.157 -0.2952 -0.0168 -0.0822
 9629TIP3    H128851   1.207   0.450   4.209 -0.2681  0.3272  0.0814
 9629TIP3    H228852   1.310   0.384   4.121  0.1070 -0.3937  1.0437
 9630TIP3   OH228853   3.020   0.732   5.232 -0.8120 -0.3516 -0.2298
 9630TIP3    H128854   2.993   0.670   5.164 -0.4862 -0.5111 -0.2125
 9630TIP3    H228855   3.008   0.684   5.314 -2.4380  0.2655 -0.0698
 9631TIP3   OH228856   3.809   1.346   2.323  0.3647 -0.1439 -0.3927
 9631TIP3    H128857   3.762   1.280   2.274 -0.2647 -1.1792  1.5103
 9631TIP3    H228858   3.866   1.297   2.382  0.7067  1.0356  0.3037
 9632TIP3   OH228859   7.157   1.257   1.089 -0.1524 -0.1864  0.1662
 9632TIP3    H128860   7.102   1.267   1.167  0.3144  2.0101  0.2835
 9632TIP3    H228861   7.104   1.293   1.017  0.3306  0.0554 -0.0791
 9633TIP3   OH228862   5.993   3.783   4.837 -0.0454  0.0015 -0.0333
 9633TIP3    H128863   5.992   3.869   4.795  0.4949 -0.7744 -1.7207
 9633TIP3    H228864   6.086   3.765   4.852 -0.1864 -0.0904  0.7465
 9634TIP3   OH228865   1.084   3.473   3.834  0.3548 -0.2991 -0.6809
 9634TIP3    H128866   1.125   3.386   3.837  0.5446 -0.2090  1.4141
 9634TIP3    H228867   1.002   3.460   3.787 -0.9834 -2.3111  1.9607
 9635TIP3   OH228868   2.105   0.621   0.527 -0.4870  0.5952  0.5939
 9635TIP3    H128869   2.012   0.646   0.528 -0.4870  0.6249 -0.0179
 9635TIP3    H228870   2.140   0.657   0.609 -0.6571  1.9801  0.0794
 9636TIP3   OH228871   7.152   6.473   1.406  0.1564 -0.2780  0.4904
 9636TIP3    H128872   7.211   6.542   1.374 -0.5109 -0.4697 -1.2818
 9636TIP3    H228873   7.206   6.394   1.407  0.5063 -0.0362  1.0094
 9637TIP3   OH228874   0.416   4.891   0.078  0.0329  0.3011 -0.4949
 9637TIP3    H128875   0.511   4.896   0.090  0.0699 -1.1046 -0.0668
 9637TIP3    H228876   0.403   4.913  -0.015  0.6579  1.5192 -0.3214
 9638TIP3   OH228877   1.972   1.348   5.455  0.0103 -0.1466 -0.5468
 9638TIP3    H128878   1.967   1.432   5.501 -0.6501 -1.7485  2.6175
 9638TIP3    H228879   2.059   1.314   5.476 -0.3057 -0.9277 -0.4771
 9639TIP3   OH228880   6.420   3.104   1.109 -0.0200  0.6305  0.2450
 9639TIP3    H128881   6.512   3.078   1.117  0.2305  1.0013 -1.2472
 9639TIP3    H228882   6.383   3.043   1.046 -0.0795  2.1988 -1.2964
 9640TIP3   OH228883   1.485   5.125   2.477  0.2327 -0.7036 -0.0247
 9640TIP3    H128884   1.419   5.194   2.466 -1.0015 -2.1042 -2.1273
 9640TIP3    H228885   1.561   5.170   2.514 -0.9739  1.4980 -0.0427
 9641TIP3   OH228886   4.992   1.247   5.417  0.2036  0.1772  0.3961
 9641TIP3    H128887   5.066   1.303   5.391  0.8265 -0.9778 -0.3837
 9641TIP3    H228888   4.968   1.201   5.337 -0.1094 -0.8864  1.0830
 9642TIP3   OH228889   7.220   1.767   2.580 -0.4642  0.4757  0.0013
 9642TIP3    H128890   7.185   1.782   2.668  0.5738  0.4133  0.4451
 9642TIP3    H228891   7.196   1.845   2.531  1.3328  1.8511  1.1392
 9643TIP3   OH228892   1.414   1.033   0.803 -0.3499 -0.2428  0.2589
 9643TIP3    H128893   1.461   0.979   0.865  0.3346  2.5949  2.4388
 9643TIP3    H228894   1.460   1.117   0.804 -4.1967  2.1300  1.1219
 9644TIP3   OH228895   2.309   6.206   0.868 -0.4771 -0.6414 -0.1710
 9644TIP3    H128896   2.296   6.245   0.954 -0.0634 -1.1586  0.1317
 9644TIP3    H228897   2.230   6.154   0.853 -0.7857 -0.1312 -0.3383
 9645TIP3   OH228898   4.197   6.559   4.839 -0.0408  0.4166  0.0446
 9645TIP3    H128899   4.261   6.495   4.870 -0.3859  0.5754  1.1210
 9645TIP3    H228900   4.116   6.536   4.885 -0.3855  1.0950 -0.2105
 9646TIP3   OH228901   5.560   6.634   5.759  0.6089 -0.0265 -0.0492
 9646TIP3    H128902   5.588   6.582   5.684 -1.4469 -0.2293 -0.7358
 9646TIP3    H228903   5.494   6.580   5.803  0.6731  0.7290  1.0219
 9647TIP3   OH228904   1.513   3.334   0.310  0.3949  0.5217 -0.9092
 9647TIP3    H128905   1.497   3.374   0.395  0.1223 -0.6328 -0.3891
 9647TIP3    H228906   1.463   3.387   0.248 -0.2931  0.7289 -0.1902
 9648TIP3   OH228907   5.016   5.613   3.205  0.0179  0.0348 -0.1451
 9648TIP3    H128908   5.090   5.568   3.244  2.6295  2.5765 -1.7204
 9648TIP3    H228909   5.018   5.701   3.244 -0.2234  1.1168 -2.3816
 9649TIP3   OH228910   6.534   0.295   5.599 -0.0936 -0.8751 -0.2971
 9649TIP3    H128911   6.474   0.353   5.552  0.3453 -0.7647 -0.7283
 9649TIP3    H228912   6.536   0.215   5.547 -0.3086 -1.0918  0.0262
 9650TIP3   OH228913   3.941   3.391   0.807  0.2740 -0.1574 -0.3907
 9650TIP3    H128914   4.014   3.351   0.760 -0.1612 -1.1962 -0.2054
 9650TIP3    H228915   3.954   3.485   0.797  1.6254 -0.3297 -0.3839
 9651TIP3   OH228916   0.788   6.007   0.752  0.0945 -0.0474 -0.3313
 9651TIP3    H128917   0.746   5.924   0.772 -0.5688  0.3766  0.0818
 9651TIP3    H228918   0.788   6.012   0.656 -0.3875 -0.2615 -0.3455
 9652TIP3   OH228919   6.332   5.205   3.344 -0.0402  0.3008 -0.3068
 9652TIP3    H128920   6.395   5.139   3.317 -1.0893 -1.6057  1.6074
 9652TIP3    H228921   6.384   5.282   3.365  1.2193  0.1543 -2.5942
 9653TIP3   OH228922   3.725   0.819   3.462  0.0775  0.2571 -0.3901
 9653TIP3    H128923   3.633   0.827   3.484  0.4941  0.4573  1.4710
 9653TIP3    H228924   3.769   0.806   3.546  1.5937 -1.4390 -1.3625
 9654TIP3   OH228925   0.440   1.018   0.621 -0.7239 -0.4665  0.3719
 9654TIP3    H128926   0.534   1.019   0.640 -0.8288  0.6733  0.9091
 9654TIP3    H228927   0.426   1.094   0.564 -1.3492 -0.5049  0.4726
 9655TIP3   OH228928   2.768   6.489   1.999 -0.7225 -0.1162  0.0935
 9655TIP3    H128929   2.694   6.482   2.059 -2.1201  2.6278 -1.1457
 9655TIP3    H228930   2.731   6.468   1.913  0.6567 -1.4650 -0.2252
 9656TIP3   OH228931   6.415   5.026   2.656  0.4765  0.1571  0.0064
 9656TIP3    H128932   6.356   4.979   2.596  1.4003 -0.4272 -0.4674
 9656TIP3    H228933   6.431   5.110   2.614  1.5893 -0.4813 -0.8672
 9657TIP3   OH228934   5.918   0.244   1.264 -0.2244  0.0471  0.0388
 9657TIP3    H128935   6.013   0.234   1.257 -0.1056  0.6035  0.7287
 9657TIP3    H228936   5.902   0.258   1.357 -1.1145 -1.3042  0.1307
 9658TIP3   OH228937   0.776   0.247   3.771  0.4468  0.0615 -0.8579
 9658TIP3    H128938   0.777   0.291   3.686 -2.6358 -0.3998 -1.2714
 9658TIP3    H228939   0.695   0.195   3.769  1.1772 -1.3293  1.7102
 9659TIP3   OH228940   1.269   5.798   1.077  0.0103 -0.1968 -0.0542
 9659TIP3    H128941   1.344   5.841   1.037  1.1895 -2.5715 -0.5727
 9659TIP3    H228942   1.227   5.752   1.004  0.1175 -1.7100  0.8092
 9660TIP3   OH228943   0.528   5.303   0.843  0.5376  0.8405  0.4435
 9660TIP3    H128944   0.480   5.220   0.834  0.5331  1.0361 -2.2712
 9660TIP3    H228945   0.494   5.343   0.923  0.3428 -1.6164  1.6927
 9661TIP3   OH228946   0.508   5.381   1.107 -0.2542 -0.2903  0.5751
 9661TIP3    H128947   0.529   5.333   1.187 -0.0458 -0.4220  0.4447
 9661TIP3    H228948   0.420   5.414   1.121 -0.6886 -1.3224  0.3907
 9662TIP3   OH228949   1.491   4.979   5.679  0.5611 -0.0432  0.1147
 9662TIP3    H128950   1.472   4.953   5.769  0.4010 -0.5215 -0.0561
 9662TIP3    H228951   1.502   5.074   5.684 -1.7430  0.2771  0.2481
 9663TIP3   OH228952   1.601   5.186   1.655  0.2788 -0.2487  0.1943
 9663TIP3    H128953   1.582   5.102   1.614 -2.3940  0.4973 -0.3451
 9663TIP3    H228954   1.608   5.166   1.749 -0.0025 -1.1157  0.0397
 9664TIP3   OH228955   5.873   1.045   4.910 -0.3193 -0.1096 -0.5138
 9664TIP3    H128956   5.916   1.014   4.990  0.2600 -0.7444 -1.0529
 9664TIP3    H228957   5.938   1.103   4.869 -0.0931 -0.8061 -1.1626
 9665TIP3   OH228958   6.209   5.546   4.221 -0.0156 -0.0600 -0.8481
 9665TIP3    H128959   6.227   5.475   4.160  0.3345  0.7928 -1.7495
 9665TIP3    H228960   6.144   5.509   4.281  0.4620 -1.2723 -1.0426
 9666TIP3   OH228961   1.444   6.026   0.315  0.2891 -0.7174  0.3072
 9666TIP3    H128962   1.372   5.965   0.328  0.5819 -0.9054  1.0905
 9666TIP3    H228963   1.431   6.060   0.226 -0.2881 -1.3694  0.1348
 9667TIP3   OH228964   7.070   2.946   0.519  0.6783  0.1261  0.3933
 9667TIP3    H128965   6.979   2.942   0.548  0.5264  1.6743  0.2115
 9667TIP3    H228966   7.121   2.944   0.599  0.5518 -1.6156  0.4666
 9668TIP3   OH228967   5.863   2.598   5.210  0.3960  0.3560  0.6804
 9668TIP3    H128968   5.914   2.640   5.280 -0.2151  2.2156  0.0941
 9668TIP3    H228969   5.817   2.526   5.254 -0.9541  2.2059  2.5680
 9669TIP3   OH228970   4.011   5.377   0.795  0.1958  0.3878 -0.2236
 9669TIP3    H128971   3.936   5.361   0.853  0.6340 -1.9137 -0.2047
 9669TIP3    H228972   4.084   5.390   0.855  0.2470  0.2176 -0.2492
 9670TIP3   OH228973   0.528   0.072   3.815  0.1909 -0.3191 -0.1822
 9670TIP3    H128974   0.561   0.041   3.731 -0.2073 -0.9813 -0.1051
 9670TIP3    H228975   0.445   0.025   3.827 -1.2116  1.8471 -0.7338
 9671TIP3   OH228976   5.049   1.153   0.544  0.0299 -0.1097 -0.0433
 9671TIP3    H128977   5.051   1.227   0.484  2.2538 -0.4516 -0.4817
 9671TIP3    H228978   4.995   1.182   0.617  0.4776  1.7844 -0.4209
 9672TIP3   OH228979   2.003   1.866   3.596 -0.4443 -0.6528  0.4143
 9672TIP3    H128980   1.985   1.949   3.639 -0.1599 -0.4259  0.1020
 9672TIP3    H228981   1.944   1.803   3.638 -1.2955 -0.1115  0.0400
 9673TIP3   OH228982   5.610   6.528   0.120 -0.3581  0.8522 -0.0682
 9673TIP3    H128983   5.638   6.447   0.164 -2.4206  0.4599  0.6325
 9673TIP3    H228984   5.666   6.532   0.042 -0.0259 -1.1276 -0.0064
 9674TIP3   OH228985   7.050   3.077   1.315  0.2436  0.1800  1.1737
 9674TIP3    H128986   7.132   3.051   1.358  0.1404 -0.0604  1.2230
 9674TIP3    H228987   7.040   3.170   1.337  0.5883  0.2518  1.0329
 9675TIP3   OH228988   6.076   1.177   4.230 -0.0064 -0.1926  0.3266
 9675TIP3    H128989   6.078   1.128   4.147  0.2077 -0.3526  0.4232
 9675TIP3    H228990   5.984   1.199   4.243 -0.2903 -1.5892  0.8691
 9676TIP3   OH228991   3.057   4.593   2.262 -0.1643 -0.1526 -0.4628
 9676TIP3    H128992   3.005   4.513   2.254  0.6359 -0.7126 -0.1473
 9676TIP3    H228993   3.045   4.620   2.353 -2.3651  1.4598 -1.1301
 9677TIP3   OH228994   1.782   3.660   5.463  0.3630 -0.5094 -0.8521
 9677TIP3    H128995   1.729   3.708   5.526  0.6509  0.2852 -1.1934
 9677TIP3    H228996   1.771   3.708   5.381  0.9997 -0.7755 -1.1013
 9678TIP3   OH228997   7.175   1.514   5.268 -0.2972  0.2255 -0.0679
 9678TIP3    H128998   7.115   1.474   5.332  0.1125 -0.4176 -0.0802
 9678TIP3    H228999   7.256   1.529   5.317  0.6447 -1.9397 -0.8607
 9679TIP3   OH229000   0.434   3.016   1.703  0.1243  0.0402  0.0045
 9679TIP3    H129001   0.458   2.924   1.706  0.3561  0.1056  0.1541
 9679TIP3    H229002   0.374   3.027   1.778 -0.0697 -0.0342 -0.1377
 9680TIP3   OH229003   5.306   4.790   4.057 -0.2359 -0.5587  0.3032
 9680TIP3    H129004   5.329   4.699   4.076  0.9396 -0.7562 -1.8411
 9680TIP3    H229005   5.286   4.828   4.143  1.5106 -2.2373  1.5335
 9681TIP3   OH229006   4.189   6.762   5.222 -0.8987 -0.4846 -0.6897
 9681TIP3    H129007   4.202   6.803   5.137  0.3846 -1.1123 -0.8235
 9681TIP3    H229008   4.207   6.670   5.207  1.0590 -0.3717  0.5749
 9682TIP3   OH229009   5.600   1.773   5.136  0.2156  0.1047  0.3727
 9682TIP3    H129010   5.637   1.859   5.154  2.2484 -0.8887  1.2970
 9682TIP3    H229011   5.511   1.791   5.103  1.1096  2.5812 -0.9382
 9683TIP3   OH229012   6.475   1.939   0.310 -0.5686  0.3737 -0.2016
 9683TIP3    H129013   6.559   1.968   0.345 -1.4012  0.4564  1.8876
 9683TIP3    H229014   6.467   1.984   0.226  0.8713  1.4330  0.1872
 9684TIP3   OH229015   1.875   5.211   1.622 -0.0399 -0.0950  1.3693
 9684TIP3    H129016   1.779   5.208   1.615 -0.0090  1.6146 -1.2538
 9684TIP3    H229017   1.904   5.129   1.584 -0.4348 -0.6440  2.2172
 9685TIP3   OH229018   6.171   0.631   4.619  0.5480  0.8767 -0.3233
 9685TIP3    H129019   6.158   0.562   4.683  0.2886 -1.0700 -2.3639
 9685TIP3    H229020   6.086   0.642   4.577  0.4984  2.7003  0.1596
 9686TIP3   OH229021   6.732   0.667   4.093 -0.1750  0.1535  0.0891
 9686TIP3    H129022   6.707   0.710   4.011  0.0304 -1.0050 -0.6086
 9686TIP3    H229023   6.740   0.738   4.156 -0.2467  1.0853 -0.9199
 9687TIP3   OH229024   2.944   4.092   0.674  0.2940 -0.1006  0.2370
 9687TIP3    H129025   3.037   4.115   0.679  0.2280  0.7232 -1.5188
 9687TIP3    H229026   2.940   4.018   0.614 -0.1624 -0.3934  0.6169
 9688TIP3   OH229027   2.384   5.712   3.327 -0.2174 -0.0356 -0.3855
 9688TIP3    H129028   2.326   5.651   3.280 -1.2708  1.0091 -0.4748
 9688TIP3    H229029   2.331   5.791   3.339  1.4646  1.2746 -1.2304
 9689TIP3   OH229030   0.654   0.164   2.008 -0.2821 -0.5856  0.0191
 9689TIP3    H129031   0.692   0.204   1.929 -0.3550 -0.6875 -0.0680
 9689TIP3    H229032   0.563   0.193   2.009  0.0631  0.5606  0.8211
 9690TIP3   OH229033   6.756   5.388   5.872  0.4528  0.3016 -0.2062
 9690TIP3    H129034   6.712   5.375   5.788 -1.4156 -0.1227  0.8017
 9690TIP3    H229035   6.810   5.466   5.858 -4.0034  3.7601 -0.3278
 9691TIP3   OH229036   1.706   1.039   1.633 -0.6618  0.4722 -0.0330
 9691TIP3    H129037   1.635   1.003   1.579 -1.3485  0.2513  0.9984
 9691TIP3    H229038   1.701   1.133   1.620  0.1986  0.3503 -1.5841
 9692TIP3   OH229039   5.506   5.559   0.060  0.3042  0.6800 -0.3366
 9692TIP3    H129040   5.543   5.641   0.027  0.6159  0.3517 -0.8243
 9692TIP3    H229041   5.549   5.491   0.007  1.1612  0.1061  1.0460
 9693TIP3   OH229042   4.943  -0.025   1.129  0.1876 -0.3082 -0.5955
 9693TIP3    H129043   4.933  -0.001   1.221  1.2145  1.0512 -0.7976
 9693TIP3    H229044   4.961   0.058   1.084 -1.8450 -0.6954 -2.2902
 9694TIP3   OH229045   2.454   2.535   1.456  0.0116 -0.0536 -0.4945
 9694TIP3    H129046   2.381   2.586   1.420  0.5495 -0.7392 -2.7271
 9694TIP3    H229047   2.414   2.454   1.486 -0.7936  1.3858  2.7400
 9695TIP3   OH229048   0.958   6.264   1.939 -0.4101  0.4594 -0.0676
 9695TIP3    H129049   0.879   6.270   1.992 -0.8182 -0.5231 -0.5347
 9695TIP3    H229050   0.928   6.226   1.856  0.9331 -2.4412  0.6461
 9696TIP3   OH229051   2.632   2.370   0.717 -0.8287  0.1595  0.4588
 9696TIP3    H129052   2.657   2.449   0.669  2.3342 -0.8017  0.2373
 9696TIP3    H229053   2.588   2.315   0.652  0.0005  0.4039 -0.3308
 9697TIP3   OH229054   2.988   1.722   0.315  0.0906 -0.1743 -0.6936
 9697TIP3    H129055   2.965   1.811   0.340 -0.0821 -0.1395 -0.9759
 9697TIP3    H229056   3.084   1.722   0.312  0.0917 -0.0082 -0.6593
 9698TIP3   OH229057   5.278   5.306   2.271 -0.2002 -0.4442 -0.3767
 9698TIP3    H129058   5.188   5.276   2.259 -0.5309  0.6314 -0.7741
 9698TIP3    H229059   5.318   5.242   2.330 -1.5198 -0.4050  0.5957
 9699TIP3   OH229060   1.183   4.939   5.272 -0.5717  0.0185 -0.3489
 9699TIP3    H129061   1.102   4.894   5.249 -1.0941  0.8246 -0.1199
 9699TIP3    H229062   1.187   5.013   5.211  0.8670 -0.9432 -1.5023
 9700TIP3   OH229063   2.621   4.363   4.045 -0.1591 -0.0823 -0.2439
 9700TIP3    H129064   2.652   4.349   4.134 -1.6184  0.1597  0.3458
 9700TIP3    H229065   2.542   4.310   4.039 -0.6215  0.6629 -1.0559
 9701TIP3   OH229066   0.346   3.065   2.431  0.2836 -0.1246 -0.1450
 9701TIP3    H129067   0.323   3.040   2.521 -1.0840 -0.8216 -0.6635
 9701TIP3    H229068   0.351   3.161   2.434 -0.6164 -0.0853  0.4925
 9702TIP3   OH229069   5.760   1.383   0.898 -0.2208 -0.1341  0.2000
 9702TIP3    H129070   5.736   1.331   0.975 -0.8469 -0.4033 -0.1685
 9702TIP3    H229071   5.713   1.465   0.910 -2.6285 -1.1926 -1.2405
 9703TIP3   OH229072   1.052   6.730   5.733  0.0036 -0.6452 -0.1566
 9703TIP3    H129073   1.002   6.807   5.704  0.2819 -0.4560 -0.1441
 9703TIP3    H229074   0.990   6.680   5.786 -0.2857 -0.6090 -0.4519
 9704TIP3   OH229075   0.902   0.879   5.477  0.5047 -0.1679 -0.4912
 9704TIP3    H129076   0.953   0.896   5.556 -0.7094  5.2974 -0.5403
 9704TIP3    H229077   0.821   0.838   5.509  1.0667 -0.3545  0.7409
 9705TIP3   OH229078   1.789   6.260   4.875 -1.0334 -0.0743 -0.6543
 9705TIP3    H129079   1.699   6.251   4.843 -0.9112 -0.9783 -0.7805
 9705TIP3    H229080   1.842   6.213   4.810 -0.3184  1.4421 -1.2073
 9706TIP3   OH229081   4.808   0.514   2.047 -0.1825 -0.4938  0.3440
 9706TIP3    H129082   4.842   0.444   1.991  0.0413 -0.3981  0.3609
 9706TIP3    H229083   4.722   0.535   2.009 -0.1499 -0.6193  0.2001
 9707TIP3   OH229084   4.004   4.841   2.988 -0.1678 -0.3172  0.4995
 9707TIP3    H129085   3.986   4.924   3.033 -0.0447 -0.8109  1.5048
 9707TIP3    H229086   4.075   4.862   2.927 -2.0356  0.9449 -1.3474
 9708TIP3   OH229087   5.726   0.026   2.570  0.4254 -0.3209 -0.6117
 9708TIP3    H129088   5.694   0.061   2.487 -0.4293 -0.2904 -0.2749
 9708TIP3    H229089   5.665   0.059   2.636  0.3704 -1.3439 -0.1265
 9709TIP3   OH229090   1.243   4.110   1.528 -0.5236 -0.4254  0.0861
 9709TIP3    H129091   1.289   4.141   1.450  0.9082 -1.2459  0.5704
 9709TIP3    H229092   1.241   4.186   1.586  0.2545 -0.3807  0.0609
 9710TIP3   OH229093   6.330   5.238   0.056  0.0114 -0.1833 -0.0078
 9710TIP3    H129094   6.353   5.148   0.078 -0.0041 -0.0902  0.4040
 9710TIP3    H229095   6.269   5.265   0.125  0.6685  0.4161  0.3581
 9711TIP3   OH229096   4.899   3.703   5.145  0.1253  0.2345  0.8931
 9711TIP3    H129097   4.809   3.681   5.171 -0.5533  0.6203 -0.9480
 9711TIP3    H229098   4.890   3.740   5.057  2.1172  0.0950  0.5808
 9712TIP3   OH229099   3.764   5.226   3.971 -0.5825  0.3420  0.4650
 9712TIP3    H129100   3.816   5.306   3.971 -1.2362  0.7956  1.8840
 9712TIP3    H229101   3.776   5.189   4.058 -0.8854 -0.7345  0.0779
 9713TIP3   OH229102   4.955   2.959   4.524  1.0052  0.0086 -0.0889
 9713TIP3    H129103   4.885   2.970   4.459 -0.7900  0.1740  1.7825
 9713TIP3    H229104   4.988   3.048   4.538  0.0627  0.2628  0.6085
 9714TIP3   OH229105   3.003   0.662   1.746  0.0730 -0.6190 -0.0403
 9714TIP3    H129106   3.006   0.705   1.832 -0.9840 -2.0769  0.7725
 9714TIP3    H229107   3.095   0.642   1.726  0.3345 -0.2231  0.7451
 9715TIP3   OH229108   5.941   2.915   5.444  0.3064  0.1521 -0.0848
 9715TIP3    H129109   5.953   2.881   5.533 -0.2413 -1.0993 -0.4806
 9715TIP3    H229110   5.994   2.858   5.389 -0.6543 -0.1089 -0.7590
 9716TIP3   OH229111   5.899   0.330   2.819  0.0759 -0.1678  0.9479
 9716TIP3    H129112   5.930   0.244   2.792  0.3362  0.0938  0.3995
 9716TIP3    H229113   5.953   0.353   2.895  0.0281 -0.4710  1.0726
 9717TIP3   OH229114   6.605   4.581   5.084  0.4743 -0.0800  0.0489
 9717TIP3    H129115   6.669   4.514   5.108  0.5298  0.3875  1.3370
 9717TIP3    H229116   6.536   4.574   5.151  0.2401  0.8034 -0.0765
 9718TIP3   OH229117   0.399   5.360   3.776  0.4943 -0.0572  0.1133
 9718TIP3    H129118   0.458   5.340   3.704  3.4881 -0.3703  2.4757
 9718TIP3    H229119   0.391   5.278   3.824 -1.4286  0.1506  0.2153
 9719TIP3   OH229120   5.924   1.969   1.223 -0.1275 -0.2987  0.4169
 9719TIP3    H129121   5.838   1.981   1.182  0.0924 -0.3203 -0.0518
 9719TIP3    H229122   5.910   1.993   1.315 -0.4168  0.6248  0.1404
 9720TIP3   OH229123   4.421   5.301   2.543  0.0769  0.0410  0.5189
 9720TIP3    H129124   4.463   5.387   2.544  0.7633 -0.2896  1.3475
 9720TIP3    H229125   4.366   5.300   2.621 -0.3247 -0.0914  0.2386
 9721TIP3   OH229126   2.432   0.001   1.059  0.6235  0.3986 -0.0411
 9721TIP3    H129127   2.358  -0.056   1.039  0.0794  0.7737  0.8519
 9721TIP3    H229128   2.393   0.087   1.074  1.3864  0.9080 -0.9066
 9722TIP3   OH229129   6.182   5.356   5.749  0.3059  0.4060 -0.5675
 9722TIP3    H129130   6.135   5.390   5.673  0.1577  0.1184 -0.6048
 9722TIP3    H229131   6.269   5.396   5.743  0.1412  0.7618 -0.6221
 9723TIP3   OH229132   3.023   2.997   5.799 -0.2348 -0.5608  0.8134
 9723TIP3    H129133   3.102   2.943   5.806 -0.5521 -1.2215 -0.4530
 9723TIP3    H229134   3.041   3.055   5.724 -0.7589 -0.3879  0.8207
 9724TIP3   OH229135   6.851   4.900   2.507 -0.0067 -0.0608  0.2660
 9724TIP3    H129136   6.809   4.825   2.549 -1.3695  0.7773  0.4477
 9724TIP3    H229137   6.822   4.976   2.559 -1.6123  1.0090 -2.0279
 9725TIP3   OH229138   4.455   5.914   0.354  0.5662  0.0417  0.1186
 9725TIP3    H129139   4.540   5.952   0.375  0.6737 -0.9144  1.6059
 9725TIP3    H229140   4.440   5.850   0.424 -1.6270  0.5666  0.1807
 9726TIP3   OH229141   6.354   2.319   1.316  0.3950 -0.6146  0.0523
 9726TIP3    H129142   6.305   2.256   1.263 -0.1794  0.5790 -0.9140
 9726TIP3    H229143   6.304   2.400   1.308  0.6963 -0.2211  1.8901
 9727TIP3   OH229144   5.324   6.492   3.049  0.2301 -0.3596 -0.1393
 9727TIP3    H129145   5.376   6.504   2.970  0.0180  2.0143  0.0180
 9727TIP3    H229146   5.263   6.421   3.027  0.9552 -0.5457 -1.6659
 9728TIP3   OH229147   4.837   3.324   2.984  0.0614 -0.0715  0.3344
 9728TIP3    H129148   4.865   3.244   2.940  2.3740  0.5305  0.6214
 9728TIP3    H229149   4.904   3.340   3.050 -1.6113  0.8456  1.8946
 9729TIP3   OH229150   7.122   5.723   0.506  0.1971 -0.2358  0.1330
 9729TIP3    H129151   7.082   5.647   0.549  0.3521 -0.0401  0.6335
 9729TIP3    H229152   7.163   5.771   0.577  0.5362  0.0502 -0.2548
 9730TIP3   OH229153   1.716   6.061   5.377  0.8006  0.0434  0.1786
 9730TIP3    H129154   1.712   6.133   5.439  1.3945  0.1706  0.0761
 9730TIP3    H229155   1.747   6.100   5.296  0.9644 -0.2940  0.0742
 9731TIP3   OH229156   1.021   4.186   1.098 -0.2102 -0.1678  0.0118
 9731TIP3    H129157   1.097   4.224   1.054  0.0140  0.6150  1.0414
 9731TIP3    H229158   1.015   4.097   1.064  1.8699 -0.6393  0.7682
 9732TIP3   OH229159   3.391   6.066   3.740  0.0145 -0.0719 -0.0925
 9732TIP3    H129160   3.380   6.109   3.825 -0.2837 -1.1359  0.4106
 9732TIP3    H229161   3.304   6.034   3.717  0.2150 -0.3187 -0.5174
 9733TIP3   OH229162   5.586   6.084   3.897  0.1548  0.2653  0.1366
 9733TIP3    H129163   5.633   6.091   3.814 -0.9278  0.7904 -0.4460
 9733TIP3    H229164   5.522   6.014   3.883 -1.1219  1.4360 -0.0344
 9734TIP3   OH229165   6.298   1.793   2.698 -0.8102 -0.4067 -0.1267
 9734TIP3    H129166   6.211   1.789   2.737 -1.1006 -0.0914 -0.7130
 9734TIP3    H229167   6.288   1.749   2.613 -0.1053 -1.4121  0.3019
 9735TIP3   OH229168   4.280   0.001   0.840 -0.6821 -0.4600 -0.0215
 9735TIP3    H129169   4.321   0.087   0.844  0.9364 -1.2374  1.9276
 9735TIP3    H229170   4.186   0.019   0.836 -0.5503  1.4643  2.7469
 9736TIP3   OH229171   1.463   5.136   0.222  0.5830 -0.3846  0.1314
 9736TIP3    H129172   1.459   5.109   0.130  0.6041 -1.4786  0.4363
 9736TIP3    H229173   1.423   5.063   0.270  0.5906  0.1678  0.9947
 9737TIP3   OH229174   7.167   4.888   0.371 -0.4310 -0.2711 -0.0967
 9737TIP3    H129175   7.164   4.911   0.464 -1.8869  2.0372 -0.6210
 9737TIP3    H229176   7.257   4.860   0.356 -0.4225 -1.7086  2.1854
 9738TIP3   OH229177   2.360   4.100   3.168 -0.6605 -0.4004  0.3346
 9738TIP3    H129178   2.393   4.017   3.201 -1.2253 -1.1996 -1.0231
 9738TIP3    H229179   2.333   4.081   3.078 -1.0245  1.1959  0.0775
 9739TIP3   OH229180   4.329   5.580   3.301  0.5043  0.5834  0.0099
 9739TIP3    H129181   4.314   5.504   3.244  0.5623 -0.6540  1.5976
 9739TIP3    H229182   4.408   5.558   3.350 -2.2935 -0.8665  4.3879
 9740TIP3   OH229183   2.405   3.120   5.442 -0.3823 -0.3023  0.0900
 9740TIP3    H129184   2.473   3.173   5.484 -0.2571 -1.4091  1.3453
 9740TIP3    H229185   2.454   3.050   5.397 -0.6723 -1.2033  1.1399
 9741TIP3   OH229186   7.181   6.588   0.827 -0.3825 -0.5723 -0.2519
 9741TIP3    H129187   7.223   6.671   0.806 -1.6305  0.9109  2.5746
 9741TIP3    H229188   7.164   6.548   0.742  0.1087  2.1286 -1.7425
 9742TIP3   OH229189   5.280   0.733   4.751 -0.0003 -0.0304 -0.1273
 9742TIP3    H129190   5.373   0.714   4.738  0.0371  0.5410 -0.7937
 9742TIP3    H229191   5.278   0.795   4.824  0.1550  0.0525 -0.1923
 9743TIP3   OH229192   0.931   3.664   1.924  0.0297 -0.2998 -0.0083
 9743TIP3    H129193   0.970   3.688   1.840 -0.5990 -1.8828 -0.7914
 9743TIP3    H229194   1.003   3.629   1.975  1.5113  4.8512  2.0241
 9744TIP3   OH229195   6.147   0.438   5.129 -0.3441  0.4359  0.1671
 9744TIP3    H129196   6.165   0.356   5.084  1.9029  0.8721  0.1805
 9744TIP3    H229197   6.079   0.415   5.193 -1.2135 -0.9165 -1.1632
 9745TIP3   OH229198   6.700   0.862   0.211  0.7231 -0.3093  0.2882
 9745TIP3    H129199   6.795   0.873   0.211  0.7888 -0.8074 -0.2099
 9745TIP3    H229200   6.666   0.950   0.226  1.2465  0.3320 -1.8833
 9746TIP3   OH229201   6.141   3.898   4.496  1.1086  0.2397  0.0178
 9746TIP3    H129202   6.215   3.887   4.556  0.2154 -1.5989  0.8591
 9746TIP3    H229203   6.064   3.896   4.552  0.3331  0.1782 -1.0284
 9747TIP3   OH229204   3.620   5.468   1.958 -0.5838  0.0736  0.1266
 9747TIP3    H129205   3.634   5.434   1.870 -0.1304  0.7987 -0.0925
 9747TIP3    H229206   3.639   5.561   1.951  0.4291 -0.0240  1.1969
 9748TIP3   OH229207   6.000   6.345   1.680 -0.2026  0.2264 -0.0276
 9748TIP3    H129208   6.013   6.357   1.586  1.0808 -0.0187  0.0937
 9748TIP3    H229209   6.021   6.430   1.719 -1.4385  0.5354 -0.0091
 9749TIP3   OH229210   1.262   4.173   2.436 -0.0353  0.7490 -0.1049
 9749TIP3    H129211   1.239   4.164   2.344  1.5649  2.7125 -0.7465
 9749TIP3    H229212   1.282   4.084   2.465  0.4933  0.2474 -1.9370
   7.21546   6.80281   5.89139   0.00000   0.00000  -2.40515   0.00000  -2.40515  -3.40139
